
.Version 9.3.1 of ABINIT 
.(MPI version, prepared for a x86_64_linux_gnu9.3 computer) 

.Copyright (C) 1998-2020 ABINIT group . 
 ABINIT comes with ABSOLUTELY NO WARRANTY.
 It is free software, and you are welcome to redistribute it
 under certain conditions (GNU General Public License,
 see ~abinit/COPYING or http://www.gnu.org/copyleft/gpl.txt).

 ABINIT is a project of the Universite Catholique de Louvain,
 Corning Inc. and other collaborators, see ~abinit/doc/developers/contributors.txt .
 Please read https://docs.abinit.org/theory/acknowledgments for suggested
 acknowledgments of the ABINIT effort.
 For more information, see https://www.abinit.org .

.Starting date : Tue 10 Nov 2020.
- ( at 22h17 )
  
- input  file    -> /home/buildbot/ABINIT/alps_gnu_9.3_openmpi/trunk_rel2dev/tests/TestBot_MPI1/fast_t02/t02.in
- output file    -> t02.out
- root for input  files -> t02i
- root for output files -> t02o


 Symmetries : space group P1 (#  1); Bravais aP (primitive triclinic)
================================================================================
 Values of the parameters that define the memory need of the present run
     intxc =       1    ionmov =       0      iscf =       7    lmnmax =       1
     lnmax =       1     mgfft =      72  mpssoang =       1    mqgrid =    3001
     natom =       2  nloc_mem =       1    nspden =       1   nspinor =       1
    nsppol =       1      nsym =       1    n1xccc =       0    ntypat =       1
    occopt =       0   xclevel =       1
-    mband =           1        mffmem =           1         mkmem =           1
       mpw =         392          nfft =      165888          nkpt =           1
================================================================================
P This job should need less than                      41.143 Mbytes of memory.
P Max. in main chain + fourwf.f
P            6 blocks of mpw  integer numbers, for      0.009 Mbytes.
P           23 blocks of mpw  real(dp)  numbers, for      0.069 Mbytes.
P           32 blocks of nfft real(dp)  numbers, for     40.500 Mbytes.
P              Additional     real(dp)  numbers, for      0.328 Mbytes.
P              With residue estimated to be             0.237 Mbytes.
P
P Comparison of the memory needs of different chains
P Main chain + fourwf.f                41.143 Mbytes.
P Main chain + nonlop.f + opernl.f     36.054 Mbytes.
P XC chain                             39.721 Mbytes.
P mkrho chain                          34.754 Mbytes.
P fourdp chain                         32.128 Mbytes.
- parallel k-point chain               32.039 Mbytes.
P newvtr chain                         34.570 Mbytes.
  Rough estimation (10% accuracy) of disk space for files :
_ WF disk file :      0.008 Mbytes ; DEN or POT disk file :      1.268 Mbytes.
================================================================================

--------------------------------------------------------------------------------
------------- Echo of variables that govern the present computation ------------
--------------------------------------------------------------------------------
-
- outvars: echo of selected default values                                      
-   iomode0 =  0 , fftalg0 =312 , wfoptalg0 =  0
-
- outvars: echo of global parameters not present in the input file              
-  max_nthreads =    0
-
 -outvars: echo values of preprocessed input variables --------
            acell      1.5000000000E+01  1.0000000000E+01  1.0000000000E+01 Bohr
              amu      1.00794000E+00
           diemac      1.00000000E+00
           diemix      3.33333333E-01
             ecut      5.00000000E+00 Hartree
           enunit           2
-          fftalg         312
            intxc           1
           istwfk        2
           kptopt           0
P           mkmem           1
            natom           2
            nband           1
            ngfft          72      48      48
             nkpt           1
            nstep          20
             nsym           1
            ntime           5
           ntypat           1
              occ      2.000000
           occopt           0
           prtvol          10
          spgroup           1
           timopt          -1
           tolmxf      1.00000000E-08
           tolwfr      1.00000000E-14
            typat      1  1
           xangst     -3.7836170414E-01  0.0000000000E+00  0.0000000000E+00
                       3.7836170414E-01  0.0000000000E+00  0.0000000000E+00
            xcart     -7.1500000000E-01  0.0000000000E+00  0.0000000000E+00
                       7.1500000000E-01  0.0000000000E+00  0.0000000000E+00
             xred     -4.7666666667E-02  0.0000000000E+00  0.0000000000E+00
                       4.7666666667E-02  0.0000000000E+00  0.0000000000E+00
            znucl        1.00000

================================================================================

 chkinp: Checking input parameters for consistency.

================================================================================
== DATASET  1 ==================================================================
-   mpi_nproc: 1, omp_nthreads: -1 (-1 if OMP is not activated)


--- !DatasetInfo
iteration_state: {dtset: 1, }
dimensions: {natom: 2, nkpt: 1, mband: 1, nsppol: 1, nspinor: 1, nspden: 1, mpw: 392, }
cutoff_energies: {ecut:   5.0, pawecutdg:  -1.0, }
electrons: {nelect:   2.00000000E+00, charge:   0.00000000E+00, occopt:   0.00000000E+00, tsmear:   1.00000000E-02, }
meta: {optdriver: 0, ionmov: 0, optcell: 0, iscf: 7, paral_kgb: 0, }
...

 Exchange-correlation functional for the present dataset will be:
  LDA: new Teter (4/93) with spin-polarized option - ixc=1
 Citation for XC functional:
  S. Goedecker, M. Teter, J. Huetter, PRB 54, 1703 (1996)

 Real(R)+Recip(G) space primitive vectors, cartesian coordinates (Bohr,Bohr^-1):
 R(1)= 15.0000000  0.0000000  0.0000000  G(1)=  0.0666667  0.0000000  0.0000000
 R(2)=  0.0000000 10.0000000  0.0000000  G(2)=  0.0000000  0.1000000  0.0000000
 R(3)=  0.0000000  0.0000000 10.0000000  G(3)=  0.0000000  0.0000000  0.1000000
 Unit cell volume ucvol=  1.5000000E+03 bohr^3
 Angles (23,13,12)=  9.00000000E+01  9.00000000E+01  9.00000000E+01 degrees

 getcut: wavevector=  0.0000  0.0000  0.0000  ngfft=  72  48  48
         ecut(hartree)=      5.000   => boxcut(ratio)=   4.76860

 getcut : COMMENT -
  Note that boxcut > 2.2 ; recall that boxcut=Gcut(box)/Gcut(sphere) = 2
  is sufficient for exact treatment of convolution.
  Such a large boxcut is a waste : you could raise ecut
  e.g. ecut=   28.424461 Hartrees makes boxcut=2


--- Pseudopotential description ------------------------------------------------
- pspini: atom type   1  psp file is /home/buildbot/ABINIT/alps_gnu_9.3_openmpi/trunk_rel2dev/tests/Psps_for_tests/PseudosTM_pwteter/1h.pspnc
- pspatm: opening atomic psp file    /home/buildbot/ABINIT/alps_gnu_9.3_openmpi/trunk_rel2dev/tests/Psps_for_tests/PseudosTM_pwteter/1h.pspnc
-  Troullier-Martins psp for element  H         Thu Oct 27 17:28:54 EDT 1994
-  1.00000   1.00000    940714                znucl, zion, pspdat
    1    1    0    0      2001   0.00000      pspcod,pspxc,lmax,lloc,mmax,r2well
    0   7.740  11.990    0   1.5855604        l,e99.0,e99.9,nproj,rcpsp
   0.00000000   0.00000000   0.00000000   0.00000000     rms, ekb1, ekb2, epsatm
    0.00000000000000    0.00000000000000    0.00000000000000   rchrg,fchrg,qchrg
 Note: local psp for atom with Z=  1.0
  pspatm : epsatm=    0.04198703
         --- l  ekb(1:nproj) -->
 pspatm: atomic psp has been read  and splines computed

   1.67948119E-01                                ecore*ucvol(ha*bohr**3)
--------------------------------------------------------------------------------

P newkpt: treating      1 bands with npw=     392 for ikpt=   1 by node    0
_setup2: Arith. and geom. avg. npw (full set) are     783.000     783.000

================================================================================

--- !BeginCycle
iteration_state: {dtset: 1, }
solver: {iscf: 7, nstep: 20, nline: 4, wfoptalg: 0, }
tolerances: {tolwfr: 1.00E-14, }
...

     iter   Etot(hartree)      deltaE(h)  residm     vres2

 ETOT  1  -1.0968851024866    -1.097E+00 1.542E-05 4.046E+01

 prteigrs : about to open file t02o_EIG
 Fermi (or HOMO) energy (hartree) =  -0.38585   Average Vxc (hartree)=  -0.04894
 Eigenvalues (hartree) for nkpt=   1  k points:
 kpt#   1, nband=  1, wtk=  1.00000, kpt=  0.0000  0.0000  0.0000 (reduced coord)
  -0.38585
 Fermi (or HOMO) energy (eV) = -10.49944   Average Vxc (eV)=  -1.33163
 Eigenvalues (   eV  ) for nkpt=   1  k points:
 kpt#   1, nband=  1, wtk=  1.00000, kpt=  0.0000  0.0000  0.0000 (reduced coord)
 -10.49944

 ETOT  2  -1.0978858162658    -1.001E-03 3.092E-11 1.816E+01

 prteigrs : about to open file t02o_EIG
 Fermi (or HOMO) energy (hartree) =  -0.38626   Average Vxc (hartree)=  -0.05040
 Eigenvalues (hartree) for nkpt=   1  k points:
 kpt#   1, nband=  1, wtk=  1.00000, kpt=  0.0000  0.0000  0.0000 (reduced coord)
  -0.38626
 Fermi (or HOMO) energy (eV) = -10.51061   Average Vxc (eV)=  -1.37146
 Eigenvalues (   eV  ) for nkpt=   1  k points:
 kpt#   1, nband=  1, wtk=  1.00000, kpt=  0.0000  0.0000  0.0000 (reduced coord)
 -10.51061

 ETOT  3  -1.0984367594495    -5.509E-04 2.824E-06 9.620E-01

 prteigrs : about to open file t02o_EIG
 Fermi (or HOMO) energy (hartree) =  -0.35641   Average Vxc (hartree)=  -0.05336
 Eigenvalues (hartree) for nkpt=   1  k points:
 kpt#   1, nband=  1, wtk=  1.00000, kpt=  0.0000  0.0000  0.0000 (reduced coord)
  -0.35641
 Fermi (or HOMO) energy (eV) =  -9.69834   Average Vxc (eV)=  -1.45204
 Eigenvalues (   eV  ) for nkpt=   1  k points:
 kpt#   1, nband=  1, wtk=  1.00000, kpt=  0.0000  0.0000  0.0000 (reduced coord)
  -9.69834

 ETOT  4  -1.0984662717149    -2.951E-05 6.655E-08 7.095E-02

 prteigrs : about to open file t02o_EIG
 Fermi (or HOMO) energy (hartree) =  -0.36364   Average Vxc (hartree)=  -0.05297
 Eigenvalues (hartree) for nkpt=   1  k points:
 kpt#   1, nband=  1, wtk=  1.00000, kpt=  0.0000  0.0000  0.0000 (reduced coord)
  -0.36364
 Fermi (or HOMO) energy (eV) =  -9.89514   Average Vxc (eV)=  -1.44135
 Eigenvalues (   eV  ) for nkpt=   1  k points:
 kpt#   1, nband=  1, wtk=  1.00000, kpt=  0.0000  0.0000  0.0000 (reduced coord)
  -9.89514

 ETOT  5  -1.0984672086234    -9.369E-07 2.938E-09 1.467E-03

 prteigrs : about to open file t02o_EIG
 Fermi (or HOMO) energy (hartree) =  -0.36404   Average Vxc (hartree)=  -0.05292
 Eigenvalues (hartree) for nkpt=   1  k points:
 kpt#   1, nband=  1, wtk=  1.00000, kpt=  0.0000  0.0000  0.0000 (reduced coord)
  -0.36404
 Fermi (or HOMO) energy (eV) =  -9.90615   Average Vxc (eV)=  -1.44011
 Eigenvalues (   eV  ) for nkpt=   1  k points:
 kpt#   1, nband=  1, wtk=  1.00000, kpt=  0.0000  0.0000  0.0000 (reduced coord)
  -9.90615

 ETOT  6  -1.0984672097153    -1.092E-09 1.423E-12 3.160E-04

 prteigrs : about to open file t02o_EIG
 Fermi (or HOMO) energy (hartree) =  -0.36399   Average Vxc (hartree)=  -0.05292
 Eigenvalues (hartree) for nkpt=   1  k points:
 kpt#   1, nband=  1, wtk=  1.00000, kpt=  0.0000  0.0000  0.0000 (reduced coord)
  -0.36399
 Fermi (or HOMO) energy (eV) =  -9.90467   Average Vxc (eV)=  -1.44015
 Eigenvalues (   eV  ) for nkpt=   1  k points:
 kpt#   1, nband=  1, wtk=  1.00000, kpt=  0.0000  0.0000  0.0000 (reduced coord)
  -9.90467

 ETOT  7  -1.0984672099521    -2.368E-10 6.257E-13 4.724E-07

 prteigrs : about to open file t02o_EIG
 Fermi (or HOMO) energy (hartree) =  -0.36398   Average Vxc (hartree)=  -0.05293
 Eigenvalues (hartree) for nkpt=   1  k points:
 kpt#   1, nband=  1, wtk=  1.00000, kpt=  0.0000  0.0000  0.0000 (reduced coord)
  -0.36398
 Fermi (or HOMO) energy (eV) =  -9.90451   Average Vxc (eV)=  -1.44017
 Eigenvalues (   eV  ) for nkpt=   1  k points:
 kpt#   1, nband=  1, wtk=  1.00000, kpt=  0.0000  0.0000  0.0000 (reduced coord)
  -9.90451

 ETOT  8  -1.0984672099528    -6.715E-13 9.811E-15 1.610E-07

 prteigrs : about to open file t02o_EIG
 Fermi (or HOMO) energy (hartree) =  -0.36399   Average Vxc (hartree)=  -0.05293
 Eigenvalues (hartree) for nkpt=   1  k points:
 kpt#   1, nband=  1, wtk=  1.00000, kpt=  0.0000  0.0000  0.0000 (reduced coord)
  -0.36399
 Fermi (or HOMO) energy (eV) =  -9.90454   Average Vxc (eV)=  -1.44017
 Eigenvalues (   eV  ) for nkpt=   1  k points:
 kpt#   1, nband=  1, wtk=  1.00000, kpt=  0.0000  0.0000  0.0000 (reduced coord)
  -9.90454

 At SCF step    8   max residual=  9.81E-15 < tolwfr=  1.00E-14 =>converged.

 Cartesian components of stress tensor (hartree/bohr^3)
  sigma(1 1)=  7.74727053E-07  sigma(3 2)=  0.00000000E+00
  sigma(2 2)=  5.70792881E-05  sigma(3 1)=  3.65361120E-14
  sigma(3 3)=  5.70792881E-05  sigma(2 1)=  1.52101880E-15


--- !ResultsGS
iteration_state: {dtset: 1, }
comment   : Summary of ground state results
lattice_vectors:
- [ 15.0000000,   0.0000000,   0.0000000, ]
- [  0.0000000,  10.0000000,   0.0000000, ]
- [  0.0000000,   0.0000000,  10.0000000, ]
lattice_lengths: [  15.00000,   10.00000,   10.00000, ]
lattice_angles: [ 90.000,  90.000,  90.000, ] # degrees, (23, 13, 12)
lattice_volume:   1.5000000E+03
convergence: {deltae: -6.715E-13, res2:  1.610E-07, residm:  9.811E-15, diffor: null, }
etotal    :  -1.09846721E+00
entropy   :   0.00000000E+00
fermie    :  -3.63985308E-01
cartesian_stress_tensor: # hartree/bohr^3
- [  7.74727053E-07,   1.52101880E-15,   3.65361120E-14, ]
- [  1.52101880E-15,   5.70792881E-05,   0.00000000E+00, ]
- [  3.65361120E-14,   0.00000000E+00,   5.70792881E-05, ]
pressure_GPa:  -1.1272E+00
xred      :
- [ -4.7667E-02,   0.0000E+00,   0.0000E+00,  H]
- [  4.7667E-02,   0.0000E+00,   0.0000E+00,  H]
cartesian_forces: # hartree/bohr
- [ -7.98861004E-03,  -6.46751629E-12,  -2.89322517E-11, ]
- [  7.98861004E-03,   6.46751629E-12,   2.89322517E-11, ]
force_length_stats: {min:   7.98861004E-03, max:   7.98861004E-03, mean:   7.98861004E-03, }
...

 Integrated electronic density in atomic spheres:
 ------------------------------------------------
 Atom  Sphere_radius  Integrated_density
    1        2.00000          1.44680614
    2        2.00000          1.44680618
================================================================================

 ----iterations are completed or convergence reached----

 Mean square residual over all n,k,spin=   98.109E-16; max=  98.109E-16
   0.0000  0.0000  0.0000    1  9.81093E-15 kpt; spin; max resid(k); each band:
   9.81E-15
 reduced coordinates (array xred) for    2 atoms
      -0.047666666667      0.000000000000      0.000000000000
       0.047666666667      0.000000000000      0.000000000000
 rms dE/dt=  6.9183E-02; max dE/dt=  1.1983E-01; dE/dt below (all hartree)
    1       0.119829014000      0.000000003157      0.000000002801
    2      -0.119829287165      0.000000003027      0.000000002222

 cartesian coordinates (angstrom) at end:
    1     -0.37836170414185     0.00000000000000     0.00000000000000
    2      0.37836170414185     0.00000000000000     0.00000000000000

 cartesian forces (hartree/bohr) at end:
    1     -0.00798861003883    -0.00000000000647    -0.00000000002893
    2      0.00798861003883     0.00000000000647     0.00000000002893
 frms,max,avg= 4.6122262E-03 7.9886100E-03   9.106E-09 -3.092E-10 -2.511E-10 h/b

 cartesian forces (eV/Angstrom) at end:
    1     -0.41079081023500    -0.00000000033257    -0.00000000148776
    2      0.41079081023500     0.00000000033257     0.00000000148776
 frms,max,avg= 2.3717018E-01 4.1079081E-01   4.682E-07 -1.590E-08 -1.291E-08 e/A
 length scales= 15.000000000000 10.000000000000 10.000000000000 bohr
              =  7.937658128850  5.291772085900  5.291772085900 angstroms
 prteigrs : about to open file t02o_EIG
 Fermi (or HOMO) energy (hartree) =  -0.36399   Average Vxc (hartree)=  -0.05293
 Eigenvalues (hartree) for nkpt=   1  k points:
 kpt#   1, nband=  1, wtk=  1.00000, kpt=  0.0000  0.0000  0.0000 (reduced coord)
  -0.36399
 Fermi (or HOMO) energy (eV) =  -9.90454   Average Vxc (eV)=  -1.44017
 Eigenvalues (   eV  ) for nkpt=   1  k points:
 kpt#   1, nband=  1, wtk=  1.00000, kpt=  0.0000  0.0000  0.0000 (reduced coord)
  -9.90454
 Total charge density [el/Bohr^3]
      Maximum=    2.3090E-01  at reduced coord.    0.0000    0.0000    0.0000
 Next maximum=    2.2506E-01  at reduced coord.    0.0139    0.0000    0.0000
      Minimum=    0.0000E+00  at reduced coord.    0.4444    0.1250    0.0000
 Next minimum=    0.0000E+00  at reduced coord.    0.4583    0.1250    0.0000
   Integrated=    2.0000E+00

--- !EnergyTerms
iteration_state     : {dtset: 1, }
comment             : Components of total free energy in Hartree
kinetic             :  9.52529136708707E-01
hartree             :  7.95029352252375E-01
xc                  : -6.26330983257724E-01
Ewald energy        :  2.32974564534767E-01
psp_core            :  1.11965412936769E-04
local_psp           : -2.45278124560382E+00
non_local_psp       :  0.00000000000000E+00
total_energy        : -1.09846720995276E+00
total_energy_eV     : -2.98908129076477E+01
band_energy         : -7.27970616050559E-01
...


          ===> extra information on forces <===
 ewald contribution to reduced grads
    1       7.345474077756      0.000000000000      0.000000000000
    2      -7.345474077756     -0.000000000000     -0.000000000000
 nonlocal contribution to red. grads
    1       0.000000000000      0.000000000000      0.000000000000
    2       0.000000000000      0.000000000000      0.000000000000
 local psp contribution to red. grads
    1      -7.225643360890      0.000000009800      0.000000008060
    2       7.225642681753      0.000000009829      0.000000008140
 residual contribution to red. grads
    1      -0.000001702866     -0.000000006643     -0.000000005259
    2       0.000002108838     -0.000000006801     -0.000000005918

 Cartesian components of stress tensor (hartree/bohr^3)
  sigma(1 1)=  7.74727053E-07  sigma(3 2)=  0.00000000E+00
  sigma(2 2)=  5.70792881E-05  sigma(3 1)=  3.65361120E-14
  sigma(3 3)=  5.70792881E-05  sigma(2 1)=  1.52101880E-15

-Cartesian components of stress tensor (GPa)         [Pressure= -1.1272E+00 GPa]
- sigma(1 1)=  2.27932530E-02  sigma(3 2)=  0.00000000E+00
- sigma(2 2)=  1.67933035E+00  sigma(3 1)=  1.07492934E-09
- sigma(3 3)=  1.67933035E+00  sigma(2 1)=  4.47499106E-11

== END DATASET(S) ==============================================================
================================================================================
  
 -outvars: echo values of variables after computation  --------
            acell      1.5000000000E+01  1.0000000000E+01  1.0000000000E+01 Bohr
              amu      1.00794000E+00
           diemac      1.00000000E+00
           diemix      3.33333333E-01
             ecut      5.00000000E+00 Hartree
           enunit           2
           etotal     -1.0984672100E+00
            fcart     -7.9886100388E-03 -6.4675162946E-12 -2.8932251696E-11
                       7.9886100388E-03  6.4675162946E-12  2.8932251696E-11
-          fftalg         312
            intxc           1
           istwfk        2
           kptopt           0
P           mkmem           1
            natom           2
            nband           1
            ngfft          72      48      48
             nkpt           1
            nstep          20
             nsym           1
            ntime           5
           ntypat           1
              occ      2.000000
           occopt           0
           prtvol          10
          spgroup           1
           strten      7.7472705343E-07  5.7079288094E-05  5.7079288073E-05
                       0.0000000000E+00  3.6536111961E-14  1.5210188010E-15
           timopt          -1
           tolmxf      1.00000000E-08
           tolwfr      1.00000000E-14
            typat      1  1
           xangst     -3.7836170414E-01  0.0000000000E+00  0.0000000000E+00
                       3.7836170414E-01  0.0000000000E+00  0.0000000000E+00
            xcart     -7.1500000000E-01  0.0000000000E+00  0.0000000000E+00
                       7.1500000000E-01  0.0000000000E+00  0.0000000000E+00
             xred     -4.7666666667E-02  0.0000000000E+00  0.0000000000E+00
                       4.7666666667E-02  0.0000000000E+00  0.0000000000E+00
            znucl        1.00000

================================================================================

 Test the timer : 
  a combined call timab(*,1,tsec) + timab(*,2,tsec) is 
- CPU time =    1.0066E-06 sec,    Wall time =    1.0091E-06 sec

- Total cpu        time (s,m,h):          0.9        0.02      0.000
- Total wall clock time (s,m,h):          1.2        0.02      0.000
-
- For major independent code sections, cpu and wall times (sec),
-  as well as % of the time and number of calls for node 0-
-<BEGIN_TIMER mpi_nprocs = 1, omp_nthreads = 1, mpi_rank = 0>
- cpu_time =            0.9, wall_time =            1.2
-
- routine                        cpu     %       wall     %      number of calls  Gflops    Speedup Efficacity
-                                                                  (-1=no count)
- xc:pot/=fourdp                 0.141  15.3      0.141  11.9              9      -1.00        1.00       1.00
- timing timab                   0.131  14.2      0.131  11.1             13      -1.00        1.00       1.00
- ewald                          0.105  11.5      0.106   8.9              1      -1.00        1.00       1.00
- fourdp                         0.101  11.0      0.102   8.6             55      -1.00        1.00       1.00
- stress                         0.088   9.5      0.088   7.4              1      -1.00        1.00       1.00
- ewald2 (+vdw_dftd)             0.083   9.0      0.083   7.0              1      -1.00        1.00       1.00
- fourwf%(pot)                   0.061   6.7      0.062   5.2             40      -1.00        1.00       1.00
- pspini                         0.026   2.8      0.026   2.2              1      -1.00        1.00       1.00
- invars2                        0.024   2.7      0.024   2.1              1      -1.00        1.00       1.00
- abinit(2)                      0.009   1.0      0.009   0.8              1      -1.00        0.99       0.99
- fourwf%(den)                   0.007   0.7      0.007   0.6              8      -1.00        0.99       0.99
- forces                         0.005   0.5      0.005   0.4              1      -1.00        1.00       1.00
- scfcv-scprqt                   0.002   0.2      0.003   0.2              8      -1.00        0.75       0.75
- projbd                         0.000   0.1      0.000   0.0             60      -1.00        1.01       1.01
- vtowfk(ssdiag)                 0.000   0.1      0.000   0.0             -1      -1.00        1.05       1.05
- vtowfk(contrib)                0.000   0.0      0.000   0.0              8      -1.00        1.00       1.00
- nonlop(apply)                  0.000   0.0      0.000   0.0             40      -1.00        0.99       0.99
- getghc-other                   0.000   0.0      0.000   0.0             -1      -1.00        1.06       1.06
- vtowfk  (1)                    0.000   0.0      0.000   0.0              8      -1.00        1.03       1.03
- mkffnl                         0.000   0.0      0.000   0.0              9      -1.00        1.00       1.00
- newkpt(excl. rwwf   )          0.000   0.0      0.000   0.0             -1      -1.00        1.00       1.00
- kpgsph                         0.000   0.0      0.000   0.0              2      -1.00        0.98       0.98
- nonlop(forstr)                 0.000   0.0      0.000   0.0              1      -1.00        1.05       1.05
- inwffil(excl. calls)           0.000   0.0      0.000   0.0              1      -1.00        1.10       1.10
- others (103)                   0.000   0.0      0.000   0.0             -1      -1.00        0.00       0.00
-<END_TIMER>
-
- subtotal                       0.785  85.4      0.788  66.6                                  1.00       1.00

- For major independent code sections, cpu and wall times (sec),
- as well as % of the total time and number of calls 

-<BEGIN_TIMER mpi_nprocs = 1, omp_nthreads = 1, mpi_rank = world>
- cpu_time =           0.9, wall_time =           1.2
-
- routine                         cpu     %       wall     %      number of calls Gflops    Speedup Efficacity
-                                                                  (-1=no count)
- xc:pot/=fourdp                 0.141  15.3      0.141  11.9              9      -1.00        1.00       1.00
- timing timab                   0.131  14.2      0.131  11.1             13      -1.00        1.00       1.00
- ewald                          0.105  11.5      0.106   8.9              1      -1.00        1.00       1.00
- fourdp                         0.101  11.0      0.102   8.6             55      -1.00        1.00       1.00
- stress                         0.088   9.5      0.088   7.4              1      -1.00        1.00       1.00
- ewald2 (+vdw_dftd)             0.083   9.0      0.083   7.0              1      -1.00        1.00       1.00
- fourwf%(pot)                   0.061   6.7      0.062   5.2             40      -1.00        1.00       1.00
- pspini                         0.026   2.8      0.026   2.2              1      -1.00        1.00       1.00
- invars2                        0.024   2.7      0.024   2.1              1      -1.00        1.00       1.00
- abinit(2)                      0.009   1.0      0.009   0.8              1      -1.00        0.99       0.99
- fourwf%(den)                   0.007   0.7      0.007   0.6              8      -1.00        0.99       0.99
- forces                         0.005   0.5      0.005   0.4              1      -1.00        1.00       1.00
- scfcv-scprqt                   0.002   0.2      0.003   0.2              8      -1.00        0.75       0.75
- projbd                         0.000   0.1      0.000   0.0             60      -1.00        1.01       1.01
- vtowfk(ssdiag)                 0.000   0.1      0.000   0.0             -1      -1.00        1.05       1.05
- vtowfk(contrib)                0.000   0.0      0.000   0.0              8      -1.00        1.00       1.00
- nonlop(apply)                  0.000   0.0      0.000   0.0             40      -1.00        0.99       0.99
- getghc-other                   0.000   0.0      0.000   0.0             -1      -1.00        1.06       1.06
- vtowfk  (1)                    0.000   0.0      0.000   0.0              8      -1.00        1.03       1.03
- mkffnl                         0.000   0.0      0.000   0.0              9      -1.00        1.00       1.00
- newkpt(excl. rwwf   )          0.000   0.0      0.000   0.0             -1      -1.00        1.00       1.00
- kpgsph                         0.000   0.0      0.000   0.0              2      -1.00        0.98       0.98
- nonlop(forstr)                 0.000   0.0      0.000   0.0              1      -1.00        1.05       1.05
- inwffil(excl. calls)           0.000   0.0      0.000   0.0              1      -1.00        1.10       1.10
- others (103)                   0.000   0.0      0.000   0.0             -1      -1.00        0.00       0.00
-<END_TIMER>

- subtotal                       0.785  85.4      0.788  66.6                                  1.00       1.00

 Partitioning of abinit
- abinit                         0.919 100.0      1.184 100.0              1                   0.78       0.78
 
- abinit(1)                      0.013   1.4      0.033   2.8              1                   0.40       0.40
- abinit(2)                      0.009   1.0      0.009   0.8              1                   0.99       0.99
- indefo+macroin+invars2m        0.024   2.7      0.025   2.1              1                   1.00       1.00
- abinit(4)                      0.056   6.1      0.078   6.6              1                   0.72       0.72
- abinit(5)                      0.034   3.7      0.034   2.9              1                   1.00       1.00
- driver                         0.675  73.4      0.684  57.8              1                   0.99       0.99
- abinit(6)                      0.020   2.1      0.253  21.3              1                   0.08       0.08
- timing timab                   0.131  14.2      0.131  11.1             13                   1.00       1.00

- subtotal                       0.919 100.0      1.184 100.0                                  0.78       0.78

 Partitioning of driver
- driver                         0.675  73.4      0.684  57.8              1                   0.99       0.99
 
- driver(bef. select case)       0.000   0.0      0.000   0.0              1                   1.00       1.00
- gstateimg                      0.674  73.3      0.684  57.8              1                   0.99       0.99

- subtotal                       0.675  73.4      0.684  57.8                                  0.99       0.99

 Partitioning of gstateimg+gstate
- gstateimg                      0.674  73.3      0.684  57.8              1                   0.99       0.99
 
- gstate->kpgsph                 0.000   0.0      0.000   0.0              2                   0.99       0.99
- gstate(pspini)                 0.026   2.8      0.026   2.2              1                   1.00       1.00
- gstate  (2)                    0.011   1.2      0.011   0.9              1                   1.00       1.00
- gstate(...scfcv)               0.632  68.8      0.642  54.2              1                   0.99       0.99
- gstate  (3)                    0.004   0.5      0.004   0.4              1                   0.97       0.97

- subtotal                       0.674  73.3      0.684  57.7                                  0.99       0.99

 Partitioning of scfcv_core
- scfcv_core                     0.632  68.8      0.642  54.2              1                   0.99       0.99
 
- scfcv_core(1)                  0.001   0.1      0.001   0.1              1                   0.99       0.99
- scfcv_core(iniloop, setv       0.142  15.5      0.143  12.0              8                   1.00       1.00
- scfcv_core(vtorho(f))          0.109  11.9      0.110   9.3              8                   1.00       1.00
- scfcv-scprqt                   0.002   0.2      0.003   0.2              8                   0.75       0.75
- scfcv_core(rhotov)             0.218  23.8      0.219  18.5              8                   1.00       1.00
- scfcv_core(mix pot)            0.043   4.6      0.043   3.6              7                   1.00       1.00
- scfcv_core(afterscfloop)       0.093  10.1      0.093   7.9              1                   1.00       1.00
- scfcv_core(outscfcv)           0.024   2.6      0.031   2.6              1                   0.78       0.78

- subtotal                       0.632  68.8      0.642  54.2                                  0.99       0.99

 Partitioning of rhotov
- rhotov                         0.218  23.8      0.219  18.5              8                   1.00       1.00
 
- rhotov(rhotoxc)                0.178  19.4      0.179  15.1              8                   1.00       1.00
- rhotov(dotprod_vn)             0.002   0.2      0.002   0.2              8                   1.00       1.00
- rhotov(other)                  0.015   1.6      0.015   1.3              8                   1.00       1.00
- (other)                        0.023   2.5      0.023   2.0             -1                   1.00       1.00

- subtotal                       0.218  23.8      0.219  18.5                                  1.00       1.00

 Partitioning of vtorho
- vtorho                         0.109  11.9      0.110   9.3              8                   1.00       1.00
 
- vtorho(bef. spin loop)         0.001   0.1      0.001   0.1              8                   0.99       0.99
- vtorho(bef. kpt  loop)         0.005   0.5      0.005   0.4              8                   0.99       0.99
- vtorho(bef. vtowfk)            0.000   0.0      0.000   0.0              8                   1.00       1.00
- vtowfk                         0.072   7.8      0.072   6.1              8                   1.00       1.00
- vtorho(aft. kpt loop)          0.006   0.7      0.006   0.5              8                   1.00       1.00
- vtorho(mkrho 2)                0.025   2.7      0.025   2.1             16                   1.00       1.00

- subtotal                       0.109  11.9      0.110   9.3                                  1.00       1.00

 Partitioning of vtowfk
- vtowfk                         0.072   7.8      0.072   6.1              8                   1.00       1.00
 
- cgwf                           0.064   6.9      0.064   5.4             10                   1.00       1.00
- vtowfk(subdiago)               0.000   0.0      0.000   0.0             10                   1.01       1.01
- fourwf%vtowfk                  0.007   0.7      0.007   0.6              8                   0.99       0.99
- vtowfk(3)                      0.000   0.0      0.000   0.0             -1                   0.99       0.99

- subtotal                       0.072   7.8      0.072   6.1                                  1.00       1.00

 Partitioning of cgwf
- cgwf                           0.064   6.9      0.064   5.4             10                   1.00       1.00
 
- getghc%cgwf                    0.062   6.8      0.062   5.3             40                   1.00       1.00
- cgwf-O(npw)                    0.001   0.1      0.001   0.1             -1                   0.97       0.97
- projbd%cgwf                    0.000   0.1      0.000   0.0             60                   1.01       1.01

- subtotal                       0.064   6.9      0.064   5.4                                  1.00       1.00

 Partitioning of getghc
- getghc                         0.062   6.8      0.062   5.3             40                   1.00       1.00
 
- fourwf%getghc                  0.061   6.7      0.062   5.2             40                   1.00       1.00
- nonlop%getghc                  0.000   0.0      0.000   0.0             40                   0.99       0.99
- getghc-other                   0.000   0.0      0.000   0.0             -1                   1.06       1.06

- subtotal                       0.062   6.8      0.062   5.3                                  1.00       1.00

 Partitioning of fourwf (upwards partitioning)
- fourwf                         0.068   7.4      0.068   5.8             48                   1.00       1.00
 
- fourwf%getghc                  0.061   6.7      0.062   5.2             40                   1.00       1.00
- fourwf%vtowfk                  0.007   0.7      0.007   0.6              8                   0.99       0.99

- subtotal                       0.068   7.4      0.068   5.8                                  1.00       1.00

 Partitioning of inwffil
- inwffil                        0.000   0.0     -1.000 -84.5              1                  -0.00      -0.00
 

- subtotal                       0.000   0.0      0.000   0.0                                  0.99       0.99

 Partitioning of newkpt
- newkpt                         0.000   0.0     -1.000 -84.5              1                  -0.00      -0.00
 

- subtotal                       0.000   0.0      0.000   0.0                                  1.00       1.00

 Partitioning of newvtr
- newvtr                         0.043   4.6      0.043   3.6              7                   1.00       1.00
 
- newvtr(before selection)       0.002   0.2      0.002   0.2              7                   0.98       0.98
- newvtr(bef. prcref_PMA)        0.002   0.2      0.002   0.2              7                   0.99       0.99
- newvtr(call prcref_PMA)        0.001   0.1      0.001   0.1              7                   0.99       0.99
- newvtr(aft. prcref_PMA)        0.035   3.8      0.035   2.9              7                   1.00       1.00
- newvtr(mean potential)         0.002   0.2      0.002   0.2              7                   1.00       1.00
- (other)                        0.001   0.1      0.001   0.1             -1                   1.02       1.02

- subtotal                       0.043   4.6      0.043   3.6                                  1.00       1.00

 Partitioning of  fourdp (upwards partitioning)
- fourdp                         0.101  11.0      0.102   8.6             55                   1.00       1.00
 
- fourdp%(other)                 0.101  11.0      0.102   8.6             55                   1.00       1.00

- subtotal                       0.101  11.0      0.102   8.6                                  1.00       1.00

 Partitioning of afterscfloop
- afterscfloop                   0.093  10.1      0.093   7.8              1                   1.00       1.00
 
- afterscfloop(forstr)           0.093  10.1      0.093   7.8              1                   1.00       1.00

- subtotal                       0.093  10.1      0.093   7.8                                  1.00       1.00

 Partitioning of forstr
- forstr                         0.093  10.1      0.093   7.8              1                   1.00       1.00
 
- forstr(forces)                 0.005   0.5      0.005   0.4              1                   1.00       1.00
- forstr(stress)                 0.088   9.5      0.088   7.4              1                   1.00       1.00

- subtotal                       0.093  10.1      0.093   7.8                                  1.00       1.00

 Partitioning of forstrnps
- forstrnps                      0.000   0.0     -1.000 -84.5              1                  -0.00      -0.00
 

- subtotal                       0.000   0.0     -1.000 -84.5                                 -0.00      -0.00

 Partitioning of outscfcv
- outscfcv                       0.024   2.6      0.031   2.6              1                   0.78       0.78
 
- outscfcv([PAW]prtden)          0.001   0.1      0.001   0.1              1                   1.00       1.00
- outscfcv(prtelf)               0.023   2.5      0.030   2.5              1                   0.77       0.77
- outscfcv(calcdenmagsph)        0.000   0.0      0.000   0.0              1                   1.00       1.00

- subtotal                       0.024   2.6      0.030   2.6                                  0.78       0.78
-
-Synchronisation (=leave_test) and MPI calls 
- communic.MPI                   0.000   0.0      0.000   0.0             43                   1.17       1.17
-
- forstrnps:synchr               0.000   0.0      0.000   0.0              2                   1.48       1.48
- subtotal                       0.000   0.0      0.000   0.0                                  1.48       1.48

 Additional information
- timana(1)                      0.000   0.0      0.000   0.0              1                   1.02       1.02
- total timab                    0.131  14.3      0.132  11.1         130603                   1.00       1.00
- fourwf                         0.068   7.4      0.068   5.8             48                   1.00       1.00
- mklocl(2)                      0.003   0.3      0.003   0.2              1                   0.99       0.99
- nonlop(forstr)                 0.000   0.0      0.000   0.0              1                   1.05       1.05
- nonlop(total)                  0.000   0.0      0.000   0.0             41                   0.99       0.99
- xc:fourdp                      0.063   6.9      0.063   5.3             36                   1.00       1.00


 Detailed analysis of some time consuming routines 
                                  tcpu    ncalls  tcpu/ncalls    ndata tcpu/ncalls/ndata
                                 (sec)                (msec)              (microsec)
- fourwf%(pot)                   0.061        40       1.534    331776       0.005
- fourwf%(den)                   0.007         8       0.855    165888       0.005
- fourdp                         0.101        55       1.839    165888       0.011
- nonlop(apply)                  0.000        40       0.009      1566       0.006
- nonlop(forces)                 0.000         0
- nonlop(forstr)                 0.000         1       0.010      1566       0.006
- projbd                         0.000        60       0.008       783       0.010
- xc:pot/=fourdp                 0.141         9      15.655    165888       0.094

================================================================================

 Suggested references for the acknowledgment of ABINIT usage.

 The users of ABINIT have little formal obligations with respect to the ABINIT group
 (those specified in the GNU General Public License, http://www.gnu.org/copyleft/gpl.txt).
 However, it is common practice in the scientific literature,
 to acknowledge the efforts of people that have made the research possible.
 In this spirit, please find below suggested citations of work written by ABINIT developers,
 corresponding to implementations inside of ABINIT that you have used in the present run.
 Note also that it will be of great value to readers of publications presenting these results,
 to read papers enabling them to understand the theoretical formalism and details
 of the ABINIT implementation.
 For information on why they are suggested, see also https://docs.abinit.org/theory/acknowledgments.
-
- [1] The Abinit project: Impact, environment and recent developments.
- Computer Phys. Comm. 248, 107042 (2020).
- X.Gonze, B. Amadon, G. Antonius, F.Arnardi, L.Baguet, J.-M.Beuken,
- J.Bieder, F.Bottin, J.Bouchet, E.Bousquet, N.Brouwer, F.Bruneval,
- G.Brunin, T.Cavignac, J.-B. Charraud, Wei Chen, M.Cote, S.Cottenier,
- J.Denier, G.Geneste, Ph.Ghosez, M.Giantomassi, Y.Gillet, O.Gingras,
- D.R.Hamann, G.Hautier, Xu He, N.Helbig, N.Holzwarth, Y.Jia, F.Jollet,
- W.Lafargue-Dit-Hauret, K.Lejaeghere, M.A.L.Marques, A.Martin, C.Martins,
- H.P.C. Miranda, F.Naccarato, K. Persson, G.Petretto, V.Planes, Y.Pouillon,
- S.Prokhorenko, F.Ricci, G.-M.Rignanese, A.H.Romero, M.M.Schmitt, M.Torrent,
- M.J.van Setten, B.Van Troeye, M.J.Verstraete, G.Zerah and J.W.Zwanzig
- Comment: the fifth generic paper describing the ABINIT project.
- Note that a version of this paper, that is not formatted for Computer Phys. Comm. 
- is available at https://www.abinit.org/sites/default/files/ABINIT20.pdf .
- The licence allows the authors to put it on the Web.
- DOI and bibtex: see https://docs.abinit.org/theory/bibliography/#gonze2020
-
- [2] ABINIT: Overview, and focus on selected capabilities
- J. Chem. Phys. 152, 124102 (2020).
- A. Romero, D.C. Allan, B. Amadon, G. Antonius, T. Applencourt, L.Baguet,
- J.Bieder, F.Bottin, J.Bouchet, E.Bousquet, F.Bruneval,
- G.Brunin, D.Caliste, M.Cote,
- J.Denier, C. Dreyer, Ph.Ghosez, M.Giantomassi, Y.Gillet, O.Gingras,
- D.R.Hamann, G.Hautier, F.Jollet, G. Jomard,
- A.Martin, 
- H.P.C. Miranda, F.Naccarato, G.Petretto, N.A. Pike, V.Planes,
- S.Prokhorenko, T. Rangel, F.Ricci, G.-M.Rignanese, M.Royo, M.Stengel, M.Torrent,
- M.J.van Setten, B.Van Troeye, M.J.Verstraete, J.Wiktor, J.W.Zwanziger, and X.Gonze.
- Comment: a global overview of ABINIT, with focus on selected capabilities .
- Note that a version of this paper, that is not formatted for J. Chem. Phys 
- is available at https://www.abinit.org/sites/default/files/ABINIT20_JPC.pdf .
- The licence allows the authors to put it on the Web.
- DOI and bibtex: see https://docs.abinit.org/theory/bibliography/#romero2020
-
- [3] Recent developments in the ABINIT software package.
- Computer Phys. Comm. 205, 106 (2016).
- X.Gonze, F.Jollet, F.Abreu Araujo, D.Adams, B.Amadon, T.Applencourt,
- C.Audouze, J.-M.Beuken, J.Bieder, A.Bokhanchuk, E.Bousquet, F.Bruneval
- D.Caliste, M.Cote, F.Dahm, F.Da Pieve, M.Delaveau, M.Di Gennaro,
- B.Dorado, C.Espejo, G.Geneste, L.Genovese, A.Gerossier, M.Giantomassi,
- Y.Gillet, D.R.Hamann, L.He, G.Jomard, J.Laflamme Janssen, S.Le Roux,
- A.Levitt, A.Lherbier, F.Liu, I.Lukacevic, A.Martin, C.Martins,
- M.J.T.Oliveira, S.Ponce, Y.Pouillon, T.Rangel, G.-M.Rignanese,
- A.H.Romero, B.Rousseau, O.Rubel, A.A.Shukri, M.Stankovski, M.Torrent,
- M.J.Van Setten, B.Van Troeye, M.J.Verstraete, D.Waroquier, J.Wiktor,
- B.Xu, A.Zhou, J.W.Zwanziger.
- Comment: the fourth generic paper describing the ABINIT project.
- Note that a version of this paper, that is not formatted for Computer Phys. Comm. 
- is available at https://www.abinit.org/sites/default/files/ABINIT16.pdf .
- The licence allows the authors to put it on the Web.
- DOI and bibtex: see https://docs.abinit.org/theory/bibliography/#gonze2016
-
- And optionally:
-
- [4] ABINIT: First-principles approach of materials and nanosystem properties.
- Computer Phys. Comm. 180, 2582-2615 (2009).
- X. Gonze, B. Amadon, P.-M. Anglade, J.-M. Beuken, F. Bottin, P. Boulanger, F. Bruneval,
- D. Caliste, R. Caracas, M. Cote, T. Deutsch, L. Genovese, Ph. Ghosez, M. Giantomassi
- S. Goedecker, D.R. Hamann, P. Hermet, F. Jollet, G. Jomard, S. Leroux, M. Mancini, S. Mazevet,
- M.J.T. Oliveira, G. Onida, Y. Pouillon, T. Rangel, G.-M. Rignanese, D. Sangalli, R. Shaltaf,
- M. Torrent, M.J. Verstraete, G. Zerah, J.W. Zwanziger
- Comment: the third generic paper describing the ABINIT project.
- Note that a version of this paper, that is not formatted for Computer Phys. Comm. 
- is available at https://www.abinit.org/sites/default/files/ABINIT_CPC_v10.pdf .
- The licence allows the authors to put it on the Web.
- DOI and bibtex: see https://docs.abinit.org/theory/bibliography/#gonze2009
-
- Proc.   0 individual time (sec): cpu=          0.9  wall=          1.2

================================================================================

 Calculation completed.
.Delivered   6 WARNINGs and   7 COMMENTs to log file.
+Overall time at end (sec) : cpu=          0.9  wall=          1.2
