
.Version 9.0.0 of ABINIT 
.(MPI version, prepared for a x86_64_linux_gnu9.2 computer) 

.Copyright (C) 1998-2020 ABINIT group . 
 ABINIT comes with ABSOLUTELY NO WARRANTY.
 It is free software, and you are welcome to redistribute it
 under certain conditions (GNU General Public License,
 see ~abinit/COPYING or http://www.gnu.org/copyleft/gpl.txt).

 ABINIT is a project of the Universite Catholique de Louvain,
 Corning Inc. and other collaborators, see ~abinit/doc/developers/contributors.txt .
 Please read https://docs.abinit.org/theory/acknowledgments for suggested
 acknowledgments of the ABINIT effort.
 For more information, see https://www.abinit.org .

.Starting date : Mon 10 Feb 2020.
- ( at 02h14 )
  
- input  file    -> /home/gmatteo/git_repos/abinit/_abiref_gnu9.2_openmpi/tests/Test_suite/fast_t17-t19-t20-t21-t23/t20.in
- output file    -> t20.out
- root for input  files -> t19o
- root for output files -> t20o


 Symmetries : space group P1 (#  1); Bravais aP (primitive triclinic)
================================================================================
 Values of the parameters that define the memory need of the present run
     intxc =       1    ionmov =       2      iscf =       7    lmnmax =       2
     lnmax =       2     mgfft =      30  mpssoang =       3    mqgrid =    3001
     natom =       2  nloc_mem =       1    nspden =       2   nspinor =       1
    nsppol =       2      nsym =       1    n1xccc =    2501    ntypat =       1
    occopt =       2   xclevel =       1
-    mband =           5        mffmem =           1         mkmem =           1
       mpw =         338          nfft =       12000          nkpt =           1
================================================================================
P This job should need less than                       5.739 Mbytes of memory.
P Max. in XC chain
P            3 blocks of mpw  integer numbers, for      0.004 Mbytes.
P           20 blocks of mpw  real(dp)  numbers, for      0.052 Mbytes.
P           56 blocks of nfft real(dp)  numbers, for      5.127 Mbytes.
P              Additional     real(dp)  numbers, for      0.319 Mbytes.
P              With residue estimated to be             0.237 Mbytes.
P
P Comparison of the memory needs of different chains
P Main chain + fourwf.f                 5.546 Mbytes.
P Main chain + nonlop.f + opernl.f      5.226 Mbytes.
P XC chain                              5.739 Mbytes.
P mkrho chain                           4.936 Mbytes.
P fourdp chain                          4.732 Mbytes.
- parallel k-point chain                4.900 Mbytes.
P newvtr chain                          5.449 Mbytes.
  Rough estimation (10% accuracy) of disk space for files :
_ WF disk file :      0.043 Mbytes ; DEN or POT disk file :      0.185 Mbytes.
================================================================================

--------------------------------------------------------------------------------
------------- Echo of variables that govern the present computation ------------
--------------------------------------------------------------------------------
-
- outvars: echo of selected default values                                      
-   iomode0 =  0 , fftalg0 =312 , wfoptalg0 =  0
-
- outvars: echo of global parameters not present in the input file              
-  max_nthreads =    0
-
 -outvars: echo values of preprocessed input variables --------
            acell      1.2000000000E+01  8.0000000000E+00  8.0000000000E+00 Bohr
              amu      2.80855000E+01
     densfor_pred           1
           diemac      1.00000000E+00
           diemix      3.33333333E-01
             ecut      7.00000000E+00 Hartree
           enunit           2
-          fftalg         312
            intxc           1
           ionmov           2
           irdwfk           1
           istwfk        2
           kptopt           0
P           mkmem           1
            natom           2
            nband           5       3
            ngfft          30      20      20
             nkpt           1
            nline           3
           nspden           2
           nsppol           2
            nstep          20
             nsym           1
            ntime           8
           ntypat           1
              occ      1.000000  1.000000  1.000000  1.000000  1.000000
                       1.000000  1.000000  1.000000
           occopt           2
           prtvol          10
          spgroup           1
           tolmxf      1.00000000E-04
           tolwfr      1.00000000E-13
            typat      1  1
           xangst     -1.1229140366E+00  0.0000000000E+00  0.0000000000E+00
                       1.1229140366E+00  0.0000000000E+00  0.0000000000E+00
            xcart     -2.1220000000E+00  0.0000000000E+00  0.0000000000E+00
                       2.1220000000E+00  0.0000000000E+00  0.0000000000E+00
             xred     -1.7683333333E-01  0.0000000000E+00  0.0000000000E+00
                       1.7683333333E-01  0.0000000000E+00  0.0000000000E+00
            znucl       14.00000

================================================================================

 chkinp: Checking input parameters for consistency.

================================================================================
== DATASET  1 ==================================================================
-   nproc =    1

 Exchange-correlation functional for the present dataset will be:
  LDA: new Teter (4/93) with spin-polarized option - ixc=1
 Citation for XC functional:
  S. Goedecker, M. Teter, J. Huetter, PRB 54, 1703 (1996)

 Real(R)+Recip(G) space primitive vectors, cartesian coordinates (Bohr,Bohr^-1):
 R(1)= 12.0000000  0.0000000  0.0000000  G(1)=  0.0833333  0.0000000  0.0000000
 R(2)=  0.0000000  8.0000000  0.0000000  G(2)=  0.0000000  0.1250000  0.0000000
 R(3)=  0.0000000  0.0000000  8.0000000  G(3)=  0.0000000  0.0000000  0.1250000
 Unit cell volume ucvol=  7.6800000E+02 bohr^3
 Angles (23,13,12)=  9.00000000E+01  9.00000000E+01  9.00000000E+01 degrees

 getcut: wavevector=  0.0000  0.0000  0.0000  ngfft=  30  20  20
         ecut(hartree)=      7.000   => boxcut(ratio)=   2.09906

--- Pseudopotential description ------------------------------------------------
- pspini: atom type   1  psp file is /home/gmatteo/git_repos/abinit/tests/Psps_for_tests/14si.pspnc
- pspatm: opening atomic psp file    /home/gmatteo/git_repos/abinit/tests/Psps_for_tests/14si.pspnc
-  Troullier-Martins psp for element  Si        Thu Oct 27 17:31:21 EDT 1994
- 14.00000   4.00000    940714                znucl, zion, pspdat
    1    1    2    2      2001   0.00000      pspcod,pspxc,lmax,lloc,mmax,r2well
    0   5.907  14.692    1   2.0872718        l,e99.0,e99.9,nproj,rcpsp
   0.00000000   0.00000000   0.00000000   0.00000000     rms, ekb1, ekb2, epsatm
    1   2.617   4.181    1   2.0872718        l,e99.0,e99.9,nproj,rcpsp
   0.00000000   0.00000000   0.00000000   0.00000000     rms, ekb1, ekb2, epsatm
    2   0.000   0.000    0   2.0872718        l,e99.0,e99.9,nproj,rcpsp
   0.00000000   0.00000000   0.00000000   0.00000000     rms, ekb1, ekb2, epsatm
    1.80626423934776    0.22824404341771    1.17378968127746   rchrg,fchrg,qchrg
  pspatm : epsatm=    1.43386982
         --- l  ekb(1:nproj) -->
             0    3.287949
             1    1.849886
 pspatm: atomic psp has been read  and splines computed

   2.29419171E+01                                ecore*ucvol(ha*bohr**3)
--------------------------------------------------------------------------------

-inwffil : will read wavefunctions from disk file t19o_WFK
P newkpt: treating      5 bands with npw=     338 for ikpt=   1 by node    0
P newkpt: treating      3 bands with npw=     338 for ikpt=   1 by node    0
_setup2: Arith. and geom. avg. npw (full set) are     675.000     675.000

================================================================================

=== [ionmov= 2] Broyden-Fletcher-Goldfard-Shanno method (forces)            
================================================================================

--- Iteration: (1/8) Internal Cycle: (1/1)
--------------------------------------------------------------------------------

---SELF-CONSISTENT-FIELD CONVERGENCE--------------------------------------------

     iter   Etot(hartree)      deltaE(h)  residm     vres2

 ETOT  1  -8.6716316122323    -8.672E+00 9.666E-14 2.460E-10

 prteigrs : about to open file t20o_TIM1_EIG
 Fermi (or HOMO) energy (hartree) =  -0.04726   Average Vxc (hartree)=  -0.22294
 Eigenvalues (hartree) for nkpt=   1  k points, SPIN UP:
 kpt#   1, nband=  5, wtk=  1.00000, kpt=  0.0000  0.0000  0.0000 (reduced coord)
  -0.37020   -0.21879   -0.09669   -0.04726   -0.04726
 Eigenvalues (hartree) for nkpt=   1  k points, SPIN DOWN:
 kpt#   1, nband=  3, wtk=  1.00000, kpt=  0.0000  0.0000  0.0000 (reduced coord)
  -0.33307   -0.19025   -0.08089
 Fermi (or HOMO) energy (eV) =  -1.28592   Average Vxc (eV)=  -6.06662
 Eigenvalues (   eV  ) for nkpt=   1  k points, SPIN UP:
 kpt#   1, nband=  5, wtk=  1.00000, kpt=  0.0000  0.0000  0.0000 (reduced coord)
 -10.07361   -5.95365   -2.63120   -1.28592   -1.28592
 Eigenvalues (   eV  ) for nkpt=   1  k points, SPIN DOWN:
 kpt#   1, nband=  3, wtk=  1.00000, kpt=  0.0000  0.0000  0.0000 (reduced coord)
  -9.06321   -5.17705   -2.20117

 At SCF step    1   max residual=  9.67E-14 < tolwfr=  1.00E-13 =>converged.

 Cartesian components of stress tensor (hartree/bohr^3)
  sigma(1 1)=  1.36716265E-04  sigma(3 2)=  0.00000000E+00
  sigma(2 2)=  1.10398907E-04  sigma(3 1)=  0.00000000E+00
  sigma(3 3)=  1.10398907E-04  sigma(2 1)=  0.00000000E+00


--- !ResultsGS
comment   : Summary of ground state results
natom     :        2
nsppol    :        2
nspinor   :        1
nspden    :        2
nelect    :  8.000000000000000E+000
charge    :  0.000000000000000E+000
abc       : [ 9.000000000000000E+001,  9.000000000000000E+001,  9.000000000000000E+001, ]
alpha_beta_gamma_angles: [ 9.000000000000000E+001,  9.000000000000000E+001,  9.000000000000000E+001, ]
cutoff_energies: {"ecut":  7.000000000000000E+000, "pawecutdg": -1.000000000000000E+000, }
convergence: {
    "deltae": -8.671631612232279E+000, "res2":  2.459769651603772E-010, 
    "residm":  9.666221083191212E-014, "diffor": undef, 
}
etotal    : -8.671631612232279E+000
entropy   :  0.000000000000000E+000
fermie    : -4.725678645239562E-002
stress_tensor: !CartTensor
- [ 1.367162649395792E-004,  0.000000000000000E+000,  0.000000000000000E+000, ]
- [ 0.000000000000000E+000,  1.103989072982715E-004,  0.000000000000000E+000, ]
- [ 0.000000000000000E+000,  0.000000000000000E+000,  1.103989072748280E-004, ]
cartesian_forces: !CartForces
- [-1.775148171488495E-002,  1.915877598465148E-014, -1.463736046489579E-013, ]
- [ 1.775148171488495E-002, -1.915877598465148E-014,  1.463736046489579E-013, ]
...

 Integrated electronic and magnetization densities in atomic spheres:
 ---------------------------------------------------------------------
 Radius=ratsph(iatom), smearing ratsm=  0.0000. Diff(up-dn)=approximate z local magnetic moment.
 Atom    Radius    up_density   dn_density  Total(up+dn)  Diff(up-dn)
    1   2.00000     0.951584     0.610130      1.561714     0.341454
    2   2.00000     0.951584     0.610130      1.561714     0.341454
 ---------------------------------------------------------------------
  Sum:              1.903169     1.220260      3.123429     0.682908
 Total magnetization (from the atomic spheres):             0.682908
 Total magnetization (exact up - dn):                       2.000000

---OUTPUT-----------------------------------------------------------------------

 Cartesian coordinates (xcart) [bohr]
 -2.12200000000000E+00  0.00000000000000E+00  0.00000000000000E+00
  2.12200000000000E+00  0.00000000000000E+00  0.00000000000000E+00
 Reduced coordinates (xred)
 -1.76833333333333E-01  0.00000000000000E+00  0.00000000000000E+00
  1.76833333333333E-01  0.00000000000000E+00  0.00000000000000E+00
 Cartesian forces (fcart) [Ha/bohr]; max,rms= 1.77515E-02 1.02488E-02 (free atoms)
 -1.77514817148849E-02  1.91587759846515E-14 -1.46373604648958E-13
  1.77514817148849E-02 -1.91587759846515E-14  1.46373604648958E-13
 Reduced forces (fred)
  2.13017780578619E-01 -1.53270207877212E-13  1.17098883719166E-12
 -2.13017780578619E-01  1.53270207877212E-13 -1.17098883719166E-12
 Total energy (etotal) [Ha]= -8.67163161223228E+00

--- Iteration: (2/8) Internal Cycle: (1/1)
--------------------------------------------------------------------------------

---SELF-CONSISTENT-FIELD CONVERGENCE--------------------------------------------

     iter   Etot(hartree)      deltaE(h)  residm     vres2

 ETOT  1  -8.6717080137984    -8.672E+00 4.269E-08 1.485E+00

 prteigrs : about to open file t20o_TIM2_EIG
 Fermi (or HOMO) energy (hartree) =  -0.04205   Average Vxc (hartree)=  -0.22346
 Eigenvalues (hartree) for nkpt=   1  k points, SPIN UP:
 kpt#   1, nband=  5, wtk=  1.00000, kpt=  0.0000  0.0000  0.0000 (reduced coord)
  -0.36299   -0.21873   -0.09644   -0.04205   -0.04205
 Eigenvalues (hartree) for nkpt=   1  k points, SPIN DOWN:
 kpt#   1, nband=  3, wtk=  1.00000, kpt=  0.0000  0.0000  0.0000 (reduced coord)
  -0.32621   -0.19051   -0.08058
 Fermi (or HOMO) energy (eV) =  -1.14423   Average Vxc (eV)=  -6.08056
 Eigenvalues (   eV  ) for nkpt=   1  k points, SPIN UP:
 kpt#   1, nband=  5, wtk=  1.00000, kpt=  0.0000  0.0000  0.0000 (reduced coord)
  -9.87758   -5.95193   -2.62428   -1.14423   -1.14423
 Eigenvalues (   eV  ) for nkpt=   1  k points, SPIN DOWN:
 kpt#   1, nband=  3, wtk=  1.00000, kpt=  0.0000  0.0000  0.0000 (reduced coord)
  -8.87669   -5.18410   -2.19264

 ETOT  2  -8.6721599843982    -4.520E-04 2.513E-09 9.754E-02

 prteigrs : about to open file t20o_TIM2_EIG
 Fermi (or HOMO) energy (hartree) =  -0.04509   Average Vxc (hartree)=  -0.22320
 Eigenvalues (hartree) for nkpt=   1  k points, SPIN UP:
 kpt#   1, nband=  5, wtk=  1.00000, kpt=  0.0000  0.0000  0.0000 (reduced coord)
  -0.36712   -0.21979   -0.09722   -0.04509   -0.04509
 Eigenvalues (hartree) for nkpt=   1  k points, SPIN DOWN:
 kpt#   1, nband=  3, wtk=  1.00000, kpt=  0.0000  0.0000  0.0000 (reduced coord)
  -0.33018   -0.19114   -0.08126
 Fermi (or HOMO) energy (eV) =  -1.22687   Average Vxc (eV)=  -6.07358
 Eigenvalues (   eV  ) for nkpt=   1  k points, SPIN UP:
 kpt#   1, nband=  5, wtk=  1.00000, kpt=  0.0000  0.0000  0.0000 (reduced coord)
  -9.98987   -5.98074   -2.64548   -1.22687   -1.22687
 Eigenvalues (   eV  ) for nkpt=   1  k points, SPIN DOWN:
 kpt#   1, nband=  3, wtk=  1.00000, kpt=  0.0000  0.0000  0.0000 (reduced coord)
  -8.98478   -5.20112   -2.21108

 ETOT  3  -8.6721898252719    -2.984E-05 1.333E-06 1.967E-04

 prteigrs : about to open file t20o_TIM2_EIG
 Fermi (or HOMO) energy (hartree) =  -0.04562   Average Vxc (hartree)=  -0.22312
 Eigenvalues (hartree) for nkpt=   1  k points, SPIN UP:
 kpt#   1, nband=  5, wtk=  1.00000, kpt=  0.0000  0.0000  0.0000 (reduced coord)
  -0.36801   -0.21964   -0.09698   -0.04562   -0.04562
 Eigenvalues (hartree) for nkpt=   1  k points, SPIN DOWN:
 kpt#   1, nband=  3, wtk=  1.00000, kpt=  0.0000  0.0000  0.0000 (reduced coord)
  -0.33115   -0.19094   -0.08109
 Fermi (or HOMO) energy (eV) =  -1.24130   Average Vxc (eV)=  -6.07135
 Eigenvalues (   eV  ) for nkpt=   1  k points, SPIN UP:
 kpt#   1, nband=  5, wtk=  1.00000, kpt=  0.0000  0.0000  0.0000 (reduced coord)
 -10.01403   -5.97681   -2.63898   -1.24130   -1.24130
 Eigenvalues (   eV  ) for nkpt=   1  k points, SPIN DOWN:
 kpt#   1, nband=  3, wtk=  1.00000, kpt=  0.0000  0.0000  0.0000 (reduced coord)
  -9.01113   -5.19581   -2.20654

 ETOT  4  -8.6721899531492    -1.279E-07 2.200E-09 1.147E-05

 prteigrs : about to open file t20o_TIM2_EIG
 Fermi (or HOMO) energy (hartree) =  -0.04550   Average Vxc (hartree)=  -0.22312
 Eigenvalues (hartree) for nkpt=   1  k points, SPIN UP:
 kpt#   1, nband=  5, wtk=  1.00000, kpt=  0.0000  0.0000  0.0000 (reduced coord)
  -0.36786   -0.21952   -0.09687   -0.04550   -0.04550
 Eigenvalues (hartree) for nkpt=   1  k points, SPIN DOWN:
 kpt#   1, nband=  3, wtk=  1.00000, kpt=  0.0000  0.0000  0.0000 (reduced coord)
  -0.33106   -0.19081   -0.08100
 Fermi (or HOMO) energy (eV) =  -1.23803   Average Vxc (eV)=  -6.07153
 Eigenvalues (   eV  ) for nkpt=   1  k points, SPIN UP:
 kpt#   1, nband=  5, wtk=  1.00000, kpt=  0.0000  0.0000  0.0000 (reduced coord)
 -10.01000   -5.97344   -2.63586   -1.23803   -1.23803
 Eigenvalues (   eV  ) for nkpt=   1  k points, SPIN DOWN:
 kpt#   1, nband=  3, wtk=  1.00000, kpt=  0.0000  0.0000  0.0000 (reduced coord)
  -9.00853   -5.19228   -2.20399

 ETOT  5  -8.6721899581718    -5.023E-09 1.538E-10 1.789E-06

 prteigrs : about to open file t20o_TIM2_EIG
 Fermi (or HOMO) energy (hartree) =  -0.04551   Average Vxc (hartree)=  -0.22312
 Eigenvalues (hartree) for nkpt=   1  k points, SPIN UP:
 kpt#   1, nband=  5, wtk=  1.00000, kpt=  0.0000  0.0000  0.0000 (reduced coord)
  -0.36788   -0.21953   -0.09688   -0.04551   -0.04551
 Eigenvalues (hartree) for nkpt=   1  k points, SPIN DOWN:
 kpt#   1, nband=  3, wtk=  1.00000, kpt=  0.0000  0.0000  0.0000 (reduced coord)
  -0.33108   -0.19082   -0.08101
 Fermi (or HOMO) energy (eV) =  -1.23843   Average Vxc (eV)=  -6.07148
 Eigenvalues (   eV  ) for nkpt=   1  k points, SPIN UP:
 kpt#   1, nband=  5, wtk=  1.00000, kpt=  0.0000  0.0000  0.0000 (reduced coord)
 -10.01052   -5.97379   -2.63619   -1.23843   -1.23843
 Eigenvalues (   eV  ) for nkpt=   1  k points, SPIN DOWN:
 kpt#   1, nband=  3, wtk=  1.00000, kpt=  0.0000  0.0000  0.0000 (reduced coord)
  -9.00910   -5.19260   -2.20433

 ETOT  6  -8.6721899592733    -1.101E-09 5.552E-11 7.858E-08

 prteigrs : about to open file t20o_TIM2_EIG
 Fermi (or HOMO) energy (hartree) =  -0.04551   Average Vxc (hartree)=  -0.22312
 Eigenvalues (hartree) for nkpt=   1  k points, SPIN UP:
 kpt#   1, nband=  5, wtk=  1.00000, kpt=  0.0000  0.0000  0.0000 (reduced coord)
  -0.36788   -0.21954   -0.09688   -0.04551   -0.04551
 Eigenvalues (hartree) for nkpt=   1  k points, SPIN DOWN:
 kpt#   1, nband=  3, wtk=  1.00000, kpt=  0.0000  0.0000  0.0000 (reduced coord)
  -0.33109   -0.19082   -0.08101
 Fermi (or HOMO) energy (eV) =  -1.23844   Average Vxc (eV)=  -6.07145
 Eigenvalues (   eV  ) for nkpt=   1  k points, SPIN UP:
 kpt#   1, nband=  5, wtk=  1.00000, kpt=  0.0000  0.0000  0.0000 (reduced coord)
 -10.01054   -5.97389   -2.63629   -1.23844   -1.23844
 Eigenvalues (   eV  ) for nkpt=   1  k points, SPIN DOWN:
 kpt#   1, nband=  3, wtk=  1.00000, kpt=  0.0000  0.0000  0.0000 (reduced coord)
  -9.00928   -5.19260   -2.20444

 ETOT  7  -8.6721899593348    -6.154E-11 3.298E-12 1.158E-08

 prteigrs : about to open file t20o_TIM2_EIG
 Fermi (or HOMO) energy (hartree) =  -0.04551   Average Vxc (hartree)=  -0.22312
 Eigenvalues (hartree) for nkpt=   1  k points, SPIN UP:
 kpt#   1, nband=  5, wtk=  1.00000, kpt=  0.0000  0.0000  0.0000 (reduced coord)
  -0.36788   -0.21954   -0.09688   -0.04551   -0.04551
 Eigenvalues (hartree) for nkpt=   1  k points, SPIN DOWN:
 kpt#   1, nband=  3, wtk=  1.00000, kpt=  0.0000  0.0000  0.0000 (reduced coord)
  -0.33109   -0.19082   -0.08101
 Fermi (or HOMO) energy (eV) =  -1.23841   Average Vxc (eV)=  -6.07145
 Eigenvalues (   eV  ) for nkpt=   1  k points, SPIN UP:
 kpt#   1, nband=  5, wtk=  1.00000, kpt=  0.0000  0.0000  0.0000 (reduced coord)
 -10.01052   -5.97389   -2.63628   -1.23841   -1.23841
 Eigenvalues (   eV  ) for nkpt=   1  k points, SPIN DOWN:
 kpt#   1, nband=  3, wtk=  1.00000, kpt=  0.0000  0.0000  0.0000 (reduced coord)
  -9.00930   -5.19257   -2.20444

 ETOT  8  -8.6721899593450    -1.023E-11 1.130E-12 3.824E-10

 prteigrs : about to open file t20o_TIM2_EIG
 Fermi (or HOMO) energy (hartree) =  -0.04551   Average Vxc (hartree)=  -0.22312
 Eigenvalues (hartree) for nkpt=   1  k points, SPIN UP:
 kpt#   1, nband=  5, wtk=  1.00000, kpt=  0.0000  0.0000  0.0000 (reduced coord)
  -0.36788   -0.21954   -0.09688   -0.04551   -0.04551
 Eigenvalues (hartree) for nkpt=   1  k points, SPIN DOWN:
 kpt#   1, nband=  3, wtk=  1.00000, kpt=  0.0000  0.0000  0.0000 (reduced coord)
  -0.33109   -0.19082   -0.08101
 Fermi (or HOMO) energy (eV) =  -1.23841   Average Vxc (eV)=  -6.07145
 Eigenvalues (   eV  ) for nkpt=   1  k points, SPIN UP:
 kpt#   1, nband=  5, wtk=  1.00000, kpt=  0.0000  0.0000  0.0000 (reduced coord)
 -10.01051   -5.97389   -2.63628   -1.23841   -1.23841
 Eigenvalues (   eV  ) for nkpt=   1  k points, SPIN DOWN:
 kpt#   1, nband=  3, wtk=  1.00000, kpt=  0.0000  0.0000  0.0000 (reduced coord)
  -9.00931   -5.19255   -2.20443

 ETOT  9  -8.6721899593451    -1.208E-13 7.821E-14 1.353E-10

 prteigrs : about to open file t20o_TIM2_EIG
 Fermi (or HOMO) energy (hartree) =  -0.04551   Average Vxc (hartree)=  -0.22312
 Eigenvalues (hartree) for nkpt=   1  k points, SPIN UP:
 kpt#   1, nband=  5, wtk=  1.00000, kpt=  0.0000  0.0000  0.0000 (reduced coord)
  -0.36788   -0.21954   -0.09688   -0.04551   -0.04551
 Eigenvalues (hartree) for nkpt=   1  k points, SPIN DOWN:
 kpt#   1, nband=  3, wtk=  1.00000, kpt=  0.0000  0.0000  0.0000 (reduced coord)
  -0.33109   -0.19082   -0.08101
 Fermi (or HOMO) energy (eV) =  -1.23841   Average Vxc (eV)=  -6.07145
 Eigenvalues (   eV  ) for nkpt=   1  k points, SPIN UP:
 kpt#   1, nband=  5, wtk=  1.00000, kpt=  0.0000  0.0000  0.0000 (reduced coord)
 -10.01051   -5.97389   -2.63628   -1.23841   -1.23841
 Eigenvalues (   eV  ) for nkpt=   1  k points, SPIN DOWN:
 kpt#   1, nband=  3, wtk=  1.00000, kpt=  0.0000  0.0000  0.0000 (reduced coord)
  -9.00932   -5.19255   -2.20443

 At SCF step    9   max residual=  7.82E-14 < tolwfr=  1.00E-13 =>converged.

 Cartesian components of stress tensor (hartree/bohr^3)
  sigma(1 1)=  1.61557701E-04  sigma(3 2)=  0.00000000E+00
  sigma(2 2)=  1.10500330E-04  sigma(3 1)=  0.00000000E+00
  sigma(3 3)=  1.10500330E-04  sigma(2 1)=  0.00000000E+00


--- !ResultsGS
comment   : Summary of ground state results
natom     :        2
nsppol    :        2
nspinor   :        1
nspden    :        2
nelect    :  8.000000000000000E+000
charge    :  0.000000000000000E+000
abc       : [ 9.000000000000000E+001,  9.000000000000000E+001,  9.000000000000000E+001, ]
alpha_beta_gamma_angles: [ 9.000000000000000E+001,  9.000000000000000E+001,  9.000000000000000E+001, ]
cutoff_energies: {"ecut":  7.000000000000000E+000, "pawecutdg": -1.000000000000000E+000, }
convergence: {
    "deltae": -1.207922650792170E-013, "res2":  1.353227273238171E-010, 
    "residm":  7.821194558494643E-014, "diffor": undef, 
}
etotal    : -8.672189959345143E+000
entropy   :  0.000000000000000E+000
fermie    : -4.551081159675197E-002
stress_tensor: !CartTensor
- [ 1.615577012682354E-004,  0.000000000000000E+000,  0.000000000000000E+000, ]
- [ 0.000000000000000E+000,  1.105003296515134E-004,  0.000000000000000E+000, ]
- [ 0.000000000000000E+000,  0.000000000000000E+000,  1.105003296281541E-004, ]
cartesian_forces: !CartForces
- [-1.375722119446922E-002, -8.096974585819746E-016,  4.910159720180979E-015, ]
- [ 1.375722119446922E-002,  8.096974585819754E-016, -4.910159720180979E-015, ]
...

 Integrated electronic and magnetization densities in atomic spheres:
 ---------------------------------------------------------------------
 Radius=ratsph(iatom), smearing ratsm=  0.0000. Diff(up-dn)=approximate z local magnetic moment.
 Atom    Radius    up_density   dn_density  Total(up+dn)  Diff(up-dn)
    1   2.00000     0.950309     0.608443      1.558753     0.341866
    2   2.00000     0.950309     0.608443      1.558753     0.341866
 ---------------------------------------------------------------------
  Sum:              1.900619     1.216887      3.117505     0.683732
 Total magnetization (from the atomic spheres):             0.683732
 Total magnetization (exact up - dn):                       2.000000

---OUTPUT-----------------------------------------------------------------------

 Cartesian coordinates (xcart) [bohr]
 -2.13975148171488E+00  1.91587759846515E-14 -1.46373604648958E-13
  2.13975148171488E+00 -1.91587759846515E-14  1.46373604648958E-13
 Reduced coordinates (xred)
 -1.78312623476240E-01  2.39484699808143E-15 -1.82967005811197E-14
  1.78312623476240E-01 -2.39484699808143E-15  1.82967005811197E-14
 Cartesian forces (fcart) [Ha/bohr]; max,rms= 1.37572E-02 7.94274E-03 (free atoms)
 -1.37572211944692E-02 -8.09697458581975E-16  4.91015972018098E-15
  1.37572211944692E-02  8.09697458581975E-16 -4.91015972018098E-15
 Reduced forces (fred)
  1.65086654333631E-01  6.47757966865580E-15 -3.92812777614478E-14
 -1.65086654333631E-01 -6.47757966865580E-15  3.92812777614478E-14
 Total energy (etotal) [Ha]= -8.67218995934514E+00

 Difference of energy with previous step (new-old):
           Absolute (Ha)=-5.58347E-04
           Relative     =-6.43857E-05

--- Iteration: (3/8) Internal Cycle: (1/1)
--------------------------------------------------------------------------------

---SELF-CONSISTENT-FIELD CONVERGENCE--------------------------------------------

     iter   Etot(hartree)      deltaE(h)  residm     vres2

 ETOT  1  -8.6673111510040    -8.667E+00 1.351E-06 1.819E+01

 prteigrs : about to open file t20o_TIM3_EIG
 Fermi (or HOMO) energy (hartree) =  -0.02897   Average Vxc (hartree)=  -0.22482
 Eigenvalues (hartree) for nkpt=   1  k points, SPIN UP:
 kpt#   1, nband=  5, wtk=  1.00000, kpt=  0.0000  0.0000  0.0000 (reduced coord)
  -0.34497   -0.21963   -0.09608   -0.02897   -0.02897
 Eigenvalues (hartree) for nkpt=   1  k points, SPIN DOWN:
 kpt#   1, nband=  3, wtk=  1.00000, kpt=  0.0000  0.0000  0.0000 (reduced coord)
  -0.30960   -0.19203   -0.07977
 Fermi (or HOMO) energy (eV) =  -0.78831   Average Vxc (eV)=  -6.11762
 Eigenvalues (   eV  ) for nkpt=   1  k points, SPIN UP:
 kpt#   1, nband=  5, wtk=  1.00000, kpt=  0.0000  0.0000  0.0000 (reduced coord)
  -9.38721   -5.97642   -2.61434   -0.78831   -0.78831
 Eigenvalues (   eV  ) for nkpt=   1  k points, SPIN DOWN:
 kpt#   1, nband=  3, wtk=  1.00000, kpt=  0.0000  0.0000  0.0000 (reduced coord)
  -8.42473   -5.22542   -2.17070

 ETOT  2  -8.6727942575796    -5.483E-03 2.770E-08 1.131E+00

 prteigrs : about to open file t20o_TIM3_EIG
 Fermi (or HOMO) energy (hartree) =  -0.03859   Average Vxc (hartree)=  -0.22397
 Eigenvalues (hartree) for nkpt=   1  k points, SPIN UP:
 kpt#   1, nband=  5, wtk=  1.00000, kpt=  0.0000  0.0000  0.0000 (reduced coord)
  -0.35791   -0.22292   -0.09862   -0.03859   -0.03859
 Eigenvalues (hartree) for nkpt=   1  k points, SPIN DOWN:
 kpt#   1, nband=  3, wtk=  1.00000, kpt=  0.0000  0.0000  0.0000 (reduced coord)
  -0.32182   -0.19385   -0.08217
 Fermi (or HOMO) energy (eV) =  -1.04997   Average Vxc (eV)=  -6.09454
 Eigenvalues (   eV  ) for nkpt=   1  k points, SPIN UP:
 kpt#   1, nband=  5, wtk=  1.00000, kpt=  0.0000  0.0000  0.0000 (reduced coord)
  -9.73933   -6.06591   -2.68360   -1.04997   -1.04997
 Eigenvalues (   eV  ) for nkpt=   1  k points, SPIN DOWN:
 kpt#   1, nband=  3, wtk=  1.00000, kpt=  0.0000  0.0000  0.0000 (reduced coord)
  -8.75714   -5.27481   -2.23602

 ETOT  3  -8.6731381447686    -3.439E-04 1.550E-05 2.293E-03

 prteigrs : about to open file t20o_TIM3_EIG
 Fermi (or HOMO) energy (hartree) =  -0.04017   Average Vxc (hartree)=  -0.22371
 Eigenvalues (hartree) for nkpt=   1  k points, SPIN UP:
 kpt#   1, nband=  5, wtk=  1.00000, kpt=  0.0000  0.0000  0.0000 (reduced coord)
  -0.36064   -0.22240   -0.09781   -0.04017   -0.04017
 Eigenvalues (hartree) for nkpt=   1  k points, SPIN DOWN:
 kpt#   1, nband=  3, wtk=  1.00000, kpt=  0.0000  0.0000  0.0000 (reduced coord)
  -0.32477   -0.19315   -0.08162
 Fermi (or HOMO) energy (eV) =  -1.09322   Average Vxc (eV)=  -6.08732
 Eigenvalues (   eV  ) for nkpt=   1  k points, SPIN UP:
 kpt#   1, nband=  5, wtk=  1.00000, kpt=  0.0000  0.0000  0.0000 (reduced coord)
  -9.81346   -6.05175   -2.66150   -1.09322   -1.09322
 Eigenvalues (   eV  ) for nkpt=   1  k points, SPIN DOWN:
 kpt#   1, nband=  3, wtk=  1.00000, kpt=  0.0000  0.0000  0.0000 (reduced coord)
  -8.83750   -5.25594   -2.22103

 ETOT  4  -8.6731396292487    -1.484E-06 3.327E-08 6.814E-05

 prteigrs : about to open file t20o_TIM3_EIG
 Fermi (or HOMO) energy (hartree) =  -0.03980   Average Vxc (hartree)=  -0.22372
 Eigenvalues (hartree) for nkpt=   1  k points, SPIN UP:
 kpt#   1, nband=  5, wtk=  1.00000, kpt=  0.0000  0.0000  0.0000 (reduced coord)
  -0.36020   -0.22199   -0.09747   -0.03980   -0.03980
 Eigenvalues (hartree) for nkpt=   1  k points, SPIN DOWN:
 kpt#   1, nband=  3, wtk=  1.00000, kpt=  0.0000  0.0000  0.0000 (reduced coord)
  -0.32450   -0.19272   -0.08136
 Fermi (or HOMO) energy (eV) =  -1.08306   Average Vxc (eV)=  -6.08785
 Eigenvalues (   eV  ) for nkpt=   1  k points, SPIN UP:
 kpt#   1, nband=  5, wtk=  1.00000, kpt=  0.0000  0.0000  0.0000 (reduced coord)
  -9.80155   -6.04067   -2.65219   -1.08306   -1.08306
 Eigenvalues (   eV  ) for nkpt=   1  k points, SPIN DOWN:
 kpt#   1, nband=  3, wtk=  1.00000, kpt=  0.0000  0.0000  0.0000 (reduced coord)
  -8.82996   -5.24410   -2.21382

 ETOT  5  -8.6731396663713    -3.712E-08 1.073E-09 1.583E-05

 prteigrs : about to open file t20o_TIM3_EIG
 Fermi (or HOMO) energy (hartree) =  -0.03984   Average Vxc (hartree)=  -0.22372
 Eigenvalues (hartree) for nkpt=   1  k points, SPIN UP:
 kpt#   1, nband=  5, wtk=  1.00000, kpt=  0.0000  0.0000  0.0000 (reduced coord)
  -0.36025   -0.22203   -0.09750   -0.03984   -0.03984
 Eigenvalues (hartree) for nkpt=   1  k points, SPIN DOWN:
 kpt#   1, nband=  3, wtk=  1.00000, kpt=  0.0000  0.0000  0.0000 (reduced coord)
  -0.32455   -0.19275   -0.08139
 Fermi (or HOMO) energy (eV) =  -1.08403   Average Vxc (eV)=  -6.08773
 Eigenvalues (   eV  ) for nkpt=   1  k points, SPIN UP:
 kpt#   1, nband=  5, wtk=  1.00000, kpt=  0.0000  0.0000  0.0000 (reduced coord)
  -9.80277   -6.04170   -2.65317   -1.08403   -1.08403
 Eigenvalues (   eV  ) for nkpt=   1  k points, SPIN DOWN:
 kpt#   1, nband=  3, wtk=  1.00000, kpt=  0.0000  0.0000  0.0000 (reduced coord)
  -8.83137   -5.24505   -2.21485

 ETOT  6  -8.6731396778825    -1.151E-08 4.555E-10 6.975E-07

 prteigrs : about to open file t20o_TIM3_EIG
 Fermi (or HOMO) energy (hartree) =  -0.03984   Average Vxc (hartree)=  -0.22372
 Eigenvalues (hartree) for nkpt=   1  k points, SPIN UP:
 kpt#   1, nband=  5, wtk=  1.00000, kpt=  0.0000  0.0000  0.0000 (reduced coord)
  -0.36025   -0.22204   -0.09752   -0.03984   -0.03984
 Eigenvalues (hartree) for nkpt=   1  k points, SPIN DOWN:
 kpt#   1, nband=  3, wtk=  1.00000, kpt=  0.0000  0.0000  0.0000 (reduced coord)
  -0.32457   -0.19275   -0.08141
 Fermi (or HOMO) energy (eV) =  -1.08409   Average Vxc (eV)=  -6.08764
 Eigenvalues (   eV  ) for nkpt=   1  k points, SPIN UP:
 kpt#   1, nband=  5, wtk=  1.00000, kpt=  0.0000  0.0000  0.0000 (reduced coord)
  -9.80285   -6.04207   -2.65355   -1.08409   -1.08409
 Eigenvalues (   eV  ) for nkpt=   1  k points, SPIN DOWN:
 kpt#   1, nband=  3, wtk=  1.00000, kpt=  0.0000  0.0000  0.0000 (reduced coord)
  -8.83191   -5.24509   -2.21531

 ETOT  7  -8.6731396784365    -5.540E-10 4.384E-11 1.257E-07

 prteigrs : about to open file t20o_TIM3_EIG
 Fermi (or HOMO) energy (hartree) =  -0.03984   Average Vxc (hartree)=  -0.22372
 Eigenvalues (hartree) for nkpt=   1  k points, SPIN UP:
 kpt#   1, nband=  5, wtk=  1.00000, kpt=  0.0000  0.0000  0.0000 (reduced coord)
  -0.36025   -0.22204   -0.09751   -0.03984   -0.03984
 Eigenvalues (hartree) for nkpt=   1  k points, SPIN DOWN:
 kpt#   1, nband=  3, wtk=  1.00000, kpt=  0.0000  0.0000  0.0000 (reduced coord)
  -0.32457   -0.19275   -0.08141
 Fermi (or HOMO) energy (eV) =  -1.08403   Average Vxc (eV)=  -6.08763
 Eigenvalues (   eV  ) for nkpt=   1  k points, SPIN UP:
 kpt#   1, nband=  5, wtk=  1.00000, kpt=  0.0000  0.0000  0.0000 (reduced coord)
  -9.80278   -6.04205   -2.65348   -1.08403   -1.08403
 Eigenvalues (   eV  ) for nkpt=   1  k points, SPIN DOWN:
 kpt#   1, nband=  3, wtk=  1.00000, kpt=  0.0000  0.0000  0.0000 (reduced coord)
  -8.83196   -5.24499   -2.21525

 ETOT  8  -8.6731396785577    -1.212E-10 5.533E-12 3.943E-09

 prteigrs : about to open file t20o_TIM3_EIG
 Fermi (or HOMO) energy (hartree) =  -0.03984   Average Vxc (hartree)=  -0.22372
 Eigenvalues (hartree) for nkpt=   1  k points, SPIN UP:
 kpt#   1, nband=  5, wtk=  1.00000, kpt=  0.0000  0.0000  0.0000 (reduced coord)
  -0.36024   -0.22204   -0.09751   -0.03984   -0.03984
 Eigenvalues (hartree) for nkpt=   1  k points, SPIN DOWN:
 kpt#   1, nband=  3, wtk=  1.00000, kpt=  0.0000  0.0000  0.0000 (reduced coord)
  -0.32457   -0.19275   -0.08141
 Fermi (or HOMO) energy (eV) =  -1.08400   Average Vxc (eV)=  -6.08763
 Eigenvalues (   eV  ) for nkpt=   1  k points, SPIN UP:
 kpt#   1, nband=  5, wtk=  1.00000, kpt=  0.0000  0.0000  0.0000 (reduced coord)
  -9.80271   -6.04204   -2.65345   -1.08400   -1.08400
 Eigenvalues (   eV  ) for nkpt=   1  k points, SPIN DOWN:
 kpt#   1, nband=  3, wtk=  1.00000, kpt=  0.0000  0.0000  0.0000 (reduced coord)
  -8.83196   -5.24493   -2.21523

 ETOT  9  -8.6731396785621    -4.373E-12 2.073E-13 6.525E-10

 prteigrs : about to open file t20o_TIM3_EIG
 Fermi (or HOMO) energy (hartree) =  -0.03984   Average Vxc (hartree)=  -0.22372
 Eigenvalues (hartree) for nkpt=   1  k points, SPIN UP:
 kpt#   1, nband=  5, wtk=  1.00000, kpt=  0.0000  0.0000  0.0000 (reduced coord)
  -0.36024   -0.22204   -0.09751   -0.03984   -0.03984
 Eigenvalues (hartree) for nkpt=   1  k points, SPIN DOWN:
 kpt#   1, nband=  3, wtk=  1.00000, kpt=  0.0000  0.0000  0.0000 (reduced coord)
  -0.32457   -0.19275   -0.08141
 Fermi (or HOMO) energy (eV) =  -1.08401   Average Vxc (eV)=  -6.08763
 Eigenvalues (   eV  ) for nkpt=   1  k points, SPIN UP:
 kpt#   1, nband=  5, wtk=  1.00000, kpt=  0.0000  0.0000  0.0000 (reduced coord)
  -9.80271   -6.04205   -2.65346   -1.08401   -1.08401
 Eigenvalues (   eV  ) for nkpt=   1  k points, SPIN DOWN:
 kpt#   1, nband=  3, wtk=  1.00000, kpt=  0.0000  0.0000  0.0000 (reduced coord)
  -8.83197   -5.24493   -2.21523

 ETOT 10  -8.6731396785624    -3.730E-13 6.511E-14 2.261E-11

 prteigrs : about to open file t20o_TIM3_EIG
 Fermi (or HOMO) energy (hartree) =  -0.03984   Average Vxc (hartree)=  -0.22372
 Eigenvalues (hartree) for nkpt=   1  k points, SPIN UP:
 kpt#   1, nband=  5, wtk=  1.00000, kpt=  0.0000  0.0000  0.0000 (reduced coord)
  -0.36024   -0.22204   -0.09751   -0.03984   -0.03984
 Eigenvalues (hartree) for nkpt=   1  k points, SPIN DOWN:
 kpt#   1, nband=  3, wtk=  1.00000, kpt=  0.0000  0.0000  0.0000 (reduced coord)
  -0.32457   -0.19275   -0.08141
 Fermi (or HOMO) energy (eV) =  -1.08401   Average Vxc (eV)=  -6.08763
 Eigenvalues (   eV  ) for nkpt=   1  k points, SPIN UP:
 kpt#   1, nband=  5, wtk=  1.00000, kpt=  0.0000  0.0000  0.0000 (reduced coord)
  -9.80271   -6.04206   -2.65346   -1.08401   -1.08401
 Eigenvalues (   eV  ) for nkpt=   1  k points, SPIN DOWN:
 kpt#   1, nband=  3, wtk=  1.00000, kpt=  0.0000  0.0000  0.0000 (reduced coord)
  -8.83198   -5.24493   -2.21523

 At SCF step   10   max residual=  6.51E-14 < tolwfr=  1.00E-13 =>converged.

 Cartesian components of stress tensor (hartree/bohr^3)
  sigma(1 1)=  2.37168296E-04  sigma(3 2)=  0.00000000E+00
  sigma(2 2)=  1.10985606E-04  sigma(3 1)=  0.00000000E+00
  sigma(3 3)=  1.10985606E-04  sigma(2 1)=  0.00000000E+00


--- !ResultsGS
comment   : Summary of ground state results
natom     :        2
nsppol    :        2
nspinor   :        1
nspden    :        2
nelect    :  8.000000000000000E+000
charge    :  0.000000000000000E+000
abc       : [ 9.000000000000000E+001,  9.000000000000000E+001,  9.000000000000000E+001, ]
alpha_beta_gamma_angles: [ 9.000000000000000E+001,  9.000000000000000E+001,  9.000000000000000E+001, ]
cutoff_energies: {"ecut":  7.000000000000000E+000, "pawecutdg": -1.000000000000000E+000, }
convergence: {
    "deltae": -3.730349362740526E-013, "res2":  2.260893074438799E-011, 
    "residm":  6.510893985244790E-014, "diffor": undef, 
}
etotal    : -8.673139678562434E+000
entropy   :  0.000000000000000E+000
fermie    : -3.983649164503211E-002
stress_tensor: !CartTensor
- [ 2.371682964088565E-004,  0.000000000000000E+000,  0.000000000000000E+000, ]
- [ 0.000000000000000E+000,  1.109856064369545E-004,  0.000000000000000E+000, ]
- [ 0.000000000000000E+000,  0.000000000000000E+000,  1.109856064138003E-004, ]
cartesian_forces: !CartForces
- [-2.353663517137203E-003, -5.601265034141588E-016,  4.740633833774354E-015, ]
- [ 2.353663517137203E-003,  5.601265034141588E-016, -4.740633833774354E-015, ]
...

 Integrated electronic and magnetization densities in atomic spheres:
 ---------------------------------------------------------------------
 Radius=ratsph(iatom), smearing ratsm=  0.0000. Diff(up-dn)=approximate z local magnetic moment.
 Atom    Radius    up_density   dn_density  Total(up+dn)  Diff(up-dn)
    1   2.00000     0.921845     0.588371      1.510216     0.333474
    2   2.00000     0.921845     0.588371      1.510216     0.333474
 ---------------------------------------------------------------------
  Sum:              1.843690     1.176743      3.020433     0.666947
 Total magnetization (from the atomic spheres):             0.666947
 Total magnetization (exact up - dn):                       2.000000

---OUTPUT-----------------------------------------------------------------------

 Cartesian coordinates (xcart) [bohr]
 -2.20089197548914E+00  1.55602802037326E-14 -1.24551640346818E-13
  2.20089197548914E+00 -1.55602802037326E-14  1.24551640346818E-13
 Reduced coordinates (xred)
 -1.83407664624095E-01  1.94503502546658E-15 -1.55689550433523E-14
  1.83407664624095E-01 -1.94503502546658E-15  1.55689550433523E-14
 Cartesian forces (fcart) [Ha/bohr]; max,rms= 2.35366E-03 1.35889E-03 (free atoms)
 -2.35366351713720E-03 -5.60126503414159E-16  4.74063383377435E-15
  2.35366351713720E-03  5.60126503414159E-16 -4.74063383377435E-15
 Reduced forces (fred)
  2.82439622056464E-02  4.48101202731327E-15 -3.79250706701948E-14
 -2.82439622056464E-02 -4.48101202731327E-15  3.79250706701948E-14
 Total energy (etotal) [Ha]= -8.67313967856243E+00

 Difference of energy with previous step (new-old):
           Absolute (Ha)=-9.49719E-04
           Relative     =-1.09507E-04

--- Iteration: (4/8) Internal Cycle: (1/1)
--------------------------------------------------------------------------------

---SELF-CONSISTENT-FIELD CONVERGENCE--------------------------------------------

     iter   Etot(hartree)      deltaE(h)  residm     vres2

 ETOT  1  -8.6729269979669    -8.673E+00 1.593E-08 7.766E-01

 prteigrs : about to open file t20o_TIM4_EIG
 Fermi (or HOMO) energy (hartree) =  -0.03645   Average Vxc (hartree)=  -0.22406
 Eigenvalues (hartree) for nkpt=   1  k points, SPIN UP:
 kpt#   1, nband=  5, wtk=  1.00000, kpt=  0.0000  0.0000  0.0000 (reduced coord)
  -0.35551   -0.22201   -0.09739   -0.03645   -0.03645
 Eigenvalues (hartree) for nkpt=   1  k points, SPIN DOWN:
 kpt#   1, nband=  3, wtk=  1.00000, kpt=  0.0000  0.0000  0.0000 (reduced coord)
  -0.32007   -0.19293   -0.08124
 Fermi (or HOMO) energy (eV) =  -0.99198   Average Vxc (eV)=  -6.09702
 Eigenvalues (   eV  ) for nkpt=   1  k points, SPIN UP:
 kpt#   1, nband=  5, wtk=  1.00000, kpt=  0.0000  0.0000  0.0000 (reduced coord)
  -9.67400   -6.04107   -2.65018   -0.99198   -0.99198
 Eigenvalues (   eV  ) for nkpt=   1  k points, SPIN DOWN:
 kpt#   1, nband=  3, wtk=  1.00000, kpt=  0.0000  0.0000  0.0000 (reduced coord)
  -8.70964   -5.24993   -2.21071

 ETOT  2  -8.6731594419060    -2.324E-04 1.162E-09 4.955E-02

 prteigrs : about to open file t20o_TIM4_EIG
 Fermi (or HOMO) energy (hartree) =  -0.03847   Average Vxc (hartree)=  -0.22389
 Eigenvalues (hartree) for nkpt=   1  k points, SPIN UP:
 kpt#   1, nband=  5, wtk=  1.00000, kpt=  0.0000  0.0000  0.0000 (reduced coord)
  -0.35825   -0.22272   -0.09788   -0.03847   -0.03847
 Eigenvalues (hartree) for nkpt=   1  k points, SPIN DOWN:
 kpt#   1, nband=  3, wtk=  1.00000, kpt=  0.0000  0.0000  0.0000 (reduced coord)
  -0.32271   -0.19335   -0.08166
 Fermi (or HOMO) energy (eV) =  -1.04675   Average Vxc (eV)=  -6.09232
 Eigenvalues (   eV  ) for nkpt=   1  k points, SPIN UP:
 kpt#   1, nband=  5, wtk=  1.00000, kpt=  0.0000  0.0000  0.0000 (reduced coord)
  -9.74860   -6.06042   -2.66339   -1.04675   -1.04675
 Eigenvalues (   eV  ) for nkpt=   1  k points, SPIN DOWN:
 kpt#   1, nband=  3, wtk=  1.00000, kpt=  0.0000  0.0000  0.0000 (reduced coord)
  -8.78137   -5.26127   -2.22215

 ETOT  3  -8.6731742401041    -1.480E-05 6.602E-07 1.015E-04

 prteigrs : about to open file t20o_TIM4_EIG
 Fermi (or HOMO) energy (hartree) =  -0.03880   Average Vxc (hartree)=  -0.22383
 Eigenvalues (hartree) for nkpt=   1  k points, SPIN UP:
 kpt#   1, nband=  5, wtk=  1.00000, kpt=  0.0000  0.0000  0.0000 (reduced coord)
  -0.35882   -0.22262   -0.09771   -0.03880   -0.03880
 Eigenvalues (hartree) for nkpt=   1  k points, SPIN DOWN:
 kpt#   1, nband=  3, wtk=  1.00000, kpt=  0.0000  0.0000  0.0000 (reduced coord)
  -0.32333   -0.19322   -0.08154
 Fermi (or HOMO) energy (eV) =  -1.05583   Average Vxc (eV)=  -6.09083
 Eigenvalues (   eV  ) for nkpt=   1  k points, SPIN UP:
 kpt#   1, nband=  5, wtk=  1.00000, kpt=  0.0000  0.0000  0.0000 (reduced coord)
  -9.76404   -6.05772   -2.65869   -1.05583   -1.05583
 Eigenvalues (   eV  ) for nkpt=   1  k points, SPIN DOWN:
 kpt#   1, nband=  3, wtk=  1.00000, kpt=  0.0000  0.0000  0.0000 (reduced coord)
  -8.79822   -5.25766   -2.21878

 ETOT  4  -8.6731743048886    -6.478E-08 1.029E-09 5.228E-06

 prteigrs : about to open file t20o_TIM4_EIG
 Fermi (or HOMO) energy (hartree) =  -0.03872   Average Vxc (hartree)=  -0.22384
 Eigenvalues (hartree) for nkpt=   1  k points, SPIN UP:
 kpt#   1, nband=  5, wtk=  1.00000, kpt=  0.0000  0.0000  0.0000 (reduced coord)
  -0.35872   -0.22254   -0.09763   -0.03872   -0.03872
 Eigenvalues (hartree) for nkpt=   1  k points, SPIN DOWN:
 kpt#   1, nband=  3, wtk=  1.00000, kpt=  0.0000  0.0000  0.0000 (reduced coord)
  -0.32327   -0.19313   -0.08148
 Fermi (or HOMO) energy (eV) =  -1.05365   Average Vxc (eV)=  -6.09093
 Eigenvalues (   eV  ) for nkpt=   1  k points, SPIN UP:
 kpt#   1, nband=  5, wtk=  1.00000, kpt=  0.0000  0.0000  0.0000 (reduced coord)
  -9.76137   -6.05551   -2.65668   -1.05365   -1.05365
 Eigenvalues (   eV  ) for nkpt=   1  k points, SPIN DOWN:
 kpt#   1, nband=  3, wtk=  1.00000, kpt=  0.0000  0.0000  0.0000 (reduced coord)
  -8.79650   -5.25534   -2.21711

 ETOT  5  -8.6731743070215    -2.133E-09 5.368E-11 1.208E-06

 prteigrs : about to open file t20o_TIM4_EIG
 Fermi (or HOMO) energy (hartree) =  -0.03873   Average Vxc (hartree)=  -0.22384
 Eigenvalues (hartree) for nkpt=   1  k points, SPIN UP:
 kpt#   1, nband=  5, wtk=  1.00000, kpt=  0.0000  0.0000  0.0000 (reduced coord)
  -0.35873   -0.22254   -0.09764   -0.03873   -0.03873
 Eigenvalues (hartree) for nkpt=   1  k points, SPIN DOWN:
 kpt#   1, nband=  3, wtk=  1.00000, kpt=  0.0000  0.0000  0.0000 (reduced coord)
  -0.32328   -0.19314   -0.08148
 Fermi (or HOMO) energy (eV) =  -1.05387   Average Vxc (eV)=  -6.09091
 Eigenvalues (   eV  ) for nkpt=   1  k points, SPIN UP:
 kpt#   1, nband=  5, wtk=  1.00000, kpt=  0.0000  0.0000  0.0000 (reduced coord)
  -9.76166   -6.05571   -2.65687   -1.05387   -1.05387
 Eigenvalues (   eV  ) for nkpt=   1  k points, SPIN DOWN:
 kpt#   1, nband=  3, wtk=  1.00000, kpt=  0.0000  0.0000  0.0000 (reduced coord)
  -8.79681   -5.25552   -2.21731

 ETOT  6  -8.6731743076583    -6.368E-10 3.699E-11 4.170E-08

 prteigrs : about to open file t20o_TIM4_EIG
 Fermi (or HOMO) energy (hartree) =  -0.03873   Average Vxc (hartree)=  -0.22384
 Eigenvalues (hartree) for nkpt=   1  k points, SPIN UP:
 kpt#   1, nband=  5, wtk=  1.00000, kpt=  0.0000  0.0000  0.0000 (reduced coord)
  -0.35874   -0.22255   -0.09764   -0.03873   -0.03873
 Eigenvalues (hartree) for nkpt=   1  k points, SPIN DOWN:
 kpt#   1, nband=  3, wtk=  1.00000, kpt=  0.0000  0.0000  0.0000 (reduced coord)
  -0.32328   -0.19314   -0.08149
 Fermi (or HOMO) energy (eV) =  -1.05391   Average Vxc (eV)=  -6.09089
 Eigenvalues (   eV  ) for nkpt=   1  k points, SPIN UP:
 kpt#   1, nband=  5, wtk=  1.00000, kpt=  0.0000  0.0000  0.0000 (reduced coord)
  -9.76173   -6.05579   -2.65695   -1.05391   -1.05391
 Eigenvalues (   eV  ) for nkpt=   1  k points, SPIN DOWN:
 kpt#   1, nband=  3, wtk=  1.00000, kpt=  0.0000  0.0000  0.0000 (reduced coord)
  -8.79698   -5.25554   -2.21740

 ETOT  7  -8.6731743076915    -3.318E-11 1.591E-12 7.051E-09

 prteigrs : about to open file t20o_TIM4_EIG
 Fermi (or HOMO) energy (hartree) =  -0.03873   Average Vxc (hartree)=  -0.22384
 Eigenvalues (hartree) for nkpt=   1  k points, SPIN UP:
 kpt#   1, nband=  5, wtk=  1.00000, kpt=  0.0000  0.0000  0.0000 (reduced coord)
  -0.35874   -0.22255   -0.09764   -0.03873   -0.03873
 Eigenvalues (hartree) for nkpt=   1  k points, SPIN DOWN:
 kpt#   1, nband=  3, wtk=  1.00000, kpt=  0.0000  0.0000  0.0000 (reduced coord)
  -0.32328   -0.19314   -0.08149
 Fermi (or HOMO) energy (eV) =  -1.05389   Average Vxc (eV)=  -6.09088
 Eigenvalues (   eV  ) for nkpt=   1  k points, SPIN UP:
 kpt#   1, nband=  5, wtk=  1.00000, kpt=  0.0000  0.0000  0.0000 (reduced coord)
  -9.76171   -6.05579   -2.65695   -1.05389   -1.05389
 Eigenvalues (   eV  ) for nkpt=   1  k points, SPIN DOWN:
 kpt#   1, nband=  3, wtk=  1.00000, kpt=  0.0000  0.0000  0.0000 (reduced coord)
  -8.79699   -5.25552   -2.21739

 ETOT  8  -8.6731743076967    -5.230E-12 5.584E-13 2.014E-10

 prteigrs : about to open file t20o_TIM4_EIG
 Fermi (or HOMO) energy (hartree) =  -0.03873   Average Vxc (hartree)=  -0.22384
 Eigenvalues (hartree) for nkpt=   1  k points, SPIN UP:
 kpt#   1, nband=  5, wtk=  1.00000, kpt=  0.0000  0.0000  0.0000 (reduced coord)
  -0.35874   -0.22255   -0.09764   -0.03873   -0.03873
 Eigenvalues (hartree) for nkpt=   1  k points, SPIN DOWN:
 kpt#   1, nband=  3, wtk=  1.00000, kpt=  0.0000  0.0000  0.0000 (reduced coord)
  -0.32328   -0.19314   -0.08149
 Fermi (or HOMO) energy (eV) =  -1.05388   Average Vxc (eV)=  -6.09089
 Eigenvalues (   eV  ) for nkpt=   1  k points, SPIN UP:
 kpt#   1, nband=  5, wtk=  1.00000, kpt=  0.0000  0.0000  0.0000 (reduced coord)
  -9.76170   -6.05579   -2.65694   -1.05388   -1.05388
 Eigenvalues (   eV  ) for nkpt=   1  k points, SPIN DOWN:
 kpt#   1, nband=  3, wtk=  1.00000, kpt=  0.0000  0.0000  0.0000 (reduced coord)
  -8.79700   -5.25551   -2.21738

 ETOT  9  -8.6731743076967    -1.776E-15 7.718E-14 5.183E-11

 prteigrs : about to open file t20o_TIM4_EIG
 Fermi (or HOMO) energy (hartree) =  -0.03873   Average Vxc (hartree)=  -0.22384
 Eigenvalues (hartree) for nkpt=   1  k points, SPIN UP:
 kpt#   1, nband=  5, wtk=  1.00000, kpt=  0.0000  0.0000  0.0000 (reduced coord)
  -0.35874   -0.22255   -0.09764   -0.03873   -0.03873
 Eigenvalues (hartree) for nkpt=   1  k points, SPIN DOWN:
 kpt#   1, nband=  3, wtk=  1.00000, kpt=  0.0000  0.0000  0.0000 (reduced coord)
  -0.32328   -0.19314   -0.08149
 Fermi (or HOMO) energy (eV) =  -1.05389   Average Vxc (eV)=  -6.09089
 Eigenvalues (   eV  ) for nkpt=   1  k points, SPIN UP:
 kpt#   1, nband=  5, wtk=  1.00000, kpt=  0.0000  0.0000  0.0000 (reduced coord)
  -9.76170   -6.05579   -2.65694   -1.05389   -1.05389
 Eigenvalues (   eV  ) for nkpt=   1  k points, SPIN DOWN:
 kpt#   1, nband=  3, wtk=  1.00000, kpt=  0.0000  0.0000  0.0000 (reduced coord)
  -8.79700   -5.25551   -2.21738

 At SCF step    9   max residual=  7.72E-14 < tolwfr=  1.00E-13 =>converged.

 Cartesian components of stress tensor (hartree/bohr^3)
  sigma(1 1)=  2.51011065E-04  sigma(3 2)=  0.00000000E+00
  sigma(2 2)=  1.11108682E-04  sigma(3 1)=  0.00000000E+00
  sigma(3 3)=  1.11108682E-04  sigma(2 1)=  0.00000000E+00


--- !ResultsGS
comment   : Summary of ground state results
natom     :        2
nsppol    :        2
nspinor   :        1
nspden    :        2
nelect    :  8.000000000000000E+000
charge    :  0.000000000000000E+000
abc       : [ 9.000000000000000E+001,  9.000000000000000E+001,  9.000000000000000E+001, ]
alpha_beta_gamma_angles: [ 9.000000000000000E+001,  9.000000000000000E+001,  9.000000000000000E+001, ]
cutoff_energies: {"ecut":  7.000000000000000E+000, "pawecutdg": -1.000000000000000E+000, }
convergence: {
    "deltae": -1.776356839400250E-015, "res2":  5.183172256399372E-011, 
    "residm":  7.717730612451698E-014, "diffor": undef, 
}
etotal    : -8.673174307696746E+000
entropy   :  0.000000000000000E+000
fermie    : -3.872959746449965E-002
stress_tensor: !CartTensor
- [ 2.510110648340701E-004,  0.000000000000000E+000,  0.000000000000000E+000, ]
- [ 0.000000000000000E+000,  1.111086816655117E-004,  0.000000000000000E+000, ]
- [ 0.000000000000000E+000,  0.000000000000000E+000,  1.111086816423284E-004, ]
cartesian_forces: !CartForces
- [-4.121514746528116E-004, -5.047941400819805E-016,  4.369678531039421E-015, ]
- [ 4.121514746528116E-004,  5.047941400819805E-016, -4.369678531039421E-015, ]
...

 Integrated electronic and magnetization densities in atomic spheres:
 ---------------------------------------------------------------------
 Radius=ratsph(iatom), smearing ratsm=  0.0000. Diff(up-dn)=approximate z local magnetic moment.
 Atom    Radius    up_density   dn_density  Total(up+dn)  Diff(up-dn)
    1   2.00000     0.931384     0.597143      1.528528     0.334241
    2   2.00000     0.931384     0.597143      1.528528     0.334241
 ---------------------------------------------------------------------
  Sum:              1.862769     1.194287      3.057056     0.668482
 Total magnetization (from the atomic spheres):             0.668482
 Total magnetization (exact up - dn):                       2.000000

---OUTPUT-----------------------------------------------------------------------

 Cartesian coordinates (xcart) [bohr]
 -2.21351120833630E+00  1.43089446577515E-14 -1.15342001681554E-13
  2.21351120833630E+00 -1.43089446577515E-14  1.15342001681554E-13
 Reduced coordinates (xred)
 -1.84459267361358E-01  1.78861808221894E-15 -1.44177502101943E-14
  1.84459267361358E-01 -1.78861808221894E-15  1.44177502101943E-14
 Cartesian forces (fcart) [Ha/bohr]; max,rms= 4.12151E-04 2.37956E-04 (free atoms)
 -4.12151474652812E-04 -5.04794140081981E-16  4.36967853103942E-15
  4.12151474652812E-04  5.04794140081981E-16 -4.36967853103942E-15
 Reduced forces (fred)
  4.94581769583374E-03  4.03835312065584E-15 -3.49574282483154E-14
 -4.94581769583374E-03 -4.03835312065584E-15  3.49574282483154E-14
 Total energy (etotal) [Ha]= -8.67317430769675E+00

 Difference of energy with previous step (new-old):
           Absolute (Ha)=-3.46291E-05
           Relative     =-3.99268E-06

--- Iteration: (5/8) Internal Cycle: (1/1)
--------------------------------------------------------------------------------

---SELF-CONSISTENT-FIELD CONVERGENCE--------------------------------------------

     iter   Etot(hartree)      deltaE(h)  residm     vres2

 ETOT  1  -8.6731643204821    -8.673E+00 4.882E-10 3.501E-02

 prteigrs : about to open file t20o_TIM5_EIG
 Fermi (or HOMO) energy (hartree) =  -0.03801   Average Vxc (hartree)=  -0.22391
 Eigenvalues (hartree) for nkpt=   1  k points, SPIN UP:
 kpt#   1, nband=  5, wtk=  1.00000, kpt=  0.0000  0.0000  0.0000 (reduced coord)
  -0.35773   -0.22254   -0.09762   -0.03801   -0.03801
 Eigenvalues (hartree) for nkpt=   1  k points, SPIN DOWN:
 kpt#   1, nband=  3, wtk=  1.00000, kpt=  0.0000  0.0000  0.0000 (reduced coord)
  -0.32233   -0.19317   -0.08146
 Fermi (or HOMO) energy (eV) =  -1.03439   Average Vxc (eV)=  -6.09287
 Eigenvalues (   eV  ) for nkpt=   1  k points, SPIN UP:
 kpt#   1, nband=  5, wtk=  1.00000, kpt=  0.0000  0.0000  0.0000 (reduced coord)
  -9.73438   -6.05551   -2.65630   -1.03439   -1.03439
 Eigenvalues (   eV  ) for nkpt=   1  k points, SPIN DOWN:
 kpt#   1, nband=  3, wtk=  1.00000, kpt=  0.0000  0.0000  0.0000 (reduced coord)
  -8.77097   -5.25649   -2.21652

 ETOT  2  -8.6731747833085    -1.046E-05 5.247E-11 2.247E-03

 prteigrs : about to open file t20o_TIM5_EIG
 Fermi (or HOMO) energy (hartree) =  -0.03844   Average Vxc (hartree)=  -0.22387
 Eigenvalues (hartree) for nkpt=   1  k points, SPIN UP:
 kpt#   1, nband=  5, wtk=  1.00000, kpt=  0.0000  0.0000  0.0000 (reduced coord)
  -0.35832   -0.22269   -0.09772   -0.03844   -0.03844
 Eigenvalues (hartree) for nkpt=   1  k points, SPIN DOWN:
 kpt#   1, nband=  3, wtk=  1.00000, kpt=  0.0000  0.0000  0.0000 (reduced coord)
  -0.32289   -0.19326   -0.08154
 Fermi (or HOMO) energy (eV) =  -1.04605   Average Vxc (eV)=  -6.09188
 Eigenvalues (   eV  ) for nkpt=   1  k points, SPIN UP:
 kpt#   1, nband=  5, wtk=  1.00000, kpt=  0.0000  0.0000  0.0000 (reduced coord)
  -9.75029   -6.05966   -2.65906   -1.04605   -1.04605
 Eigenvalues (   eV  ) for nkpt=   1  k points, SPIN DOWN:
 kpt#   1, nband=  3, wtk=  1.00000, kpt=  0.0000  0.0000  0.0000 (reduced coord)
  -8.78632   -5.25894   -2.21886

 ETOT  3  -8.6731754518772    -6.686E-07 2.976E-08 4.611E-06

 prteigrs : about to open file t20o_TIM5_EIG
 Fermi (or HOMO) energy (hartree) =  -0.03851   Average Vxc (hartree)=  -0.22386
 Eigenvalues (hartree) for nkpt=   1  k points, SPIN UP:
 kpt#   1, nband=  5, wtk=  1.00000, kpt=  0.0000  0.0000  0.0000 (reduced coord)
  -0.35844   -0.22267   -0.09768   -0.03851   -0.03851
 Eigenvalues (hartree) for nkpt=   1  k points, SPIN DOWN:
 kpt#   1, nband=  3, wtk=  1.00000, kpt=  0.0000  0.0000  0.0000 (reduced coord)
  -0.32302   -0.19324   -0.08152
 Fermi (or HOMO) energy (eV) =  -1.04798   Average Vxc (eV)=  -6.09156
 Eigenvalues (   eV  ) for nkpt=   1  k points, SPIN UP:
 kpt#   1, nband=  5, wtk=  1.00000, kpt=  0.0000  0.0000  0.0000 (reduced coord)
  -9.75358   -6.05910   -2.65805   -1.04798   -1.04798
 Eigenvalues (   eV  ) for nkpt=   1  k points, SPIN DOWN:
 kpt#   1, nband=  3, wtk=  1.00000, kpt=  0.0000  0.0000  0.0000 (reduced coord)
  -8.78991   -5.25819   -2.21814

 ETOT  4  -8.6731754548137    -2.937E-09 4.985E-11 2.712E-07

 prteigrs : about to open file t20o_TIM5_EIG
 Fermi (or HOMO) energy (hartree) =  -0.03850   Average Vxc (hartree)=  -0.22386
 Eigenvalues (hartree) for nkpt=   1  k points, SPIN UP:
 kpt#   1, nband=  5, wtk=  1.00000, kpt=  0.0000  0.0000  0.0000 (reduced coord)
  -0.35842   -0.22265   -0.09767   -0.03850   -0.03850
 Eigenvalues (hartree) for nkpt=   1  k points, SPIN DOWN:
 kpt#   1, nband=  3, wtk=  1.00000, kpt=  0.0000  0.0000  0.0000 (reduced coord)
  -0.32301   -0.19322   -0.08150
 Fermi (or HOMO) energy (eV) =  -1.04752   Average Vxc (eV)=  -6.09158
 Eigenvalues (   eV  ) for nkpt=   1  k points, SPIN UP:
 kpt#   1, nband=  5, wtk=  1.00000, kpt=  0.0000  0.0000  0.0000 (reduced coord)
  -9.75300   -6.05863   -2.65762   -1.04752   -1.04752
 Eigenvalues (   eV  ) for nkpt=   1  k points, SPIN DOWN:
 kpt#   1, nband=  3, wtk=  1.00000, kpt=  0.0000  0.0000  0.0000 (reduced coord)
  -8.78954   -5.25771   -2.21778

 ETOT  5  -8.6731754549124    -9.866E-11 2.263E-12 7.534E-08

 prteigrs : about to open file t20o_TIM5_EIG
 Fermi (or HOMO) energy (hartree) =  -0.03850   Average Vxc (hartree)=  -0.22386
 Eigenvalues (hartree) for nkpt=   1  k points, SPIN UP:
 kpt#   1, nband=  5, wtk=  1.00000, kpt=  0.0000  0.0000  0.0000 (reduced coord)
  -0.35842   -0.22265   -0.09767   -0.03850   -0.03850
 Eigenvalues (hartree) for nkpt=   1  k points, SPIN DOWN:
 kpt#   1, nband=  3, wtk=  1.00000, kpt=  0.0000  0.0000  0.0000 (reduced coord)
  -0.32301   -0.19322   -0.08150
 Fermi (or HOMO) energy (eV) =  -1.04756   Average Vxc (eV)=  -6.09158
 Eigenvalues (   eV  ) for nkpt=   1  k points, SPIN UP:
 kpt#   1, nband=  5, wtk=  1.00000, kpt=  0.0000  0.0000  0.0000 (reduced coord)
  -9.75306   -6.05867   -2.65766   -1.04756   -1.04756
 Eigenvalues (   eV  ) for nkpt=   1  k points, SPIN DOWN:
 kpt#   1, nband=  3, wtk=  1.00000, kpt=  0.0000  0.0000  0.0000 (reduced coord)
  -8.78960   -5.25774   -2.21782

 ETOT  6  -8.6731754549479    -3.550E-11 2.174E-12 2.310E-09

 prteigrs : about to open file t20o_TIM5_EIG
 Fermi (or HOMO) energy (hartree) =  -0.03850   Average Vxc (hartree)=  -0.22386
 Eigenvalues (hartree) for nkpt=   1  k points, SPIN UP:
 kpt#   1, nband=  5, wtk=  1.00000, kpt=  0.0000  0.0000  0.0000 (reduced coord)
  -0.35842   -0.22265   -0.09767   -0.03850   -0.03850
 Eigenvalues (hartree) for nkpt=   1  k points, SPIN DOWN:
 kpt#   1, nband=  3, wtk=  1.00000, kpt=  0.0000  0.0000  0.0000 (reduced coord)
  -0.32301   -0.19322   -0.08150
 Fermi (or HOMO) energy (eV) =  -1.04757   Average Vxc (eV)=  -6.09157
 Eigenvalues (   eV  ) for nkpt=   1  k points, SPIN UP:
 kpt#   1, nband=  5, wtk=  1.00000, kpt=  0.0000  0.0000  0.0000 (reduced coord)
  -9.75308   -6.05869   -2.65768   -1.04757   -1.04757
 Eigenvalues (   eV  ) for nkpt=   1  k points, SPIN DOWN:
 kpt#   1, nband=  3, wtk=  1.00000, kpt=  0.0000  0.0000  0.0000 (reduced coord)
  -8.78964   -5.25775   -2.21784

 ETOT  7  -8.6731754549495    -1.586E-12 8.464E-14 4.064E-10

 prteigrs : about to open file t20o_TIM5_EIG
 Fermi (or HOMO) energy (hartree) =  -0.03850   Average Vxc (hartree)=  -0.22386
 Eigenvalues (hartree) for nkpt=   1  k points, SPIN UP:
 kpt#   1, nband=  5, wtk=  1.00000, kpt=  0.0000  0.0000  0.0000 (reduced coord)
  -0.35842   -0.22265   -0.09767   -0.03850   -0.03850
 Eigenvalues (hartree) for nkpt=   1  k points, SPIN DOWN:
 kpt#   1, nband=  3, wtk=  1.00000, kpt=  0.0000  0.0000  0.0000 (reduced coord)
  -0.32301   -0.19322   -0.08150
 Fermi (or HOMO) energy (eV) =  -1.04757   Average Vxc (eV)=  -6.09157
 Eigenvalues (   eV  ) for nkpt=   1  k points, SPIN UP:
 kpt#   1, nband=  5, wtk=  1.00000, kpt=  0.0000  0.0000  0.0000 (reduced coord)
  -9.75308   -6.05869   -2.65768   -1.04757   -1.04757
 Eigenvalues (   eV  ) for nkpt=   1  k points, SPIN DOWN:
 kpt#   1, nband=  3, wtk=  1.00000, kpt=  0.0000  0.0000  0.0000 (reduced coord)
  -8.78965   -5.25775   -2.21784

 At SCF step    7   max residual=  8.46E-14 < tolwfr=  1.00E-13 =>converged.

 Cartesian components of stress tensor (hartree/bohr^3)
  sigma(1 1)=  2.53877226E-04  sigma(3 2)=  0.00000000E+00
  sigma(2 2)=  1.11135000E-04  sigma(3 1)=  0.00000000E+00
  sigma(3 3)=  1.11135000E-04  sigma(2 1)=  0.00000000E+00


--- !ResultsGS
comment   : Summary of ground state results
natom     :        2
nsppol    :        2
nspinor   :        1
nspden    :        2
nelect    :  8.000000000000000E+000
charge    :  0.000000000000000E+000
abc       : [ 9.000000000000000E+001,  9.000000000000000E+001,  9.000000000000000E+001, ]
alpha_beta_gamma_angles: [ 9.000000000000000E+001,  9.000000000000000E+001,  9.000000000000000E+001, ]
cutoff_energies: {"ecut":  7.000000000000000E+000, "pawecutdg": -1.000000000000000E+000, }
convergence: {
    "deltae": -1.586286657584424E-012, "res2":  4.064347595524146E-010, 
    "residm":  8.464460359494533E-014, "diffor": undef, 
}
etotal    : -8.673175454949487E+000
entropy   :  0.000000000000000E+000
fermie    : -3.849743330860175E-002
stress_tensor: !CartTensor
- [ 2.538772255549770E-004,  0.000000000000000E+000,  0.000000000000000E+000, ]
- [ 0.000000000000000E+000,  1.111349999175430E-004,  0.000000000000000E+000, ]
- [ 0.000000000000000E+000,  0.000000000000000E+000,  1.111349998943142E-004, ]
cartesian_forces: !CartForces
- [-1.676230418950540E-005, -5.514816122343296E-016,  4.167107356504278E-015, ]
- [ 1.676230418950540E-005,  5.514816122343296E-016, -4.167107356504278E-015, ]
...

 Integrated electronic and magnetization densities in atomic spheres:
 ---------------------------------------------------------------------
 Radius=ratsph(iatom), smearing ratsm=  0.0000. Diff(up-dn)=approximate z local magnetic moment.
 Atom    Radius    up_density   dn_density  Total(up+dn)  Diff(up-dn)
    1   2.00000     0.941824     0.605252      1.547076     0.336572
    2   2.00000     0.941824     0.605252      1.547076     0.336572
 ---------------------------------------------------------------------
  Sum:              1.883648     1.210504      3.094152     0.673144
 Total magnetization (from the atomic spheres):             0.673144
 Total magnetization (exact up - dn):                       2.000000

---OUTPUT-----------------------------------------------------------------------

 Cartesian coordinates (xcart) [bohr]
 -2.21619006652164E+00  1.35502584662005E-14 -1.09096014221112E-13
  2.21619006652164E+00 -1.35502584662005E-14  1.09096014221112E-13
 Reduced coordinates (xred)
 -1.84682505543470E-01  1.69378230827506E-15 -1.36370017776390E-14
  1.84682505543470E-01 -1.69378230827506E-15  1.36370017776390E-14
 Cartesian forces (fcart) [Ha/bohr]; max,rms= 1.67623E-05 9.67772E-06 (free atoms)
 -1.67623041895054E-05 -5.51481612234330E-16  4.16710735650428E-15
  1.67623041895054E-05  5.51481612234330E-16 -4.16710735650428E-15
 Reduced forces (fred)
  2.01147650274065E-04  4.41185289787464E-15 -3.33368588520342E-14
 -2.01147650274065E-04 -4.41185289787464E-15  3.33368588520342E-14
 Total energy (etotal) [Ha]= -8.67317545494949E+00

 Difference of energy with previous step (new-old):
           Absolute (Ha)=-1.14725E-06
           Relative     =-1.32276E-07

 At Broyd/MD step   5, gradients are converged : 
  max grad (force/stress) = 1.6762E-05 < tolmxf= 1.0000E-04 ha/bohr (free atoms)

================================================================================

 ----iterations are completed or convergence reached----

 Mean square residual over all n,k,spin=   52.760E-15; max=  84.645E-15
   0.0000  0.0000  0.0000    1  5.89256E-14 kpt; spin; max resid(k); each band:
  5.89E-14 3.40E-14 4.76E-14 5.00E-14 5.00E-14
   0.0000  0.0000  0.0000    2  8.46446E-14 kpt; spin; max resid(k); each band:
  8.46E-14 3.20E-14 6.50E-14
 reduced coordinates (array xred) for    2 atoms
      -0.184682505543      0.000000000000     -0.000000000000
       0.184682505543     -0.000000000000      0.000000000000
 rms dE/dt=  1.1613E-04; max dE/dt=  2.0115E-04; dE/dt below (all hartree)
    1       0.000201147650      0.000000000000     -0.000000000000
    2      -0.000201147650     -0.000000000000      0.000000000000

 cartesian coordinates (angstrom) at end:
    1     -1.17275727310681     0.00000000000001    -0.00000000000006
    2      1.17275727310681    -0.00000000000001     0.00000000000006

 cartesian forces (hartree/bohr) at end:
    1     -0.00001676230419    -0.00000000000000     0.00000000000000
    2      0.00001676230419     0.00000000000000    -0.00000000000000
 frms,max,avg= 9.6777208E-06 1.6762304E-05   0.000E+00  0.000E+00  0.000E+00 h/b

 cartesian forces (eV/Angstrom) at end:
    1     -0.00086195226528    -0.00000000000003     0.00000000000021
    2      0.00086195226528     0.00000000000003    -0.00000000000021
 frms,max,avg= 4.9764837E-04 8.6195227E-04   0.000E+00  0.000E+00  0.000E+00 e/A
 length scales= 12.000000000000  8.000000000000  8.000000000000 bohr
              =  6.350126503080  4.233417668720  4.233417668720 angstroms
 prteigrs : about to open file t20o_EIG
 Fermi (or HOMO) energy (hartree) =  -0.03850   Average Vxc (hartree)=  -0.22386
 Eigenvalues (hartree) for nkpt=   1  k points, SPIN UP:
 kpt#   1, nband=  5, wtk=  1.00000, kpt=  0.0000  0.0000  0.0000 (reduced coord)
  -0.35842   -0.22265   -0.09767   -0.03850   -0.03850
 Eigenvalues (hartree) for nkpt=   1  k points, SPIN DOWN:
 kpt#   1, nband=  3, wtk=  1.00000, kpt=  0.0000  0.0000  0.0000 (reduced coord)
  -0.32301   -0.19322   -0.08150
 Fermi (or HOMO) energy (eV) =  -1.04757   Average Vxc (eV)=  -6.09157
 Eigenvalues (   eV  ) for nkpt=   1  k points, SPIN UP:
 kpt#   1, nband=  5, wtk=  1.00000, kpt=  0.0000  0.0000  0.0000 (reduced coord)
  -9.75308   -6.05869   -2.65768   -1.04757   -1.04757
 Eigenvalues (   eV  ) for nkpt=   1  k points, SPIN DOWN:
 kpt#   1, nband=  3, wtk=  1.00000, kpt=  0.0000  0.0000  0.0000 (reduced coord)
  -8.78965   -5.25775   -2.21784
 Total charge density [el/Bohr^3]
      Maximum=    8.1294E-02  at reduced coord.    0.9667    0.0000    0.0000
 Next maximum=    8.1294E-02  at reduced coord.    0.0333    0.0000    0.0000
      Minimum=    1.5935E-04  at reduced coord.    0.0000    0.5000    0.5000
 Next minimum=    1.6657E-04  at reduced coord.    0.0333    0.5000    0.5000
   Integrated=    8.0000E+00
 Spin up density      [el/Bohr^3]
      Maximum=    4.0114E-02  at reduced coord.    0.9667    0.0000    0.0000
 Next maximum=    4.0114E-02  at reduced coord.    0.0333    0.0000    0.0000
      Minimum=    7.4245E-05  at reduced coord.    0.0000    0.5000    0.5000
 Next minimum=    7.7819E-05  at reduced coord.    0.0333    0.5000    0.5000
   Integrated=    5.0000E+00
 Spin down density    [el/Bohr^3]
      Maximum=    4.1181E-02  at reduced coord.    0.9667    0.0000    0.0000
 Next maximum=    4.1181E-02  at reduced coord.    0.0333    0.0000    0.0000
      Minimum=    8.5104E-05  at reduced coord.    0.0000    0.5000    0.5000
 Next minimum=    8.8750E-05  at reduced coord.    0.0333    0.5000    0.5000
   Integrated=    3.0000E+00
 Magnetization (spin up - spin down) [el/Bohr^3]
      Maximum=    1.8770E-02  at reduced coord.    0.8667    0.8500    0.9000
 Next maximum=    1.8770E-02  at reduced coord.    0.1333    0.8500    0.9000
      Minimum=   -1.8053E-03  at reduced coord.    0.3000    0.0000    0.0000
 Next minimum=   -1.8053E-03  at reduced coord.    0.7000    0.0000    0.0000
   Integrated=    2.0000E+00
 Relative magnetization (=zeta, between -1 and 1)
      Maximum=    6.2768E-01  at reduced coord.    0.0000    0.6500    0.7000
 Next maximum=    6.2768E-01  at reduced coord.    0.0000    0.3500    0.7000
      Minimum=   -6.8142E-02  at reduced coord.    0.0000    0.5000    0.5000
 Next minimum=   -6.7222E-02  at reduced coord.    0.5000    0.5000    0.5000

--- !EnergyTerms
comment             : Components of total free energy in Hartree
kinetic             :  2.53920473509815E+00
hartree             :  1.45938204646972E+00
xc                  : -3.21820732188615E+00
Ewald energy        : -5.59001216752814E+00
psp_core            :  2.98722879456821E-02
local_psp           : -5.84121825527495E+00
non_local_psp       :  1.94780322022621E+00
total_energy        : -8.67317545494949E+00
total_energy_eV     : -2.36009106589761E+02
band_energy         : -1.35347100797686E+00
...


          ===> extra information on forces <===
 ewald contribution to reduced grads
    1       7.721916579469     -0.000000000000      0.000000000000
    2      -7.721916579469      0.000000000000     -0.000000000000
 nonlocal contribution to red. grads
    1       0.436396710070      0.000000000000     -0.000000000000
    2      -0.436396710070     -0.000000000000      0.000000000000
 local psp contribution to red. grads
    1      -8.072092632066      0.000000000000     -0.000000000000
    2       8.072092632066     -0.000000000000      0.000000000000
 core charge xc contribution to reduced grads
    1      -0.086017845581      0.000000000000      0.000000000000
    2       0.086017845581     -0.000000000000      0.000000000000
 residual contribution to red. grads
    1      -0.000001664241     -0.000000000000     -0.000000000000
    2       0.000001664241      0.000000000000     -0.000000000000
 rms coord change=  4.5317E-03   atom, delta coord (reduced):
     1       -0.007849172210      0.000000000000     -0.000000000000
     2        0.007849172210     -0.000000000000      0.000000000000

 Cartesian components of stress tensor (hartree/bohr^3)
  sigma(1 1)=  2.53877226E-04  sigma(3 2)=  0.00000000E+00
  sigma(2 2)=  1.11135000E-04  sigma(3 1)=  0.00000000E+00
  sigma(3 3)=  1.11135000E-04  sigma(2 1)=  0.00000000E+00

-Cartesian components of stress tensor (GPa)         [Pressure= -4.6696E+00 GPa]
- sigma(1 1)=  7.46932460E+00  sigma(3 2)=  0.00000000E+00
- sigma(2 2)=  3.26970403E+00  sigma(3 1)=  0.00000000E+00
- sigma(3 3)=  3.26970403E+00  sigma(2 1)=  0.00000000E+00

== END DATASET(S) ==============================================================
================================================================================
  
 -outvars: echo values of variables after computation  --------
            acell      1.2000000000E+01  8.0000000000E+00  8.0000000000E+00 Bohr
              amu      2.80855000E+01
     densfor_pred           1
           diemac      1.00000000E+00
           diemix      3.33333333E-01
             ecut      7.00000000E+00 Hartree
           enunit           2
           etotal     -8.6731754549E+00
            fcart     -1.6762304190E-05 -5.5148161223E-16  4.1671073565E-15
                       1.6762304190E-05  5.5148161223E-16 -4.1671073565E-15
-          fftalg         312
            intxc           1
           ionmov           2
           irdwfk           1
           istwfk        2
           kptopt           0
P           mkmem           1
            natom           2
            nband           5       3
            ngfft          30      20      20
             nkpt           1
            nline           3
           nspden           2
           nsppol           2
            nstep          20
             nsym           1
            ntime           8
           ntypat           1
              occ      1.000000  1.000000  1.000000  1.000000  1.000000
                       1.000000  1.000000  1.000000
           occopt           2
           prtvol          10
          spgroup           1
           strten      2.5387722555E-04  1.1113499992E-04  1.1113499989E-04
                       0.0000000000E+00  0.0000000000E+00  0.0000000000E+00
           tolmxf      1.00000000E-04
           tolwfr      1.00000000E-13
            typat      1  1
           xangst     -1.1727572731E+00  7.1704879508E-15 -5.7731124274E-14
                       1.1727572731E+00 -7.1704879508E-15  5.7731124274E-14
            xcart     -2.2161900665E+00  1.3550258466E-14 -1.0909601422E-13
                       2.2161900665E+00 -1.3550258466E-14  1.0909601422E-13
             xred     -1.8468250554E-01  1.6937823083E-15 -1.3637001778E-14
                       1.8468250554E-01 -1.6937823083E-15  1.3637001778E-14
            znucl       14.00000

================================================================================


- Timing analysis has been suppressed with timopt=0



================================================================================

 Suggested references for the acknowledgment of ABINIT usage.

 The users of ABINIT have little formal obligations with respect to the ABINIT group
 (those specified in the GNU General Public License, http://www.gnu.org/copyleft/gpl.txt).
 However, it is common practice in the scientific literature,
 to acknowledge the efforts of people that have made the research possible.
 In this spirit, please find below suggested citations of work written by ABINIT developers,
 corresponding to implementations inside of ABINIT that you have used in the present run.
 Note also that it will be of great value to readers of publications presenting these results,
 to read papers enabling them to understand the theoretical formalism and details
 of the ABINIT implementation.
 For information on why they are suggested, see also https://docs.abinit.org/theory/acknowledgments.
-
- [1] The Abinit project: Impact, environment and recent developments.
- Computer Phys. Comm. 248, 107042 (2020).
- X.Gonze, B. Amadon, G. Antonius, F.Arnardi, L.Baguet, J.-M.Beuken,
- J.Bieder, F.Bottin, J.Bouchet, E.Bousquet, N.Brouwer, F.Bruneval,
- G.Brunin, T.Cavignac, J.-B. Charraud, Wei Chen, M.Cote, S.Cottenier,
- J.Denier, G.Geneste, Ph.Ghosez, M.Giantomassi, Y.Gillet, O.Gingras,
- D.R.Hamann, G.Hautier, Xu He, N.Helbig, N.Holzwarth, Y.Jia, F.Jollet,
- W.Lafargue-Dit-Hauret, K.Lejaeghere, M.A.L.Marques, A.Martin, C.Martins,
- H.P.C. Miranda, F.Naccarato, K. Persson, G.Petretto, V.Planes, Y.Pouillon,
- S.Prokhorenko, F.Ricci, G.-M.Rignanese, A.H.Romero, M.M.Schmitt, M.Torrent,
- M.J.van Setten, B.Van Troeye, M.J.Verstraete, G.Zerah and J.W.Zwanzig
- Comment: the fifth generic paper describing the ABINIT project.
- Note that a version of this paper, that is not formatted for Computer Phys. Comm. 
- is available at https://www.abinit.org/sites/default/files/ABINIT20.pdf .
- The licence allows the authors to put it on the Web.
- DOI and bibtex: see https://docs.abinit.org/theory/bibliography/#gonze2020
-
- [2] Recent developments in the ABINIT software package.
- Computer Phys. Comm. 205, 106 (2016).
- X.Gonze, F.Jollet, F.Abreu Araujo, D.Adams, B.Amadon, T.Applencourt,
- C.Audouze, J.-M.Beuken, J.Bieder, A.Bokhanchuk, E.Bousquet, F.Bruneval
- D.Caliste, M.Cote, F.Dahm, F.Da Pieve, M.Delaveau, M.Di Gennaro,
- B.Dorado, C.Espejo, G.Geneste, L.Genovese, A.Gerossier, M.Giantomassi,
- Y.Gillet, D.R.Hamann, L.He, G.Jomard, J.Laflamme Janssen, S.Le Roux,
- A.Levitt, A.Lherbier, F.Liu, I.Lukacevic, A.Martin, C.Martins,
- M.J.T.Oliveira, S.Ponce, Y.Pouillon, T.Rangel, G.-M.Rignanese,
- A.H.Romero, B.Rousseau, O.Rubel, A.A.Shukri, M.Stankovski, M.Torrent,
- M.J.Van Setten, B.Van Troeye, M.J.Verstraete, D.Waroquier, J.Wiktor,
- B.Xu, A.Zhou, J.W.Zwanziger.
- Comment: the fourth generic paper describing the ABINIT project.
- Note that a version of this paper, that is not formatted for Computer Phys. Comm. 
- is available at https://www.abinit.org/sites/default/files/ABINIT16.pdf .
- The licence allows the authors to put it on the Web.
- DOI and bibtex: see https://docs.abinit.org/theory/bibliography/#gonze2016
-
- [3] ABINIT: First-principles approach of materials and nanosystem properties.
- Computer Phys. Comm. 180, 2582-2615 (2009).
- X. Gonze, B. Amadon, P.-M. Anglade, J.-M. Beuken, F. Bottin, P. Boulanger, F. Bruneval,
- D. Caliste, R. Caracas, M. Cote, T. Deutsch, L. Genovese, Ph. Ghosez, M. Giantomassi
- S. Goedecker, D.R. Hamann, P. Hermet, F. Jollet, G. Jomard, S. Leroux, M. Mancini, S. Mazevet,
- M.J.T. Oliveira, G. Onida, Y. Pouillon, T. Rangel, G.-M. Rignanese, D. Sangalli, R. Shaltaf,
- M. Torrent, M.J. Verstraete, G. Zerah, J.W. Zwanziger
- Comment: the third generic paper describing the ABINIT project.
- Note that a version of this paper, that is not formatted for Computer Phys. Comm. 
- is available at https://www.abinit.org/sites/default/files/ABINIT_CPC_v10.pdf .
- The licence allows the authors to put it on the Web.
- DOI and bibtex: see https://docs.abinit.org/theory/bibliography/#gonze2009
-
- And optionally:
-
- [4] A brief introduction to the ABINIT software package.
- Z. Kristallogr. 220, 558-562 (2005).
- X. Gonze, G.-M. Rignanese, M. Verstraete, J.-M. Beuken, Y. Pouillon, R. Caracas, F. Jollet,
- M. Torrent, G. Zerah, M. Mikami, Ph. Ghosez, M. Veithen, J.-Y. Raty, V. Olevano, F. Bruneval,
- L. Reining, R. Godby, G. Onida, D.R. Hamann, and D.C. Allan.
- Comment: the second generic paper describing the ABINIT project. Note that this paper
- should be cited especially if you are using the GW part of ABINIT, as several authors
- of this part are not in the list of authors of the first or third paper.
- The .pdf of the latter paper is available at https://www.abinit.org/sites/default/files/zfk_0505-06_558-562.pdf.
- Note that it should not redistributed (Copyright by Oldenburg Wissenschaftverlag,
- the licence allows the authors to put it on the Web).
- DOI and bibtex: see https://docs.abinit.org/theory/bibliography/#gonze2005
-
- Proc.   0 individual time (sec): cpu=          2.8  wall=          6.2

================================================================================

 Calculation completed.
.Delivered  10 WARNINGs and   3 COMMENTs to log file.
+Overall time at end (sec) : cpu=          2.8  wall=          6.2
