
.Version 8.0.3 of ABINIT 
.(MPI version, prepared for a x86_64_linux_gnu5.3 computer) 

.Copyright (C) 1998-2018 ABINIT group . 
 ABINIT comes with ABSOLUTELY NO WARRANTY.
 It is free software, and you are welcome to redistribute it
 under certain conditions (GNU General Public License,
 see ~abinit/COPYING or http://www.gnu.org/copyleft/gpl.txt).

 ABINIT is a project of the Universite Catholique de Louvain,
 Corning Inc. and other collaborators, see ~abinit/doc/developers/contributors.txt .
 Please read ~abinit/doc/users/acknowledgments.html for suggested
 acknowledgments of the ABINIT effort.
 For more information, see https://www.abinit.org .

.Starting date : Mon  4 Apr 2016.
- ( at 06h18 )
  
- input  file    -> t24.in
- output file    -> t24.out
- root for input  files -> t24i
- root for output files -> t24o


 Symmetries : space group F-4 3 m (#216); Bravais cF (face-center cubic)
================================================================================
 Values of the parameters that define the memory need of the present run
     intxc =       1    ionmov =       0      iscf =       7    lmnmax =       2
     lnmax =       2     mgfft =      24  mpssoang =       3    mqgrid =    3001
     natom =       2  nloc_mem =       1    nspden =       1   nspinor =       1
    nsppol =       1      nsym =      24    n1xccc =    2501    ntypat =       2
    occopt =       0   xclevel =       1
-    mband =           7        mffmem =           1         mkmem =           2
       mpw =         637          nfft =       13824          nkpt =           2
================================================================================
P This job should need less than                       4.996 Mbytes of memory.
P Max. in main chain + fourwf.f
P            9 blocks of mpw  integer numbers, for      0.022 Mbytes.
P           71 blocks of mpw  real(dp)  numbers, for      0.345 Mbytes.
P            2 blocks of nfft integer numbers, for      0.105 Mbytes.
P           35 blocks of nfft real(dp)  numbers, for      3.691 Mbytes.
P              Additional     real(dp)  numbers, for      0.594 Mbytes.
P              With residue estimated to be             0.237 Mbytes.
P
P Comparison of the memory needs of different chains
P Main chain + fourwf.f                 4.996 Mbytes.
P Main chain + nonlop.f + opernl.f      4.618 Mbytes.
P XC chain                              4.758 Mbytes.
P mkrho chain                           4.258 Mbytes.
P fourdp chain                          4.249 Mbytes.
- parallel k-point chain                4.002 Mbytes.
P newvtr chain                          4.213 Mbytes.
  Rough estimation (10% accuracy) of disk space for files :
_ WF disk file :      0.138 Mbytes ; DEN or POT disk file :      0.107 Mbytes.
================================================================================

--------------------------------------------------------------------------------
------------- Echo of variables that govern the present computation ------------
--------------------------------------------------------------------------------
-
- outvars: echo of selected default values                                      
-   accesswff0 =  0 , fftalg0 =312 , wfoptalg0 =  0
-
- outvars: echo of global parameters not present in the input file              
-  max_nthreads =    0
-
 -outvars: echo values of preprocessed input variables --------
            acell      1.1890000000E+01  1.1890000000E+01  1.1890000000E+01 Bohr
              amu      3.90983000E+01  3.54527000E+01
           diemac      1.00000000E+00
           diemix      3.33333333E-01
             ecut      1.00000000E+01 Hartree
           enunit           2
-          fftalg         312
            intxc           1
              kpt      1.00000000E+00  1.00000000E+00  1.00000000E+00
                       1.00000000E+00  2.00000000E+00  2.00000000E+00
           kptnrm      4.00000000E+00
           kptopt           0
P           mkmem           2
            natom           2
            nband           7
            ngfft          24      24      24
             nkpt           2
            nline           2
            nstep          20
             nsym          24
           ntypat           2
              occ      2.000000  2.000000  2.000000  2.000000  2.000000  2.000000
                       2.000000
           occopt           0
           prtvol          10
            rprim      0.0000000000E+00  5.0000000000E-01  5.0000000000E-01
                       5.0000000000E-01  0.0000000000E+00  5.0000000000E-01
                       5.0000000000E-01  5.0000000000E-01  0.0000000000E+00
          spgroup         216
           symrel      1  0  0   0  1  0   0  0  1       0  1 -1   1  0 -1   0  0 -1
                       0 -1  1   0 -1  0   1 -1  0      -1  0  0  -1  0  1  -1  1  0
                       0  1  0   0  0  1   1  0  0       1  0 -1   0  0 -1   0  1 -1
                       0 -1  0   1 -1  0   0 -1  1      -1  0  1  -1  1  0  -1  0  0
                       0  0  1   1  0  0   0  1  0       0  0 -1   0  1 -1   1  0 -1
                       1 -1  0   0 -1  1   0 -1  0      -1  1  0  -1  0  0  -1  0  1
                       1  0 -1   0  1 -1   0  0 -1       0  1  0   1  0  0   0  0  1
                      -1  0  1  -1  0  0  -1  1  0       0 -1  0   0 -1  1   1 -1  0
                      -1  1  0  -1  0  1  -1  0  0       1 -1  0   0 -1  0   0 -1  1
                       0  0 -1   1  0 -1   0  1 -1       0  0  1   0  1  0   1  0  0
                       0 -1  1   1 -1  0   0 -1  0      -1  0  0  -1  1  0  -1  0  1
                       1  0  0   0  0  1   0  1  0       0  1 -1   0  0 -1   1  0 -1
           timopt          -1
           tolwfr      1.00000000E-15
            typat      1  2
              wtk        0.25000    0.75000
           xangst      0.0000000000E+00  0.0000000000E+00  0.0000000000E+00
                       3.1459585051E+00  3.1459585051E+00  3.1459585051E+00
            xcart      0.0000000000E+00  0.0000000000E+00  0.0000000000E+00
                       5.9450000000E+00  5.9450000000E+00  5.9450000000E+00
             xred      0.0000000000E+00  0.0000000000E+00  0.0000000000E+00
                       5.0000000000E-01  5.0000000000E-01  5.0000000000E-01
            znucl       19.00000   17.00000

================================================================================

 chkinp: Checking input parameters for consistency.

================================================================================
== DATASET  1 ==================================================================
-   nproc =    1

 Exchange-correlation functional for the present dataset will be:
  LDA: new Teter (4/93) with spin-polarized option - ixc=1
 Citation for XC functional:
  S. Goedecker, M. Teter, J. Huetter, PRB 54, 1703 (1996)

 Real(R)+Recip(G) space primitive vectors, cartesian coordinates (Bohr,Bohr^-1):
 R(1)=  0.0000000  5.9450000  5.9450000  G(1)= -0.0841043  0.0841043  0.0841043
 R(2)=  5.9450000  0.0000000  5.9450000  G(2)=  0.0841043 -0.0841043  0.0841043
 R(3)=  5.9450000  5.9450000  0.0000000  G(3)=  0.0841043  0.0841043 -0.0841043
 Unit cell volume ucvol=  4.2022857E+02 bohr^3
 Angles (23,13,12)=  6.00000000E+01  6.00000000E+01  6.00000000E+01 degrees

 getcut: wavevector=  0.0000  0.0000  0.0000  ngfft=  24  24  24
         ecut(hartree)=     10.000   => boxcut(ratio)=   2.00530

--- Pseudopotential description ------------------------------------------------
- pspini: atom type   1  psp file is /home/gonze/ABINIT/ABINITv8.0.3/gonze/8.0.3-private/tests/Psps_for_tests/19k.pspnc
- pspatm: opening atomic psp file    /home/gonze/ABINIT/ABINITv8.0.3/gonze/8.0.3-private/tests/Psps_for_tests/19k.pspnc
-  Troullier-Martins psp for element  K         Thu Oct 27 17:32:43 EDT 1994
- 19.00000   7.00000    940714                znucl, zion, pspdat
    1    1    2    0      2001   0.00000      pspcod,pspxc,lmax,lloc,mmax,r2well
    0   2.017   4.951    0   3.1756741        l,e99.0,e99.9,nproj,rcpsp
   0.00000000   0.00000000   0.00000000   0.00000000     rms, ekb1, ekb2, epsatm
    1   8.562  11.578    1   2.0248520        l,e99.0,e99.9,nproj,rcpsp
   0.00000000   0.00000000   0.00000000   0.00000000     rms, ekb1, ekb2, epsatm
    2  13.022  17.050    1   2.2944752        l,e99.0,e99.9,nproj,rcpsp
   0.00000000   0.00000000   0.00000000   0.00000000     rms, ekb1, ekb2, epsatm
    1.21940820299569    1.35146748512357    2.13845404453136   rchrg,fchrg,qchrg
 pspatm : epsatm=   99.37320054
         --- l  ekb(1:nproj) -->
             1   -3.733361
             2   -4.430113
 pspatm: atomic psp has been read  and splines computed

- pspini: atom type   2  psp file is /home/gonze/ABINIT/ABINITv8.0.3/gonze/8.0.3-private/tests/Psps_for_tests/17cl.pspnc
- pspatm: opening atomic psp file    /home/gonze/ABINIT/ABINITv8.0.3/gonze/8.0.3-private/tests/Psps_for_tests/17cl.pspnc
-  Troullier-Martins psp for element  Cl        Thu Oct 27 17:32:09 EDT 1994
- 17.00000   7.00000    940714                znucl, zion, pspdat
    1    1    2    2      2001   0.00000      pspcod,pspxc,lmax,lloc,mmax,r2well
    0  10.493  25.212    1   1.6350894        l,e99.0,e99.9,nproj,rcpsp
   0.00000000   0.00000000   0.00000000   0.00000000     rms, ekb1, ekb2, epsatm
    1   5.554   8.510    1   1.6350894        l,e99.0,e99.9,nproj,rcpsp
   0.00000000   0.00000000   0.00000000   0.00000000     rms, ekb1, ekb2, epsatm
    2   0.000   0.000    0   1.6350894        l,e99.0,e99.9,nproj,rcpsp
   0.00000000   0.00000000   0.00000000   0.00000000     rms, ekb1, ekb2, epsatm
    1.23315314129373    1.11669953786602    1.82740311420084   rchrg,fchrg,qchrg
 pspatm : epsatm=    2.73037554
         --- l  ekb(1:nproj) -->
             0    6.290146
             1    3.746067
 pspatm: atomic psp has been read  and splines computed

   1.42945007E+03                                ecore*ucvol(ha*bohr**3)
--------------------------------------------------------------------------------

P newkpt: treating      7 bands with npw=     631 for ikpt=   1 by node    0
P newkpt: treating      7 bands with npw=     637 for ikpt=   2 by node    0
_setup2: Arith. and geom. avg. npw (full set) are     635.500     635.495

================================================================================

     iter   Etot(hartree)      deltaE(h)  residm     vres2

 ETOT  1  -32.145013381823    -3.215E+01 2.148E-01 5.370E+02

 prteigrs : about to open file t24o_EIG
 Fermi (or HOMO) energy (hartree) =  -0.09171   Average Vxc (hartree)=  -0.32386
 Eigenvalues (hartree) for nkpt=   2  k points:
 kpt#   1, nband=  7, wtk=  0.25000, kpt=  0.2500  0.2500  0.2500 (reduced coord)
  -0.81296   -0.47940   -0.40280   -0.38621   -0.33010   -0.29020   -0.13508
 kpt#   2, nband=  7, wtk=  0.75000, kpt=  0.2500  0.5000  0.5000 (reduced coord)
  -0.81834   -0.48453   -0.45154   -0.37558   -0.35487   -0.31470   -0.09171
 Fermi (or HOMO) energy (eV) =  -2.49552   Average Vxc (eV)=  -8.81280
 Eigenvalues (   eV  ) for nkpt=   2  k points:
 kpt#   1, nband=  7, wtk=  0.25000, kpt=  0.2500  0.2500  0.2500 (reduced coord)
 -22.12165  -13.04502  -10.96066  -10.50918   -8.98258   -7.89688   -3.67561
 kpt#   2, nband=  7, wtk=  0.75000, kpt=  0.2500  0.5000  0.5000 (reduced coord)
 -22.26807  -13.18474  -12.28698  -10.22016   -9.65640   -8.56333   -2.49552

 ETOT  2  -33.753967030559    -1.609E+00 2.489E-02 4.539E+01

 prteigrs : about to open file t24o_EIG
 Fermi (or HOMO) energy (hartree) =  -0.31394   Average Vxc (hartree)=  -0.28713
 Eigenvalues (hartree) for nkpt=   2  k points:
 kpt#   1, nband=  7, wtk=  0.25000, kpt=  0.2500  0.2500  0.2500 (reduced coord)
  -0.76285   -0.70359   -0.70304   -0.70000   -0.32761   -0.31692   -0.31394
 kpt#   2, nband=  7, wtk=  0.75000, kpt=  0.2500  0.5000  0.5000 (reduced coord)
  -0.76125   -0.70569   -0.70382   -0.70077   -0.33349   -0.32170   -0.31985
 Fermi (or HOMO) energy (eV) =  -8.54262   Average Vxc (eV)=  -7.81322
 Eigenvalues (   eV  ) for nkpt=   2  k points:
 kpt#   1, nband=  7, wtk=  0.25000, kpt=  0.2500  0.2500  0.2500 (reduced coord)
 -20.75817  -19.14553  -19.13072  -19.04794   -8.91472   -8.62394   -8.54262
 kpt#   2, nband=  7, wtk=  0.75000, kpt=  0.2500  0.5000  0.5000 (reduced coord)
 -20.71471  -19.20279  -19.15196  -19.06899   -9.07466   -8.75393   -8.70365

 ETOT  3  -33.785495072957    -3.153E-02 1.352E-03 1.403E+01

 prteigrs : about to open file t24o_EIG
 Fermi (or HOMO) energy (hartree) =  -0.25039   Average Vxc (hartree)=  -0.29124
 Eigenvalues (hartree) for nkpt=   2  k points:
 kpt#   1, nband=  7, wtk=  0.25000, kpt=  0.2500  0.2500  0.2500 (reduced coord)
  -0.69091   -0.63230   -0.63226   -0.62814   -0.26682   -0.25070   -0.25039
 kpt#   2, nband=  7, wtk=  0.75000, kpt=  0.2500  0.5000  0.5000 (reduced coord)
  -0.68892   -0.63480   -0.63293   -0.62953   -0.27175   -0.25788   -0.25400
 Fermi (or HOMO) energy (eV) =  -6.81358   Average Vxc (eV)=  -7.92516
 Eigenvalues (   eV  ) for nkpt=   2  k points:
 kpt#   1, nband=  7, wtk=  0.25000, kpt=  0.2500  0.2500  0.2500 (reduced coord)
 -18.80050  -17.20568  -17.20468  -17.09255   -7.26045   -6.82191   -6.81358
 kpt#   2, nband=  7, wtk=  0.75000, kpt=  0.2500  0.5000  0.5000 (reduced coord)
 -18.74634  -17.27378  -17.22298  -17.13038   -7.39458   -7.01740   -6.91167

 ETOT  4  -33.795711772476    -1.022E-02 3.653E-04 9.992E-01

 prteigrs : about to open file t24o_EIG
 Fermi (or HOMO) energy (hartree) =  -0.22776   Average Vxc (hartree)=  -0.29690
 Eigenvalues (hartree) for nkpt=   2  k points:
 kpt#   1, nband=  7, wtk=  0.25000, kpt=  0.2500  0.2500  0.2500 (reduced coord)
  -0.66213   -0.59144   -0.59143   -0.58749   -0.24815   -0.22780   -0.22776
 kpt#   2, nband=  7, wtk=  0.75000, kpt=  0.2500  0.5000  0.5000 (reduced coord)
  -0.65965   -0.59453   -0.59236   -0.58921   -0.25319   -0.23627   -0.23152
 Fermi (or HOMO) energy (eV) =  -6.19772   Average Vxc (eV)=  -8.07908
 Eigenvalues (   eV  ) for nkpt=   2  k points:
 kpt#   1, nband=  7, wtk=  0.25000, kpt=  0.2500  0.2500  0.2500 (reduced coord)
 -18.01760  -16.09392  -16.09374  -15.98630   -6.75253   -6.19868   -6.19772
 kpt#   2, nband=  7, wtk=  0.75000, kpt=  0.2500  0.5000  0.5000 (reduced coord)
 -17.95000  -16.17788  -16.11885  -16.03317   -6.88976   -6.42934   -6.29985

 ETOT  5  -33.793525734345     2.186E-03 1.985E-04 3.250E+00

 prteigrs : about to open file t24o_EIG
 Fermi (or HOMO) energy (hartree) =  -0.25229   Average Vxc (hartree)=  -0.29421
 Eigenvalues (hartree) for nkpt=   2  k points:
 kpt#   1, nband=  7, wtk=  0.25000, kpt=  0.2500  0.2500  0.2500 (reduced coord)
  -0.69074   -0.58471   -0.58471   -0.58281   -0.27017   -0.25232   -0.25229
 kpt#   2, nband=  7, wtk=  0.75000, kpt=  0.2500  0.5000  0.5000 (reduced coord)
  -0.68842   -0.58815   -0.58572   -0.58468   -0.27454   -0.25957   -0.25551
 Fermi (or HOMO) energy (eV) =  -6.86526   Average Vxc (eV)=  -8.00585
 Eigenvalues (   eV  ) for nkpt=   2  k points:
 kpt#   1, nband=  7, wtk=  0.25000, kpt=  0.2500  0.2500  0.2500 (reduced coord)
 -18.79592  -15.91085  -15.91083  -15.85895   -7.35157   -6.86599   -6.86526
 kpt#   2, nband=  7, wtk=  0.75000, kpt=  0.2500  0.5000  0.5000 (reduced coord)
 -18.73279  -16.00440  -15.93825  -15.91001   -7.47050   -7.06331   -6.95267

 ETOT  6  -33.796507298082    -2.982E-03 7.555E-05 4.881E-02

 prteigrs : about to open file t24o_EIG
 Fermi (or HOMO) energy (hartree) =  -0.23356   Average Vxc (hartree)=  -0.29679
 Eigenvalues (hartree) for nkpt=   2  k points:
 kpt#   1, nband=  7, wtk=  0.25000, kpt=  0.2500  0.2500  0.2500 (reduced coord)
  -0.66862   -0.57683   -0.57683   -0.57413   -0.25375   -0.23356   -0.23356
 kpt#   2, nband=  7, wtk=  0.75000, kpt=  0.2500  0.5000  0.5000 (reduced coord)
  -0.66608   -0.58028   -0.57787   -0.57606   -0.25844   -0.24173   -0.23710
 Fermi (or HOMO) energy (eV) =  -6.35543   Average Vxc (eV)=  -8.07596
 Eigenvalues (   eV  ) for nkpt=   2  k points:
 kpt#   1, nband=  7, wtk=  0.25000, kpt=  0.2500  0.2500  0.2500 (reduced coord)
 -18.19419  -15.69636  -15.69636  -15.62298   -6.90502   -6.35548   -6.35543
 kpt#   2, nband=  7, wtk=  0.75000, kpt=  0.2500  0.5000  0.5000 (reduced coord)
 -18.12490  -15.79025  -15.72477  -15.67541   -7.03261   -6.57769   -6.45178

 ETOT  7  -33.796604010720    -9.671E-05 8.147E-06 1.348E-03

 prteigrs : about to open file t24o_EIG
 Fermi (or HOMO) energy (hartree) =  -0.23653   Average Vxc (hartree)=  -0.29660
 Eigenvalues (hartree) for nkpt=   2  k points:
 kpt#   1, nband=  7, wtk=  0.25000, kpt=  0.2500  0.2500  0.2500 (reduced coord)
  -0.67188   -0.58386   -0.58386   -0.58102   -0.25662   -0.23653   -0.23653
 kpt#   2, nband=  7, wtk=  0.75000, kpt=  0.2500  0.5000  0.5000 (reduced coord)
  -0.66936   -0.58722   -0.58487   -0.58290   -0.26136   -0.24472   -0.24009
 Fermi (or HOMO) energy (eV) =  -6.43633   Average Vxc (eV)=  -8.07095
 Eigenvalues (   eV  ) for nkpt=   2  k points:
 kpt#   1, nband=  7, wtk=  0.25000, kpt=  0.2500  0.2500  0.2500 (reduced coord)
 -18.28274  -15.88769  -15.88769  -15.81023   -6.98296   -6.43634   -6.43633
 kpt#   2, nband=  7, wtk=  0.75000, kpt=  0.2500  0.5000  0.5000 (reduced coord)
 -18.21412  -15.97914  -15.91517  -15.86158   -7.11189   -6.65909   -6.53305

 ETOT  8  -33.796599183727     4.827E-06 1.612E-06 1.446E-02

 prteigrs : about to open file t24o_EIG
 Fermi (or HOMO) energy (hartree) =  -0.23572   Average Vxc (hartree)=  -0.29680
 Eigenvalues (hartree) for nkpt=   2  k points:
 kpt#   1, nband=  7, wtk=  0.25000, kpt=  0.2500  0.2500  0.2500 (reduced coord)
  -0.67102   -0.58405   -0.58405   -0.58115   -0.25590   -0.23572   -0.23572
 kpt#   2, nband=  7, wtk=  0.75000, kpt=  0.2500  0.5000  0.5000 (reduced coord)
  -0.66850   -0.58740   -0.58506   -0.58303   -0.26066   -0.24395   -0.23929
 Fermi (or HOMO) energy (eV) =  -6.41435   Average Vxc (eV)=  -8.07631
 Eigenvalues (   eV  ) for nkpt=   2  k points:
 kpt#   1, nband=  7, wtk=  0.25000, kpt=  0.2500  0.2500  0.2500 (reduced coord)
 -18.25951  -15.89282  -15.89282  -15.81382   -6.96341   -6.41435   -6.41435
 kpt#   2, nband=  7, wtk=  0.75000, kpt=  0.2500  0.5000  0.5000 (reduced coord)
 -18.19076  -15.98398  -15.92022  -15.86504   -7.09287   -6.63827   -6.51151

 ETOT  9  -33.796612950266    -1.377E-05 5.552E-07 6.954E-04

 prteigrs : about to open file t24o_EIG
 Fermi (or HOMO) energy (hartree) =  -0.23676   Average Vxc (hartree)=  -0.29666
 Eigenvalues (hartree) for nkpt=   2  k points:
 kpt#   1, nband=  7, wtk=  0.25000, kpt=  0.2500  0.2500  0.2500 (reduced coord)
  -0.67222   -0.58385   -0.58385   -0.58103   -0.25682   -0.23676   -0.23676
 kpt#   2, nband=  7, wtk=  0.75000, kpt=  0.2500  0.5000  0.5000 (reduced coord)
  -0.66970   -0.58721   -0.58486   -0.58292   -0.26155   -0.24494   -0.24031
 Fermi (or HOMO) energy (eV) =  -6.44269   Average Vxc (eV)=  -8.07250
 Eigenvalues (   eV  ) for nkpt=   2  k points:
 kpt#   1, nband=  7, wtk=  0.25000, kpt=  0.2500  0.2500  0.2500 (reduced coord)
 -18.29210  -15.88739  -15.88739  -15.81062   -6.98844   -6.44270   -6.44269
 kpt#   2, nband=  7, wtk=  0.75000, kpt=  0.2500  0.5000  0.5000 (reduced coord)
 -18.22358  -15.97889  -15.91487  -15.86198   -7.11717   -6.66508   -6.53923

 ETOT 10  -33.796613804982    -8.547E-07 1.411E-07 3.461E-05

 prteigrs : about to open file t24o_EIG
 Fermi (or HOMO) energy (hartree) =  -0.23670   Average Vxc (hartree)=  -0.29667
 Eigenvalues (hartree) for nkpt=   2  k points:
 kpt#   1, nband=  7, wtk=  0.25000, kpt=  0.2500  0.2500  0.2500 (reduced coord)
  -0.67213   -0.58321   -0.58321   -0.58042   -0.25675   -0.23670   -0.23670
 kpt#   2, nband=  7, wtk=  0.75000, kpt=  0.2500  0.5000  0.5000 (reduced coord)
  -0.66961   -0.58659   -0.58423   -0.58231   -0.26147   -0.24486   -0.24024
 Fermi (or HOMO) energy (eV) =  -6.44081   Average Vxc (eV)=  -8.07281
 Eigenvalues (   eV  ) for nkpt=   2  k points:
 kpt#   1, nband=  7, wtk=  0.25000, kpt=  0.2500  0.2500  0.2500 (reduced coord)
 -18.28970  -15.87000  -15.87000  -15.79392   -6.98645   -6.44081   -6.44081
 kpt#   2, nband=  7, wtk=  0.75000, kpt=  0.2500  0.5000  0.5000 (reduced coord)
 -18.22113  -15.96180  -15.89758  -15.84541   -7.11496   -6.66297   -6.53722

 ETOT 11  -33.796613867406    -6.242E-08 2.705E-08 3.118E-05

 prteigrs : about to open file t24o_EIG
 Fermi (or HOMO) energy (hartree) =  -0.23668   Average Vxc (hartree)=  -0.29666
 Eigenvalues (hartree) for nkpt=   2  k points:
 kpt#   1, nband=  7, wtk=  0.25000, kpt=  0.2500  0.2500  0.2500 (reduced coord)
  -0.67212   -0.58324   -0.58324   -0.58044   -0.25673   -0.23668   -0.23668
 kpt#   2, nband=  7, wtk=  0.75000, kpt=  0.2500  0.5000  0.5000 (reduced coord)
  -0.66960   -0.58661   -0.58426   -0.58234   -0.26146   -0.24485   -0.24022
 Fermi (or HOMO) energy (eV) =  -6.44036   Average Vxc (eV)=  -8.07265
 Eigenvalues (   eV  ) for nkpt=   2  k points:
 kpt#   1, nband=  7, wtk=  0.25000, kpt=  0.2500  0.2500  0.2500 (reduced coord)
 -18.28921  -15.87082  -15.87082  -15.79467   -6.98611   -6.44036   -6.44036
 kpt#   2, nband=  7, wtk=  0.75000, kpt=  0.2500  0.5000  0.5000 (reduced coord)
 -18.22063  -15.96260  -15.89840  -15.84615   -7.11464   -6.66257   -6.53679

 ETOT 12  -33.796613902582    -3.518E-08 8.768E-09 1.891E-05

 prteigrs : about to open file t24o_EIG
 Fermi (or HOMO) energy (hartree) =  -0.23667   Average Vxc (hartree)=  -0.29667
 Eigenvalues (hartree) for nkpt=   2  k points:
 kpt#   1, nband=  7, wtk=  0.25000, kpt=  0.2500  0.2500  0.2500 (reduced coord)
  -0.67210   -0.58322   -0.58322   -0.58042   -0.25672   -0.23667   -0.23667
 kpt#   2, nband=  7, wtk=  0.75000, kpt=  0.2500  0.5000  0.5000 (reduced coord)
  -0.66958   -0.58659   -0.58423   -0.58231   -0.26145   -0.24483   -0.24021
 Fermi (or HOMO) energy (eV) =  -6.44004   Average Vxc (eV)=  -8.07276
 Eigenvalues (   eV  ) for nkpt=   2  k points:
 kpt#   1, nband=  7, wtk=  0.25000, kpt=  0.2500  0.2500  0.2500 (reduced coord)
 -18.28887  -15.87020  -15.87020  -15.79406   -6.98582   -6.44004   -6.44004
 kpt#   2, nband=  7, wtk=  0.75000, kpt=  0.2500  0.5000  0.5000 (reduced coord)
 -18.22029  -15.96199  -15.89778  -15.84554   -7.11435   -6.66226   -6.53648

 ETOT 13  -33.796613921194    -1.861E-08 2.629E-09 3.990E-07

 prteigrs : about to open file t24o_EIG
 Fermi (or HOMO) energy (hartree) =  -0.23663   Average Vxc (hartree)=  -0.29667
 Eigenvalues (hartree) for nkpt=   2  k points:
 kpt#   1, nband=  7, wtk=  0.25000, kpt=  0.2500  0.2500  0.2500 (reduced coord)
  -0.67206   -0.58324   -0.58324   -0.58044   -0.25669   -0.23663   -0.23663
 kpt#   2, nband=  7, wtk=  0.75000, kpt=  0.2500  0.5000  0.5000 (reduced coord)
  -0.66954   -0.58661   -0.58425   -0.58233   -0.26142   -0.24480   -0.24018
 Fermi (or HOMO) energy (eV) =  -6.43907   Average Vxc (eV)=  -8.07290
 Eigenvalues (   eV  ) for nkpt=   2  k points:
 kpt#   1, nband=  7, wtk=  0.25000, kpt=  0.2500  0.2500  0.2500 (reduced coord)
 -18.28775  -15.87080  -15.87080  -15.79456   -6.98500   -6.43907   -6.43907
 kpt#   2, nband=  7, wtk=  0.75000, kpt=  0.2500  0.5000  0.5000 (reduced coord)
 -18.21916  -15.96257  -15.89838  -15.84605   -7.11356   -6.66136   -6.53553

 ETOT 14  -33.796613923111    -1.917E-09 5.287E-10 4.758E-08

 prteigrs : about to open file t24o_EIG
 Fermi (or HOMO) energy (hartree) =  -0.23664   Average Vxc (hartree)=  -0.29667
 Eigenvalues (hartree) for nkpt=   2  k points:
 kpt#   1, nband=  7, wtk=  0.25000, kpt=  0.2500  0.2500  0.2500 (reduced coord)
  -0.67207   -0.58324   -0.58324   -0.58044   -0.25670   -0.23664   -0.23664
 kpt#   2, nband=  7, wtk=  0.75000, kpt=  0.2500  0.5000  0.5000 (reduced coord)
  -0.66955   -0.58662   -0.58426   -0.58233   -0.26143   -0.24481   -0.24019
 Fermi (or HOMO) energy (eV) =  -6.43932   Average Vxc (eV)=  -8.07288
 Eigenvalues (   eV  ) for nkpt=   2  k points:
 kpt#   1, nband=  7, wtk=  0.25000, kpt=  0.2500  0.2500  0.2500 (reduced coord)
 -18.28803  -15.87087  -15.87087  -15.79464   -6.98524   -6.43932   -6.43932
 kpt#   2, nband=  7, wtk=  0.75000, kpt=  0.2500  0.5000  0.5000 (reduced coord)
 -18.21944  -15.96264  -15.89844  -15.84612   -7.11379   -6.66160   -6.53578

 ETOT 15  -33.796613923493    -3.818E-10 1.662E-10 5.716E-08

 prteigrs : about to open file t24o_EIG
 Fermi (or HOMO) energy (hartree) =  -0.23664   Average Vxc (hartree)=  -0.29667
 Eigenvalues (hartree) for nkpt=   2  k points:
 kpt#   1, nband=  7, wtk=  0.25000, kpt=  0.2500  0.2500  0.2500 (reduced coord)
  -0.67207   -0.58324   -0.58324   -0.58044   -0.25670   -0.23664   -0.23664
 kpt#   2, nband=  7, wtk=  0.75000, kpt=  0.2500  0.5000  0.5000 (reduced coord)
  -0.66955   -0.58661   -0.58426   -0.58233   -0.26142   -0.24481   -0.24018
 Fermi (or HOMO) energy (eV) =  -6.43924   Average Vxc (eV)=  -8.07289
 Eigenvalues (   eV  ) for nkpt=   2  k points:
 kpt#   1, nband=  7, wtk=  0.25000, kpt=  0.2500  0.2500  0.2500 (reduced coord)
 -18.28793  -15.87081  -15.87081  -15.79458   -6.98517   -6.43924   -6.43924
 kpt#   2, nband=  7, wtk=  0.75000, kpt=  0.2500  0.5000  0.5000 (reduced coord)
 -18.21934  -15.96259  -15.89839  -15.84606   -7.11372   -6.66152   -6.53570

 ETOT 16  -33.796613923639    -1.463E-10 3.805E-11 3.218E-09

 prteigrs : about to open file t24o_EIG
 Fermi (or HOMO) energy (hartree) =  -0.23664   Average Vxc (hartree)=  -0.29667
 Eigenvalues (hartree) for nkpt=   2  k points:
 kpt#   1, nband=  7, wtk=  0.25000, kpt=  0.2500  0.2500  0.2500 (reduced coord)
  -0.67207   -0.58324   -0.58324   -0.58044   -0.25670   -0.23664   -0.23664
 kpt#   2, nband=  7, wtk=  0.75000, kpt=  0.2500  0.5000  0.5000 (reduced coord)
  -0.66955   -0.58661   -0.58426   -0.58233   -0.26143   -0.24481   -0.24018
 Fermi (or HOMO) energy (eV) =  -6.43930   Average Vxc (eV)=  -8.07289
 Eigenvalues (   eV  ) for nkpt=   2  k points:
 kpt#   1, nband=  7, wtk=  0.25000, kpt=  0.2500  0.2500  0.2500 (reduced coord)
 -18.28800  -15.87082  -15.87082  -15.79459   -6.98522   -6.43930   -6.43930
 kpt#   2, nband=  7, wtk=  0.75000, kpt=  0.2500  0.5000  0.5000 (reduced coord)
 -18.21941  -15.96259  -15.89840  -15.84608   -7.11378   -6.66158   -6.53576

 ETOT 17  -33.796613923652    -1.232E-11 1.217E-11 1.422E-08

 prteigrs : about to open file t24o_EIG
 Fermi (or HOMO) energy (hartree) =  -0.23664   Average Vxc (hartree)=  -0.29667
 Eigenvalues (hartree) for nkpt=   2  k points:
 kpt#   1, nband=  7, wtk=  0.25000, kpt=  0.2500  0.2500  0.2500 (reduced coord)
  -0.67207   -0.58324   -0.58324   -0.58044   -0.25670   -0.23664   -0.23664
 kpt#   2, nband=  7, wtk=  0.75000, kpt=  0.2500  0.5000  0.5000 (reduced coord)
  -0.66955   -0.58661   -0.58425   -0.58233   -0.26143   -0.24481   -0.24019
 Fermi (or HOMO) energy (eV) =  -6.43932   Average Vxc (eV)=  -8.07288
 Eigenvalues (   eV  ) for nkpt=   2  k points:
 kpt#   1, nband=  7, wtk=  0.25000, kpt=  0.2500  0.2500  0.2500 (reduced coord)
 -18.28802  -15.87079  -15.87079  -15.79456   -6.98524   -6.43932   -6.43932
 kpt#   2, nband=  7, wtk=  0.75000, kpt=  0.2500  0.5000  0.5000 (reduced coord)
 -18.21944  -15.96256  -15.89836  -15.84605   -7.11379   -6.66160   -6.53578

 ETOT 18  -33.796613923667    -1.575E-11 2.648E-12 4.330E-09

 prteigrs : about to open file t24o_EIG
 Fermi (or HOMO) energy (hartree) =  -0.23664   Average Vxc (hartree)=  -0.29667
 Eigenvalues (hartree) for nkpt=   2  k points:
 kpt#   1, nband=  7, wtk=  0.25000, kpt=  0.2500  0.2500  0.2500 (reduced coord)
  -0.67207   -0.58324   -0.58324   -0.58044   -0.25670   -0.23664   -0.23664
 kpt#   2, nband=  7, wtk=  0.75000, kpt=  0.2500  0.5000  0.5000 (reduced coord)
  -0.66955   -0.58661   -0.58425   -0.58233   -0.26143   -0.24481   -0.24018
 Fermi (or HOMO) energy (eV) =  -6.43931   Average Vxc (eV)=  -8.07289
 Eigenvalues (   eV  ) for nkpt=   2  k points:
 kpt#   1, nband=  7, wtk=  0.25000, kpt=  0.2500  0.2500  0.2500 (reduced coord)
 -18.28801  -15.87078  -15.87078  -15.79455   -6.98522   -6.43931   -6.43931
 kpt#   2, nband=  7, wtk=  0.75000, kpt=  0.2500  0.5000  0.5000 (reduced coord)
 -18.21942  -15.96255  -15.89836  -15.84604   -7.11378   -6.66159   -6.53576

 ETOT 19  -33.796613923673    -5.436E-12 1.047E-12 5.714E-10

 prteigrs : about to open file t24o_EIG
 Fermi (or HOMO) energy (hartree) =  -0.23664   Average Vxc (hartree)=  -0.29667
 Eigenvalues (hartree) for nkpt=   2  k points:
 kpt#   1, nband=  7, wtk=  0.25000, kpt=  0.2500  0.2500  0.2500 (reduced coord)
  -0.67207   -0.58324   -0.58324   -0.58044   -0.25670   -0.23664   -0.23664
 kpt#   2, nband=  7, wtk=  0.75000, kpt=  0.2500  0.5000  0.5000 (reduced coord)
  -0.66955   -0.58661   -0.58425   -0.58233   -0.26143   -0.24481   -0.24018
 Fermi (or HOMO) energy (eV) =  -6.43929   Average Vxc (eV)=  -8.07289
 Eigenvalues (   eV  ) for nkpt=   2  k points:
 kpt#   1, nband=  7, wtk=  0.25000, kpt=  0.2500  0.2500  0.2500 (reduced coord)
 -18.28799  -15.87079  -15.87079  -15.79456   -6.98521   -6.43929   -6.43929
 kpt#   2, nband=  7, wtk=  0.75000, kpt=  0.2500  0.5000  0.5000 (reduced coord)
 -18.21940  -15.96256  -15.89837  -15.84605   -7.11377   -6.66157   -6.53575

 ETOT 20  -33.796613923673    -3.766E-13 2.040E-13 4.362E-10

 prteigrs : about to open file t24o_EIG
 Fermi (or HOMO) energy (hartree) =  -0.23664   Average Vxc (hartree)=  -0.29667
 Eigenvalues (hartree) for nkpt=   2  k points:
 kpt#   1, nband=  7, wtk=  0.25000, kpt=  0.2500  0.2500  0.2500 (reduced coord)
  -0.67207   -0.58324   -0.58324   -0.58044   -0.25670   -0.23664   -0.23664
 kpt#   2, nband=  7, wtk=  0.75000, kpt=  0.2500  0.5000  0.5000 (reduced coord)
  -0.66955   -0.58661   -0.58425   -0.58233   -0.26143   -0.24481   -0.24018
 Fermi (or HOMO) energy (eV) =  -6.43930   Average Vxc (eV)=  -8.07289
 Eigenvalues (   eV  ) for nkpt=   2  k points:
 kpt#   1, nband=  7, wtk=  0.25000, kpt=  0.2500  0.2500  0.2500 (reduced coord)
 -18.28799  -15.87079  -15.87079  -15.79457   -6.98522   -6.43930   -6.43930
 kpt#   2, nband=  7, wtk=  0.75000, kpt=  0.2500  0.5000  0.5000 (reduced coord)
 -18.21941  -15.96257  -15.89837  -15.84605   -7.11377   -6.66158   -6.53575

 Cartesian components of stress tensor (hartree/bohr^3)
  sigma(1 1)=  3.86327862E-04  sigma(3 2)=  0.00000000E+00
  sigma(2 2)=  3.86327862E-04  sigma(3 1)=  0.00000000E+00
  sigma(3 3)=  3.86327862E-04  sigma(2 1)=  0.00000000E+00


 scprqt:  WARNING -
  nstep=   20 was not enough SCF cycles to converge;
  maximum residual=  2.040E-13 exceeds tolwfr=  1.000E-15

 Integrated electronic density in atomic spheres:
 ------------------------------------------------
 Atom  Sphere_radius  Integrated_density
    1        2.00000          5.00938775
    2        2.00000          4.99104924
================================================================================

 ----iterations are completed or convergence reached----

 Mean square residual over all n,k,spin=   3.6161E-14; max=  2.0400E-13
   0.2500  0.2500  0.2500    1  2.03997E-13 kpt; spin; max resid(k); each band:
  2.04E-13 8.94E-17 9.13E-17 2.04E-16 1.91E-14 2.03E-14 1.52E-14
   0.2500  0.5000  0.5000    1  8.98654E-14 kpt; spin; max resid(k); each band:
  8.99E-14 1.60E-16 1.17E-16 3.11E-16 7.71E-14 5.31E-14 2.66E-14
 reduced coordinates (array xred) for    2 atoms
       0.000000000000      0.000000000000      0.000000000000
       0.500000000000      0.500000000000      0.500000000000
 rms dE/dt=  0.0000E+00; max dE/dt=  0.0000E+00; dE/dt below (all hartree)
    1       0.000000000000      0.000000000000      0.000000000000
    2       0.000000000000      0.000000000000      0.000000000000

 cartesian coordinates (angstrom) at end:
    1      0.00000000000000     0.00000000000000     0.00000000000000
    2      3.14595850506755     3.14595850506755     3.14595850506755

 cartesian forces (hartree/bohr) at end:
    1     -0.00000000000000    -0.00000000000000    -0.00000000000000
    2     -0.00000000000000    -0.00000000000000    -0.00000000000000
 frms,max,avg= 0.0000000E+00 0.0000000E+00   0.000E+00  0.000E+00  0.000E+00 h/b

 cartesian forces (eV/Angstrom) at end:
    1     -0.00000000000000    -0.00000000000000    -0.00000000000000
    2     -0.00000000000000    -0.00000000000000    -0.00000000000000
 frms,max,avg= 0.0000000E+00 0.0000000E+00   0.000E+00  0.000E+00  0.000E+00 e/A
 length scales= 11.890000000000 11.890000000000 11.890000000000 bohr
              =  6.291917010135  6.291917010135  6.291917010135 angstroms
 prteigrs : about to open file t24o_EIG
 Fermi (or HOMO) energy (hartree) =  -0.23664   Average Vxc (hartree)=  -0.29667
 Eigenvalues (hartree) for nkpt=   2  k points:
 kpt#   1, nband=  7, wtk=  0.25000, kpt=  0.2500  0.2500  0.2500 (reduced coord)
  -0.67207   -0.58324   -0.58324   -0.58044   -0.25670   -0.23664   -0.23664
 kpt#   2, nband=  7, wtk=  0.75000, kpt=  0.2500  0.5000  0.5000 (reduced coord)
  -0.66955   -0.58661   -0.58425   -0.58233   -0.26143   -0.24481   -0.24018
 Fermi (or HOMO) energy (eV) =  -6.43930   Average Vxc (eV)=  -8.07289
 Eigenvalues (   eV  ) for nkpt=   2  k points:
 kpt#   1, nband=  7, wtk=  0.25000, kpt=  0.2500  0.2500  0.2500 (reduced coord)
 -18.28799  -15.87079  -15.87079  -15.79457   -6.98522   -6.43930   -6.43930
 kpt#   2, nband=  7, wtk=  0.75000, kpt=  0.2500  0.5000  0.5000 (reduced coord)
 -18.21941  -15.96257  -15.89837  -15.84605   -7.11377   -6.66158   -6.53575
 Total charge density [el/Bohr^3]
      Maximum=    3.8549E-01  at reduced coord.    0.0833    0.9167    0.9583
 Next maximum=    3.8549E-01  at reduced coord.    0.0417    0.9167    0.9583
      Minimum=    2.8754E-05  at reduced coord.    0.0000    0.0000    0.0000
 Next minimum=    9.5965E-04  at reduced coord.    0.2500    0.2500    0.2500
   Integrated=    1.4000E+01

--------------------------------------------------------------------------------
 Components of total free energy (in Hartree) :

    Kinetic energy  =  1.41782854067087E+01
    Hartree energy  =  6.57316643685206E+00
    XC energy       = -9.08943316116863E+00
    Ewald energy    = -2.33856310335660E+01
    PspCore energy  =  3.40160135824301E+00
    Loc. psp. energy= -1.30943737410593E+01
    NL   psp  energy= -1.23802291896831E+01
    >>>>>>>>> Etotal= -3.37966139236733E+01

 Other information on the energy :
    Total energy(eV)= -9.19652634645295E+02 ; Band energy (Ha)=  -6.3282418048E+00
--------------------------------------------------------------------------------

          ===> extra information on forces <===
 ewald contribution to reduced grads
    1       0.000000000000      0.000000000000      0.000000000000
    2      -0.000000000000     -0.000000000000     -0.000000000000
 nonlocal contribution to red. grads
    1       0.000000000000     -0.000000000000      0.000000000000
    2       0.000000000000     -0.000000000000     -0.000000000000
 local psp contribution to red. grads
    1      -0.000000000000     -0.000000000000     -0.000000000000
    2      -0.000000000000     -0.000000000000     -0.000000000000
 core charge xc contribution to reduced grads
    1       0.000000000000      0.000000000000      0.000000000000
    2       0.000000000000      0.000000000000      0.000000000000
 residual contribution to red. grads
    1       0.000000000000      0.000000000000     -0.000000000000
    2       0.000000000000     -0.000000000000     -0.000000000000

 Cartesian components of stress tensor (hartree/bohr^3)
  sigma(1 1)=  3.86327862E-04  sigma(3 2)=  0.00000000E+00
  sigma(2 2)=  3.86327862E-04  sigma(3 1)=  0.00000000E+00
  sigma(3 3)=  3.86327862E-04  sigma(2 1)=  0.00000000E+00

-Cartesian components of stress tensor (GPa)         [Pressure= -1.1366E+01 GPa]
- sigma(1 1)=  1.13661562E+01  sigma(3 2)=  0.00000000E+00
- sigma(2 2)=  1.13661562E+01  sigma(3 1)=  0.00000000E+00
- sigma(3 3)=  1.13661562E+01  sigma(2 1)=  0.00000000E+00

== END DATASET(S) ==============================================================
================================================================================
  
 -outvars: echo values of variables after computation  --------
            acell      1.1890000000E+01  1.1890000000E+01  1.1890000000E+01 Bohr
              amu      3.90983000E+01  3.54527000E+01
           diemac      1.00000000E+00
           diemix      3.33333333E-01
             ecut      1.00000000E+01 Hartree
           enunit           2
           etotal     -3.3796613924E+01
            fcart     -0.0000000000E+00 -0.0000000000E+00 -0.0000000000E+00
                      -0.0000000000E+00 -0.0000000000E+00 -0.0000000000E+00
-          fftalg         312
            intxc           1
              kpt      1.00000000E+00  1.00000000E+00  1.00000000E+00
                       1.00000000E+00  2.00000000E+00  2.00000000E+00
           kptnrm      4.00000000E+00
           kptopt           0
P           mkmem           2
            natom           2
            nband           7
            ngfft          24      24      24
             nkpt           2
            nline           2
            nstep          20
             nsym          24
           ntypat           2
              occ      2.000000  2.000000  2.000000  2.000000  2.000000  2.000000
                       2.000000
           occopt           0
           prtvol          10
            rprim      0.0000000000E+00  5.0000000000E-01  5.0000000000E-01
                       5.0000000000E-01  0.0000000000E+00  5.0000000000E-01
                       5.0000000000E-01  5.0000000000E-01  0.0000000000E+00
          spgroup         216
           strten      3.8632786150E-04  3.8632786150E-04  3.8632786150E-04
                       0.0000000000E+00  0.0000000000E+00  0.0000000000E+00
           symrel      1  0  0   0  1  0   0  0  1       0  1 -1   1  0 -1   0  0 -1
                       0 -1  1   0 -1  0   1 -1  0      -1  0  0  -1  0  1  -1  1  0
                       0  1  0   0  0  1   1  0  0       1  0 -1   0  0 -1   0  1 -1
                       0 -1  0   1 -1  0   0 -1  1      -1  0  1  -1  1  0  -1  0  0
                       0  0  1   1  0  0   0  1  0       0  0 -1   0  1 -1   1  0 -1
                       1 -1  0   0 -1  1   0 -1  0      -1  1  0  -1  0  0  -1  0  1
                       1  0 -1   0  1 -1   0  0 -1       0  1  0   1  0  0   0  0  1
                      -1  0  1  -1  0  0  -1  1  0       0 -1  0   0 -1  1   1 -1  0
                      -1  1  0  -1  0  1  -1  0  0       1 -1  0   0 -1  0   0 -1  1
                       0  0 -1   1  0 -1   0  1 -1       0  0  1   0  1  0   1  0  0
                       0 -1  1   1 -1  0   0 -1  0      -1  0  0  -1  1  0  -1  0  1
                       1  0  0   0  0  1   0  1  0       0  1 -1   0  0 -1   1  0 -1
           timopt          -1
           tolwfr      1.00000000E-15
            typat      1  2
              wtk        0.25000    0.75000
           xangst      0.0000000000E+00  0.0000000000E+00  0.0000000000E+00
                       3.1459585051E+00  3.1459585051E+00  3.1459585051E+00
            xcart      0.0000000000E+00  0.0000000000E+00  0.0000000000E+00
                       5.9450000000E+00  5.9450000000E+00  5.9450000000E+00
             xred      0.0000000000E+00  0.0000000000E+00  0.0000000000E+00
                       5.0000000000E-01  5.0000000000E-01  5.0000000000E-01
            znucl       19.00000   17.00000

================================================================================

 Test the timer : 
  a combined call timab(*,1,tsec) + timab(*,2,tsec) is 
- CPU time =    6.7211E-05 sec,    Wall time =    9.2160E-06 sec

- Total cpu        time (s,m,h):          8.0        0.13      0.002
- Total wall clock time (s,m,h):          1.9        0.03      0.001
-
- For major independent code sections, cpu and wall times (sec),
-  as well as % of the time and number of calls for node 0-
-<BEGIN_TIMER mpi_nprocs = 1, omp_nthreads = 1, mpi_rank = 0>
- cpu_time =            8.0, wall_time =            1.9
-
- routine                        cpu     %       wall     %      number of calls  Gflops 
-                                                                  (-1=no count)
- fourwf%(pot)                   2.768  34.6      0.386  20.4            918      -1.00    
- pspini                         0.695   8.7      0.695  36.8              1      -1.00    
- nonlop(apply)                  0.622   7.8      0.084   4.4            918      -1.00    
- fourwf%(den)                   0.467   5.8      0.063   3.3            280      -1.00    
- xc:pot/=fourdp                 0.285   3.6      0.040   2.1             21      -1.00    
- fourdp                         0.283   3.5      0.043   2.3            147      -1.00    
- scfcv-scprqt                   0.273   3.4      0.044   2.3             20      -1.00    
- projbd                         0.267   3.3      0.035   1.9           1220      -1.00    
- vtowfk(ssdiag)                 0.227   2.8      0.030   1.6             -1      -1.00    
- getghc-other                   0.194   2.4      0.025   1.3             -1      -1.00    
- invars2                        0.118   1.5      0.118   6.2              1      -1.00    
- timing timab                   0.101   1.3      0.014   0.7              2      -1.00    
- symrhg(no FFT)                 0.095   1.2      0.013   0.7             20      -1.00    
- vtowfk(contrib)                0.055   0.7      0.007   0.4             40      -1.00    
- abinit(2)                      0.041   0.5      0.041   2.1              1      -1.00    
- stress                         0.034   0.4      0.004   0.2              1      -1.00    
- forces                         0.032   0.4      0.004   0.2              1      -1.00    
- nonlop(forstr)                 0.025   0.3      0.003   0.2             14      -1.00    
- ewald2 (+vdw_dftd)             0.013   0.2      0.002   0.1              1      -1.00    
- mkcore                         0.011   0.1      0.002   0.1              3      -1.00    
- vtowfk  (1)                    0.009   0.1      0.001   0.1             40      -1.00    
- ewald                          0.003   0.0      0.003   0.1              1      -1.00    
- setsym                         0.001   0.0      0.001   0.1              1      -1.00    
- newkpt(excl. rwwf   )          0.001   0.0      0.001   0.0             -1      -1.00    
- kpgsph                         0.000   0.0      0.000   0.0              4      -1.00    
- status                         0.000   0.0      0.000   0.0              1      -1.00    
- inwffil(excl. calls)           0.000   0.0      0.000   0.0              1      -1.00    
- dfpt_vtowfk(contrib)           0.000   0.0      0.000   0.0             -1      -1.00    
- dfpt_cgwf-O(npw)               0.000   0.0      0.000   0.0             -1      -1.00    
- others (83)                    0.000   0.0      0.000   0.0             -1      -1.00    
-<END_TIMER>
-
- subtotal                       6.621  82.7      1.658  87.7

- For major independent code sections, cpu and wall times (sec),
- as well as % of the total time and number of calls 

-<BEGIN_TIMER mpi_nprocs = 1, omp_nthreads = 1, mpi_rank = world>
- cpu_time =           8.0, wall_time =           1.9
-
- routine                         cpu     %       wall     %      number of calls Gflops 
-                                                                  (-1=no count)
- fourwf%(pot)                   2.768  34.6      0.386  20.4            918      -1.00    
- pspini                         0.695   8.7      0.695  36.8              1      -1.00    
- nonlop(apply)                  0.622   7.8      0.084   4.4            918      -1.00    
- fourwf%(den)                   0.467   5.8      0.063   3.3            280      -1.00    
- xc:pot/=fourdp                 0.285   3.6      0.040   2.1             21      -1.00    
- fourdp                         0.283   3.5      0.043   2.3            147      -1.00    
- scfcv-scprqt                   0.273   3.4      0.044   2.3             20      -1.00    
- projbd                         0.267   3.3      0.035   1.9           1220      -1.00    
- vtowfk(ssdiag)                 0.227   2.8      0.030   1.6             -1      -1.00    
- getghc-other                   0.194   2.4      0.025   1.3             -1      -1.00    
- invars2                        0.118   1.5      0.118   6.2              1      -1.00    
- timing timab                   0.101   1.3      0.014   0.7              2      -1.00    
- symrhg(no FFT)                 0.095   1.2      0.013   0.7             20      -1.00    
- vtowfk(contrib)                0.055   0.7      0.007   0.4             40      -1.00    
- abinit(2)                      0.041   0.5      0.041   2.1              1      -1.00    
- stress                         0.034   0.4      0.004   0.2              1      -1.00    
- forces                         0.032   0.4      0.004   0.2              1      -1.00    
- nonlop(forstr)                 0.025   0.3      0.003   0.2             14      -1.00    
- ewald2 (+vdw_dftd)             0.013   0.2      0.002   0.1              1      -1.00    
- mkcore                         0.011   0.1      0.002   0.1              3      -1.00    
- vtowfk  (1)                    0.009   0.1      0.001   0.1             40      -1.00    
- ewald                          0.003   0.0      0.003   0.1              1      -1.00    
- setsym                         0.001   0.0      0.001   0.1              1      -1.00    
- newkpt(excl. rwwf   )          0.001   0.0      0.001   0.0             -1      -1.00    
- kpgsph                         0.000   0.0      0.000   0.0              4      -1.00    
- status                         0.000   0.0      0.000   0.0              1      -1.00    
- inwffil(excl. calls)           0.000   0.0      0.000   0.0              1      -1.00    
- dfpt_vtowfk(contrib)           0.000   0.0      0.000   0.0             -1      -1.00    
- dfpt_cgwf-O(npw)               0.000   0.0      0.000   0.0             -1      -1.00    
- others (83)                    0.000   0.0      0.000   0.0             -1      -1.00    
-<END_TIMER>

- subtotal                       6.621  82.7      1.658  87.7

 Partitioning of abinit
- abinit                         8.001 100.0      1.890 100.0              1
 
- abinit(1)                      0.011   0.1      0.011   0.6              1
- abinit(2)                      0.041   0.5      0.041   2.1              1
- indefo+macroin+invars2m        0.118   1.5      0.118   6.3              1
- abinit(4)                      0.013   0.2      0.028   1.5              1
- abinit(5)                      0.005   0.1      0.005   0.3              1
- driver                         7.116  88.9      1.589  84.1              1
- abinit(6)                      0.596   7.4      0.085   4.5              1
- timing timab                   0.101   1.3      0.014   0.7              2

- subtotal                       8.001 100.0      1.890 100.0

 Partitioning of driver
- driver                         7.116  88.9      1.589  84.1              1
 
- gstateimg                      7.115  88.9      1.589  84.1              1

- subtotal                       7.116  88.9      1.589  84.1

 Partitioning of gstateimg+gstate
- gstateimg                      7.115  88.9      1.589  84.1              1
 
- gstate->kpgsph                 0.002   0.0      0.002   0.1              2
- gstate(pspini)                 0.695   8.7      0.695  36.8              1
- gstate  (2)                    0.004   0.1      0.004   0.2              1
- gstate(...scfcv)               6.399  80.0      0.886  46.9              1
- gstate  (3)                    0.013   0.2      0.002   0.1              1

- subtotal                       7.114  88.9      1.589  84.0

 Partitioning of scfcv
- scfcv                          6.399  80.0      0.886  46.9              1
 
- scfcv(iniloop, setvtr  )       0.012   0.2      0.010   0.6             20
- scfcv(vtorho(f))               5.261  65.8      0.719  38.0             20
- scfcv(etotfor)                 0.005   0.1      0.001   0.0             40
- scfcv-scprqt                   0.273   3.4      0.044   2.3             20
- scfcv(rhotov)                  0.554   6.9      0.074   3.9             20
- scfcv(mix pot)                 0.138   1.7      0.018   1.0             20
- scfcv(afterscfloop)            0.103   1.3      0.013   0.7              1
- scfcv(outscfcv)                0.034   0.4      0.004   0.2              1
- (other)                        0.013   0.2      0.002   0.1             -1

- subtotal                       6.399  80.0      0.886  46.9

 Partitioning of rhotov
- rhotov                         0.552   6.9      0.073   3.9             20
 
- rhotov(rhohxc)                 0.506   6.3      0.067   3.6             20
- rhotov(dotprod_vn)             0.009   0.1      0.001   0.1             20
- rhotov(other)                  0.035   0.4      0.005   0.2             20
- (other)                        0.003   0.0      0.001   0.0             -1

- subtotal                       0.552   6.9      0.073   3.9

 Partitioning of vtorho
- vtorho                         5.259  65.7      0.719  38.0             20
 
- vtorho(bef. spin loop)         0.004   0.0      0.000   0.0             20
- vtorho(bef. kpt  loop)         0.005   0.1      0.001   0.0             20
- vtorho(bef. vtowfk)            0.043   0.5      0.006   0.3             40
- vtowfk                         4.974  62.2      0.680  36.0             40
- vtorho(aft. kpt loop)          0.008   0.1      0.001   0.1             20
- vtorho(mkrho 2)                0.202   2.5      0.027   1.4             40
- (other)                        0.016   0.2      0.002   0.1             -1

- subtotal                       5.259  65.7      0.719  38.0

 Partitioning of vtowfk
- vtowfk                         4.974  62.2      0.680  36.0             40
 
- vtowfk  (1)                    0.009   0.1      0.001   0.1             40
- cgwf                           4.215  52.7      0.579  30.6             44
- vtowfk(subdiago)               0.037   0.5      0.005   0.3             44
- vtowfk(pw_orthon)              0.164   2.1      0.022   1.2             44
- vtowfk(2)                      0.026   0.3      0.003   0.2             -1
- fourwf%vtowfk                  0.467   5.8      0.063   3.3            280
- vtowfk(nonlocalpart)           0.005   0.1      0.001   0.0             40
- vtowfk(3)                      0.050   0.6      0.006   0.3             -1

- subtotal                       4.974  62.2      0.680  36.0

 Partitioning of cgwf
- cgwf                           4.215  52.7      0.579  30.6             44
 
- getghc%cgwf                    3.585  44.8      0.495  26.2            918
- cgwf-O(npw)                    0.363   4.5      0.048   2.6             -1
- projbd%cgwf                    0.267   3.3      0.035   1.9           1220

- subtotal                       4.215  52.7      0.579  30.6

 Partitioning of getghc
- getghc                         3.585  44.8      0.495  26.2            918
 
- fourwf%getghc                  2.768  34.6      0.386  20.4            918
- nonlop%getghc                  0.622   7.8      0.084   4.4            918
- getghc-other                   0.194   2.4      0.025   1.3             -1

- subtotal                       3.585  44.8      0.495  26.2

 Partitioning of fourwf (upwards partitioning)
- fourwf                         3.235  40.4      0.449  23.8           1198
 
- fourwf%getghc                  2.768  34.6      0.386  20.4            918
- fourwf%vtowfk                  0.467   5.8      0.063   3.3            280

- subtotal                       3.235  40.4      0.449  23.8

 Partitioning of inwffil
- inwffil                        0.001   0.0      0.001   0.0              1
 
- inwffil(call newkpt)           0.001   0.0      0.001   0.0              1

- subtotal                       0.001   0.0      0.001   0.0

 Partitioning of newkpt
- newkpt                         0.001   0.0      0.001   0.0              1
 
- newkpt(call wfconv)            0.001   0.0      0.001   0.0              2

- subtotal                       0.001   0.0      0.001   0.0

 Partitioning of newvtr
- newvtr                         0.136   1.7      0.018   0.9             20
 
- newvtr(before selection)       0.005   0.1      0.001   0.0             20
- newvtr(call prcref_PMA)        0.002   0.0      0.000   0.0             20
- newvtr(aft. prcref_PMA)        0.111   1.4      0.014   0.8             20
- newvtr(mean potential)         0.005   0.1      0.001   0.0             20
- (other)                        0.012   0.1      0.001   0.1             -1

- subtotal                       0.136   1.7      0.018   0.9

 Partitioning of  fourdp (upwards partitioning)
- fourdp                         0.283   3.5      0.043   2.3            147
 
- fourdp%(other)                 0.283   3.5      0.043   2.3            147

- subtotal                       0.283   3.5      0.043   2.3

 Partitioning of afterscfloop
- afterscfloop                   0.103   1.3      0.013   0.7              1
 
- afterscfloop(forstr)           0.102   1.3      0.013   0.7              1

- subtotal                       0.103   1.3      0.013   0.7

 Partitioning of forstr
- forstr                         0.102   1.3      0.013   0.7              1
 
- forstr(forstrnps)              0.035   0.4      0.004   0.2              1
- forstr(forces)                 0.032   0.4      0.004   0.2              1
- forstr(stress)                 0.034   0.4      0.004   0.2              1

- subtotal                       0.102   1.3      0.013   0.7

 Partitioning of forstrnps
- forstrnps                      0.035   0.4      0.004   0.2              1
 
- forstrnps(nonlop+prep_ba       0.026   0.3      0.003   0.2             14

- subtotal                       0.035   0.4      0.004   0.2

 Partitioning of outscfcv
- outscfcv                       0.034   0.4      0.004   0.2              1
 
- outscfcv([PAW]prtden)          0.004   0.0      0.000   0.0              1
- outscfcv(prtelf)               0.025   0.3      0.003   0.2              1

- subtotal                       0.031   0.4      0.004   0.2
-
-Synchronisation (=leave_test) and MPI calls 
- communic.MPI                   0.087   1.1      0.013   0.7           1900
-
- forstrnps:synchr               0.000   0.0      0.000   0.0              2
-
- subtotal                       0.000   0.0      0.000   0.0

 Additional information
- timana(1)                      0.000   0.0      0.000   0.0              1
- total timab                    0.626   7.8      0.086   4.5           9318
- fourwf                         3.235  40.4      0.449  23.8           1198
- mklocl(2)                      0.007   0.1      0.001   0.0              1
- status                         0.000   0.0      0.000   0.0              1
- nonlop(forstr)                 0.025   0.3      0.003   0.2             14
- nonlop(total)                  0.647   8.1      0.087   4.6            932
- xc:fourdp                      0.171   2.1      0.025   1.3             84


 Detailed analysis of some time consuming routines 
                                  tcpu    ncalls  tcpu/ncalls    ndata tcpu/ncalls/ndata
                                 (sec)                (msec)              (microsec)
- fourwf%(pot)                   2.768       918       3.015     27648       0.109
- fourwf%(den)                   0.467       280       1.668     13824       0.121
- fourdp                         0.283       147       1.923     13824       0.139
- nonlop(apply)                  0.622       918       0.678      1268       0.535
- nonlop(forces)                 0.000         0
- nonlop(forstr)                 0.025        14       1.773      1268       1.398
- projbd                         0.267      1220       0.219      4438       0.049
- xc:pot/=fourdp                 0.285        21      13.589     13824       0.983

================================================================================

 Suggested references for the acknowledgment of ABINIT usage.

 The users of ABINIT have little formal obligations with respect to the ABINIT group
 (those specified in the GNU General Public License, http://www.gnu.org/copyleft/gpl.txt).
 However, it is common practice in the scientific literature,
 to acknowledge the efforts of people that have made the research possible.
 In this spirit, please find below suggested citations of work written by ABINIT developers,
 corresponding to implementations inside of ABINIT that you have used in the present run.
 Note also that it will be of great value to readers of publications presenting these results,
 to read papers enabling them to understand the theoretical formalism and details
 of the ABINIT implementation.
 For information on why they are suggested, see also https://www.abinit.org/about/?text=acknowledgments.
-
- [1] ABINIT : First-principles approach of materials and nanosystem properties.
- X. Gonze, B. Amadon, P.-M. Anglade, J.-M. Beuken, F. Bottin, P. Boulanger, F. Bruneval,
- D. Caliste, R. Caracas, M. Cote, T. Deutsch, L. Genovese, Ph. Ghosez, M. Giantomassi
- S. Goedecker, D.R. Hamann, P. Hermet, F. Jollet, G. Jomard, S. Leroux, M. Mancini, S. Mazevet,
- M.J.T. Oliveira, G. Onida, Y. Pouillon, T. Rangel, G.-M. Rignanese, D. Sangalli, R. Shaltaf,
- M. Torrent, M.J. Verstraete, G. Zerah, J.W. Zwanziger
- Computer Phys. Comm. 180, 2582-2615 (2009).
- Comment : the third generic paper describing the ABINIT project.
- Note that a version of this paper, that is not formatted for Computer Phys. Comm. 
- is available at https://www.abinit.org/about/ABINIT_CPC_v10.pdf .
- The licence allows the authors to put it on the Web.
-
- [2] A brief introduction to the ABINIT software package.
- X. Gonze, G.-M. Rignanese, M. Verstraete, J.-M. Beuken, Y. Pouillon, R. Caracas, F. Jollet,
- M. Torrent, G. Zerah, M. Mikami, Ph. Ghosez, M. Veithen, J.-Y. Raty, V. Olevano, F. Bruneval,
- L. Reining, R. Godby, G. Onida, D.R. Hamann, and D.C. Allan.
- Z. Kristallogr. 220, 558-562 (2005).
- Comment : the second generic paper describing the ABINIT project. Note that this paper
- should be cited especially if you are using the GW part of ABINIT, as several authors
- of this part are not in the list of authors of the first or third paper.
- The .pdf of the latter paper is available at https://www.abinit.org/about/zfk_0505-06_558-562.pdf.
- Note that it should not redistributed (Copyright by Oldenburg Wissenshaftverlag,
- the licence allows the authors to put it on the Web).
-
- And optionally:
-
- [3] First-principles computation of material properties : the ABINIT software project. 
- X. Gonze, J.-M. Beuken, R. Caracas, F. Detraux, M. Fuchs, G.-M. Rignanese, L. Sindic,
- M. Verstraete, G. Zerah, F. Jollet, M. Torrent, A. Roy, M. Mikami, Ph. Ghosez, J.-Y. Raty, D.C. Allan.
- Computational Materials Science 25, 478-492 (2002). http://dx.doi.org/10.1016/S0927-0256(02)00325-7
- Comment : the original paper describing the ABINIT project.
-
- [4] Fast radix 2, 3, 4 and 5 kernels for Fast Fourier Transformations
- on computers with overlapping multiply-add instructions.
- S. Goedecker, SIAM J. on Scientific Computing 18, 1605 (1997).
-
- Proc.   0 individual time (sec): cpu=          8.0  wall=          1.9

================================================================================

 Calculation completed.
.Delivered   6 WARNINGs and   2 COMMENTs to log file.
+Overall time at end (sec) : cpu=          8.0  wall=          1.9
