As    ONCVPSP-3.3.0  r_core=   1.76603   1.60529   1.80867
33.0000     15.0000      180423    zatom,zion,pspd
8      11   2     4   600     0    pspcod,pspxc,lmax,lloc,mmax,r2well
5.99000000  5.00000000  0.00000000    rchrg fchrg qchrg
2     4     2     0    nproj
3     1           extension_switch
4     3     0    nprojso
0                         7.8927620945782D-01  7.8519851647259D+00
1  0.0000000000000D+00 -7.1862434405934D-11  1.4665491043786D-11
2  1.0000000000000D-02  1.5143788217984D-03  2.9007333676344D-02
3  2.0000000000000D-02  2.9540621249972D-03  5.8021791709600D-02
4  3.0000000000000D-02  4.2449263272205D-03  8.7050348652567D-02
5  4.0000000000000D-02  5.3139883576918D-03  1.1609968025328D-01
6  5.0000000000000D-02  6.0899675291355D-03  1.4517601605759D-01
7  6.0000000000000D-02  6.5038373998800D-03  1.7428499440730D-01
8  7.0000000000000D-02  6.4893643741475D-03  2.0343152061510D-01
9  8.0000000000000D-02  5.9836298603770D-03  2.3261962908302D-01
10  9.0000000000000D-02  4.9275328967153D-03  2.6185235011250D-01
11  1.0000000000000D-01  3.2662702587954D-03  2.9113158213288D-01
12  1.1000000000000D-01  9.4979118736199D-04  3.2045797004974D-01
13  1.2000000000000D-01 -2.0667759887440D-03  3.4983079038615D-01
14  1.3000000000000D-01 -5.8227279055791D-03  3.7924784385847D-01
15  1.4000000000000D-01 -1.0351423297356D-02  4.0870535599368D-01
16  1.5000000000000D-01 -1.5679955433549D-02  4.3819788635782D-01
17  1.6000000000000D-01 -2.1828861890547D-02  4.6771824692492D-01
18  1.7000000000000D-01 -2.8811873484141D-02  4.9725743007327D-01
19  1.8000000000000D-01 -3.6635703974390D-02  5.2680454665063D-01
20  1.9000000000000D-01 -4.5299881930308D-02  5.5634677450306D-01
21  2.0000000000000D-01 -5.4796625909937D-02  5.8586931781265D-01
22  2.1000000000000D-01 -6.5110763872061D-02  6.1535537753877D-01
23  2.2000000000000D-01 -7.6219697491488D-02  6.4478613320499D-01
24  2.3000000000000D-01 -8.8093411800684D-02  6.7414073622011D-01
25  2.4000000000000D-01 -1.0069453032859D-01  7.0339631486730D-01
26  2.5000000000000D-01 -1.1397841565366D-01  7.3252799103940D-01
27  2.6000000000000D-01 -1.2789331503434D-01  7.6150890874294D-01
28  2.7000000000000D-01 -1.4238055052674D-01  7.9031027433664D-01
29  2.8000000000000D-01 -1.5737475274893D-01  8.1890140841399D-01
30  2.9000000000000D-01 -1.7280413720411D-01  8.4724980918333D-01
31  3.0000000000000D-01 -1.8859082183312D-01  8.7532122714310D-01
32  3.1000000000000D-01 -2.0465118423103D-01  9.0307975079498D-01
33  3.2000000000000D-01 -2.2089625673509D-01  9.3048790308356D-01
34  3.3000000000000D-01 -2.3723215737200D-01  9.5750674819855D-01
35  3.4000000000000D-01 -2.5356055444430D-01  9.8409600832425D-01
36  3.5000000000000D-01 -2.6977916233763D-01  1.0102141898711D+00
37  3.6000000000000D-01 -2.8578226594673D-01  1.0358187186768D+00
38  3.7000000000000D-01 -3.0146127094588D-01  1.0608660836196D+00
39  3.8000000000000D-01 -3.1670527697337D-01  1.0853119880413D+00
40  3.9000000000000D-01 -3.3140167065793D-01  1.1091115083403D+00
41  4.0000000000000D-01 -3.4543673529068D-01  1.1322192590537D+00
42  4.1000000000000D-01 -3.5869627383779D-01  1.1545895637158D+00
43  4.2000000000000D-01 -3.7106624189948D-01  1.1761766307481D+00
44  4.3000000000000D-01 -3.8243338714936D-01  1.1969347336056D+00
45  4.4000000000000D-01 -3.9268589173497D-01  1.2168183943831D+00
46  4.5000000000000D-01 -4.0171401408756D-01  1.2357825700618D+00
47  4.6000000000000D-01 -4.0941072657467D-01  1.2537828405590D+00
48  4.7000000000000D-01 -4.1567234543516D-01  1.2707755977313D+00
49  4.8000000000000D-01 -4.2039914946190D-01  1.2867182344727D+00
50  4.9000000000000D-01 -4.2349598394279D-01  1.3015693330392D+00
51  5.0000000000000D-01 -4.2487284643574D-01  1.3152888517365D+00
52  5.1000000000000D-01 -4.2444545103752D-01  1.3278383091034D+00
53  5.2000000000000D-01 -4.2213576791008D-01  1.3391809647329D+00
54  5.3000000000000D-01 -4.1787253494972D-01  1.3492819958849D+00
55  5.4000000000000D-01 -4.1159173862388D-01  1.3581086690539D+00
56  5.5000000000000D-01 -4.0323706115839D-01  1.3656305056791D+00
57  5.6000000000000D-01 -3.9276029143047D-01  1.3718194412025D+00
58  5.7000000000000D-01 -3.8012169711259D-01  1.3766499767073D+00
59  5.8000000000000D-01 -3.6529035581552D-01  1.3800993224011D+00
60  5.9000000000000D-01 -3.4824444319632D-01  1.3821475322374D+00
61  6.0000000000000D-01 -3.2897147622583D-01  1.3827776290088D+00
62  6.1000000000000D-01 -3.0746851005168D-01  1.3819757192831D+00
63  6.2000000000000D-01 -2.8374228714166D-01  1.3797310975985D+00
64  6.3000000000000D-01 -2.5780933765230D-01  1.3760363393763D+00
65  6.4000000000000D-01 -2.2969603023175D-01  1.3708873820617D+00
66  6.5000000000000D-01 -1.9943857273747D-01  1.3642835940515D+00
67  6.6000000000000D-01 -1.6708296262414D-01  1.3562278310206D+00
68  6.7000000000000D-01 -1.3268488703365D-01  1.3467264793162D+00
69  6.8000000000000D-01 -9.6309572897239D-02  1.3357894861419D+00
70  6.9000000000000D-01 -5.8031587636416D-02  1.3234303763148D+00
71  7.0000000000000D-01 -1.7934591324625D-02  1.3096662554355D+00
72  7.1000000000000D-01  2.3888958560487D-02  1.2945177993730D+00
73  7.2000000000000D-01  6.7338148396803D-02  1.2780092300247D+00
74  7.3000000000000D-01  1.1230399403711D-01  1.2601682773741D+00
75  7.4000000000000D-01  1.5866986888596D-01  1.2410261279301D+00
76  7.5000000000000D-01  2.0631197229452D-01  1.2206173596893D+00
77  7.6000000000000D-01  2.5509983590679D-01  1.1989798638257D+00
78  7.7000000000000D-01  3.0489686537765D-01  1.1761547533703D+00
79  7.8000000000000D-01  3.5556091468399D-01  1.1521862591990D+00
80  7.9000000000000D-01  4.0694489006677D-01  1.1271216137073D+00
81  8.0000000000000D-01  4.5889738047519D-01  1.1010109225999D+00
82  8.1000000000000D-01  5.1126331123567D-01  1.0739070252809D+00
83  8.2000000000000D-01  5.6388461753742D-01  1.0458653443776D+00
84  8.3000000000000D-01  6.1660093421614D-01  1.0169437249791D+00
85  8.4000000000000D-01  6.6925029822710D-01  9.8720226421738D-01
86  8.5000000000000D-01  7.2166986012853D-01  9.5670313185930D-01
87  8.6000000000000D-01  7.7369660084810D-01  9.2551038261867D-01
88  8.7000000000000D-01  8.2516804997836D-01  8.9368976093138D-01
89  8.8000000000000D-01  8.7592300184182D-01  8.6130849897090D-01
90  8.9000000000000D-01  9.2580222558255D-01  8.2843510870900D-01
91  9.0000000000000D-01  9.7464916557987D-01  7.9513916885212D-01
92  9.1000000000000D-01  1.0223106285394D+00  7.6149110750458D-01
93  9.2000000000000D-01  1.0686374536971D+00  7.2756198142760D-01
94  9.3000000000000D-01  1.1134851626742D+00  6.9342325277577D-01
95  9.4000000000000D-01  1.1567145856418D+00  6.5914656420224D-01
96  9.5000000000000D-01  1.1981924605945D+00  6.2480351322895D-01
97  9.6000000000000D-01  1.2377920026926D+00  5.9046542677896D-01
98  9.7000000000000D-01  1.2753934408086D+00  5.5620313676560D-01
99  9.8000000000000D-01  1.3108845186037D+00  5.2208675762543D-01
100  9.9000000000000D-01  1.3441609576734D+00  4.8818546667179D-01
101  1.0000000000000D+00  1.3751268805170D+00  4.5456728813029D-01
102  1.0100000000000D+00  1.4036951913247D+00  4.2129888169944D-01
103  1.0200000000000D+00  1.4297879128166D+00  3.8844533645713D-01
104  1.0300000000000D+00  1.4533364776248D+00  3.5606997090837D-01
105  1.0400000000000D+00  1.4742819729758D+00  3.2423413993899D-01
106  1.0500000000000D+00  1.4925753376801D+00  2.9299704941133D-01
107  1.0600000000000D+00  1.5081775107359D+00  2.6241557909808D-01
108  1.0700000000000D+00  1.5210595311054D+00  2.3254411461582D-01
109  1.0800000000000D+00  1.5312025885073D+00  2.0343438897778D-01
110  1.0900000000000D+00  1.5385980253571D+00  1.7513533434001D-01
111  1.1000000000000D+00  1.5432472902151D+00  1.4769294447739D-01
112  1.1100000000000D+00  1.5451618434275D+00  1.2115014846888D-01
113  1.1200000000000D+00  1.5443630158674D+00  9.5546696030405D-02
114  1.1300000000000D+00  1.5408818219622D+00  7.0919054876890D-02
115  1.1400000000000D+00  1.5347587284029D+00  4.7300320453116D-02
116  1.1500000000000D+00  1.5260433802053D+00  2.4720138311819D-02
117  1.1600000000000D+00  1.5147942859923D+00  3.2046393691566D-03
118  1.1700000000000D+00  1.5010784645962D+00 -1.7223611791752D-02
119  1.1800000000000D+00  1.4849710552190D+00 -3.6545655435252D-02
120  1.1900000000000D+00  1.4665548936373D+00 -5.4746161945031D-02
121  1.2000000000000D+00  1.4459200570610D+00 -7.1813443835711D-02
122  1.2100000000000D+00  1.4231633803932D+00 -8.7739454539473D-02
123  1.2200000000000D+00  1.3983879467638D+00 -1.0251977404648D-01
124  1.2300000000000D+00  1.3717025553412D+00 -1.1615358154524D-01
125  1.2400000000000D+00  1.3432211694791D+00 -1.2864361525285D-01
126  1.2500000000000D+00  1.3130623483161D+00 -1.3999611964667D-01
127  1.2600000000000D+00  1.2813486650294D+00 -1.5022078039628D-01
128  1.2700000000000D+00  1.2482061149128D+00 -1.5933064731915D-01
129  1.2800000000000D+00  1.2137635164921D+00 -1.6734204570229D-01
130  1.2900000000000D+00  1.1781519088657D+00 -1.7427447641367D-01
131  1.3000000000000D+00  1.1415039483650D+00 -1.8015050524720D-01
132  1.3100000000000D+00  1.1039533076865D+00 -1.8499564195212D-01
133  1.3200000000000D+00  1.0656340804576D+00 -1.8883820948020D-01
134  1.3300000000000D+00  1.0266801940990D+00 -1.9170920398421D-01
135  1.3400000000000D+00  9.8722483391146D-01 -1.9364214611363D-01
136  1.3500000000000D+00  9.4739988090912D-01 -1.9467292422319D-01
137  1.3600000000000D+00  9.0733536596626D-01 -1.9483963008866D-01
138  1.3700000000000D+00  8.6715894274485D-01 -1.9418238775840D-01
139  1.3800000000000D+00  8.2699538135589D-01 -1.9274317620021D-01
140  1.3900000000000D+00  7.8696608502112D-01 -1.9056564638369D-01
141  1.4000000000000D+00  7.4718863140968D-01 -1.8769493348175D-01
142  1.4100000000000D+00  7.0777634015219D-01 -1.8417746486090D-01
143  1.4200000000000D+00  6.6883786829416D-01 -1.8006076454334D-01
144  1.4300000000000D+00  6.3047683438416D-01 -1.7539325482624D-01
145  1.4400000000000D+00  5.9279147261202D-01 -1.7022405574053D-01
146  1.4500000000000D+00  5.5587431751535D-01 -1.6460278303618D-01
147  1.4600000000000D+00  5.1981191970084D-01 -1.5857934535738D-01
148  1.4700000000000D+00  4.8468459331288D-01 -1.5220374130338D-01
149  1.4800000000000D+00  4.5056619466713D-01 -1.4552585699668D-01
150  1.4900000000000D+00  4.1752393272909D-01 -1.3859526485467D-01
151  1.5000000000000D+00  3.8561821040149D-01 -1.3146102415787D-01
152  1.5100000000000D+00  3.5490249659266D-01 -1.2417148406360D-01
153  1.5200000000000D+00  3.2542322817874D-01 -1.1677408966843D-01
154  1.5300000000000D+00  2.9721974085914D-01 -1.0931519167620D-01
155  1.5400000000000D+00  2.7032422825441D-01 -1.0183986030698D-01
156  1.5500000000000D+00  2.4476172646006D-01 -9.4391703736180D-02
157  1.5600000000000D+00  2.2055012485539D-01 -8.7012691946131D-02
158  1.5700000000000D+00  1.9770020378204D-01 -7.9742986667783D-02
159  1.5800000000000D+00  1.7621568876964D-01 -7.2620777110146D-02
160  1.5900000000000D+00  1.5609348100026D-01 -6.5682146743913D-02
161  1.6000000000000D+00  1.3732324507039D-01 -5.8960841501453D-02
162  1.6100000000000D+00  1.1988786062605D-01 -5.2488182394567D-02
163  1.6200000000000D+00  1.0376525511182D-01 -4.6293194720972D-02
164  1.6300000000000D+00  8.8929768975323D-02 -4.0402688374245D-02
165  1.6400000000000D+00  7.5353926097368D-02 -3.4841428637199D-02
166  1.6500000000000D+00  6.3009216137035D-02 -2.9632155471490D-02
167  1.6600000000000D+00  5.1865781183978D-02 -2.4795443836898D-02
168  1.6700000000000D+00  4.1892675393583D-02 -2.0349655538802D-02
169  1.6800000000000D+00  3.3058116580958D-02 -1.6310892910875D-02
170  1.6900000000000D+00  2.5329621027238D-02 -1.2692941509895D-02
171  1.7000000000000D+00  1.8674167678188D-02 -9.5072226223318D-03
172  1.7100000000000D+00  1.3059931536669D-02 -6.7638401498131D-03
173  1.7200000000000D+00  8.4498576244707D-03 -4.4670771388800D-03
174  1.7300000000000D+00  4.8047391396929D-03 -2.6163785095415D-03
175  1.7400000000000D+00  2.1033090064464D-03 -1.2239321825978D-03
176  1.7500000000000D+00  3.1663974236326D-04 -2.9913083510095D-04
177  1.7600000000000D+00 -5.9786716927068D-04  1.7994750040388D-04
178  1.7700000000000D+00 -7.1135152928121D-04  2.7271069660994D-04
179  1.7800000000000D+00 -3.1449361709819D-04  1.2639179535233D-04
180  1.7900000000000D+00  5.7532979305772D-05 -2.3414727875729D-05
181  1.8000000000000D+00  9.6668981134034D-05 -3.9773413137963D-05
182  1.8100000000000D+00 -5.5916459423505D-06  2.2418350762112D-06
183  1.8200000000000D+00 -2.3124729142993D-05  9.3148962231482D-06
184  1.8300000000000D+00 -1.1338826653566D-06  4.5835209425576D-07
185  1.8400000000000D+00  2.1550650367171D-06 -7.9043109856682D-07
186  1.8500000000000D+00  6.6875428361049D-07 -2.4528456174610D-07
187  1.8600000000000D+00  0.0000000000000D+00  0.0000000000000D+00
188  1.8700000000000D+00  0.0000000000000D+00  0.0000000000000D+00
189  1.8800000000000D+00  0.0000000000000D+00  0.0000000000000D+00
190  1.8900000000000D+00  0.0000000000000D+00  0.0000000000000D+00
191  1.9000000000000D+00  0.0000000000000D+00  0.0000000000000D+00
192  1.9100000000000D+00  0.0000000000000D+00  0.0000000000000D+00
193  1.9200000000000D+00  0.0000000000000D+00  0.0000000000000D+00
194  1.9300000000000D+00  0.0000000000000D+00  0.0000000000000D+00
195  1.9400000000000D+00  0.0000000000000D+00  0.0000000000000D+00
196  1.9500000000000D+00  0.0000000000000D+00  0.0000000000000D+00
197  1.9600000000000D+00  0.0000000000000D+00  0.0000000000000D+00
198  1.9700000000000D+00  0.0000000000000D+00  0.0000000000000D+00
199  1.9800000000000D+00  0.0000000000000D+00  0.0000000000000D+00
200  1.9900000000000D+00  0.0000000000000D+00  0.0000000000000D+00
201  2.0000000000000D+00  0.0000000000000D+00  0.0000000000000D+00
202  2.0100000000000D+00  0.0000000000000D+00  0.0000000000000D+00
203  2.0200000000000D+00  0.0000000000000D+00  0.0000000000000D+00
204  2.0300000000000D+00  0.0000000000000D+00  0.0000000000000D+00
205  2.0400000000000D+00  0.0000000000000D+00  0.0000000000000D+00
206  2.0500000000000D+00  0.0000000000000D+00  0.0000000000000D+00
207  2.0600000000000D+00  0.0000000000000D+00  0.0000000000000D+00
208  2.0700000000000D+00  0.0000000000000D+00  0.0000000000000D+00
209  2.0800000000000D+00  0.0000000000000D+00  0.0000000000000D+00
210  2.0900000000000D+00  0.0000000000000D+00  0.0000000000000D+00
211  2.1000000000000D+00  0.0000000000000D+00  0.0000000000000D+00
212  2.1100000000000D+00  0.0000000000000D+00  0.0000000000000D+00
213  2.1200000000000D+00  0.0000000000000D+00  0.0000000000000D+00
214  2.1300000000000D+00  0.0000000000000D+00  0.0000000000000D+00
215  2.1400000000000D+00  0.0000000000000D+00  0.0000000000000D+00
216  2.1500000000000D+00  0.0000000000000D+00  0.0000000000000D+00
217  2.1600000000000D+00  0.0000000000000D+00  0.0000000000000D+00
218  2.1700000000000D+00  0.0000000000000D+00  0.0000000000000D+00
219  2.1800000000000D+00  0.0000000000000D+00  0.0000000000000D+00
220  2.1900000000000D+00  0.0000000000000D+00  0.0000000000000D+00
221  2.2000000000000D+00  0.0000000000000D+00  0.0000000000000D+00
222  2.2100000000000D+00  0.0000000000000D+00  0.0000000000000D+00
223  2.2200000000000D+00  0.0000000000000D+00  0.0000000000000D+00
224  2.2300000000000D+00  0.0000000000000D+00  0.0000000000000D+00
225  2.2400000000000D+00  0.0000000000000D+00  0.0000000000000D+00
226  2.2500000000000D+00  0.0000000000000D+00  0.0000000000000D+00
227  2.2600000000000D+00  0.0000000000000D+00  0.0000000000000D+00
228  2.2700000000000D+00  0.0000000000000D+00  0.0000000000000D+00
229  2.2800000000000D+00  0.0000000000000D+00  0.0000000000000D+00
230  2.2900000000000D+00  0.0000000000000D+00  0.0000000000000D+00
231  2.3000000000000D+00  0.0000000000000D+00  0.0000000000000D+00
232  2.3100000000000D+00  0.0000000000000D+00  0.0000000000000D+00
233  2.3200000000000D+00  0.0000000000000D+00  0.0000000000000D+00
234  2.3300000000000D+00  0.0000000000000D+00  0.0000000000000D+00
235  2.3400000000000D+00  0.0000000000000D+00  0.0000000000000D+00
236  2.3500000000000D+00  0.0000000000000D+00  0.0000000000000D+00
237  2.3600000000000D+00  0.0000000000000D+00  0.0000000000000D+00
238  2.3700000000000D+00  0.0000000000000D+00  0.0000000000000D+00
239  2.3800000000000D+00  0.0000000000000D+00  0.0000000000000D+00
240  2.3900000000000D+00  0.0000000000000D+00  0.0000000000000D+00
241  2.4000000000000D+00  0.0000000000000D+00  0.0000000000000D+00
242  2.4100000000000D+00  0.0000000000000D+00  0.0000000000000D+00
243  2.4200000000000D+00  0.0000000000000D+00  0.0000000000000D+00
244  2.4300000000000D+00  0.0000000000000D+00  0.0000000000000D+00
245  2.4400000000000D+00  0.0000000000000D+00  0.0000000000000D+00
246  2.4500000000000D+00  0.0000000000000D+00  0.0000000000000D+00
247  2.4600000000000D+00  0.0000000000000D+00  0.0000000000000D+00
248  2.4700000000000D+00  0.0000000000000D+00  0.0000000000000D+00
249  2.4800000000000D+00  0.0000000000000D+00  0.0000000000000D+00
250  2.4900000000000D+00  0.0000000000000D+00  0.0000000000000D+00
251  2.5000000000000D+00  0.0000000000000D+00  0.0000000000000D+00
252  2.5100000000000D+00  0.0000000000000D+00  0.0000000000000D+00
253  2.5200000000000D+00  0.0000000000000D+00  0.0000000000000D+00
254  2.5300000000000D+00  0.0000000000000D+00  0.0000000000000D+00
255  2.5400000000000D+00  0.0000000000000D+00  0.0000000000000D+00
256  2.5500000000000D+00  0.0000000000000D+00  0.0000000000000D+00
257  2.5600000000000D+00  0.0000000000000D+00  0.0000000000000D+00
258  2.5700000000000D+00  0.0000000000000D+00  0.0000000000000D+00
259  2.5800000000000D+00  0.0000000000000D+00  0.0000000000000D+00
260  2.5900000000000D+00  0.0000000000000D+00  0.0000000000000D+00
261  2.6000000000000D+00  0.0000000000000D+00  0.0000000000000D+00
262  2.6100000000000D+00  0.0000000000000D+00  0.0000000000000D+00
263  2.6200000000000D+00  0.0000000000000D+00  0.0000000000000D+00
264  2.6300000000000D+00  0.0000000000000D+00  0.0000000000000D+00
265  2.6400000000000D+00  0.0000000000000D+00  0.0000000000000D+00
266  2.6500000000000D+00  0.0000000000000D+00  0.0000000000000D+00
267  2.6600000000000D+00  0.0000000000000D+00  0.0000000000000D+00
268  2.6700000000000D+00  0.0000000000000D+00  0.0000000000000D+00
269  2.6800000000000D+00  0.0000000000000D+00  0.0000000000000D+00
270  2.6900000000000D+00  0.0000000000000D+00  0.0000000000000D+00
271  2.7000000000000D+00  0.0000000000000D+00  0.0000000000000D+00
272  2.7100000000000D+00  0.0000000000000D+00  0.0000000000000D+00
273  2.7200000000000D+00  0.0000000000000D+00  0.0000000000000D+00
274  2.7300000000000D+00  0.0000000000000D+00  0.0000000000000D+00
275  2.7400000000000D+00  0.0000000000000D+00  0.0000000000000D+00
276  2.7500000000000D+00  0.0000000000000D+00  0.0000000000000D+00
277  2.7600000000000D+00  0.0000000000000D+00  0.0000000000000D+00
278  2.7700000000000D+00  0.0000000000000D+00  0.0000000000000D+00
279  2.7800000000000D+00  0.0000000000000D+00  0.0000000000000D+00
280  2.7900000000000D+00  0.0000000000000D+00  0.0000000000000D+00
281  2.8000000000000D+00  0.0000000000000D+00  0.0000000000000D+00
282  2.8100000000000D+00  0.0000000000000D+00  0.0000000000000D+00
283  2.8200000000000D+00  0.0000000000000D+00  0.0000000000000D+00
284  2.8300000000000D+00  0.0000000000000D+00  0.0000000000000D+00
285  2.8400000000000D+00  0.0000000000000D+00  0.0000000000000D+00
286  2.8500000000000D+00  0.0000000000000D+00  0.0000000000000D+00
287  2.8600000000000D+00  0.0000000000000D+00  0.0000000000000D+00
288  2.8700000000000D+00  0.0000000000000D+00  0.0000000000000D+00
289  2.8800000000000D+00  0.0000000000000D+00  0.0000000000000D+00
290  2.8900000000000D+00  0.0000000000000D+00  0.0000000000000D+00
291  2.9000000000000D+00  0.0000000000000D+00  0.0000000000000D+00
292  2.9100000000000D+00  0.0000000000000D+00  0.0000000000000D+00
293  2.9200000000000D+00  0.0000000000000D+00  0.0000000000000D+00
294  2.9300000000000D+00  0.0000000000000D+00  0.0000000000000D+00
295  2.9400000000000D+00  0.0000000000000D+00  0.0000000000000D+00
296  2.9500000000000D+00  0.0000000000000D+00  0.0000000000000D+00
297  2.9600000000000D+00  0.0000000000000D+00  0.0000000000000D+00
298  2.9700000000000D+00  0.0000000000000D+00  0.0000000000000D+00
299  2.9800000000000D+00  0.0000000000000D+00  0.0000000000000D+00
300  2.9900000000000D+00  0.0000000000000D+00  0.0000000000000D+00
301  3.0000000000000D+00  0.0000000000000D+00  0.0000000000000D+00
302  3.0100000000000D+00  0.0000000000000D+00  0.0000000000000D+00
303  3.0200000000000D+00  0.0000000000000D+00  0.0000000000000D+00
304  3.0300000000000D+00  0.0000000000000D+00  0.0000000000000D+00
305  3.0400000000000D+00  0.0000000000000D+00  0.0000000000000D+00
306  3.0500000000000D+00  0.0000000000000D+00  0.0000000000000D+00
307  3.0600000000000D+00  0.0000000000000D+00  0.0000000000000D+00
308  3.0700000000000D+00  0.0000000000000D+00  0.0000000000000D+00
309  3.0800000000000D+00  0.0000000000000D+00  0.0000000000000D+00
310  3.0900000000000D+00  0.0000000000000D+00  0.0000000000000D+00
311  3.1000000000000D+00  0.0000000000000D+00  0.0000000000000D+00
312  3.1100000000000D+00  0.0000000000000D+00  0.0000000000000D+00
313  3.1200000000000D+00  0.0000000000000D+00  0.0000000000000D+00
314  3.1300000000000D+00  0.0000000000000D+00  0.0000000000000D+00
315  3.1400000000000D+00  0.0000000000000D+00  0.0000000000000D+00
316  3.1500000000000D+00  0.0000000000000D+00  0.0000000000000D+00
317  3.1600000000000D+00  0.0000000000000D+00  0.0000000000000D+00
318  3.1700000000000D+00  0.0000000000000D+00  0.0000000000000D+00
319  3.1800000000000D+00  0.0000000000000D+00  0.0000000000000D+00
320  3.1900000000000D+00  0.0000000000000D+00  0.0000000000000D+00
321  3.2000000000000D+00  0.0000000000000D+00  0.0000000000000D+00
322  3.2100000000000D+00  0.0000000000000D+00  0.0000000000000D+00
323  3.2200000000000D+00  0.0000000000000D+00  0.0000000000000D+00
324  3.2300000000000D+00  0.0000000000000D+00  0.0000000000000D+00
325  3.2400000000000D+00  0.0000000000000D+00  0.0000000000000D+00
326  3.2500000000000D+00  0.0000000000000D+00  0.0000000000000D+00
327  3.2600000000000D+00  0.0000000000000D+00  0.0000000000000D+00
328  3.2700000000000D+00  0.0000000000000D+00  0.0000000000000D+00
329  3.2800000000000D+00  0.0000000000000D+00  0.0000000000000D+00
330  3.2900000000000D+00  0.0000000000000D+00  0.0000000000000D+00
331  3.3000000000000D+00  0.0000000000000D+00  0.0000000000000D+00
332  3.3100000000000D+00  0.0000000000000D+00  0.0000000000000D+00
333  3.3200000000000D+00  0.0000000000000D+00  0.0000000000000D+00
334  3.3300000000000D+00  0.0000000000000D+00  0.0000000000000D+00
335  3.3400000000000D+00  0.0000000000000D+00  0.0000000000000D+00
336  3.3500000000000D+00  0.0000000000000D+00  0.0000000000000D+00
337  3.3600000000000D+00  0.0000000000000D+00  0.0000000000000D+00
338  3.3700000000000D+00  0.0000000000000D+00  0.0000000000000D+00
339  3.3800000000000D+00  0.0000000000000D+00  0.0000000000000D+00
340  3.3900000000000D+00  0.0000000000000D+00  0.0000000000000D+00
341  3.4000000000000D+00  0.0000000000000D+00  0.0000000000000D+00
342  3.4100000000000D+00  0.0000000000000D+00  0.0000000000000D+00
343  3.4200000000000D+00  0.0000000000000D+00  0.0000000000000D+00
344  3.4300000000000D+00  0.0000000000000D+00  0.0000000000000D+00
345  3.4400000000000D+00  0.0000000000000D+00  0.0000000000000D+00
346  3.4500000000000D+00  0.0000000000000D+00  0.0000000000000D+00
347  3.4600000000000D+00  0.0000000000000D+00  0.0000000000000D+00
348  3.4700000000000D+00  0.0000000000000D+00  0.0000000000000D+00
349  3.4800000000000D+00  0.0000000000000D+00  0.0000000000000D+00
350  3.4900000000000D+00  0.0000000000000D+00  0.0000000000000D+00
351  3.5000000000000D+00  0.0000000000000D+00  0.0000000000000D+00
352  3.5100000000000D+00  0.0000000000000D+00  0.0000000000000D+00
353  3.5200000000000D+00  0.0000000000000D+00  0.0000000000000D+00
354  3.5300000000000D+00  0.0000000000000D+00  0.0000000000000D+00
355  3.5400000000000D+00  0.0000000000000D+00  0.0000000000000D+00
356  3.5500000000000D+00  0.0000000000000D+00  0.0000000000000D+00
357  3.5600000000000D+00  0.0000000000000D+00  0.0000000000000D+00
358  3.5700000000000D+00  0.0000000000000D+00  0.0000000000000D+00
359  3.5800000000000D+00  0.0000000000000D+00  0.0000000000000D+00
360  3.5900000000000D+00  0.0000000000000D+00  0.0000000000000D+00
361  3.6000000000000D+00  0.0000000000000D+00  0.0000000000000D+00
362  3.6100000000000D+00  0.0000000000000D+00  0.0000000000000D+00
363  3.6200000000000D+00  0.0000000000000D+00  0.0000000000000D+00
364  3.6300000000000D+00  0.0000000000000D+00  0.0000000000000D+00
365  3.6400000000000D+00  0.0000000000000D+00  0.0000000000000D+00
366  3.6500000000000D+00  0.0000000000000D+00  0.0000000000000D+00
367  3.6600000000000D+00  0.0000000000000D+00  0.0000000000000D+00
368  3.6700000000000D+00  0.0000000000000D+00  0.0000000000000D+00
369  3.6800000000000D+00  0.0000000000000D+00  0.0000000000000D+00
370  3.6900000000000D+00  0.0000000000000D+00  0.0000000000000D+00
371  3.7000000000000D+00  0.0000000000000D+00  0.0000000000000D+00
372  3.7100000000000D+00  0.0000000000000D+00  0.0000000000000D+00
373  3.7200000000000D+00  0.0000000000000D+00  0.0000000000000D+00
374  3.7300000000000D+00  0.0000000000000D+00  0.0000000000000D+00
375  3.7400000000000D+00  0.0000000000000D+00  0.0000000000000D+00
376  3.7500000000000D+00  0.0000000000000D+00  0.0000000000000D+00
377  3.7600000000000D+00  0.0000000000000D+00  0.0000000000000D+00
378  3.7700000000000D+00  0.0000000000000D+00  0.0000000000000D+00
379  3.7800000000000D+00  0.0000000000000D+00  0.0000000000000D+00
380  3.7900000000000D+00  0.0000000000000D+00  0.0000000000000D+00
381  3.8000000000000D+00  0.0000000000000D+00  0.0000000000000D+00
382  3.8100000000000D+00  0.0000000000000D+00  0.0000000000000D+00
383  3.8200000000000D+00  0.0000000000000D+00  0.0000000000000D+00
384  3.8300000000000D+00  0.0000000000000D+00  0.0000000000000D+00
385  3.8400000000000D+00  0.0000000000000D+00  0.0000000000000D+00
386  3.8500000000000D+00  0.0000000000000D+00  0.0000000000000D+00
387  3.8600000000000D+00  0.0000000000000D+00  0.0000000000000D+00
388  3.8700000000000D+00  0.0000000000000D+00  0.0000000000000D+00
389  3.8800000000000D+00  0.0000000000000D+00  0.0000000000000D+00
390  3.8900000000000D+00  0.0000000000000D+00  0.0000000000000D+00
391  3.9000000000000D+00  0.0000000000000D+00  0.0000000000000D+00
392  3.9100000000000D+00  0.0000000000000D+00  0.0000000000000D+00
393  3.9200000000000D+00  0.0000000000000D+00  0.0000000000000D+00
394  3.9300000000000D+00  0.0000000000000D+00  0.0000000000000D+00
395  3.9400000000000D+00  0.0000000000000D+00  0.0000000000000D+00
396  3.9500000000000D+00  0.0000000000000D+00  0.0000000000000D+00
397  3.9600000000000D+00  0.0000000000000D+00  0.0000000000000D+00
398  3.9700000000000D+00  0.0000000000000D+00  0.0000000000000D+00
399  3.9800000000000D+00  0.0000000000000D+00  0.0000000000000D+00
400  3.9900000000000D+00  0.0000000000000D+00  0.0000000000000D+00
401  4.0000000000000D+00  0.0000000000000D+00  0.0000000000000D+00
402  4.0100000000000D+00  0.0000000000000D+00  0.0000000000000D+00
403  4.0200000000000D+00  0.0000000000000D+00  0.0000000000000D+00
404  4.0300000000000D+00  0.0000000000000D+00  0.0000000000000D+00
405  4.0400000000000D+00  0.0000000000000D+00  0.0000000000000D+00
406  4.0500000000000D+00  0.0000000000000D+00  0.0000000000000D+00
407  4.0600000000000D+00  0.0000000000000D+00  0.0000000000000D+00
408  4.0700000000000D+00  0.0000000000000D+00  0.0000000000000D+00
409  4.0800000000000D+00  0.0000000000000D+00  0.0000000000000D+00
410  4.0900000000000D+00  0.0000000000000D+00  0.0000000000000D+00
411  4.1000000000000D+00  0.0000000000000D+00  0.0000000000000D+00
412  4.1100000000000D+00  0.0000000000000D+00  0.0000000000000D+00
413  4.1200000000000D+00  0.0000000000000D+00  0.0000000000000D+00
414  4.1300000000000D+00  0.0000000000000D+00  0.0000000000000D+00
415  4.1400000000000D+00  0.0000000000000D+00  0.0000000000000D+00
416  4.1500000000000D+00  0.0000000000000D+00  0.0000000000000D+00
417  4.1600000000000D+00  0.0000000000000D+00  0.0000000000000D+00
418  4.1700000000000D+00  0.0000000000000D+00  0.0000000000000D+00
419  4.1800000000000D+00  0.0000000000000D+00  0.0000000000000D+00
420  4.1900000000000D+00  0.0000000000000D+00  0.0000000000000D+00
421  4.2000000000000D+00  0.0000000000000D+00  0.0000000000000D+00
422  4.2100000000000D+00  0.0000000000000D+00  0.0000000000000D+00
423  4.2200000000000D+00  0.0000000000000D+00  0.0000000000000D+00
424  4.2300000000000D+00  0.0000000000000D+00  0.0000000000000D+00
425  4.2400000000000D+00  0.0000000000000D+00  0.0000000000000D+00
426  4.2500000000000D+00  0.0000000000000D+00  0.0000000000000D+00
427  4.2600000000000D+00  0.0000000000000D+00  0.0000000000000D+00
428  4.2700000000000D+00  0.0000000000000D+00  0.0000000000000D+00
429  4.2800000000000D+00  0.0000000000000D+00  0.0000000000000D+00
430  4.2900000000000D+00  0.0000000000000D+00  0.0000000000000D+00
431  4.3000000000000D+00  0.0000000000000D+00  0.0000000000000D+00
432  4.3100000000000D+00  0.0000000000000D+00  0.0000000000000D+00
433  4.3200000000000D+00  0.0000000000000D+00  0.0000000000000D+00
434  4.3300000000000D+00  0.0000000000000D+00  0.0000000000000D+00
435  4.3400000000000D+00  0.0000000000000D+00  0.0000000000000D+00
436  4.3500000000000D+00  0.0000000000000D+00  0.0000000000000D+00
437  4.3600000000000D+00  0.0000000000000D+00  0.0000000000000D+00
438  4.3700000000000D+00  0.0000000000000D+00  0.0000000000000D+00
439  4.3800000000000D+00  0.0000000000000D+00  0.0000000000000D+00
440  4.3900000000000D+00  0.0000000000000D+00  0.0000000000000D+00
441  4.4000000000000D+00  0.0000000000000D+00  0.0000000000000D+00
442  4.4100000000000D+00  0.0000000000000D+00  0.0000000000000D+00
443  4.4200000000000D+00  0.0000000000000D+00  0.0000000000000D+00