Bi    ONCVPSP-3.3.0  r_core=   2.42776   2.51622   2.10397
83.0000     15.0000      180423    zatom,zion,pspd
8      11   2     4   600     0    pspcod,pspxc,lmax,lloc,mmax,r2well
5.99000000  6.00000000  0.00000000    rchrg fchrg qchrg
2     4     3     0    nproj
3     1           extension_switch
4     3     0    nprojso
0                         8.5647046120885D-01  5.6675630052504D+00
1  0.0000000000000D+00 -4.3654246884017D-12  1.4668266601348D-12
2  1.0000000000000D-02  1.0439051520949D-02  1.2552973334093D-02
3  2.0000000000000D-02  2.0827661204587D-02  2.5123392726222D-02
4  3.0000000000000D-02  3.1115561634613D-02  3.7728636866508D-02
5  4.0000000000000D-02  4.1252833746421D-02  5.0385949884803D-02
6  5.0000000000000D-02  5.1190079778176D-02  6.3112374509123D-02
7  6.0000000000000D-02  6.0878594755238D-02  7.5924685749311D-02
8  7.0000000000000D-02  7.0270536024080D-02  8.8839325279342D-02
9  8.0000000000000D-02  7.9319090356205D-02  1.0187233669018D-01
10  9.0000000000000D-02  8.7978638147997D-02  1.1503930178328D-01
11  1.0000000000000D-01  9.6204914248877D-02  1.2835527807270D-01
12  1.1000000000000D-01  1.0395516495774D-01  1.4183473766116D-01
13  1.2000000000000D-01  1.1118830073623D-01  1.5549150765261D-01
14  1.3000000000000D-01  1.1786504419702D-01  1.6933871226050D-01
15  1.4000000000000D-01  1.2394807293622D-01  1.8338871676746D-01
16  1.5000000000000D-01  1.2940215679031D-01  1.9765307348799D-01
17  1.6000000000000D-01  1.3419428911138D-01  2.1214246988179D-01
18  1.7000000000000D-01  1.3829381166764D-01  2.2686667896031D-01
19  1.8000000000000D-01  1.4167253279145D-01  2.4183451212450D-01
20  1.9000000000000D-01  1.4430483841247D-01  2.5705377456624D-01
21  2.0000000000000D-01  1.4616779563058D-01  2.7253122336044D-01
22  2.1000000000000D-01  1.4724124850069D-01  2.8827252836887D-01
23  2.2000000000000D-01  1.4750790572013D-01  3.0428223607034D-01
24  2.3000000000000D-01  1.4695341992905D-01  3.2056373642578D-01
25  2.4000000000000D-01  1.4556645835427D-01  3.3711923287931D-01
26  2.5000000000000D-01  1.4333876454843D-01  3.5394971558996D-01
27  2.6000000000000D-01  1.4026521099831D-01  3.7105493798078D-01
28  2.7000000000000D-01  1.3634384239886D-01  3.8843339668476D-01
29  2.8000000000000D-01  1.3157590941305D-01  4.0608231495897D-01
30  2.9000000000000D-01  1.2596589276190D-01  4.2399762963022D-01
31  3.0000000000000D-01  1.1952151751397D-01  4.4217398162731D-01
32  3.1000000000000D-01  1.1225375746894D-01  4.6060471014609D-01
33  3.2000000000000D-01  1.0417682955608D-01  4.7928185048528D-01
34  3.3000000000000D-01  9.5308178195050D-02  4.9819613558153D-01
35  3.4000000000000D-01  8.5668449593303D-02  5.1733700126359D-01
36  3.5000000000000D-01  7.5281455981974D-02  5.3669259523593D-01
37  3.6000000000000D-01  6.4174129819853D-02  5.5624978979294D-01
38  3.7000000000000D-01  5.2376468023093D-02  5.7599419825535D-01
39  3.8000000000000D-01  3.9921466306622D-02  5.9591019511095D-01
40  3.9000000000000D-01  2.6845043751537D-02  6.1598093983215D-01
41  4.0000000000000D-01  1.3185957741433D-02  6.3618840433320D-01
42  4.1000000000000D-01 -1.0142905610527D-03  6.5651340402032D-01
43  4.2000000000000D-01 -1.5711559997720D-02  6.7693563237820D-01
44  4.3000000000000D-01 -3.0859182230185D-02  6.9743369902689D-01
45  4.4000000000000D-01 -4.6408083331159D-02  7.1798517117333D-01
46  4.5000000000000D-01 -6.2306913867847D-02  7.3856661837248D-01
47  4.6000000000000D-01 -7.8502187166209D-02  7.5915366050339D-01
48  4.7000000000000D-01 -9.4938425418302D-02  7.7972101885652D-01
49  4.8000000000000D-01 -1.1155831326831D-01  8.0024257021934D-01
50  4.9000000000000D-01 -1.2830285848753D-01  8.2069140383852D-01
51  5.0000000000000D-01 -1.4511155932357D-01  8.4103988112801D-01
52  5.1000000000000D-01 -1.6192257808489D-01  8.6125969798423D-01
53  5.2000000000000D-01 -1.7867292049916D-01  8.8132194956107D-01
54  5.3000000000000D-01 -1.9529862036103D-01  9.0119719734966D-01
55  5.4000000000000D-01 -2.1173492896471D-01  9.2085553840022D-01
56  5.5000000000000D-01 -2.2791650879642D-01  9.4026667651612D-01
57  5.6000000000000D-01 -2.4377763094323D-01  9.5939999524334D-01
58  5.7000000000000D-01 -2.5925237565801D-01  9.7822463247206D-01
59  5.8000000000000D-01 -2.7427483550380D-01  9.9670955646116D-01
60  5.9000000000000D-01 -2.8877932048723D-01  1.0148236430907D+00
61  6.0000000000000D-01 -3.0270056457744D-01  1.0325357541421D+00
62  6.1000000000000D-01 -3.1597393299619D-01  1.0498148164024D+00
63  6.2000000000000D-01 -3.2853562965548D-01  1.0666299013819D+00
64  6.3000000000000D-01 -3.4032290411118D-01  1.0829503054351D+00
65  6.4000000000000D-01 -3.5127425739595D-01  1.0987456300678D+00
66  6.5000000000000D-01 -3.6132964609038D-01  1.1139858622136D+00
67  6.6000000000000D-01 -3.7043068398964D-01  1.1286414542597D+00
68  6.7000000000000D-01 -3.7852084072330D-01  1.1426834036009D+00
69  6.8000000000000D-01 -3.8554563668737D-01  1.1560833315012D+00
70  6.9000000000000D-01 -3.9145283365260D-01  1.1688135610398D+00
71  7.0000000000000D-01 -3.9619262041880D-01  1.1808471939228D+00
72  7.1000000000000D-01 -3.9971779289337D-01  1.1921581859383D+00
73  7.2000000000000D-01 -4.0198392798278D-01  1.2027214208403D+00
74  7.3000000000000D-01 -4.0294955069816D-01  1.2125127824432D+00
75  7.4000000000000D-01 -4.0257629389087D-01  1.2215092247177D+00
76  7.5000000000000D-01 -4.0082905005053D-01  1.2296888396785D+00
77  7.6000000000000D-01 -3.9767611461685D-01  1.2370309228617D+00
78  7.7000000000000D-01 -3.9308932027743D-01  1.2435160361919D+00
79  7.8000000000000D-01 -3.8704416174637D-01  1.2491260680499D+00
80  7.9000000000000D-01 -3.7951991054351D-01  1.2538442903517D+00
81  8.0000000000000D-01 -3.7049971932057D-01  1.2576554124630D+00
82  8.1000000000000D-01 -3.5997071530909D-01  1.2605456317767D+00
83  8.2000000000000D-01 -3.4792408249533D-01  1.2625026807917D+00
84  8.3000000000000D-01 -3.3435513215920D-01  1.2635158705390D+00
85  8.4000000000000D-01 -3.1926336144789D-01  1.2635761302104D+00
86  8.5000000000000D-01 -3.0265249969012D-01  1.2626760428569D+00
87  8.6000000000000D-01 -2.8453054219307D-01  1.2608098770312D+00
88  8.7000000000000D-01 -2.6490977130230D-01  1.2579736142635D+00
89  8.8000000000000D-01 -2.4380676454377D-01  1.2541649722671D+00
90  8.9000000000000D-01 -2.2124238970716D-01  1.2493834237859D+00
91  9.0000000000000D-01 -1.9724178677078D-01  1.2436302110050D+00
92  9.1000000000000D-01 -1.7183433661034D-01  1.2369083554601D+00
93  9.2000000000000D-01 -1.4505361647626D-01  1.2292226633941D+00
94  9.3000000000000D-01 -1.1693734226741D-01  1.2205797265200D+00
95  9.4000000000000D-01 -8.7527297672553D-02  1.2109879181669D+00
96  9.5000000000000D-01 -5.6869250294710D-02  1.2004573847942D+00
97  9.6000000000000D-01 -2.5012854917354D-02  1.1890000328780D+00
98  9.7000000000000D-01  7.9884558849188D-03  1.1766295111822D+00
99  9.8000000000000D-01  4.2077593544899D-02  1.1633611884459D+00
100  9.9000000000000D-01  7.7193947420788D-02  1.1492121265272D+00
101  1.0000000000000D+00  1.1327353050185D-01  1.1342010490618D+00
102  1.0100000000000D+00  1.5024913652780D-01  1.1183483057059D+00
103  1.0200000000000D+00  1.8805050810638D-01  1.1016758320459D+00
104  1.0300000000000D+00  2.2660451537416D-01  1.0842071052743D+00
105  1.0400000000000D+00  2.6583534470654D-01  1.0659670957396D+00
106  1.0500000000000D+00  3.0566469694497D-01  1.0469822144944D+00
107  1.0600000000000D+00  3.4601199457392D-01  1.0272802569770D+00
108  1.0700000000000D+00  3.8679459724604D-01  1.0068903429743D+00
109  1.0800000000000D+00  4.2792802501978D-01  9.8584285302466D-01
110  1.0900000000000D+00  4.6932618864457D-01  9.6416936143305D-01
111  1.1000000000000D+00  5.1090162619849D-01  9.4190256607855D-01
112  1.1100000000000D+00  5.5256574535905D-01  9.1907621520711D-01
113  1.1200000000000D+00  5.9422907056141D-01  8.9572503141062D-01
114  1.1300000000000D+00  6.3580149427704D-01  8.7188463300352D-01
115  1.1400000000000D+00  6.7719253162665D-01  8.4759145301604D-01
116  1.1500000000000D+00  7.1831157752520D-01  8.2288265603114D-01
117  1.1600000000000D+00  7.5906816554239D-01  7.9779605309895D-01
118  1.1700000000000D+00  7.9937222764940D-01  7.7237001496989D-01
119  1.1800000000000D+00  8.3913435401618D-01  7.4664338389251D-01
120  1.1900000000000D+00  8.7826605201798D-01  7.2065538422648D-01
121  1.2000000000000D+00  9.1668000360523D-01  6.9444553212624D-01
122  1.2100000000000D+00  9.5429032019313D-01  6.6805354455374D-01
123  1.2200000000000D+00  9.9101279423179D-01  6.4151924788032D-01
124  1.2300000000000D+00  1.0267651466193D+00  6.1488248634030D-01
125  1.2400000000000D+00  1.0614672691339D+00  5.8818303059922D-01
126  1.2500000000000D+00  1.0950414610782D+00  5.6146048669873D-01
127  1.2600000000000D+00  1.1274126593271D+00  5.3475420564078D-01
128  1.2700000000000D+00  1.1585086610070D+00  5.0810319387064D-01
129  1.2800000000000D+00  1.1882603380566D+00  4.8154602491400D-01
130  1.2900000000000D+00  1.2166018429156D+00  4.5512075242492D-01
131  1.3000000000000D+00  1.2434708046480D+00  4.2886482489163D-01
132  1.3100000000000D+00  1.2688085148316D+00  4.0281500224159D-01
133  1.3200000000000D+00  1.2925601025375D+00  3.7700727458987D-01
134  1.3300000000000D+00  1.3146746978165D+00  3.5147678335611D-01
135  1.3400000000000D+00  1.3351055831177D+00  3.2625774497298D-01
136  1.3500000000000D+00  1.3538103320699D+00  3.0138337740876D-01
137  1.3600000000000D+00  1.3707509351803D+00  2.7688582969929D-01
138  1.3700000000000D+00  1.3858939119658D+00  2.5279611469249D-01
139  1.3800000000000D+00  1.3992104091017D+00  2.2914404519426D-01
140  1.3900000000000D+00  1.4106762842870D+00  2.0595817367585D-01
141  1.4000000000000D+00  1.4202721754226D+00  1.8326573572881D-01
142  1.4100000000000D+00  1.4279835549197D+00  1.6109259739929D-01
143  1.4200000000000D+00  1.4338007688998D+00  1.3946320654673D-01
144  1.4300000000000D+00  1.4377190610753D+00  1.1840054836586D-01
145  1.4400000000000D+00  1.4397385813185D+00  9.7926105154754D-02
146  1.4500000000000D+00  1.4398643787076D+00  7.8059820467441D-02
147  1.4600000000000D+00  1.4381063791852D+00  5.8820067700688D-02
148  1.4700000000000D+00  1.4344793477991D+00  4.0223623205446D-02
149  1.4800000000000D+00  1.4290028356166D+00  2.2285643983833D-02
150  1.4900000000000D+00  1.4217011115679D+00  5.0196499846743D-03
151  1.5000000000000D+00  1.4126030792436D+00 -1.1562488923415D-02
152  1.5100000000000D+00  1.4017421791281D+00 -2.7450561352411D-02
153  1.5200000000000D+00  1.3891562763487D+00 -4.2636018104580D-02
154  1.5300000000000D+00  1.3748875344859D+00 -5.7111971262276D-02
155  1.5400000000000D+00  1.3589822757234D+00 -7.0873188651345D-02
156  1.5500000000000D+00  1.3414908278399D+00 -8.3916083736050D-02
157  1.5600000000000D+00  1.3224673585614D+00 -9.6238701013258D-02
158  1.5700000000000D+00  1.3019696977169D+00 -1.0784069694440D-01
159  1.5800000000000D+00  1.2800591479385D+00 -1.1872331656507D-01
160  1.5900000000000D+00  1.2568002843049D+00 -1.2888936579431D-01
161  1.6000000000000D+00  1.2322607438477D+00 -1.3834317964699D-01
162  1.6100000000000D+00  1.2065110053157D+00 -1.4709058636516D-01
163  1.6200000000000D+00  1.1796241602149D+00 -1.5513886771228D-01
164  1.6300000000000D+00  1.1516756755931D+00 -1.6249671546759D-01
165  1.6400000000000D+00  1.1227431495923D+00 -1.6917418437398D-01
166  1.6500000000000D+00  1.0929060603523D+00 -1.7518264161414D-01
167  1.6600000000000D+00  1.0622455092618D+00 -1.8053471306815D-01
168  1.6700000000000D+00  1.0308439592436D+00 -1.8524422646246D-01
169  1.6800000000000D+00  9.9878496904075D-01 -1.8932615166334D-01
170  1.6900000000000D+00  9.6615292426733D-01 -1.9279653825294D-01
171  1.7000000000000D+00  9.3303276615806D-01 -1.9567245064224D-01
172  1.7100000000000D+00  8.9950971884251D-01 -1.9797190088073D-01
173  1.7200000000000D+00  8.6566901602771D-01 -1.9971377941753D-01
174  1.7300000000000D+00  8.3159562797486D-01 -2.0091778399144D-01
175  1.7400000000000D+00  7.9737398957070D-01 -2.0160434690117D-01
176  1.7500000000000D+00  7.6308773045718D-01 -2.0179456085044D-01
177  1.7600000000000D+00  7.2881940788097D-01 -2.0151010360726D-01
178  1.7700000000000D+00  6.9465024334692D-01 -2.0077316169450D-01
179  1.7800000000000D+00  6.6065986351886D-01 -1.9960635332415D-01
180  1.7900000000000D+00  6.2692604663050D-01 -1.9803265082592D-01
181  1.8000000000000D+00  5.9352447456603D-01 -1.9607530273841D-01
182  1.8100000000000D+00  5.6052849204552D-01 -1.9375775585305D-01
183  1.8200000000000D+00  5.2800887285672D-01 -1.9110357733409D-01
184  1.8300000000000D+00  4.9603359456765D-01 -1.8813637722513D-01
185  1.8400000000000D+00  4.6466762164428D-01 -1.8487973144525D-01
186  1.8500000000000D+00  4.3397269818020D-01 -1.8135710556831D-01
187  1.8600000000000D+00  4.0400715035439D-01 -1.7759177950614D-01
188  1.8700000000000D+00  3.7482569935671D-01 -1.7360677332256D-01
189  1.8800000000000D+00  3.4647928533245D-01 -1.6942477436799D-01
190  1.8900000000000D+00  3.1901490234878D-01 -1.6506806583398D-01
191  1.9000000000000D+00  2.9247544562576D-01 -1.6055845704608D-01
192  1.9100000000000D+00  2.6689957007574D-01 -1.5591721540906D-01
193  1.9200000000000D+00  2.4232156209799D-01 -1.5116500046795D-01
194  1.9300000000000D+00  2.1877122313637D-01 -1.4632179988247D-01
195  1.9400000000000D+00  1.9627376390074D-01 -1.4140686712075D-01
196  1.9500000000000D+00  1.7484972307697D-01 -1.3643866404942D-01
197  1.9600000000000D+00  1.5451488091468D-01 -1.3143480183303D-01
198  1.9700000000000D+00  1.3528016940192D-01 -1.2641198068865D-01
199  1.9800000000000D+00  1.1715175723928D-01 -1.2138596983387D-01
200  1.9900000000000D+00  1.0013088625942D-01 -1.1637152686421D-01
201  2.0000000000000D+00  8.4213548092911D-02 -1.1138228890731D-01
202  2.0100000000000D+00  6.9391001860598D-02 -1.0643084528358D-01
203  2.0200000000000D+00  5.5650214531249D-02 -1.0152879195533D-01
204  2.0300000000000D+00  4.2974306802553D-02 -9.6686795197475D-02
205  2.0400000000000D+00  3.1342946474501D-02 -9.1914660461469D-02
206  2.0500000000000D+00  2.0733269920338D-02 -8.7221513392925D-02
207  2.0600000000000D+00  1.1119631450481D-02 -8.2615725246313D-02
208  2.0700000000000D+00  2.4737251094177D-03 -7.8104926221913D-02
209  2.0800000000000D+00 -5.2352574568087D-03 -7.3696023693537D-02
210  2.0900000000000D+00 -1.2040389038906D-02 -6.9395236685385D-02
211  2.1000000000000D+00 -1.7976887599775D-02 -6.5208107225786D-02
212  2.1100000000000D+00 -2.3081914712418D-02 -6.1139529187336D-02
213  2.1200000000000D+00 -2.7394398155371D-02 -5.7193772539000D-02
214  2.1300000000000D+00 -3.0954844246649D-02 -5.3374510269371D-02
215  2.1400000000000D+00 -3.3805146382185D-02 -4.9684846610951D-02
216  2.1500000000000D+00 -3.5988390718442D-02 -4.6127346345542D-02
217  2.1600000000000D+00 -3.7548659387976D-02 -4.2704065144107D-02
218  2.1700000000000D+00 -3.8530832260493D-02 -3.9416580683252D-02
219  2.1800000000000D+00 -3.8980387912314D-02 -3.6266024418396D-02
220  2.1900000000000D+00 -3.8943204599237D-02 -3.3253113839079D-02
221  2.2000000000000D+00 -3.8465361726132D-02 -3.0378185079660D-02
222  2.2100000000000D+00 -3.7592943108429D-02 -2.7641225631853D-02
223  2.2200000000000D+00 -3.6371842148793D-02 -2.5041907106282D-02
224  2.2300000000000D+00 -3.4847569881046D-02 -2.2579617843228D-02
225  2.2400000000000D+00 -3.3065067069838D-02 -2.0253495119360D-02
226  2.2500000000000D+00 -3.1068519929632D-02 -1.8062457028254D-02
227  2.2600000000000D+00 -2.8901181408362D-02 -1.6005233621912D-02
228  2.2700000000000D+00 -2.6605198214174D-02 -1.4080397267094D-02
229  2.2800000000000D+00 -2.4221443109277D-02 -1.2286392314003D-02
230  2.2900000000000D+00 -2.1789355634348D-02 -1.0621563393534D-02
231  2.3000000000000D+00 -1.9346789277137D-02 -9.0841827666069D-03
232  2.3100000000000D+00 -1.6929866536502D-02 -7.6724764094194D-03
233  2.3200000000000D+00 -1.4572843806822D-02 -6.3846484116141D-03
234  2.3300000000000D+00 -1.2307983819186D-02 -5.2189041799361D-03
235  2.3400000000000D+00 -1.0165438392959D-02 -4.1734718418574D-03
236  2.3500000000000D+00 -8.1752753416312D-03 -3.2471713725032D-03
237  2.3600000000000D+00 -6.3596211327137D-03 -2.4374340305771D-03
238  2.3700000000000D+00 -4.7395899446344D-03 -1.7421251085465D-03
239  2.3800000000000D+00 -3.3258247300576D-03 -1.1578510658502D-03
240  2.3900000000000D+00 -2.1638983730745D-03 -6.8889986577766D-04
241  2.4000000000000D+00 -1.2822620620483D-03 -3.3650614424340D-04
242  2.4100000000000D+00 -6.9853675685331D-04 -9.8481764163007D-05
243  2.4200000000000D+00 -3.4570266044217D-04  3.7213037433339D-05
244  2.4300000000000D+00 -1.5462559347823D-04  8.6664337359100D-05
245  2.4400000000000D+00 -5.2961999509281D-05  7.1620168209845D-05
246  2.4500000000000D+00 -1.0594907946197D-05  2.9293304769386D-05
247  2.4600000000000D+00  1.5957151224341D-06 -6.8283365883421D-06
248  2.4700000000000D+00  1.5430274216403D-06 -1.5766441734467D-05
249  2.4800000000000D+00  6.5021408325796D-08 -8.5141300964524D-06
250  2.4900000000000D+00 -6.2186921517695D-07  1.4327244214363D-06
251  2.5000000000000D+00 -1.2255146525875D-06  3.2562880199898D-06
252  2.5100000000000D+00 -6.0633329596235D-07  1.8360297768769D-06
253  2.5200000000000D+00  2.3542232071177D-07 -1.0305855714008D-07
254  2.5300000000000D+00  5.3613993415051D-07 -2.3470080437436D-07
255  2.5400000000000D+00  3.1472780732948D-07 -1.3777535459329D-07
256  2.5500000000000D+00  0.0000000000000D+00  0.0000000000000D+00
257  2.5600000000000D+00  0.0000000000000D+00  0.0000000000000D+00
258  2.5700000000000D+00  0.0000000000000D+00  0.0000000000000D+00
259  2.5800000000000D+00  0.0000000000000D+00  0.0000000000000D+00
260  2.5900000000000D+00  0.0000000000000D+00  0.0000000000000D+00
261  2.6000000000000D+00  0.0000000000000D+00  0.0000000000000D+00
262  2.6100000000000D+00  0.0000000000000D+00  0.0000000000000D+00
263  2.6200000000000D+00  0.0000000000000D+00  0.0000000000000D+00
264  2.6300000000000D+00  0.0000000000000D+00  0.0000000000000D+00
265  2.6400000000000D+00  0.0000000000000D+00  0.0000000000000D+00
266  2.6500000000000D+00  0.0000000000000D+00  0.0000000000000D+00
267  2.6600000000000D+00  0.0000000000000D+00  0.0000000000000D+00
268  2.6700000000000D+00  0.0000000000000D+00  0.0000000000000D+00
269  2.6800000000000D+00  0.0000000000000D+00  0.0000000000000D+00
270  2.6900000000000D+00  0.0000000000000D+00  0.0000000000000D+00
271  2.7000000000000D+00  0.0000000000000D+00  0.0000000000000D+00
272  2.7100000000000D+00  0.0000000000000D+00  0.0000000000000D+00
273  2.7200000000000D+00  0.0000000000000D+00  0.0000000000000D+00
274  2.7300000000000D+00  0.0000000000000D+00  0.0000000000000D+00
275  2.7400000000000D+00  0.0000000000000D+00  0.0000000000000D+00
276  2.7500000000000D+00  0.0000000000000D+00  0.0000000000000D+00
277  2.7600000000000D+00  0.0000000000000D+00  0.0000000000000D+00
278  2.7700000000000D+00  0.0000000000000D+00  0.0000000000000D+00
279  2.7800000000000D+00  0.0000000000000D+00  0.0000000000000D+00
280  2.7900000000000D+00  0.0000000000000D+00  0.0000000000000D+00
281  2.8000000000000D+00  0.0000000000000D+00  0.0000000000000D+00
282  2.8100000000000D+00  0.0000000000000D+00  0.0000000000000D+00
283  2.8200000000000D+00  0.0000000000000D+00  0.0000000000000D+00
284  2.8300000000000D+00  0.0000000000000D+00  0.0000000000000D+00
285  2.8400000000000D+00  0.0000000000000D+00  0.0000000000000D+00
286  2.8500000000000D+00  0.0000000000000D+00  0.0000000000000D+00
287  2.8600000000000D+00  0.0000000000000D+00  0.0000000000000D+00
288  2.8700000000000D+00  0.0000000000000D+00  0.0000000000000D+00
289  2.8800000000000D+00  0.0000000000000D+00  0.0000000000000D+00
290  2.8900000000000D+00  0.0000000000000D+00  0.0000000000000D+00
291  2.9000000000000D+00  0.0000000000000D+00  0.0000000000000D+00
292  2.9100000000000D+00  0.0000000000000D+00  0.0000000000000D+00
293  2.9200000000000D+00  0.0000000000000D+00  0.0000000000000D+00
294  2.9300000000000D+00  0.0000000000000D+00  0.0000000000000D+00
295  2.9400000000000D+00  0.0000000000000D+00  0.0000000000000D+00
296  2.9500000000000D+00  0.0000000000000D+00  0.0000000000000D+00
297  2.9600000000000D+00  0.0000000000000D+00  0.0000000000000D+00
298  2.9700000000000D+00  0.0000000000000D+00  0.0000000000000D+00
299  2.9800000000000D+00  0.0000000000000D+00  0.0000000000000D+00
300  2.9900000000000D+00  0.0000000000000D+00  0.0000000000000D+00
301  3.0000000000000D+00  0.0000000000000D+00  0.0000000000000D+00
302  3.0100000000000D+00  0.0000000000000D+00  0.0000000000000D+00
303  3.0200000000000D+00  0.0000000000000D+00  0.0000000000000D+00
304  3.0300000000000D+00  0.0000000000000D+00  0.0000000000000D+00
305  3.0400000000000D+00  0.0000000000000D+00  0.0000000000000D+00
306  3.0500000000000D+00  0.0000000000000D+00  0.0000000000000D+00
307  3.0600000000000D+00  0.0000000000000D+00  0.0000000000000D+00
308  3.0700000000000D+00  0.0000000000000D+00  0.0000000000000D+00
309  3.0800000000000D+00  0.0000000000000D+00  0.0000000000000D+00
310  3.0900000000000D+00  0.0000000000000D+00  0.0000000000000D+00
311  3.1000000000000D+00  0.0000000000000D+00  0.0000000000000D+00
312  3.1100000000000D+00  0.0000000000000D+00  0.0000000000000D+00
313  3.1200000000000D+00  0.0000000000000D+00  0.0000000000000D+00
314  3.1300000000000D+00  0.0000000000000D+00  0.0000000000000D+00
315  3.1400000000000D+00  0.0000000000000D+00  0.0000000000000D+00
316  3.1500000000000D+00  0.0000000000000D+00  0.0000000000000D+00
317  3.1600000000000D+00  0.0000000000000D+00  0.0000000000000D+00
318  3.1700000000000D+00  0.0000000000000D+00  0.0000000000000D+00
319  3.1800000000000D+00  0.0000000000000D+00  0.0000000000000D+00
320  3.1900000000000D+00  0.0000000000000D+00  0.0000000000000D+00
321  3.2000000000000D+00  0.0000000000000D+00  0.0000000000000D+00
322  3.2100000000000D+00  0.0000000000000D+00  0.0000000000000D+00
323  3.2200000000000D+00  0.0000000000000D+00  0.0000000000000D+00
324  3.2300000000000D+00  0.0000000000000D+00  0.0000000000000D+00
325  3.2400000000000D+00  0.0000000000000D+00  0.0000000000000D+00
326  3.2500000000000D+00  0.0000000000000D+00  0.0000000000000D+00
327  3.2600000000000D+00  0.0000000000000D+00  0.0000000000000D+00
328  3.2700000000000D+00  0.0000000000000D+00  0.0000000000000D+00
329  3.2800000000000D+00  0.0000000000000D+00  0.0000000000000D+00
330  3.2900000000000D+00  0.0000000000000D+00  0.0000000000000D+00
331  3.3000000000000D+00  0.0000000000000D+00  0.0000000000000D+00
332  3.3100000000000D+00  0.0000000000000D+00  0.0000000000000D+00
333  3.3200000000000D+00  0.0000000000000D+00  0.0000000000000D+00
334  3.3300000000000D+00  0.0000000000000D+00  0.0000000000000D+00
335  3.3400000000000D+00  0.0000000000000D+00  0.0000000000000D+00
336  3.3500000000000D+00  0.0000000000000D+00  0.0000000000000D+00
337  3.3600000000000D+00  0.0000000000000D+00  0.0000000000000D+00
338  3.3700000000000D+00  0.0000000000000D+00  0.0000000000000D+00
339  3.3800000000000D+00  0.0000000000000D+00  0.0000000000000D+00
340  3.3900000000000D+00  0.0000000000000D+00  0.0000000000000D+00
341  3.4000000000000D+00  0.0000000000000D+00  0.0000000000000D+00
342  3.4100000000000D+00  0.0000000000000D+00  0.0000000000000D+00
343  3.4200000000000D+00  0.0000000000000D+00  0.0000000000000D+00
344  3.4300000000000D+00  0.0000000000000D+00  0.0000000000000D+00
345  3.4400000000000D+00  0.0000000000000D+00  0.0000000000000D+00
346  3.4500000000000D+00  0.0000000000000D+00  0.0000000000000D+00
347  3.4600000000000D+00  0.0000000000000D+00  0.0000000000000D+00
348  3.4700000000000D+00  0.0000000000000D+00  0.0000000000000D+00
349  3.4800000000000D+00  0.0000000000000D+00  0.0000000000000D+00
350  3.4900000000000D+00  0.0000000000000D+00  0.0000000000000D+00
351  3.5000000000000D+00  0.0000000000000D+00  0.0000000000000D+00
352  3.5100000000000D+00  0.0000000000000D+00  0.0000000000000D+00
353  3.5200000000000D+00  0.0000000000000D+00  0.0000000000000D+00
354  3.5300000000000D+00  0.0000000000000D+00  0.0000000000000D+00
355  3.5400000000000D+00  0.0000000000000D+00  0.0000000000000D+00
356  3.5500000000000D+00  0.0000000000000D+00  0.0000000000000D+00
357  3.5600000000000D+00  0.0000000000000D+00  0.0000000000000D+00
358  3.5700000000000D+00  0.0000000000000D+00  0.0000000000000D+00
359  3.5800000000000D+00  0.0000000000000D+00  0.0000000000000D+00
360  3.5900000000000D+00  0.0000000000000D+00  0.0000000000000D+00
361  3.6000000000000D+00  0.0000000000000D+00  0.0000000000000D+00
362  3.6100000000000D+00  0.0000000000000D+00  0.0000000000000D+00
363  3.6200000000000D+00  0.0000000000000D+00  0.0000000000000D+00
364  3.6300000000000D+00  0.0000000000000D+00  0.0000000000000D+00
365  3.6400000000000D+00  0.0000000000000D+00  0.0000000000000D+00
366  3.6500000000000D+00  0.0000000000000D+00  0.0000000000000D+00
367  3.6600000000000D+00  0.0000000000000D+00  0.0000000000000D+00
368  3.6700000000000D+00  0.0000000000000D+00  0.0000000000000D+00
369  3.6800000000000D+00  0.0000000000000D+00  0.0000000000000D+00
370  3.6900000000000D+00  0.0000000000000D+00  0.0000000000000D+00
371  3.7000000000000D+00  0.0000000000000D+00  0.0000000000000D+00
372  3.7100000000000D+00  0.0000000000000D+00  0.0000000000000D+00
373  3.7200000000000D+00  0.0000000000000D+00  0.0000000000000D+00
374  3.7300000000000D+00  0.0000000000000D+00  0.0000000000000D+00
375  3.7400000000000D+00  0.0000000000000D+00  0.0000000000000D+00
376  3.7500000000000D+00  0.0000000000000D+00  0.0000000000000D+00
377  3.7600000000000D+00  0.0000000000000D+00  0.0000000000000D+00
378  3.7700000000000D+00  0.0000000000000D+00  0.0000000000000D+00
379  3.7800000000000D+00  0.0000000000000D+00  0.0000000000000D+00
380  3.7900000000000D+00  0.0000000000000D+00  0.0000000000000D+00
381  3.8000000000000D+00  0.0000000000000D+00  0.0000000000000D+00
382  3.8100000000000D+00  0.0000000000000D+00  0.0000000000000D+00
383  3.8200000000000D+00  0.0000000000000D+00  0.0000000000000D+00
384  3.8300000000000D+00  0.0000000000000D+00  0.0000000000000D+00
385  3.8400000000000D+00  0.0000000000000D+00  0.0000000000000D+00
386  3.8500000000000D+00  0.0000000000000D+00  0.0000000000000D+00
387  3.8600000000000D+00  0.0000000000000D+00  0.0000000000000D+00
388  3.8700000000000D+00  0.0000000000000D+00  0.0000000000000D+00
389  3.8800000000000D+00  0.0000000000000D+00  0.0000000000000D+00
390  3.8900000000000D+00  0.0000000000000D+00  0.0000000000000D+00
391  3.9000000000000D+00  0.0000000000000D+00  0.0000000000000D+00
392  3.9100000000000D+00  0.0000000000000D+00  0.0000000000000D+00
393  3.9200000000000D+00  0.0000000000000D+00  0.0000000000000D+00
394  3.9300000000000D+00  0.0000000000000D+00  0.0000000000000D+00
395  3.9400000000000D+00  0.0000000000000D+00  0.0000000000000D+00
396  3.9500000000000D+00  0.0000000000000D+00  0.0000000000000D+00
397  3.9600000000000D+00  0.0000000000000D+00  0.0000000000000D+00
398  3.9700000000000D+00  0.0000000000000D+00  0.0000000000000D+00
399  3.9800000000000D+00  0.0000000000000D+00  0.0000000000000D+00
400  3.9900000000000D+00  0.0000000000000D+00  0.0000000000000D+00
401  4.0000000000000D+00  0.0000000000000D+00  0.0000000000000D+00
402  4.0100000000000D+00  0.0000000000000D+00  0.0000000000000D+00
403  4.0200000000000D+00  0.0000000000000D+00  0.0000000000000D+00
404  4.0300000000000D+00  0.0000000000000D+00  0.0000000000000D+00
405  4.0400000000000D+00  0.0000000000000D+00  0.0000000000000D+00
406  4.0500000000000D+00  0.0000000000000D+00  0.0000000000000D+00
407  4.0600000000000D+00  0.0000000000000D+00  0.0000000000000D+00
408  4.0700000000000D+00  0.0000000000000D+00  0.0000000000000D+00
409  4.0800000000000D+00  0.0000000000000D+00  0.0000000000000D+00
410  4.0900000000000D+00  0.0000000000000D+00  0.0000000000000D+00
411  4.1000000000000D+00  0.0000000000000D+00  0.0000000000000D+00
412  4.1100000000000D+00  0.0000000000000D+00  0.0000000000000D+00
413  4.1200000000000D+00  0.0000000000000D+00  0.0000000000000D+00
414  4.1300000000000D+00  0.0000000000000D+00  0.0000000000000D+00
415  4.1400000000000D+00  0.0000000000000D+00  0.0000000000000D+00
416  4.1500000000000D+00  0.0000000000000D+00  0.0000000000000D+00
417  4.1600000000000D+00  0.0000000000000D+00  0.0000000000000D+00
418  4.1700000000000D+00  0.0000000000000D+00  0.0000000000000D+00
419  4.1800000000000D+00  0.0000000000000D+00  0.0000000000000D+00
420  4.1900000000000D+00  0.0000000000000D+00  0.0000000000000D+00
421  4.2000000000000D+00  0.0000000000000D+00  0.0000000000000D+00
422  4.2100000000000D+00  0.0000000000000D+00  0.0000000000000D+00
423  4.2200000000000D+00  0.0000000000000D+00  0.0000000000000D+00
424  4.2300000000000D+00  0.0000000000000D+00  0.0000000000000D+00
425  4.2400000000000D+00  0.0000000000000D+00  0.0000000000000D+00
426  4.2500000000000D+00  0.0000000000000D+00  0.0000000000000D+00
427  4.2600000000000D+00  0.0000000000000D+00  0.0000000000000D+00
428  4.2700000000000D+00  0.0000000000000D+00  0.0000000000000D+00
429  4.2800000000000D+00  0.0000000000000D+00  0.0000000000000D+00
430  4.2900000000000D+00  0.0000000000000D+00  0.0000000000000D+00
431  4.3000000000000D+00  0.0000000000000D+00  0.0000000000000D+00
432  4.3100000000000D+00  0.0000000000000D+00  0.0000000000000D+00
433  4.3200000000000D+00  0.0000000000000D+00  0.0000000000000D+00
434  4.3300000000000D+00  0.0000000000000D+00  0.0000000000000D+00
435  4.3400000000000D+00  0.0000000000000D+00  0.0000000000000D+00
436  4.3500000000000D+00  0.0000000000000D+00  0.0000000000000D+00
437  4.3600000000000D+00  0.0000000000000D+00  0.0000000000000D+00
438  4.3700000000000D+00  0.0000000000000D+00  0.0000000000000D+00
439  4.3800000000000D+00  0.0000000000000D+00  0.0000000000000D+00
440  4.3900000000000D+00  0.0000000000000D+00  0.0000000000000D+00
441  4.4000000000000D+00  0.0000000000000D+00  0.0000000000000D+00
442  4.4100000000000D+00  0.0000000000000D+00  0.0000000000000D+00
443  4.4200000000000D+00  0.0000000000000D+00  0.0000000000000D+00