I     ONCVPSP-3.3.0  r_core=   2.02042   2.17032   2.27639
53.0000      7.0000      180423    zatom,zion,pspd
8      11   2     4   600     0    pspcod,pspxc,lmax,lloc,mmax,r2well
5.99000000  4.00000000  0.00000000    rchrg fchrg qchrg
2     4     4     0    nproj
3     1           extension_switch
4     4     0    nprojso
0                         9.1282758042285D-01  5.9520259003032D+00
1  0.0000000000000D+00 -5.0396881112746D-11  6.9653727230445D-12
2  1.0000000000000D-02  2.5679411739266D-02  1.4590038952679D-02
3  2.0000000000000D-02  5.1218260506947D-02  2.9207161080247D-02
4  3.0000000000000D-02  7.6476650022641D-02  4.3878314310931D-02
5  4.0000000000000D-02  1.0131601443495D-01  5.8630176575105D-02
6  5.0000000000000D-02  1.2559977616530D-01  7.3489022043289D-02
7  6.0000000000000D-02  1.4919399494251D-01  8.8480588843562D-02
8  7.0000000000000D-02  1.7196800515085D-01  1.0362994874336D-01
9  8.0000000000000D-02  1.9379503866467D-01  1.1896137927370D-01
10  9.0000000000000D-02  2.1455283040523D-01  1.3449823876523D-01
11  1.0000000000000D-01  2.3412420393002D-01  1.5026284475514D-01
12  1.1000000000000D-01  2.5239763445072D-01  1.6627635621214D-01
13  1.2000000000000D-01  2.6926778677374D-01  1.8255866001311D-01
14  1.3000000000000D-01  2.8463602576521D-01  1.9912826209004D-01
15  1.4000000000000D-01  2.9841089706120D-01  2.1600218364923D-01
16  1.5000000000000D-01  3.1050857587253D-01  2.3319586284701D-01
17  1.6000000000000D-01  3.2085328187161D-01  2.5072306228654D-01
18  1.7000000000000D-01  3.2937765829525D-01  2.6859578268004D-01
19  1.8000000000000D-01  3.3602311355295D-01  2.8682418299875D-01
20  1.9000000000000D-01  3.4074012379217D-01  3.0541650740985D-01
21  2.0000000000000D-01  3.4348849504184D-01  3.2437901927584D-01
22  2.1000000000000D-01  3.4423758373088D-01  3.4371594246657D-01
23  2.2000000000000D-01  3.4296647455934D-01  3.6342941020839D-01
24  2.3000000000000D-01  3.3966411488559D-01  3.8351942166803D-01
25  2.4000000000000D-01  3.3432940498223D-01  4.0398380644168D-01
26  2.5000000000000D-01  3.2697124370627D-01  4.2481819709134D-01
27  2.6000000000000D-01  3.1760852932330D-01  4.4601600984247D-01
28  2.7000000000000D-01  3.0627011542245D-01  4.6756843352761D-01
29  2.8000000000000D-01  2.9299472205454D-01  4.8946442683168D-01
30  2.9000000000000D-01  2.7783080242337D-01  5.1169072386528D-01
31  3.0000000000000D-01  2.6083636565466D-01  5.3423184806256D-01
32  3.1000000000000D-01  2.4207875636074D-01  5.5707013437101D-01
33  3.2000000000000D-01  2.2163439190991D-01  5.8018575967101D-01
34  3.3000000000000D-01  1.9958845849581D-01  6.0355678133370D-01
35  3.4000000000000D-01  1.7603456728495D-01  6.2715918379731D-01
36  3.5000000000000D-01  1.5107437209771D-01  6.5096693301310D-01
37  3.6000000000000D-01  1.2481715024913D-01  6.7495203858478D-01
38  3.7000000000000D-01  9.7379348340256D-02  6.9908462339765D-01
39  3.8000000000000D-01  6.8884094947840D-02  7.2333300050730D-01
40  3.9000000000000D-01  3.9460682308412D-02  7.4766375703219D-01
41  4.0000000000000D-01  9.2440192328284D-03  7.7204184476942D-01
42  4.1000000000000D-01 -2.1625942382574D-02  7.9643067722934D-01
43  4.2000000000000D-01 -5.3004804962151D-02  8.2079223276212D-01
44  4.3000000000000D-01 -8.4744343978807D-02  8.4508716342764D-01
45  4.4000000000000D-01 -1.1669314530994D-01  8.6927490924001D-01
46  4.5000000000000D-01 -1.4869725844115D-01  8.9331381739915D-01
47  4.6000000000000D-01 -1.8060086266329D-01  9.1716126610398D-01
48  4.7000000000000D-01 -2.1224694334619D-01  9.4077379252622D-01
49  4.8000000000000D-01 -2.4347797532321D-01  9.6410722450875D-01
50  4.9000000000000D-01 -2.7413661038482D-01  9.8711681553971D-01
51  5.0000000000000D-01 -3.0406636585607D-01  1.0097573825421D+00
52  5.1000000000000D-01 -3.3311231122350D-01  1.0319834460090D+00
53  5.2000000000000D-01 -3.6112174978073D-01  1.0537493720057D+00
54  5.3000000000000D-01 -3.8794489227916D-01  1.0750095155555D+00
55  5.4000000000000D-01 -4.1343551960140D-01  1.0957183649187D+00
56  5.5000000000000D-01 -4.3745163151862D-01  1.1158306862739D+00
57  5.6000000000000D-01 -4.5985607865066D-01  1.1353016683080D+00
58  5.7000000000000D-01 -4.8051717481805D-01  1.1540870662227D+00
59  5.8000000000000D-01 -4.9930928705781D-01  1.1721433446673D+00
60  5.9000000000000D-01 -5.1611340067096D-01  1.1894278191118D+00
61  6.0000000000000D-01 -5.3081765677611D-01  1.2058987951810D+00
62  6.1000000000000D-01 -5.4331785996358D-01  1.2215157054760D+00
63  6.2000000000000D-01 -5.5351795377378D-01  1.2362392434203D+00
64  6.3000000000000D-01 -5.6133046186427D-01  1.2500314936786D+00
65  6.4000000000000D-01 -5.6667689288116D-01  1.2628560587077D+00
66  6.5000000000000D-01 -5.6948810720877D-01  1.2746781810139D+00
67  6.6000000000000D-01 -5.6970464394150D-01  1.2854648607058D+00
68  6.7000000000000D-01 -5.6727700659699D-01  1.2951849679506D+00
69  6.8000000000000D-01 -5.6216590627301D-01  1.3038093499565D+00
70  6.9000000000000D-01 -5.5434246114041D-01  1.3113109321267D+00
71  7.0000000000000D-01 -5.4378835135898D-01  1.3176648130502D+00
72  7.1000000000000D-01 -5.3049592870302D-01  1.3228483530156D+00
73  7.2000000000000D-01 -5.1446828038576D-01  1.3268412557587D+00
74  7.3000000000000D-01 -4.9571924677799D-01  1.3296256431765D+00
75  7.4000000000000D-01 -4.7427339292425D-01  1.3311861227680D+00
76  7.5000000000000D-01 -4.5016593396735D-01  1.3315098475837D+00
77  7.6000000000000D-01 -4.2344261480101D-01  1.3305865684971D+00
78  7.7000000000000D-01 -3.9415954447735D-01  1.3284086786325D+00
79  7.8000000000000D-01 -3.6238298610080D-01  1.3249712498152D+00
80  7.9000000000000D-01 -3.2818910314224D-01  1.3202720609369D+00
81  8.0000000000000D-01 -2.9166366330533D-01  1.3143116181543D+00
82  8.1000000000000D-01 -2.5290170126998D-01  1.3070931668714D+00
83  8.2000000000000D-01 -2.1200714182529D-01  1.2986226954798D+00
84  8.3000000000000D-01 -1.6909238508473D-01  1.2889089308627D+00
85  8.4000000000000D-01 -1.2427785564958D-01  1.2779633256950D+00
86  8.5000000000000D-01 -7.7691517750948D-02  1.2658000375979D+00
87  8.6000000000000D-01 -2.9468358556131D-02  1.2524359002372D+00
88  8.7000000000000D-01  2.0250158029697D-02  1.2378903864782D+00
89  8.8000000000000D-01  7.1316664600753D-02  1.2221855637378D+00
90  8.9000000000000D-01  1.2357848793800D-01  1.2053460417001D+00
91  9.0000000000000D-01  1.7687826844658D-01  1.1873989125860D+00
92  9.1000000000000D-01  2.3105459854439D-01  1.1683736841915D+00
93  9.2000000000000D-01  2.8594267711755D-01  1.1483022059334D+00
94  9.3000000000000D-01  3.4137497708622D-01  1.1272185881610D+00
95  9.4000000000000D-01  3.9718192306576D-01  1.1051591150167D+00
96  9.5000000000000D-01  4.5319257606513D-01  1.0821621511447D+00
97  9.6000000000000D-01  5.0923532213340D-01  1.0582680425681D+00
98  9.7000000000000D-01  5.6513856185163D-01  1.0335190120712D+00
99  9.8000000000000D-01  6.2073139756627D-01  1.0079590494394D+00
100  9.9000000000000D-01  6.7584431527511D-01  9.8163379692491D-01
101  1.0000000000000D+00  7.3030985810610D-01  9.5459043031788D-01
102  1.0100000000000D+00  7.8396328837265D-01  9.2687753601641D-01
103  1.0200000000000D+00  8.3664323524949D-01  8.9854498449715D-01
104  1.0300000000000D+00  8.8819232518152D-01  8.6964380059810D-01
105  1.0400000000000D+00  9.3845779222828D-01  8.4022603103196D-01
106  1.0500000000000D+00  9.8729206564496D-01  8.1034460955414D-01
107  1.0600000000000D+00  1.0345533321129D+00  7.8005322021338D-01
108  1.0700000000000D+00  1.0801060701607D+00  7.4940615911546D-01
109  1.0800000000000D+00  1.1238215544517D+00  7.1845819513156D-01
110  1.0900000000000D+00  1.1655783277577D+00  6.8726442998201D-01
111  1.1000000000000D+00  1.2052626386084D+00  6.5588015812438D-01
112  1.1100000000000D+00  1.2427688427623D+00  6.2436072687091D-01
113  1.1200000000000D+00  1.2779997668448D+00  5.9276139715486D-01
114  1.1300000000000D+00  1.3108670326391D+00  5.6113720536046D-01
115  1.1400000000000D+00  1.3412913407628D+00  5.2954282662127D-01
116  1.1500000000000D+00  1.3692027126218D+00  4.9803243998412D-01
117  1.1600000000000D+00  1.3945406897771D+00  4.6665959582326D-01
118  1.1700000000000D+00  1.4172544899978D+00  4.3547708588183D-01
119  1.1800000000000D+00  1.4373031195670D+00  4.0453681630031D-01
120  1.1900000000000D+00  1.4546554415755D+00  3.7388968397992D-01
121  1.2000000000000D+00  1.4692902001683D+00  3.4358545661333D-01
122  1.2100000000000D+00  1.4811960008779D+00  3.1367265670257D-01
123  1.2200000000000D+00  1.4903712474694D+00  2.8419844986190D-01
124  1.2300000000000D+00  1.4968240359112D+00  2.5520853768586D-01
125  1.2400000000000D+00  1.5005720061928D+00  2.2674705545530D-01
126  1.2500000000000D+00  1.5016421530679D+00  1.9885647492098D-01
127  1.2600000000000D+00  1.5000705969355D+00  1.7157751238938D-01
128  1.2700000000000D+00  1.4959023161810D+00  1.4494904232605D-01
129  1.2800000000000D+00  1.4891908426072D+00  1.1900801665823D-01
130  1.2900000000000D+00  1.4799979217448D+00  9.3789389938061D-02
131  1.3000000000000D+00  1.4683931398662D+00  6.9326050524291D-02
132  1.3100000000000D+00  1.4544535198473D+00  4.5648757901006D-02
133  1.3200000000000D+00  1.4382630881285D+00  2.2786086230332D-02
134  1.3300000000000D+00  1.4199124150172D+00  7.6437424250837D-04
135  1.3400000000000D+00  1.3994981309152D+00 -2.0392318489176D-02
136  1.3500000000000D+00  1.3771224210297D+00 -4.0662248846083D-02
137  1.3600000000000D+00  1.3528925011787D+00 -6.0026020991526D-02
138  1.3700000000000D+00  1.3269200775519D+00 -7.8466610749226D-02
139  1.3800000000000D+00  1.2993207931676D+00 -9.5969383531594D-02
140  1.3900000000000D+00  1.2702136639373D+00 -1.1252210584866D-01
141  1.4000000000000D+00  1.2397205072445D+00 -1.2811495047164D-01
142  1.4100000000000D+00  1.2079653659514D+00 -1.4274049528611D-01
143  1.4200000000000D+00  1.1750739307940D+00 -1.5639371595071D-01
144  1.4300000000000D+00  1.1411729640397D+00 -1.6907197244951D-01
145  1.4400000000000D+00  1.1063897274018D+00 -1.8077498964553D-01
146  1.4500000000000D+00  1.0708514169006D+00 -1.9150483199545D-01
147  1.4600000000000D+00  1.0346846076892D+00 -2.0126587252968D-01
148  1.4700000000000D+00  9.9801471136229D-01 -2.1006475629385D-01
149  1.4800000000000D+00  9.6096544850971D-01 -2.1791035839420D-01
150  1.4900000000000D+00  9.2365833909701D-01 -2.2481373683549D-01
151  1.5000000000000D+00  8.8621221285705D-01 -2.3078808034905D-01
152  1.5100000000000D+00  8.4874274247346D-01 -2.3584865138745D-01
153  1.5200000000000D+00  8.1136200103445D-01 -2.4001272452358D-01
154  1.5300000000000D+00  7.7417804659672D-01 -2.4329952043320D-01
155  1.5400000000000D+00  7.3729453490003D-01 -2.4573013571229D-01
156  1.5500000000000D+00  7.0081036259732D-01 -2.4732746872964D-01
157  1.5600000000000D+00  6.6481934207051D-01 -2.4811614176049D-01
158  1.5700000000000D+00  6.2940990931899D-01 -2.4812241962386D-01
159  1.5800000000000D+00  5.9466486620503D-01 -2.4737412506444D-01
160  1.5900000000000D+00  5.6066115751087D-01 -2.4590055111256D-01
161  1.6000000000000D+00  5.2746968436519D-01 -2.4373237066390D-01
162  1.6100000000000D+00  4.9515515339750D-01 -2.4090154351070D-01
163  1.6200000000000D+00  4.6377596344826D-01 -2.3744122107312D-01
164  1.6300000000000D+00  4.3338412811024D-01 -2.3338564904941D-01
165  1.6400000000000D+00  4.0402523614150D-01 -2.2877006824499D-01
166  1.6500000000000D+00  3.7573844702886D-01 -2.2363061377776D-01
167  1.6600000000000D+00  3.4855652380875D-01 -2.1800421293225D-01
168  1.6700000000000D+00  3.2250589969834D-01 -2.1192848183626D-01
169  1.6800000000000D+00  2.9760678037022D-01 -2.0544162124004D-01
170  1.6900000000000D+00  2.7387327803669D-01 -1.9858231154999D-01
171  1.7000000000000D+00  2.5131357875172D-01 -1.9138960740091D-01
172  1.7100000000000D+00  2.2993013877359D-01 -1.8390283189496D-01
173  1.7200000000000D+00  2.0971991102252D-01 -1.7616147079651D-01
174  1.7300000000000D+00  1.9067459716767D-01 -1.6820506678310D-01
175  1.7400000000000D+00  1.7278092603076D-01 -1.6007311404889D-01
176  1.7500000000000D+00  1.5602095365395D-01 -1.5180495333124D-01
177  1.7600000000000D+00  1.4037238523669D-01 -1.4343966766034D-01
178  1.7700000000000D+00  1.2580891444396D-01 -1.3501597888229D-01
179  1.7800000000000D+00  1.1230057949843D-01 -1.2657214524325D-01
180  1.7900000000000D+00  9.9814132100307D-02 -1.1814586008316D-01
181  1.8000000000000D+00  8.8313417633810D-02 -1.0977415189761D-01
182  1.8100000000000D+00  7.7759763386440D-02 -1.0149328582961D-01
183  1.8200000000000D+00  6.8112372383203D-02 -9.3338666807688D-02
184  1.8300000000000D+00  5.9328720149343D-02 -8.5344744418797D-02
185  1.8400000000000D+00  5.1364951501748D-02 -7.7544919679320D-02
186  1.8500000000000D+00  4.4176274883956D-02 -6.9971453830157D-02
187  1.8600000000000D+00  3.7717351523805D-02 -6.2655379259305D-02
188  1.8700000000000D+00  3.1942676401333D-02 -5.5626412720959D-02
189  1.8800000000000D+00  2.6806949483271D-02 -4.8912870895410D-02
190  1.8900000000000D+00  2.2265432790489D-02 -4.2541588495768D-02
191  1.9000000000000D+00  1.8274293697073D-02 -3.6537838927156D-02
192  1.9100000000000D+00  1.4790928599930D-02 -3.0925257707274D-02
193  1.9200000000000D+00  1.1774268419983D-02 -2.5725768664980D-02
194  1.9300000000000D+00  9.1850606595049D-03 -2.0959513078052D-02
195  1.9400000000000D+00  6.9861280663691D-03 -1.6644781818562D-02
196  1.9500000000000D+00  5.1426514118148D-03 -1.2798177061576D-02
197  1.9600000000000D+00  3.6227752286363D-03 -9.4363857910345D-03
198  1.9700000000000D+00  2.3953199820056D-03 -6.5648578864791D-03
199  1.9800000000000D+00  1.4322425742749D-03 -4.1848462470984D-03
200  1.9900000000000D+00  7.1396229018055D-04 -2.3308894273989D-03
201  2.0000000000000D+00  2.2203099944131D-04 -1.0337271047959D-03
202  2.0100000000000D+00 -6.4778869474259D-05 -2.6786433751049D-04
203  2.0200000000000D+00 -1.7312846647203D-04  7.5604722434930D-05
204  2.0300000000000D+00 -1.3453051763855D-04  1.2724584785790D-04
205  2.0400000000000D+00 -4.0548535105944D-05  4.5370498229816D-05
206  2.0500000000000D+00  2.0447919564056D-05 -2.4054114581506D-05
207  2.0600000000000D+00  2.2477369501806D-05 -2.7733203413436D-05
208  2.0700000000000D+00 -7.2665623438702D-07  7.7314487823273D-07
209  2.0800000000000D+00 -5.6945648199320D-06  6.2173987874713D-06
210  2.0900000000000D+00 -2.5531860284149D-06  2.8424819069786D-06
211  2.1000000000000D+00  3.6479446017233D-07 -1.7304202605655D-07
212  2.1100000000000D+00  4.3516887988998D-07 -2.0642447425695D-07
213  2.1200000000000D+00  0.0000000000000D+00  0.0000000000000D+00
214  2.1300000000000D+00  0.0000000000000D+00  0.0000000000000D+00
215  2.1400000000000D+00  0.0000000000000D+00  0.0000000000000D+00
216  2.1500000000000D+00  0.0000000000000D+00  0.0000000000000D+00
217  2.1600000000000D+00  0.0000000000000D+00  0.0000000000000D+00
218  2.1700000000000D+00  0.0000000000000D+00  0.0000000000000D+00
219  2.1800000000000D+00  0.0000000000000D+00  0.0000000000000D+00
220  2.1900000000000D+00  0.0000000000000D+00  0.0000000000000D+00
221  2.2000000000000D+00  0.0000000000000D+00  0.0000000000000D+00
222  2.2100000000000D+00  0.0000000000000D+00  0.0000000000000D+00
223  2.2200000000000D+00  0.0000000000000D+00  0.0000000000000D+00
224  2.2300000000000D+00  0.0000000000000D+00  0.0000000000000D+00
225  2.2400000000000D+00  0.0000000000000D+00  0.0000000000000D+00
226  2.2500000000000D+00  0.0000000000000D+00  0.0000000000000D+00
227  2.2600000000000D+00  0.0000000000000D+00  0.0000000000000D+00
228  2.2700000000000D+00  0.0000000000000D+00  0.0000000000000D+00
229  2.2800000000000D+00  0.0000000000000D+00  0.0000000000000D+00
230  2.2900000000000D+00  0.0000000000000D+00  0.0000000000000D+00
231  2.3000000000000D+00  0.0000000000000D+00  0.0000000000000D+00
232  2.3100000000000D+00  0.0000000000000D+00  0.0000000000000D+00
233  2.3200000000000D+00  0.0000000000000D+00  0.0000000000000D+00
234  2.3300000000000D+00  0.0000000000000D+00  0.0000000000000D+00
235  2.3400000000000D+00  0.0000000000000D+00  0.0000000000000D+00
236  2.3500000000000D+00  0.0000000000000D+00  0.0000000000000D+00
237  2.3600000000000D+00  0.0000000000000D+00  0.0000000000000D+00
238  2.3700000000000D+00  0.0000000000000D+00  0.0000000000000D+00
239  2.3800000000000D+00  0.0000000000000D+00  0.0000000000000D+00
240  2.3900000000000D+00  0.0000000000000D+00  0.0000000000000D+00
241  2.4000000000000D+00  0.0000000000000D+00  0.0000000000000D+00
242  2.4100000000000D+00  0.0000000000000D+00  0.0000000000000D+00
243  2.4200000000000D+00  0.0000000000000D+00  0.0000000000000D+00
244  2.4300000000000D+00  0.0000000000000D+00  0.0000000000000D+00
245  2.4400000000000D+00  0.0000000000000D+00  0.0000000000000D+00
246  2.4500000000000D+00  0.0000000000000D+00  0.0000000000000D+00
247  2.4600000000000D+00  0.0000000000000D+00  0.0000000000000D+00
248  2.4700000000000D+00  0.0000000000000D+00  0.0000000000000D+00
249  2.4800000000000D+00  0.0000000000000D+00  0.0000000000000D+00
250  2.4900000000000D+00  0.0000000000000D+00  0.0000000000000D+00
251  2.5000000000000D+00  0.0000000000000D+00  0.0000000000000D+00
252  2.5100000000000D+00  0.0000000000000D+00  0.0000000000000D+00
253  2.5200000000000D+00  0.0000000000000D+00  0.0000000000000D+00
254  2.5300000000000D+00  0.0000000000000D+00  0.0000000000000D+00
255  2.5400000000000D+00  0.0000000000000D+00  0.0000000000000D+00
256  2.5500000000000D+00  0.0000000000000D+00  0.0000000000000D+00
257  2.5600000000000D+00  0.0000000000000D+00  0.0000000000000D+00
258  2.5700000000000D+00  0.0000000000000D+00  0.0000000000000D+00
259  2.5800000000000D+00  0.0000000000000D+00  0.0000000000000D+00
260  2.5900000000000D+00  0.0000000000000D+00  0.0000000000000D+00
261  2.6000000000000D+00  0.0000000000000D+00  0.0000000000000D+00
262  2.6100000000000D+00  0.0000000000000D+00  0.0000000000000D+00
263  2.6200000000000D+00  0.0000000000000D+00  0.0000000000000D+00
264  2.6300000000000D+00  0.0000000000000D+00  0.0000000000000D+00
265  2.6400000000000D+00  0.0000000000000D+00  0.0000000000000D+00
266  2.6500000000000D+00  0.0000000000000D+00  0.0000000000000D+00
267  2.6600000000000D+00  0.0000000000000D+00  0.0000000000000D+00
268  2.6700000000000D+00  0.0000000000000D+00  0.0000000000000D+00
269  2.6800000000000D+00  0.0000000000000D+00  0.0000000000000D+00
270  2.6900000000000D+00  0.0000000000000D+00  0.0000000000000D+00
271  2.7000000000000D+00  0.0000000000000D+00  0.0000000000000D+00
272  2.7100000000000D+00  0.0000000000000D+00  0.0000000000000D+00
273  2.7200000000000D+00  0.0000000000000D+00  0.0000000000000D+00
274  2.7300000000000D+00  0.0000000000000D+00  0.0000000000000D+00
275  2.7400000000000D+00  0.0000000000000D+00  0.0000000000000D+00
276  2.7500000000000D+00  0.0000000000000D+00  0.0000000000000D+00
277  2.7600000000000D+00  0.0000000000000D+00  0.0000000000000D+00
278  2.7700000000000D+00  0.0000000000000D+00  0.0000000000000D+00
279  2.7800000000000D+00  0.0000000000000D+00  0.0000000000000D+00
280  2.7900000000000D+00  0.0000000000000D+00  0.0000000000000D+00
281  2.8000000000000D+00  0.0000000000000D+00  0.0000000000000D+00
282  2.8100000000000D+00  0.0000000000000D+00  0.0000000000000D+00
283  2.8200000000000D+00  0.0000000000000D+00  0.0000000000000D+00
284  2.8300000000000D+00  0.0000000000000D+00  0.0000000000000D+00
285  2.8400000000000D+00  0.0000000000000D+00  0.0000000000000D+00
286  2.8500000000000D+00  0.0000000000000D+00  0.0000000000000D+00
287  2.8600000000000D+00  0.0000000000000D+00  0.0000000000000D+00
288  2.8700000000000D+00  0.0000000000000D+00  0.0000000000000D+00
289  2.8800000000000D+00  0.0000000000000D+00  0.0000000000000D+00
290  2.8900000000000D+00  0.0000000000000D+00  0.0000000000000D+00
291  2.9000000000000D+00  0.0000000000000D+00  0.0000000000000D+00
292  2.9100000000000D+00  0.0000000000000D+00  0.0000000000000D+00
293  2.9200000000000D+00  0.0000000000000D+00  0.0000000000000D+00
294  2.9300000000000D+00  0.0000000000000D+00  0.0000000000000D+00
295  2.9400000000000D+00  0.0000000000000D+00  0.0000000000000D+00
296  2.9500000000000D+00  0.0000000000000D+00  0.0000000000000D+00
297  2.9600000000000D+00  0.0000000000000D+00  0.0000000000000D+00
298  2.9700000000000D+00  0.0000000000000D+00  0.0000000000000D+00
299  2.9800000000000D+00  0.0000000000000D+00  0.0000000000000D+00
300  2.9900000000000D+00  0.0000000000000D+00  0.0000000000000D+00
301  3.0000000000000D+00  0.0000000000000D+00  0.0000000000000D+00
302  3.0100000000000D+00  0.0000000000000D+00  0.0000000000000D+00
303  3.0200000000000D+00  0.0000000000000D+00  0.0000000000000D+00
304  3.0300000000000D+00  0.0000000000000D+00  0.0000000000000D+00
305  3.0400000000000D+00  0.0000000000000D+00  0.0000000000000D+00
306  3.0500000000000D+00  0.0000000000000D+00  0.0000000000000D+00
307  3.0600000000000D+00  0.0000000000000D+00  0.0000000000000D+00
308  3.0700000000000D+00  0.0000000000000D+00  0.0000000000000D+00
309  3.0800000000000D+00  0.0000000000000D+00  0.0000000000000D+00
310  3.0900000000000D+00  0.0000000000000D+00  0.0000000000000D+00
311  3.1000000000000D+00  0.0000000000000D+00  0.0000000000000D+00
312  3.1100000000000D+00  0.0000000000000D+00  0.0000000000000D+00
313  3.1200000000000D+00  0.0000000000000D+00  0.0000000000000D+00
314  3.1300000000000D+00  0.0000000000000D+00  0.0000000000000D+00
315  3.1400000000000D+00  0.0000000000000D+00  0.0000000000000D+00
316  3.1500000000000D+00  0.0000000000000D+00  0.0000000000000D+00
317  3.1600000000000D+00  0.0000000000000D+00  0.0000000000000D+00
318  3.1700000000000D+00  0.0000000000000D+00  0.0000000000000D+00
319  3.1800000000000D+00  0.0000000000000D+00  0.0000000000000D+00
320  3.1900000000000D+00  0.0000000000000D+00  0.0000000000000D+00
321  3.2000000000000D+00  0.0000000000000D+00  0.0000000000000D+00
322  3.2100000000000D+00  0.0000000000000D+00  0.0000000000000D+00
323  3.2200000000000D+00  0.0000000000000D+00  0.0000000000000D+00
324  3.2300000000000D+00  0.0000000000000D+00  0.0000000000000D+00
325  3.2400000000000D+00  0.0000000000000D+00  0.0000000000000D+00
326  3.2500000000000D+00  0.0000000000000D+00  0.0000000000000D+00
327  3.2600000000000D+00  0.0000000000000D+00  0.0000000000000D+00
328  3.2700000000000D+00  0.0000000000000D+00  0.0000000000000D+00
329  3.2800000000000D+00  0.0000000000000D+00  0.0000000000000D+00
330  3.2900000000000D+00  0.0000000000000D+00  0.0000000000000D+00
331  3.3000000000000D+00  0.0000000000000D+00  0.0000000000000D+00
332  3.3100000000000D+00  0.0000000000000D+00  0.0000000000000D+00
333  3.3200000000000D+00  0.0000000000000D+00  0.0000000000000D+00
334  3.3300000000000D+00  0.0000000000000D+00  0.0000000000000D+00
335  3.3400000000000D+00  0.0000000000000D+00  0.0000000000000D+00
336  3.3500000000000D+00  0.0000000000000D+00  0.0000000000000D+00
337  3.3600000000000D+00  0.0000000000000D+00  0.0000000000000D+00
338  3.3700000000000D+00  0.0000000000000D+00  0.0000000000000D+00
339  3.3800000000000D+00  0.0000000000000D+00  0.0000000000000D+00
340  3.3900000000000D+00  0.0000000000000D+00  0.0000000000000D+00
341  3.4000000000000D+00  0.0000000000000D+00  0.0000000000000D+00
342  3.4100000000000D+00  0.0000000000000D+00  0.0000000000000D+00
343  3.4200000000000D+00  0.0000000000000D+00  0.0000000000000D+00
344  3.4300000000000D+00  0.0000000000000D+00  0.0000000000000D+00
345  3.4400000000000D+00  0.0000000000000D+00  0.0000000000000D+00
346  3.4500000000000D+00  0.0000000000000D+00  0.0000000000000D+00
347  3.4600000000000D+00  0.0000000000000D+00  0.0000000000000D+00
348  3.4700000000000D+00  0.0000000000000D+00  0.0000000000000D+00
349  3.4800000000000D+00  0.0000000000000D+00  0.0000000000000D+00
350  3.4900000000000D+00  0.0000000000000D+00  0.0000000000000D+00
351  3.5000000000000D+00  0.0000000000000D+00  0.0000000000000D+00
352  3.5100000000000D+00  0.0000000000000D+00  0.0000000000000D+00
353  3.5200000000000D+00  0.0000000000000D+00  0.0000000000000D+00
354  3.5300000000000D+00  0.0000000000000D+00  0.0000000000000D+00
355  3.5400000000000D+00  0.0000000000000D+00  0.0000000000000D+00
356  3.5500000000000D+00  0.0000000000000D+00  0.0000000000000D+00
357  3.5600000000000D+00  0.0000000000000D+00  0.0000000000000D+00
358  3.5700000000000D+00  0.0000000000000D+00  0.0000000000000D+00
359  3.5800000000000D+00  0.0000000000000D+00  0.0000000000000D+00
360  3.5900000000000D+00  0.0000000000000D+00  0.0000000000000D+00
361  3.6000000000000D+00  0.0000000000000D+00  0.0000000000000D+00
362  3.6100000000000D+00  0.0000000000000D+00  0.0000000000000D+00
363  3.6200000000000D+00  0.0000000000000D+00  0.0000000000000D+00
364  3.6300000000000D+00  0.0000000000000D+00  0.0000000000000D+00
365  3.6400000000000D+00  0.0000000000000D+00  0.0000000000000D+00
366  3.6500000000000D+00  0.0000000000000D+00  0.0000000000000D+00
367  3.6600000000000D+00  0.0000000000000D+00  0.0000000000000D+00
368  3.6700000000000D+00  0.0000000000000D+00  0.0000000000000D+00
369  3.6800000000000D+00  0.0000000000000D+00  0.0000000000000D+00
370  3.6900000000000D+00  0.0000000000000D+00  0.0000000000000D+00
371  3.7000000000000D+00  0.0000000000000D+00  0.0000000000000D+00
372  3.7100000000000D+00  0.0000000000000D+00  0.0000000000000D+00
373  3.7200000000000D+00  0.0000000000000D+00  0.0000000000000D+00
374  3.7300000000000D+00  0.0000000000000D+00  0.0000000000000D+00
375  3.7400000000000D+00  0.0000000000000D+00  0.0000000000000D+00
376  3.7500000000000D+00  0.0000000000000D+00  0.0000000000000D+00
377  3.7600000000000D+00  0.0000000000000D+00  0.0000000000000D+00
378  3.7700000000000D+00  0.0000000000000D+00  0.0000000000000D+00
379  3.7800000000000D+00  0.0000000000000D+00  0.0000000000000D+00
380  3.7900000000000D+00  0.0000000000000D+00  0.0000000000000D+00
381  3.8000000000000D+00  0.0000000000000D+00  0.0000000000000D+00
382  3.8100000000000D+00  0.0000000000000D+00  0.0000000000000D+00
383  3.8200000000000D+00  0.0000000000000D+00  0.0000000000000D+00
384  3.8300000000000D+00  0.0000000000000D+00  0.0000000000000D+00
385  3.8400000000000D+00  0.0000000000000D+00  0.0000000000000D+00
386  3.8500000000000D+00  0.0000000000000D+00  0.0000000000000D+00
387  3.8600000000000D+00  0.0000000000000D+00  0.0000000000000D+00
388  3.8700000000000D+00  0.0000000000000D+00  0.0000000000000D+00
389  3.8800000000000D+00  0.0000000000000D+00  0.0000000000000D+00
390  3.8900000000000D+00  0.0000000000000D+00  0.0000000000000D+00
391  3.9000000000000D+00  0.0000000000000D+00  0.0000000000000D+00
392  3.9100000000000D+00  0.0000000000000D+00  0.0000000000000D+00
393  3.9200000000000D+00  0.0000000000000D+00  0.0000000000000D+00
394  3.9300000000000D+00  0.0000000000000D+00  0.0000000000000D+00
395  3.9400000000000D+00  0.0000000000000D+00  0.0000000000000D+00
396  3.9500000000000D+00  0.0000000000000D+00  0.0000000000000D+00
397  3.9600000000000D+00  0.0000000000000D+00  0.0000000000000D+00
398  3.9700000000000D+00  0.0000000000000D+00  0.0000000000000D+00
399  3.9800000000000D+00  0.0000000000000D+00  0.0000000000000D+00
400  3.9900000000000D+00  0.0000000000000D+00  0.0000000000000D+00
401  4.0000000000000D+00  0.0000000000000D+00  0.0000000000000D+00
402  4.0100000000000D+00  0.0000000000000D+00  0.0000000000000D+00
403  4.0200000000000D+00  0.0000000000000D+00  0.0000000000000D+00
404  4.0300000000000D+00  0.0000000000000D+00  0.0000000000000D+00
405  4.0400000000000D+00  0.0000000000000D+00  0.0000000000000D+00
406  4.0500000000000D+00  0.0000000000000D+00  0.0000000000000D+00
407  4.0600000000000D+00  0.0000000000000D+00  0.0000000000000D+00
408  4.0700000000000D+00  0.0000000000000D+00  0.0000000000000D+00
409  4.0800000000000D+00  0.0000000000000D+00  0.0000000000000D+00
410  4.0900000000000D+00  0.0000000000000D+00  0.0000000000000D+00
411  4.1000000000000D+00  0.0000000000000D+00  0.0000000000000D+00
412  4.1100000000000D+00  0.0000000000000D+00  0.0000000000000D+00
413  4.1200000000000D+00  0.0000000000000D+00  0.0000000000000D+00
414  4.1300000000000D+00  0.0000000000000D+00  0.0000000000000D+00
415  4.1400000000000D+00  0.0000000000000D+00  0.0000000000000D+00
416  4.1500000000000D+00  0.0000000000000D+00  0.0000000000000D+00
417  4.1600000000000D+00  0.0000000000000D+00  0.0000000000000D+00
418  4.1700000000000D+00  0.0000000000000D+00  0.0000000000000D+00
419  4.1800000000000D+00  0.0000000000000D+00  0.0000000000000D+00
420  4.1900000000000D+00  0.0000000000000D+00  0.0000000000000D+00
421  4.2000000000000D+00  0.0000000000000D+00  0.0000000000000D+00
422  4.2100000000000D+00  0.0000000000000D+00  0.0000000000000D+00
423  4.2200000000000D+00  0.0000000000000D+00  0.0000000000000D+00
424  4.2300000000000D+00  0.0000000000000D+00  0.0000000000000D+00
425  4.2400000000000D+00  0.0000000000000D+00  0.0000000000000D+00
426  4.2500000000000D+00  0.0000000000000D+00  0.0000000000000D+00
427  4.2600000000000D+00  0.0000000000000D+00  0.0000000000000D+00
428  4.2700000000000D+00  0.0000000000000D+00  0.0000000000000D+00
429  4.2800000000000D+00  0.0000000000000D+00  0.0000000000000D+00
430  4.2900000000000D+00  0.0000000000000D+00  0.0000000000000D+00
431  4.3000000000000D+00  0.0000000000000D+00  0.0000000000000D+00
432  4.3100000000000D+00  0.0000000000000D+00  0.0000000000000D+00
433  4.3200000000000D+00  0.0000000000000D+00  0.0000000000000D+00
434  4.3300000000000D+00  0.0000000000000D+00  0.0000000000000D+00
435  4.3400000000000D+00  0.0000000000000D+00  0.0000000000000D+00
436  4.3500000000000D+00  0.0000000000000D+00  0.0000000000000D+00
437  4.3600000000000D+00  0.0000000000000D+00  0.0000000000000D+00
438  4.3700000000000D+00  0.0000000000000D+00  0.0000000000000D+00
439  4.3800000000000D+00  0.0000000000000D+00  0.0000000000000D+00
440  4.3900000000000D+00  0.0000000000000D+00  0.0000000000000D+00
441  4.4000000000000D+00  0.0000000000000D+00  0.0000000000000D+00
442  4.4100000000000D+00  0.0000000000000D+00  0.0000000000000D+00
443  4.4200000000000D+00  0.0000000000000D+00  0.0000000000000D+00