Ta    ONCVPSP-3.3.0  r_core=   1.71294   1.71294   1.71294   2.25368
73.0000     13.0000      180420    zatom,zion,pspd
8      11   3     4   600     0    pspcod,pspxc,lmax,lloc,mmax,r2well
5.99000000  5.00000000  0.00000000    rchrg fchrg qchrg
2     4     4     4    nproj
3     1           extension_switch
4     4     4    nprojso
0                         1.4003178736630D+00  1.1076550965676D+01
1  0.0000000000000D+00  5.7495219696335D-10 -2.3412050076388D-10
2  1.0000000000000D-02 -2.0780726238371D-02  6.3830631817969D-02
3  2.0000000000000D-02 -4.1387442560303D-02  1.2751990247540D-01
4  3.0000000000000D-02 -6.1647544716191D-02  1.9092711859441D-01
5  4.0000000000000D-02 -8.1391225693547D-02  2.5391291655179D-01
6  5.0000000000000D-02 -1.0045283924169D-01  3.1633991288991D-01
7  6.0000000000000D-02 -1.1867222169520D-01  3.7807333753536D-01
8  7.0000000000000D-02 -1.3589595887717D-01  4.3898164437217D-01
9  8.0000000000000D-02 -1.5197858543790D-01  4.9893709395040D-01
10  9.0000000000000D-02 -1.6678370469299D-01  5.5781630339902D-01
11  1.0000000000000D-01 -1.8018501785747D-01  6.1550075895145D-01
12  1.1000000000000D-01 -1.9206725252304D-01  6.7187728687847D-01
13  1.2000000000000D-01 -2.0232698128289D-01  7.2683847905372D-01
14  1.3000000000000D-01 -2.1087332256259D-01  7.8028306984653D-01
15  1.4000000000000D-01 -2.1762851695367D-01  8.3211626154016D-01
16  1.5000000000000D-01 -2.2252837365753D-01  8.8224999600673D-01
17  1.6000000000000D-01 -2.2552258301544D-01  9.3060317092599D-01
18  1.7000000000000D-01 -2.2657489251418D-01  9.7710179940950D-01
19  1.8000000000000D-01 -2.2566314509914D-01  1.0216791124773D+00
20  1.9000000000000D-01 -2.2277918008457D-01  1.0642756044262D+00
21  2.0000000000000D-01 -2.1792859840749D-01  1.1048390217180D+00
22  2.1000000000000D-01 -2.1113039541340D-01  1.1433242966040D+00
23  2.2000000000000D-01 -2.0241646577222D-01  1.1796934272671D+00
24  2.3000000000000D-01 -1.9183098648806D-01  1.2139153068224D+00
25  2.4000000000000D-01 -1.7942968527106D-01  1.2459655040370D+00
26  2.5000000000000D-01 -1.6527900277034D-01  1.2758259991327D+00
27  2.6000000000000D-01 -1.4945515831049D-01  1.3034848784916D+00
28  2.7000000000000D-01 -1.3204312981794D-01  1.3289359925055D+00
29  2.8000000000000D-01 -1.1313555955600D-01  1.3521785811858D+00
30  2.9000000000000D-01 -9.2831598098995D-02  1.3732168724714D+00
31  3.0000000000000D-01 -7.1235699656115D-02  1.3920596584451D+00
32  3.1000000000000D-01 -4.8456382398072D-02  1.4087198548826D+00
33  3.2000000000000D-01 -2.4604967836763D-02  1.4232140497127D+00
34  3.3000000000000D-01  2.0568644470574D-04  1.4355620460590D+00
35  3.4000000000000D-01  2.5862446320255D-02  1.4457864055689D+00
36  3.5000000000000D-01  5.2253138578022D-02  1.4539119976968D+00
37  3.6000000000000D-01  7.9267752194028D-02  1.4599655605185D+00
38  3.7000000000000D-01  1.0679958968227D-01  1.4639752784925D+00
39  3.8000000000000D-01  1.3474635530406D-01  1.4659703823627D+00
40  3.9000000000000D-01  1.6301116759034D-01  1.4659807761218D+00
41  4.0000000000000D-01  1.9150348444168D-01  1.4640366956140D+00
42  4.1000000000000D-01  2.2013993001600D-01  1.4601684029681D+00
43  4.2000000000000D-01  2.4884501368259D-01  1.4544059206118D+00
44  4.3000000000000D-01  2.7755173250491D-01  1.4467788081328D+00
45  4.4000000000000D-01  3.0620204999890D-01  1.4373159847257D+00
46  4.5000000000000D-01  3.3474724528890D-01  1.4260455994036D+00
47  4.6000000000000D-01  3.6314812823304D-01  1.4129949505621D+00
48  4.7000000000000D-01  3.9137511759973D-01  1.3981904558704D+00
49  4.8000000000000D-01  4.1940818093315D-01  1.3816576728322D+00
50  4.9000000000000D-01  4.4723663632824D-01  1.3634213697210D+00
51  5.0000000000000D-01  4.7485881793240D-01  1.3435056459489D+00
52  5.1000000000000D-01  5.0228160858057D-01  1.3219341002895D+00
53  5.2000000000000D-01  5.2951984453878D-01  1.2987300447464D+00
54  5.3000000000000D-01  5.5659559885942D-01  1.2739167612484D+00
55  5.4000000000000D-01  5.8353735132461D-01  1.2475177977680D+00
56  5.5000000000000D-01  6.1037905435129D-01  1.2195572999041D+00
57  5.6000000000000D-01  6.3715910554498D-01  1.1900603734557D+00
58  5.7000000000000D-01  6.6391923879362D-01  1.1590534730426D+00
59  5.8000000000000D-01  6.9070334688330D-01  1.1265648114053D+00
60  5.9000000000000D-01  7.1755624957474D-01  1.0926247836546D+00
61  6.0000000000000D-01  7.4452242189482D-01  1.0572664004317D+00
62  6.1000000000000D-01  7.7164469805802D-01  1.0205257237025D+00
63  6.2000000000000D-01  7.9896296693301D-01  9.8244229873284D-01
64  6.3000000000000D-01  8.2651287529744D-01  9.4305957569175D-01
65  6.4000000000000D-01  8.5432455527933D-01  9.0242531429943D-01
66  6.5000000000000D-01  8.8242139235667D-01  8.6059196498124D-01
67  6.6000000000000D-01  9.1081885008150D-01  8.1761702010940D-01
68  6.7000000000000D-01  9.3952336730573D-01  7.7356332910902D-01
69  6.8000000000000D-01  9.6853134311772D-01  7.2849937147392D-01
70  6.9000000000000D-01  9.9782822395845D-01  6.8249948207724D-01
71  7.0000000000000D-01  1.0273877064680D+00  6.3564402357432D-01
72  7.1000000000000D-01  1.0571710685408D+00  5.8801950116992D-01
73  7.2000000000000D-01  1.0871266398344D+00  5.3971861556263D-01
74  7.3000000000000D-01  1.1171894216133D+00  4.9084025047190D-01
75  7.4000000000000D-01  1.1472808642992D+00  4.4148939180468D-01
76  7.5000000000000D-01  1.1773088094890D+00  3.9177697620915D-01
77  7.6000000000000D-01  1.2071676014880D+00  3.4181966749642D-01
78  7.7000000000000D-01  1.2367383716052D+00  2.9173956017422D-01
79  7.8000000000000D-01  1.2658894966023D+00  2.4166381012457D-01
80  7.9000000000000D-01  1.2944772307751D+00  1.9172419326141D-01
81  8.0000000000000D-01  1.3223465092242D+00  1.4205659381397D-01
82  8.1000000000000D-01  1.3493319179290D+00  9.2800424692884D-02
83  8.2000000000000D-01  1.3752588243230D+00  4.4097983196558D-02
84  8.3000000000000D-01  1.3999446601831D+00 -3.9062539036994D-03
85  8.4000000000000D-01  1.4232003468223D+00 -5.1066391105674D-02
86  8.5000000000000D-01  1.4448318508236D+00 -9.7235925232078D-02
87  8.6000000000000D-01  1.4646418569046D+00 -1.4226860061121D-01
88  8.7000000000000D-01  1.4824315429645D+00 -1.8601930156949D-01
89  8.8000000000000D-01  1.4980024409676D+00 -2.2834497485797D-01
90  8.9000000000000D-01  1.5111583660652D+00 -2.6910557413631D-01
91  9.0000000000000D-01  1.5217073952762D+00 -3.0816501821095D-01
92  9.1000000000000D-01  1.5294638761444D+00 -3.4539215437627D-01
93  9.2000000000000D-01  1.5342504450803D+00 -3.8066171794200D-01
94  9.3000000000000D-01  1.5359000345875D+00 -4.1385527885248D-01
95  9.4000000000000D-01  1.5342578482811D+00 -4.4486216621531D-01
96  9.5000000000000D-01  1.5291832825229D+00 -4.7358036156212D-01
97  9.6000000000000D-01  1.5205517736430D+00 -4.9991735176406D-01
98  9.7000000000000D-01  1.5082565500859D+00 -5.2379093271857D-01
99  9.8000000000000D-01  1.4922102694011D+00 -5.4512995521235D-01
100  9.9000000000000D-01  1.4723465208109D+00 -5.6387500474634D-01
101  1.0000000000000D+00  1.4486211750993D+00 -5.7997900757749D-01
102  1.0100000000000D+00  1.4210135648253D+00 -5.9340775580385D-01
103  1.0200000000000D+00  1.3895274792206D+00 -6.0414034492950D-01
104  1.0300000000000D+00  1.3541919597991D+00 -6.1216951809194D-01
105  1.0400000000000D+00  1.3150618844599D+00 -6.1750191191030D-01
106  1.0500000000000D+00  1.2722183297812D+00 -6.2015819975993D-01
107  1.0600000000000D+00  1.2257687032748D+00 -6.2017312918800D-01
108  1.0700000000000D+00  1.1758466396183D+00 -6.1759545116880D-01
109  1.0800000000000D+00  1.1226116569177D+00 -6.1248773978656D-01
110  1.0900000000000D+00  1.0662485717293D+00 -6.0492610209678D-01
111  1.1000000000000D+00  1.0069666736959D+00 -5.9499977884088D-01
112  1.1100000000000D+00  9.4499866326136D-01 -5.8281063781834D-01
113  1.1200000000000D+00  8.8059935812812D-01 -5.6847256267073D-01
114  1.1300000000000D+00  8.1404417663084D-01 -5.5211074091572D-01
115  1.1400000000000D+00  7.4562740859347D-01 -5.3386085609777D-01
116  1.1500000000000D+00  6.7566028645979D-01 -5.1386818987773D-01
117  1.1600000000000D+00  6.0446887148318D-01 -4.9228664073888D-01
118  1.1700000000000D+00  5.3239177193189D-01 -4.6927766691663D-01
119  1.1800000000000D+00  4.5977771224272D-01 -4.4500916200223D-01
120  1.1900000000000D+00  3.8698297373458D-01 -4.1965427238486D-01
121  1.2000000000000D+00  3.1436872863258D-01 -3.9339016618161D-01
122  1.2100000000000D+00  2.4229829114121D-01 -3.6639676414652D-01
123  1.2200000000000D+00  1.7113430999779D-01 -3.3885544333890D-01
124  1.2300000000000D+00  1.0123592774796D-01 -3.1094772467033D-01
125  1.2400000000000D+00  3.2955932855085D-02 -2.8285395581341D-01
126  1.2500000000000D+00 -3.3362068954305D-02 -2.5475200106504D-01
127  1.2600000000000D+00 -9.7386437863928D-02 -2.2681594968103D-01
128  1.2700000000000D+00 -1.5880021104345D-01 -1.9921485435036D-01
129  1.2800000000000D+00 -2.1730371594300D-01 -1.7211151105654D-01
130  1.2900000000000D+00 -2.7261706089600D-01 -1.4566129123611D-01
131  1.3000000000000D+00 -3.2448247802947D-01 -1.2001103717577D-01
132  1.3100000000000D+00 -3.7266649630398D-01 -9.5298030354655D-02
133  1.3200000000000D+00 -4.1696192302553D-01 -7.1649042215170D-02
134  1.3300000000000D+00 -4.5718961289865D-01 -4.9179476522902D-02
135  1.3400000000000D+00 -4.9320000844876D-01 -2.7992610413151D-02
136  1.3500000000000D+00 -5.2487443452195D-01 -8.1789417077915D-03
137  1.3600000000000D+00 -5.5212613298041D-01  1.0184351394772D-02
138  1.3700000000000D+00 -5.7490102901256D-01  2.7033834441246D-02
139  1.3800000000000D+00 -5.9317821633465D-01  4.2320119054365D-02
140  1.3900000000000D+00 -6.0697015880010D-01  5.6008042292883D-02
141  1.4000000000000D+00 -6.1632260457584D-01  6.8076721270876D-02
142  1.4100000000000D+00 -6.2131420963595D-01  7.8519481525790D-02
143  1.4200000000000D+00 -6.2205587844027D-01  8.7343662413907D-02
144  1.4300000000000D+00 -6.1868982106588D-01  9.4570299106933D-02
145  1.4400000000000D+00 -6.1138833915612D-01  1.0023368640580D-01
146  1.4500000000000D+00 -6.0035235066182D-01  1.0438082855679D-01
147  1.4600000000000D+00 -5.8580966364784D-01  1.0707077938473D-01
148  1.4700000000000D+00 -5.6801302168487D-01  1.0837388233048D-01
149  1.4800000000000D+00 -5.4723793089716D-01  1.0837091461962D-01
150  1.4900000000000D+00 -5.2378029714342D-01  1.0715214771501D-01
151  1.5000000000000D+00 -4.9795389030373D-01  1.0481633125296D-01
152  1.5100000000000D+00 -4.7008766287742D-01  1.0146961206684D-01
153  1.5200000000000D+00 -4.4052294875144D-01  9.7224399331135D-02
154  1.5300000000000D+00 -4.0961056775739D-01  9.2198186741257D-02
155  1.5400000000000D+00 -3.7770786729164D-01  8.6512345110108D-02
156  1.5500000000000D+00 -3.4517572722013D-01  8.0290896547947D-02
157  1.5600000000000D+00 -3.1237556523387D-01  7.3659285970951D-02
158  1.5700000000000D+00 -2.7966634605463D-01  6.6743152245346D-02
159  1.5800000000000D+00 -2.4740170719617D-01  5.9667144545026D-02
160  1.5900000000000D+00 -2.1592699128776D-01  5.2553701098493D-02
161  1.6000000000000D+00 -1.8557640574002D-01  4.5521881186141D-02
162  1.6100000000000D+00 -1.5667154926184D-01  3.8686734869014D-02
163  1.6200000000000D+00 -1.2951756421841D-01  3.2157742518849D-02
164  1.6300000000000D+00 -1.0439770946404D-01  2.6036645996215D-02
165  1.6400000000000D+00 -8.1568854142519D-02  2.0415614462882D-02
166  1.6500000000000D+00 -6.1256114077209D-02  1.5375062291123D-02
167  1.6600000000000D+00 -4.3662947071431D-02  1.0985803727030D-02
168  1.6700000000000D+00 -2.8915126477698D-02  7.2947643603085D-03
169  1.6800000000000D+00 -1.7072543745374D-02  4.3271073435781D-03
170  1.6900000000000D+00 -8.4141199295114D-03  2.1604662522462D-03
171  1.7000000000000D+00 -3.1348059477269D-03  8.4781858891510D-04
172  1.7100000000000D+00 -6.3689629103261D-04  2.2550831516867D-04
173  1.7200000000000D+00  1.2139431156865D-04  1.3536709095638D-05
174  1.7300000000000D+00  7.2344443926937D-05 -8.2323943392298D-06
175  1.7400000000000D+00 -6.1672835304282D-05  8.9260753140888D-06
176  1.7500000000000D+00 -3.8384803914599D-05  6.1355982196685D-06
177  1.7600000000000D+00  8.9605557506661D-06 -9.6633309034069D-07
178  1.7700000000000D+00  7.8420723517134D-06 -9.4858062463998D-07
179  1.7800000000000D+00  5.6500266651977D-07 -2.6633036948304D-07
180  1.7900000000000D+00  6.4778376688721D-07 -3.0535163850266D-07
181  1.8000000000000D+00  0.0000000000000D+00  0.0000000000000D+00
182  1.8100000000000D+00  0.0000000000000D+00  0.0000000000000D+00
183  1.8200000000000D+00  0.0000000000000D+00  0.0000000000000D+00
184  1.8300000000000D+00  0.0000000000000D+00  0.0000000000000D+00
185  1.8400000000000D+00  0.0000000000000D+00  0.0000000000000D+00
186  1.8500000000000D+00  0.0000000000000D+00  0.0000000000000D+00
187  1.8600000000000D+00  0.0000000000000D+00  0.0000000000000D+00
188  1.8700000000000D+00  0.0000000000000D+00  0.0000000000000D+00
189  1.8800000000000D+00  0.0000000000000D+00  0.0000000000000D+00
190  1.8900000000000D+00  0.0000000000000D+00  0.0000000000000D+00
191  1.9000000000000D+00  0.0000000000000D+00  0.0000000000000D+00
192  1.9100000000000D+00  0.0000000000000D+00  0.0000000000000D+00
193  1.9200000000000D+00  0.0000000000000D+00  0.0000000000000D+00
194  1.9300000000000D+00  0.0000000000000D+00  0.0000000000000D+00
195  1.9400000000000D+00  0.0000000000000D+00  0.0000000000000D+00
196  1.9500000000000D+00  0.0000000000000D+00  0.0000000000000D+00
197  1.9600000000000D+00  0.0000000000000D+00  0.0000000000000D+00
198  1.9700000000000D+00  0.0000000000000D+00  0.0000000000000D+00
199  1.9800000000000D+00  0.0000000000000D+00  0.0000000000000D+00
200  1.9900000000000D+00  0.0000000000000D+00  0.0000000000000D+00
201  2.0000000000000D+00  0.0000000000000D+00  0.0000000000000D+00
202  2.0100000000000D+00  0.0000000000000D+00  0.0000000000000D+00
203  2.0200000000000D+00  0.0000000000000D+00  0.0000000000000D+00
204  2.0300000000000D+00  0.0000000000000D+00  0.0000000000000D+00
205  2.0400000000000D+00  0.0000000000000D+00  0.0000000000000D+00
206  2.0500000000000D+00  0.0000000000000D+00  0.0000000000000D+00
207  2.0600000000000D+00  0.0000000000000D+00  0.0000000000000D+00
208  2.0700000000000D+00  0.0000000000000D+00  0.0000000000000D+00
209  2.0800000000000D+00  0.0000000000000D+00  0.0000000000000D+00
210  2.0900000000000D+00  0.0000000000000D+00  0.0000000000000D+00
211  2.1000000000000D+00  0.0000000000000D+00  0.0000000000000D+00
212  2.1100000000000D+00  0.0000000000000D+00  0.0000000000000D+00
213  2.1200000000000D+00  0.0000000000000D+00  0.0000000000000D+00
214  2.1300000000000D+00  0.0000000000000D+00  0.0000000000000D+00
215  2.1400000000000D+00  0.0000000000000D+00  0.0000000000000D+00
216  2.1500000000000D+00  0.0000000000000D+00  0.0000000000000D+00
217  2.1600000000000D+00  0.0000000000000D+00  0.0000000000000D+00
218  2.1700000000000D+00  0.0000000000000D+00  0.0000000000000D+00
219  2.1800000000000D+00  0.0000000000000D+00  0.0000000000000D+00
220  2.1900000000000D+00  0.0000000000000D+00  0.0000000000000D+00
221  2.2000000000000D+00  0.0000000000000D+00  0.0000000000000D+00
222  2.2100000000000D+00  0.0000000000000D+00  0.0000000000000D+00
223  2.2200000000000D+00  0.0000000000000D+00  0.0000000000000D+00
224  2.2300000000000D+00  0.0000000000000D+00  0.0000000000000D+00
225  2.2400000000000D+00  0.0000000000000D+00  0.0000000000000D+00
226  2.2500000000000D+00  0.0000000000000D+00  0.0000000000000D+00
227  2.2600000000000D+00  0.0000000000000D+00  0.0000000000000D+00
228  2.2700000000000D+00  0.0000000000000D+00  0.0000000000000D+00
229  2.2800000000000D+00  0.0000000000000D+00  0.0000000000000D+00
230  2.2900000000000D+00  0.0000000000000D+00  0.0000000000000D+00
231  2.3000000000000D+00  0.0000000000000D+00  0.0000000000000D+00
232  2.3100000000000D+00  0.0000000000000D+00  0.0000000000000D+00
233  2.3200000000000D+00  0.0000000000000D+00  0.0000000000000D+00
234  2.3300000000000D+00  0.0000000000000D+00  0.0000000000000D+00
235  2.3400000000000D+00  0.0000000000000D+00  0.0000000000000D+00
236  2.3500000000000D+00  0.0000000000000D+00  0.0000000000000D+00
237  2.3600000000000D+00  0.0000000000000D+00  0.0000000000000D+00
238  2.3700000000000D+00  0.0000000000000D+00  0.0000000000000D+00
239  2.3800000000000D+00  0.0000000000000D+00  0.0000000000000D+00
240  2.3900000000000D+00  0.0000000000000D+00  0.0000000000000D+00
241  2.4000000000000D+00  0.0000000000000D+00  0.0000000000000D+00
242  2.4100000000000D+00  0.0000000000000D+00  0.0000000000000D+00
243  2.4200000000000D+00  0.0000000000000D+00  0.0000000000000D+00
244  2.4300000000000D+00  0.0000000000000D+00  0.0000000000000D+00
245  2.4400000000000D+00  0.0000000000000D+00  0.0000000000000D+00
246  2.4500000000000D+00  0.0000000000000D+00  0.0000000000000D+00
247  2.4600000000000D+00  0.0000000000000D+00  0.0000000000000D+00
248  2.4700000000000D+00  0.0000000000000D+00  0.0000000000000D+00
249  2.4800000000000D+00  0.0000000000000D+00  0.0000000000000D+00
250  2.4900000000000D+00  0.0000000000000D+00  0.0000000000000D+00
251  2.5000000000000D+00  0.0000000000000D+00  0.0000000000000D+00
252  2.5100000000000D+00  0.0000000000000D+00  0.0000000000000D+00
253  2.5200000000000D+00  0.0000000000000D+00  0.0000000000000D+00
254  2.5300000000000D+00  0.0000000000000D+00  0.0000000000000D+00
255  2.5400000000000D+00  0.0000000000000D+00  0.0000000000000D+00
256  2.5500000000000D+00  0.0000000000000D+00  0.0000000000000D+00
257  2.5600000000000D+00  0.0000000000000D+00  0.0000000000000D+00
258  2.5700000000000D+00  0.0000000000000D+00  0.0000000000000D+00
259  2.5800000000000D+00  0.0000000000000D+00  0.0000000000000D+00
260  2.5900000000000D+00  0.0000000000000D+00  0.0000000000000D+00
261  2.6000000000000D+00  0.0000000000000D+00  0.0000000000000D+00
262  2.6100000000000D+00  0.0000000000000D+00  0.0000000000000D+00
263  2.6200000000000D+00  0.0000000000000D+00  0.0000000000000D+00
264  2.6300000000000D+00  0.0000000000000D+00  0.0000000000000D+00
265  2.6400000000000D+00  0.0000000000000D+00  0.0000000000000D+00
266  2.6500000000000D+00  0.0000000000000D+00  0.0000000000000D+00
267  2.6600000000000D+00  0.0000000000000D+00  0.0000000000000D+00
268  2.6700000000000D+00  0.0000000000000D+00  0.0000000000000D+00
269  2.6800000000000D+00  0.0000000000000D+00  0.0000000000000D+00
270  2.6900000000000D+00  0.0000000000000D+00  0.0000000000000D+00
271  2.7000000000000D+00  0.0000000000000D+00  0.0000000000000D+00
272  2.7100000000000D+00  0.0000000000000D+00  0.0000000000000D+00
273  2.7200000000000D+00  0.0000000000000D+00  0.0000000000000D+00
274  2.7300000000000D+00  0.0000000000000D+00  0.0000000000000D+00
275  2.7400000000000D+00  0.0000000000000D+00  0.0000000000000D+00
276  2.7500000000000D+00  0.0000000000000D+00  0.0000000000000D+00
277  2.7600000000000D+00  0.0000000000000D+00  0.0000000000000D+00
278  2.7700000000000D+00  0.0000000000000D+00  0.0000000000000D+00
279  2.7800000000000D+00  0.0000000000000D+00  0.0000000000000D+00
280  2.7900000000000D+00  0.0000000000000D+00  0.0000000000000D+00
281  2.8000000000000D+00  0.0000000000000D+00  0.0000000000000D+00
282  2.8100000000000D+00  0.0000000000000D+00  0.0000000000000D+00
283  2.8200000000000D+00  0.0000000000000D+00  0.0000000000000D+00
284  2.8300000000000D+00  0.0000000000000D+00  0.0000000000000D+00
285  2.8400000000000D+00  0.0000000000000D+00  0.0000000000000D+00
286  2.8500000000000D+00  0.0000000000000D+00  0.0000000000000D+00
287  2.8600000000000D+00  0.0000000000000D+00  0.0000000000000D+00
288  2.8700000000000D+00  0.0000000000000D+00  0.0000000000000D+00
289  2.8800000000000D+00  0.0000000000000D+00  0.0000000000000D+00
290  2.8900000000000D+00  0.0000000000000D+00  0.0000000000000D+00
291  2.9000000000000D+00  0.0000000000000D+00  0.0000000000000D+00
292  2.9100000000000D+00  0.0000000000000D+00  0.0000000000000D+00
293  2.9200000000000D+00  0.0000000000000D+00  0.0000000000000D+00
294  2.9300000000000D+00  0.0000000000000D+00  0.0000000000000D+00
295  2.9400000000000D+00  0.0000000000000D+00  0.0000000000000D+00
296  2.9500000000000D+00  0.0000000000000D+00  0.0000000000000D+00
297  2.9600000000000D+00  0.0000000000000D+00  0.0000000000000D+00
298  2.9700000000000D+00  0.0000000000000D+00  0.0000000000000D+00
299  2.9800000000000D+00  0.0000000000000D+00  0.0000000000000D+00
300  2.9900000000000D+00  0.0000000000000D+00  0.0000000000000D+00
301  3.0000000000000D+00  0.0000000000000D+00  0.0000000000000D+00
302  3.0100000000000D+00  0.0000000000000D+00  0.0000000000000D+00
303  3.0200000000000D+00  0.0000000000000D+00  0.0000000000000D+00
304  3.0300000000000D+00  0.0000000000000D+00  0.0000000000000D+00
305  3.0400000000000D+00  0.0000000000000D+00  0.0000000000000D+00
306  3.0500000000000D+00  0.0000000000000D+00  0.0000000000000D+00
307  3.0600000000000D+00  0.0000000000000D+00  0.0000000000000D+00
308  3.0700000000000D+00  0.0000000000000D+00  0.0000000000000D+00
309  3.0800000000000D+00  0.0000000000000D+00  0.0000000000000D+00
310  3.0900000000000D+00  0.0000000000000D+00  0.0000000000000D+00
311  3.1000000000000D+00  0.0000000000000D+00  0.0000000000000D+00
312  3.1100000000000D+00  0.0000000000000D+00  0.0000000000000D+00
313  3.1200000000000D+00  0.0000000000000D+00  0.0000000000000D+00
314  3.1300000000000D+00  0.0000000000000D+00  0.0000000000000D+00
315  3.1400000000000D+00  0.0000000000000D+00  0.0000000000000D+00
316  3.1500000000000D+00  0.0000000000000D+00  0.0000000000000D+00
317  3.1600000000000D+00  0.0000000000000D+00  0.0000000000000D+00
318  3.1700000000000D+00  0.0000000000000D+00  0.0000000000000D+00
319  3.1800000000000D+00  0.0000000000000D+00  0.0000000000000D+00
320  3.1900000000000D+00  0.0000000000000D+00  0.0000000000000D+00
321  3.2000000000000D+00  0.0000000000000D+00  0.0000000000000D+00
322  3.2100000000000D+00  0.0000000000000D+00  0.0000000000000D+00
323  3.2200000000000D+00  0.0000000000000D+00  0.0000000000000D+00
324  3.2300000000000D+00  0.0000000000000D+00  0.0000000000000D+00
325  3.2400000000000D+00  0.0000000000000D+00  0.0000000000000D+00
326  3.2500000000000D+00  0.0000000000000D+00  0.0000000000000D+00
327  3.2600000000000D+00  0.0000000000000D+00  0.0000000000000D+00
328  3.2700000000000D+00  0.0000000000000D+00  0.0000000000000D+00
329  3.2800000000000D+00  0.0000000000000D+00  0.0000000000000D+00
330  3.2900000000000D+00  0.0000000000000D+00  0.0000000000000D+00
331  3.3000000000000D+00  0.0000000000000D+00  0.0000000000000D+00
332  3.3100000000000D+00  0.0000000000000D+00  0.0000000000000D+00
333  3.3200000000000D+00  0.0000000000000D+00  0.0000000000000D+00
334  3.3300000000000D+00  0.0000000000000D+00  0.0000000000000D+00
335  3.3400000000000D+00  0.0000000000000D+00  0.0000000000000D+00
336  3.3500000000000D+00  0.0000000000000D+00  0.0000000000000D+00
337  3.3600000000000D+00  0.0000000000000D+00  0.0000000000000D+00
338  3.3700000000000D+00  0.0000000000000D+00  0.0000000000000D+00
339  3.3800000000000D+00  0.0000000000000D+00  0.0000000000000D+00
340  3.3900000000000D+00  0.0000000000000D+00  0.0000000000000D+00
341  3.4000000000000D+00  0.0000000000000D+00  0.0000000000000D+00
342  3.4100000000000D+00  0.0000000000000D+00  0.0000000000000D+00
343  3.4200000000000D+00  0.0000000000000D+00  0.0000000000000D+00
344  3.4300000000000D+00  0.0000000000000D+00  0.0000000000000D+00
345  3.4400000000000D+00  0.0000000000000D+00  0.0000000000000D+00
346  3.4500000000000D+00  0.0000000000000D+00  0.0000000000000D+00
347  3.4600000000000D+00  0.0000000000000D+00  0.0000000000000D+00
348  3.4700000000000D+00  0.0000000000000D+00  0.0000000000000D+00
349  3.4800000000000D+00  0.0000000000000D+00  0.0000000000000D+00
350  3.4900000000000D+00  0.0000000000000D+00  0.0000000000000D+00
351  3.5000000000000D+00  0.0000000000000D+00  0.0000000000000D+00
352  3.5100000000000D+00  0.0000000000000D+00  0.0000000000000D+00
353  3.5200000000000D+00  0.0000000000000D+00  0.0000000000000D+00
354  3.5300000000000D+00  0.0000000000000D+00  0.0000000000000D+00
355  3.5400000000000D+00  0.0000000000000D+00  0.0000000000000D+00
356  3.5500000000000D+00  0.0000000000000D+00  0.0000000000000D+00
357  3.5600000000000D+00  0.0000000000000D+00  0.0000000000000D+00
358  3.5700000000000D+00  0.0000000000000D+00  0.0000000000000D+00
359  3.5800000000000D+00  0.0000000000000D+00  0.0000000000000D+00
360  3.5900000000000D+00  0.0000000000000D+00  0.0000000000000D+00
361  3.6000000000000D+00  0.0000000000000D+00  0.0000000000000D+00
362  3.6100000000000D+00  0.0000000000000D+00  0.0000000000000D+00
363  3.6200000000000D+00  0.0000000000000D+00  0.0000000000000D+00
364  3.6300000000000D+00  0.0000000000000D+00  0.0000000000000D+00
365  3.6400000000000D+00  0.0000000000000D+00  0.0000000000000D+00
366  3.6500000000000D+00  0.0000000000000D+00  0.0000000000000D+00
367  3.6600000000000D+00  0.0000000000000D+00  0.0000000000000D+00
368  3.6700000000000D+00  0.0000000000000D+00  0.0000000000000D+00
369  3.6800000000000D+00  0.0000000000000D+00  0.0000000000000D+00
370  3.6900000000000D+00  0.0000000000000D+00  0.0000000000000D+00
371  3.7000000000000D+00  0.0000000000000D+00  0.0000000000000D+00
372  3.7100000000000D+00  0.0000000000000D+00  0.0000000000000D+00
373  3.7200000000000D+00  0.0000000000000D+00  0.0000000000000D+00
374  3.7300000000000D+00  0.0000000000000D+00  0.0000000000000D+00
375  3.7400000000000D+00  0.0000000000000D+00  0.0000000000000D+00
376  3.7500000000000D+00  0.0000000000000D+00  0.0000000000000D+00
377  3.7600000000000D+00  0.0000000000000D+00  0.0000000000000D+00
378  3.7700000000000D+00  0.0000000000000D+00  0.0000000000000D+00
379  3.7800000000000D+00  0.0000000000000D+00  0.0000000000000D+00
380  3.7900000000000D+00  0.0000000000000D+00  0.0000000000000D+00
381  3.8000000000000D+00  0.0000000000000D+00  0.0000000000000D+00
382  3.8100000000000D+00  0.0000000000000D+00  0.0000000000000D+00
383  3.8200000000000D+00  0.0000000000000D+00  0.0000000000000D+00
384  3.8300000000000D+00  0.0000000000000D+00  0.0000000000000D+00
385  3.8400000000000D+00  0.0000000000000D+00  0.0000000000000D+00
386  3.8500000000000D+00  0.0000000000000D+00  0.0000000000000D+00
387  3.8600000000000D+00  0.0000000000000D+00  0.0000000000000D+00
388  3.8700000000000D+00  0.0000000000000D+00  0.0000000000000D+00
389  3.8800000000000D+00  0.0000000000000D+00  0.0000000000000D+00
390  3.8900000000000D+00  0.0000000000000D+00  0.0000000000000D+00
391  3.9000000000000D+00  0.0000000000000D+00  0.0000000000000D+00
392  3.9100000000000D+00  0.0000000000000D+00  0.0000000000000D+00
393  3.9200000000000D+00  0.0000000000000D+00  0.0000000000000D+00
394  3.9300000000000D+00  0.0000000000000D+00  0.0000000000000D+00
395  3.9400000000000D+00  0.0000000000000D+00  0.0000000000000D+00
396  3.9500000000000D+00  0.0000000000000D+00  0.0000000000000D+00
397  3.9600000000000D+00  0.0000000000000D+00  0.0000000000000D+00
398  3.9700000000000D+00  0.0000000000000D+00  0.0000000000000D+00
399  3.9800000000000D+00  0.0000000000000D+00  0.0000000000000D+00
400  3.9900000000000D+00  0.0000000000000D+00  0.0000000000000D+00
401  4.0000000000000D+00  0.0000000000000D+00  0.0000000000000D+00
402  4.0100000000000D+00  0.0000000000000D+00  0.0000000000000D+00
403  4.0200000000000D+00  0.0000000000000D+00  0.0000000000000D+00
404  4.0300000000000D+00  0.0000000000000D+00  0.0000000000000D+00
405  4.0400000000000D+00  0.0000000000000D+00  0.0000000000000D+00
406  4.0500000000000D+00  0.0000000000000D+00  0.0000000000000D+00
407  4.0600000000000D+00  0.0000000000000D+00  0.0000000000000D+00
408  4.0700000000000D+00  0.0000000000000D+00  0.0000000000000D+00
409  4.0800000000000D+00  0.0000000000000D+00  0.0000000000000D+00
410  4.0900000000000D+00  0.0000000000000D+00  0.0000000000000D+00
411  4.1000000000000D+00  0.0000000000000D+00  0.0000000000000D+00
412  4.1100000000000D+00  0.0000000000000D+00  0.0000000000000D+00
413  4.1200000000000D+00  0.0000000000000D+00  0.0000000000000D+00
414  4.1300000000000D+00  0.0000000000000D+00  0.0000000000000D+00
415  4.1400000000000D+00  0.0000000000000D+00  0.0000000000000D+00
416  4.1500000000000D+00  0.0000000000000D+00  0.0000000000000D+00
417  4.1600000000000D+00  0.0000000000000D+00  0.0000000000000D+00
418  4.1700000000000D+00  0.0000000000000D+00  0.0000000000000D+00
419  4.1800000000000D+00  0.0000000000000D+00  0.0000000000000D+00
420  4.1900000000000D+00  0.0000000000000D+00  0.0000000000000D+00
421  4.2000000000000D+00  0.0000000000000D+00  0.0000000000000D+00
422  4.2100000000000D+00  0.0000000000000D+00  0.0000000000000D+00
423  4.2200000000000D+00  0.0000000000000D+00  0.0000000000000D+00
424  4.2300000000000D+00  0.0000000000000D+00  0.0000000000000D+00
425  4.2400000000000D+00  0.0000000000000D+00  0.0000000000000D+00
426  4.2500000000000D+00  0.0000000000000D+00  0.0000000000000D+00
427  4.2600000000000D+00  0.0000000000000D+00  0.0000000000000D+00
428  4.2700000000000D+00  0.0000000000000D+00  0.0000000000000D+00
429  4.2800000000000D+00  0.0000000000000D+00  0.0000000000000D+00
430  4.2900000000000D+00  0.0000000000000D+00  0.0000000000000D+00
431  4.3000000000000D+00  0.0000000000000D+00  0.0000000000000D+00
432  4.3100000000000D+00  0.0000000000000D+00  0.0000000000000D+00
433  4.3200000000000D+00  0.0000000000000D+00  0.0000000000000D+00
434  4.3300000000000D+00  0.0000000000000D+00  0.0000000000000D+00
435  4.3400000000000D+00  0.0000000000000D+00  0.0000000000000D+00
436  4.3500000000000D+00  0.0000000000000D+00  0.0000000000000D+00
437  4.3600000000000D+00  0.0000000000000D+00  0.0000000000000D+00
438  4.3700000000000D+00  0.0000000000000D+00  0.0000000000000D+00
439  4.3800000000000D+00  0.0000000000000D+00  0.0000000000000D+00
440  4.3900000000000D+00  0.0000000000000D+00  0.0000000000000D+00
441  4.4000000000000D+00  0.0000000000000D+00  0.0000000000000D+00
442  4.4100000000000D+00  0.0000000000000D+00  0.0000000000000D+00
443  4.4200000000000D+00  0.0000000000000D+00  0.0000000000000D+00