As    ONCVPSP-3.3.0  r_core=   1.83037   1.80867   2.40819
33.0000      5.0000      171103    zatom,zion,pspd
8   -1012   2     4   600     0    pspcod,pspxc,lmax,lloc,mmax,r2well
5.99000000  8.00000000  0.00000000    rchrg fchrg qchrg
2     2     2     0     0    nproj
1     1           extension_switch
0                         8.1846870758929D+00  9.1010803667786D-01
1  0.0000000000000D+00 -5.9476779057377D-10  1.1355482110176D-09
2  1.0000000000000D-02  4.0507367787727D-02 -2.8112182498859D-02
3  2.0000000000000D-02  8.0927556913800D-02 -5.6065931620126D-02
4  3.0000000000000D-02  1.2117428474688D-01 -8.3704583020100D-02
5  4.0000000000000D-02  1.6116304878754D-01 -1.1087498736175D-01
6  5.0000000000000D-02  2.0081198706587D-01 -1.3742921045808D-01
7  6.0000000000000D-02  2.4004270336477D-01 -1.6322616539995D-01
8  7.0000000000000D-02  2.7878104625123D-01 -1.8813315534637D-01
9  8.0000000000000D-02  3.1695783149280D-01 -2.1202730679067D-01
10  9.0000000000000D-02  3.5450949816580D-01 -2.3479687450954D-01
11  1.0000000000000D-01  3.9137868961692D-01 -2.5634240103432D-01
12  1.1000000000000D-01  4.2751475140993D-01 -2.7657771533822D-01
13  1.2000000000000D-01  4.6287413946214D-01 -2.9543075748287D-01
14  1.3000000000000D-01  4.9742073273740D-01 -3.1284421819064D-01
15  1.4000000000000D-01  5.3112604610004D-01 -3.2877598467555D-01
16  1.5000000000000D-01  5.6396934023056D-01 -3.4319938654758D-01
17  1.6000000000000D-01  5.9593762684430D-01 -3.5610323817147D-01
18  1.7000000000000D-01  6.2702556882025D-01 -3.6749167647938D-01
19  1.8000000000000D-01  6.5723527622338D-01 -3.7738379587541D-01
20  1.9000000000000D-01  6.8657600057104D-01 -3.8581308449545D-01
21  2.0000000000000D-01  7.1506373103657D-01 -3.9282666866540D-01
22  2.1000000000000D-01  7.4272069758322D-01 -3.9848437490221D-01
23  2.2000000000000D-01  7.6957478726255D-01 -4.0285762119469D-01
24  2.3000000000000D-01  7.9565888107835D-01 -4.0602815155300D-01
25  2.4000000000000D-01  8.2101011989388D-01 -4.0808662990040D-01
26  2.5000000000000D-01  8.4566910883414D-01 -4.0913111127037D-01
27  2.6000000000000D-01  8.6967907049226D-01 -4.0926540994297D-01
28  2.7000000000000D-01  8.9308495797973D-01 -4.0859738558513D-01
29  2.8000000000000D-01  9.1593253945338D-01 -4.0723716963023D-01
30  2.9000000000000D-01  9.3826746620078D-01 -4.0529535502990D-01
31  3.0000000000000D-01  9.6013433666276D-01 -4.0288117311991D-01
32  3.1000000000000D-01  9.8157576891380D-01 -4.0010068165678D-01
33  3.2000000000000D-01  1.0026314941045D+00 -3.9705498809491D-01
34  3.3000000000000D-01  1.0233374831954D+00 -3.9383853188502D-01
35  3.4000000000000D-01  1.0437251189799D+00 -3.9053744898573D-01
36  3.5000000000000D-01  1.0638204249072D+00 -3.8722804089731D-01
37  3.6000000000000D-01  1.0836433615829D+00 -3.8397536935836D-01
38  3.7000000000000D-01  1.1032072010482D+00 -3.8083199640735D-01
39  3.8000000000000D-01  1.1225179880326D+00 -3.7783688781697D-01
40  3.9000000000000D-01  1.1415740963423D+00 -3.7501449597855D-01
41  4.0000000000000D-01  1.1603658874099D+00 -3.7237403617283D-01
42  4.1000000000000D-01  1.1788754767947D+00 -3.6990896783213D-01
43  4.2000000000000D-01  1.1970766131055D+00 -3.6759668991056D-01
44  4.3000000000000D-01  1.2149346724378D+00 -3.6539845685871D-01
45  4.4000000000000D-01  1.2324067699860D+00 -3.6325951898189D-01
46  4.5000000000000D-01  1.2494419890300D+00 -3.6110948817798D-01
47  4.6000000000000D-01  1.2659817260220D+00 -3.5886292723561D-01
48  4.7000000000000D-01  1.2819601490292D+00 -3.5642015806222D-01
49  4.8000000000000D-01  1.2973047653438D+00 -3.5366828143645D-01
50  4.9000000000000D-01  1.3119370926645D+00 -3.5048239817609D-01
51  5.0000000000000D-01  1.3257734269128D+00 -3.4672701901575D-01
52  5.1000000000000D-01  1.3387256984719D+00 -3.4225764802705D-01
53  5.2000000000000D-01  1.3507024074649D+00 -3.3692252212245D-01
54  5.3000000000000D-01  1.3616096276119D+00 -3.3056448708914D-01
55  5.4000000000000D-01  1.3713520672638D+00 -3.2302298872932D-01
56  5.5000000000000D-01  1.3798341753866D+00 -3.1413615605936D-01
57  5.6000000000000D-01  1.3869612796047D+00 -3.0374295216955D-01
58  5.7000000000000D-01  1.3926407428899D+00 -2.9168536727855D-01
59  5.8000000000000D-01  1.3967831251253D+00 -2.7781062775470D-01
60  5.9000000000000D-01  1.3993033355822D+00 -2.6197339442549D-01
61  6.0000000000000D-01  1.4001217623257D+00 -2.4403792336638D-01
62  6.1000000000000D-01  1.3991653647115D+00 -2.2388016255514D-01
63  6.2000000000000D-01  1.3963687154558D+00 -2.0138975829238D-01
64  6.3000000000000D-01  1.3916749792447D+00 -1.7647194612908D-01
65  6.4000000000000D-01  1.3850368154951D+00 -1.4904930218335D-01
66  6.5000000000000D-01  1.3764171936814D+00 -1.1906333217571D-01
67  6.6000000000000D-01  1.3657901105926D+00 -8.6475877241935D-02
68  6.7000000000000D-01  1.3531411999618D+00 -5.1270317564566D-02
69  6.8000000000000D-01  1.3384682261212D+00 -1.3452557101986D-02
70  6.9000000000000D-01  1.3217814546467D+00  2.6948224865006D-02
71  7.0000000000000D-01  1.3031038943702D+00  6.9879067012890D-02
72  7.1000000000000D-01  1.2824714066088D+00  1.1526297295213D-01
73  7.2000000000000D-01  1.2599326790213D+00  1.6299891784436D-01
74  7.3000000000000D-01  1.2355490630714D+00  2.1296211761908D-01
75  7.4000000000000D-01  1.2093942756901D+00  2.6500456069554D-01
76  7.5000000000000D-01  1.1815539673358D+00  3.1895579904680D-01
77  7.6000000000000D-01  1.1521251602348D+00  3.7462399240618D-01
78  7.7000000000000D-01  1.1212155621436D+00  4.3179719642253D-01
79  7.8000000000000D-01  1.0889427624668D+00  4.9024488267869D-01
80  7.9000000000000D-01  1.0554333189855D+00  5.4971967572639D-01
81  8.0000000000000D-01  1.0208217447796D+00  6.0995928968833D-01
82  8.1000000000000D-01  9.8524940614835D-01  6.7068864457156D-01
83  8.2000000000000D-01  9.4886334342595D-01  7.3162214025533D-01
84  8.3000000000000D-01  9.1181502754974D-01  7.9246606418580D-01
85  8.4000000000000D-01  8.7425906604081D-01  8.5292110715597D-01
86  8.5000000000000D-01  8.3635187270537D-01  9.1268496019067D-01
87  8.6000000000000D-01  7.9825031583991D-01  9.7145496451274D-01
88  8.7000000000000D-01  7.6011036002341D-01  1.0289307858490D+00
89  8.8000000000000D-01  7.2208571670016D-01  1.0848170839552D+00
90  8.9000000000000D-01  6.8432651869364D-01  1.1388261482019D+00
91  9.0000000000000D-01  6.4697803354771D-01  1.1906804703677D+00
92  9.1000000000000D-01  6.1017943016649D-01  1.2401152264370D+00
93  9.2000000000000D-01  5.7406261262432D-01  1.2868806401779D+00
94  9.3000000000000D-01  5.3875113424877D-01  1.3307442025806D+00
95  9.4000000000000D-01  5.0435920415153D-01  1.3714927228518D+00
96  9.5000000000000D-01  4.7099079730512D-01  1.4089341885582D+00
97  9.6000000000000D-01  4.3873887805321D-01  1.4428994146768D+00
98  9.7000000000000D-01  4.0768474558985D-01  1.4732434637529D+00
99  9.8000000000000D-01  3.7789750854306D-01  1.4998468219107D+00
100  9.9000000000000D-01  3.4943369422493D-01  1.5226163183490D+00
101  1.0000000000000D+00  3.2233699653707D-01  1.5414857788577D+00
102  1.0100000000000D+00  2.9663816486763D-01  1.5564164069589D+00
103  1.0200000000000D+00  2.7235503463717D-01  1.5673968894134D+00
104  1.0300000000000D+00  2.4949269846622D-01  1.5744432260016D+00
105  1.0400000000000D+00  2.2804381522074D-01  1.5775982867323D+00
106  1.0500000000000D+00  2.0798905266724D-01  1.5769311025363D+00
107  1.0600000000000D+00  1.8929765770736D-01  1.5725358988750D+00
108  1.0700000000000D+00  1.7192814676853D-01  1.5645308843919D+00
109  1.0800000000000D+00  1.5582910745532D-01  1.5530568095993D+00
110  1.0900000000000D+00  1.4094010119648D-01  1.5382753132940D+00
111  1.1000000000000D+00  1.2719265559122D-01  1.5203670764499D+00
112  1.1100000000000D+00  1.1451133386754D-01  1.4995298059438D+00
113  1.1200000000000D+00  1.0281486814308D-01  1.4759760719814D+00
114  1.1300000000000D+00  9.2017342356329D-02  1.4499310248445D+00
115  1.1400000000000D+00  8.2029410248329D-02  1.4216300176662D+00
116  1.1500000000000D+00  7.2759533287969D-02  1.3913161631016D+00
117  1.1600000000000D+00  6.4115223299628D-02  1.3592378522285D+00
118  1.1700000000000D+00  5.6004274605976D-02  1.3256462641709D+00
119  1.1800000000000D+00  4.8335970533970D-02  1.2907928950400D+00
120  1.1900000000000D+00  4.1022249599820D-02  1.2549271342450D+00
121  1.2000000000000D+00  3.3978817267531D-02  1.2182939153510D+00
122  1.2100000000000D+00  2.7126189913131D-02  1.1811314675209D+00
123  1.2200000000000D+00  2.0390658241811D-02  1.1436691926396D+00
124  1.2300000000000D+00  1.3705158864675D-02  1.1061256908019D+00
125  1.2400000000000D+00  7.0100440220171D-03  1.0687069546514D+00
126  1.2500000000000D+00  2.5373977645996D-04  1.0316047525321D+00
127  1.2600000000000D+00 -6.6067142739354D-03  9.9499521571370D-01
128  1.2700000000000D+00 -1.3605249520737D-02  9.5903764280581D-01
129  1.2800000000000D+00 -2.0766482457812D-02  9.2387353381439D-01
130  1.2900000000000D+00 -2.8105560379860D-02  8.8962586035051D-01
131  1.3000000000000D+00 -3.5628139350579D-02  8.5639857608085D-01
132  1.3100000000000D+00 -4.3330495169158D-02  8.2427637165204D-01
133  1.3200000000000D+00 -5.1199763727162D-02  7.9332467045772D-01
134  1.3300000000000D+00 -5.9214306785199D-02  7.6358986086460D-01
135  1.3400000000000D+00 -6.7344198870804D-02  7.3509976000888D-01
136  1.3500000000000D+00 -7.5551826457417D-02  7.0786429580578D-01
137  1.3600000000000D+00 -8.3792591794165D-02  6.8187639600091D-01
138  1.3700000000000D+00 -9.2015711721929D-02  6.5711306938990D-01
139  1.3800000000000D+00 -1.0016509912762D-01  6.3353665903067D-01
140  1.3900000000000D+00 -1.0818031635285D-01  6.1109625055493D-01
141  1.4000000000000D+00 -1.1599758631683D-01  5.8972921175720D-01
142  1.4100000000000D+00 -1.2355084789728D-01  5.6936284084723D-01
143  1.4200000000000D+00 -1.3077284141202D-01  5.4991609978242D-01
144  1.4300000000000D+00 -1.3759620886806D-01  5.3130140588813D-01
145  1.4400000000000D+00 -1.4395459455698D-01  5.1342645734967D-01
146  1.4500000000000D+00 -1.4978373036508D-01  4.9619606506780D-01
147  1.4600000000000D+00 -1.5502249204095D-01  4.7951396662197D-01
148  1.4700000000000D+00 -1.5961391024952D-01  4.6328459410070D-01
149  1.4800000000000D+00 -1.6350612518354D-01  4.4741477495049D-01
150  1.4900000000000D+00 -1.6665326844833D-01  4.3181533734668D-01
151  1.5000000000000D+00 -1.6901626301814D-01  4.1640260235995D-01
152  1.5100000000000D+00 -1.7056352825806D-01  4.0109973949687D-01
153  1.5200000000000D+00 -1.7127158013923D-01  3.8583796685582D-01
154  1.5300000000000D+00 -1.7112552039428D-01  3.7055758343815D-01
155  1.5400000000000D+00 -1.7011940243316D-01  3.5520881101299D-01
156  1.5500000000000D+00 -1.6825647620524D-01  3.3975244668332D-01
157  1.5600000000000D+00 -1.6554929785743D-01  3.2416030085314D-01
158  1.5700000000000D+00 -1.6201971405968D-01  3.0841543709420D-01
159  1.5800000000000D+00 -1.5769870750930D-01  2.9251218288303D-01
160  1.5900000000000D+00 -1.5262614184386D-01  2.7645605846409D-01
161  1.6000000000000D+00 -1.4685026252341D-01  2.6026296180037D-01
162  1.6100000000000D+00 -1.4042722327184D-01  2.4395883625562D-01
163  1.6200000000000D+00 -1.3342070444466D-01  2.2758018698669D-01
164  1.6300000000000D+00 -1.2590138135917D-01  2.1117411595454D-01
165  1.6400000000000D+00 -1.1794639688782D-01  1.9479858718561D-01
166  1.6500000000000D+00 -1.0963857550633D-01  1.7852173397233D-01
167  1.6600000000000D+00 -1.0106538950698D-01  1.6242017754725D-01
168  1.6700000000000D+00 -9.2317946687089D-02  1.4657767599778D-01
169  1.6800000000000D+00 -8.3489919210573D-02  1.3108366541434D-01
170  1.6900000000000D+00 -7.4676414179126D-02  1.1603163589516D-01
171  1.7000000000000D+00 -6.5972821201542D-02  1.0151747803119D-01
172  1.7100000000000D+00 -5.7473643204962D-02  8.7637777250804D-02
173  1.7200000000000D+00 -4.9271326828391D-02  7.4488093641074D-02
174  1.7300000000000D+00 -4.1455109308272D-02  6.2161252778279D-02
175  1.7400000000000D+00 -3.4109893108912D-02  5.0745666284188D-02
176  1.7500000000000D+00 -2.7315166514950D-02  4.0323712113681D-02
177  1.7600000000000D+00 -2.1143980045497D-02  3.0970190904778D-02
178  1.7700000000000D+00 -1.5664049885476D-02  2.2753532268311D-02
179  1.7800000000000D+00 -1.0930300878524D-02  1.5725988882983D-02
180  1.7900000000000D+00 -6.9781107693540D-03  9.9151956636638D-03
181  1.8000000000000D+00 -3.8557143056741D-03  5.3647235565179D-03
182  1.8100000000000D+00 -1.6445136010537D-03  2.1569504611556D-03
183  1.8200000000000D+00 -3.4708317122361D-04  2.7452710972403D-04
184  1.8300000000000D+00  2.0089702405590D-04 -4.9086838424092D-04
185  1.8400000000000D+00  2.2440931785277D-04 -4.3590079993539D-04
186  1.8500000000000D+00  4.2427173162546D-05 -7.8514057136166D-05
187  1.8600000000000D+00 -5.2586176722792D-05  9.5896815475563D-05
188  1.8700000000000D+00 -2.8612601179002D-05  5.1485738288608D-05
189  1.8800000000000D+00  8.3024650184482D-06 -1.5624153855358D-05
190  1.8900000000000D+00  8.6444474805163D-06 -1.6147526906382D-05
191  1.9000000000000D+00 -2.6783968699998D-07  6.4081581849688D-07
192  1.9100000000000D+00 -5.6888590098216D-07  1.3610794141543D-06
193  1.9200000000000D+00  0.0000000000000D+00  0.0000000000000D+00
194  1.9300000000000D+00  0.0000000000000D+00  0.0000000000000D+00
195  1.9400000000000D+00  0.0000000000000D+00  0.0000000000000D+00
196  1.9500000000000D+00  0.0000000000000D+00  0.0000000000000D+00
197  1.9600000000000D+00  0.0000000000000D+00  0.0000000000000D+00
198  1.9700000000000D+00  0.0000000000000D+00  0.0000000000000D+00
199  1.9800000000000D+00  0.0000000000000D+00  0.0000000000000D+00
200  1.9900000000000D+00  0.0000000000000D+00  0.0000000000000D+00
201  2.0000000000000D+00  0.0000000000000D+00  0.0000000000000D+00
202  2.0100000000000D+00  0.0000000000000D+00  0.0000000000000D+00
203  2.0200000000000D+00  0.0000000000000D+00  0.0000000000000D+00
204  2.0300000000000D+00  0.0000000000000D+00  0.0000000000000D+00
205  2.0400000000000D+00  0.0000000000000D+00  0.0000000000000D+00
206  2.0500000000000D+00  0.0000000000000D+00  0.0000000000000D+00
207  2.0600000000000D+00  0.0000000000000D+00  0.0000000000000D+00
208  2.0700000000000D+00  0.0000000000000D+00  0.0000000000000D+00
209  2.0800000000000D+00  0.0000000000000D+00  0.0000000000000D+00
210  2.0900000000000D+00  0.0000000000000D+00  0.0000000000000D+00
211  2.1000000000000D+00  0.0000000000000D+00  0.0000000000000D+00
212  2.1100000000000D+00  0.0000000000000D+00  0.0000000000000D+00
213  2.1200000000000D+00  0.0000000000000D+00  0.0000000000000D+00
214  2.1300000000000D+00  0.0000000000000D+00  0.0000000000000D+00
215  2.1400000000000D+00  0.0000000000000D+00  0.0000000000000D+00
216  2.1500000000000D+00  0.0000000000000D+00  0.0000000000000D+00
217  2.1600000000000D+00  0.0000000000000D+00  0.0000000000000D+00
218  2.1700000000000D+00  0.0000000000000D+00  0.0000000000000D+00
219  2.1800000000000D+00  0.0000000000000D+00  0.0000000000000D+00
220  2.1900000000000D+00  0.0000000000000D+00  0.0000000000000D+00
221  2.2000000000000D+00  0.0000000000000D+00  0.0000000000000D+00
222  2.2100000000000D+00  0.0000000000000D+00  0.0000000000000D+00
223  2.2200000000000D+00  0.0000000000000D+00  0.0000000000000D+00
224  2.2300000000000D+00  0.0000000000000D+00  0.0000000000000D+00
225  2.2400000000000D+00  0.0000000000000D+00  0.0000000000000D+00
226  2.2500000000000D+00  0.0000000000000D+00  0.0000000000000D+00
227  2.2600000000000D+00  0.0000000000000D+00  0.0000000000000D+00
228  2.2700000000000D+00  0.0000000000000D+00  0.0000000000000D+00
229  2.2800000000000D+00  0.0000000000000D+00  0.0000000000000D+00
230  2.2900000000000D+00  0.0000000000000D+00  0.0000000000000D+00
231  2.3000000000000D+00  0.0000000000000D+00  0.0000000000000D+00
232  2.3100000000000D+00  0.0000000000000D+00  0.0000000000000D+00
233  2.3200000000000D+00  0.0000000000000D+00  0.0000000000000D+00
234  2.3300000000000D+00  0.0000000000000D+00  0.0000000000000D+00
235  2.3400000000000D+00  0.0000000000000D+00  0.0000000000000D+00
236  2.3500000000000D+00  0.0000000000000D+00  0.0000000000000D+00
237  2.3600000000000D+00  0.0000000000000D+00  0.0000000000000D+00
238  2.3700000000000D+00  0.0000000000000D+00  0.0000000000000D+00
239  2.3800000000000D+00  0.0000000000000D+00  0.0000000000000D+00
240  2.3900000000000D+00  0.0000000000000D+00  0.0000000000000D+00
241  2.4000000000000D+00  0.0000000000000D+00  0.0000000000000D+00
242  2.4100000000000D+00  0.0000000000000D+00  0.0000000000000D+00
243  2.4200000000000D+00  0.0000000000000D+00  0.0000000000000D+00
244  2.4300000000000D+00  0.0000000000000D+00  0.0000000000000D+00
245  2.4400000000000D+00  0.0000000000000D+00  0.0000000000000D+00
246  2.4500000000000D+00  0.0000000000000D+00  0.0000000000000D+00
247  2.4600000000000D+00  0.0000000000000D+00  0.0000000000000D+00
248  2.4700000000000D+00  0.0000000000000D+00  0.0000000000000D+00
249  2.4800000000000D+00  0.0000000000000D+00  0.0000000000000D+00
250  2.4900000000000D+00  0.0000000000000D+00  0.0000000000000D+00
251  2.5000000000000D+00  0.0000000000000D+00  0.0000000000000D+00
252  2.5100000000000D+00  0.0000000000000D+00  0.0000000000000D+00
253  2.5200000000000D+00  0.0000000000000D+00  0.0000000000000D+00
254  2.5300000000000D+00  0.0000000000000D+00  0.0000000000000D+00
255  2.5400000000000D+00  0.0000000000000D+00  0.0000000000000D+00
256  2.5500000000000D+00  0.0000000000000D+00  0.0000000000000D+00
257  2.5600000000000D+00  0.0000000000000D+00  0.0000000000000D+00
258  2.5700000000000D+00  0.0000000000000D+00  0.0000000000000D+00
259  2.5800000000000D+00  0.0000000000000D+00  0.0000000000000D+00
260  2.5900000000000D+00  0.0000000000000D+00  0.0000000000000D+00
261  2.6000000000000D+00  0.0000000000000D+00  0.0000000000000D+00
262  2.6100000000000D+00  0.0000000000000D+00  0.0000000000000D+00
263  2.6200000000000D+00  0.0000000000000D+00  0.0000000000000D+00
264  2.6300000000000D+00  0.0000000000000D+00  0.0000000000000D+00
265  2.6400000000000D+00  0.0000000000000D+00  0.0000000000000D+00
266  2.6500000000000D+00  0.0000000000000D+00  0.0000000000000D+00
267  2.6600000000000D+00  0.0000000000000D+00  0.0000000000000D+00
268  2.6700000000000D+00  0.0000000000000D+00  0.0000000000000D+00
269  2.6800000000000D+00  0.0000000000000D+00  0.0000000000000D+00
270  2.6900000000000D+00  0.0000000000000D+00  0.0000000000000D+00
271  2.7000000000000D+00  0.0000000000000D+00  0.0000000000000D+00
272  2.7100000000000D+00  0.0000000000000D+00  0.0000000000000D+00
273  2.7200000000000D+00  0.0000000000000D+00  0.0000000000000D+00
274  2.7300000000000D+00  0.0000000000000D+00  0.0000000000000D+00
275  2.7400000000000D+00  0.0000000000000D+00  0.0000000000000D+00
276  2.7500000000000D+00  0.0000000000000D+00  0.0000000000000D+00
277  2.7600000000000D+00  0.0000000000000D+00  0.0000000000000D+00
278  2.7700000000000D+00  0.0000000000000D+00  0.0000000000000D+00
279  2.7800000000000D+00  0.0000000000000D+00  0.0000000000000D+00
280  2.7900000000000D+00  0.0000000000000D+00  0.0000000000000D+00
281  2.8000000000000D+00  0.0000000000000D+00  0.0000000000000D+00
282  2.8100000000000D+00  0.0000000000000D+00  0.0000000000000D+00
283  2.8200000000000D+00  0.0000000000000D+00  0.0000000000000D+00
284  2.8300000000000D+00  0.0000000000000D+00  0.0000000000000D+00
285  2.8400000000000D+00  0.0000000000000D+00  0.0000000000000D+00
286  2.8500000000000D+00  0.0000000000000D+00  0.0000000000000D+00
287  2.8600000000000D+00  0.0000000000000D+00  0.0000000000000D+00
288  2.8700000000000D+00  0.0000000000000D+00  0.0000000000000D+00
289  2.8800000000000D+00  0.0000000000000D+00  0.0000000000000D+00
290  2.8900000000000D+00  0.0000000000000D+00  0.0000000000000D+00
291  2.9000000000000D+00  0.0000000000000D+00  0.0000000000000D+00
292  2.9100000000000D+00  0.0000000000000D+00  0.0000000000000D+00
293  2.9200000000000D+00  0.0000000000000D+00  0.0000000000000D+00
294  2.9300000000000D+00  0.0000000000000D+00  0.0000000000000D+00
295  2.9400000000000D+00  0.0000000000000D+00  0.0000000000000D+00
296  2.9500000000000D+00  0.0000000000000D+00  0.0000000000000D+00
297  2.9600000000000D+00  0.0000000000000D+00  0.0000000000000D+00
298  2.9700000000000D+00  0.0000000000000D+00  0.0000000000000D+00
299  2.9800000000000D+00  0.0000000000000D+00  0.0000000000000D+00
300  2.9900000000000D+00  0.0000000000000D+00  0.0000000000000D+00
301  3.0000000000000D+00  0.0000000000000D+00  0.0000000000000D+00
302  3.0100000000000D+00  0.0000000000000D+00  0.0000000000000D+00
303  3.0200000000000D+00  0.0000000000000D+00  0.0000000000000D+00
304  3.0300000000000D+00  0.0000000000000D+00  0.0000000000000D+00
305  3.0400000000000D+00  0.0000000000000D+00  0.0000000000000D+00
306  3.0500000000000D+00  0.0000000000000D+00  0.0000000000000D+00
307  3.0600000000000D+00  0.0000000000000D+00  0.0000000000000D+00
308  3.0700000000000D+00  0.0000000000000D+00  0.0000000000000D+00
309  3.0800000000000D+00  0.0000000000000D+00  0.0000000000000D+00
310  3.0900000000000D+00  0.0000000000000D+00  0.0000000000000D+00
311  3.1000000000000D+00  0.0000000000000D+00  0.0000000000000D+00
312  3.1100000000000D+00  0.0000000000000D+00  0.0000000000000D+00
313  3.1200000000000D+00  0.0000000000000D+00  0.0000000000000D+00
314  3.1300000000000D+00  0.0000000000000D+00  0.0000000000000D+00
315  3.1400000000000D+00  0.0000000000000D+00  0.0000000000000D+00
316  3.1500000000000D+00  0.0000000000000D+00  0.0000000000000D+00
317  3.1600000000000D+00  0.0000000000000D+00  0.0000000000000D+00
318  3.1700000000000D+00  0.0000000000000D+00  0.0000000000000D+00
319  3.1800000000000D+00  0.0000000000000D+00  0.0000000000000D+00
320  3.1900000000000D+00  0.0000000000000D+00  0.0000000000000D+00
321  3.2000000000000D+00  0.0000000000000D+00  0.0000000000000D+00
322  3.2100000000000D+00  0.0000000000000D+00  0.0000000000000D+00
323  3.2200000000000D+00  0.0000000000000D+00  0.0000000000000D+00
324  3.2300000000000D+00  0.0000000000000D+00  0.0000000000000D+00
325  3.2400000000000D+00  0.0000000000000D+00  0.0000000000000D+00
326  3.2500000000000D+00  0.0000000000000D+00  0.0000000000000D+00
327  3.2600000000000D+00  0.0000000000000D+00  0.0000000000000D+00
328  3.2700000000000D+00  0.0000000000000D+00  0.0000000000000D+00
329  3.2800000000000D+00  0.0000000000000D+00  0.0000000000000D+00
330  3.2900000000000D+00  0.0000000000000D+00  0.0000000000000D+00
331  3.3000000000000D+00  0.0000000000000D+00  0.0000000000000D+00
332  3.3100000000000D+00  0.0000000000000D+00  0.0000000000000D+00
333  3.3200000000000D+00  0.0000000000000D+00  0.0000000000000D+00
334  3.3300000000000D+00  0.0000000000000D+00  0.0000000000000D+00
335  3.3400000000000D+00  0.0000000000000D+00  0.0000000000000D+00
336  3.3500000000000D+00  0.0000000000000D+00  0.0000000000000D+00
337  3.3600000000000D+00  0.0000000000000D+00  0.0000000000000D+00
338  3.3700000000000D+00  0.0000000000000D+00  0.0000000000000D+00
339  3.3800000000000D+00  0.0000000000000D+00  0.0000000000000D+00
340  3.3900000000000D+00  0.0000000000000D+00  0.0000000000000D+00
341  3.4000000000000D+00  0.0000000000000D+00  0.0000000000000D+00
342  3.4100000000000D+00  0.0000000000000D+00  0.0000000000000D+00
343  3.4200000000000D+00  0.0000000000000D+00  0.0000000000000D+00
344  3.4300000000000D+00  0.0000000000000D+00  0.0000000000000D+00
345  3.4400000000000D+00  0.0000000000000D+00  0.0000000000000D+00
346  3.4500000000000D+00  0.0000000000000D+00  0.0000000000000D+00
347  3.4600000000000D+00  0.0000000000000D+00  0.0000000000000D+00
348  3.4700000000000D+00  0.0000000000000D+00  0.0000000000000D+00
349  3.4800000000000D+00  0.0000000000000D+00  0.0000000000000D+00
350  3.4900000000000D+00  0.0000000000000D+00  0.0000000000000D+00
351  3.5000000000000D+00  0.0000000000000D+00  0.0000000000000D+00
352  3.5100000000000D+00  0.0000000000000D+00  0.0000000000000D+00
353  3.5200000000000D+00  0.0000000000000D+00  0.0000000000000D+00
354  3.5300000000000D+00  0.0000000000000D+00  0.0000000000000D+00
355  3.5400000000000D+00  0.0000000000000D+00  0.0000000000000D+00
356  3.5500000000000D+00  0.0000000000000D+00  0.0000000000000D+00
357  3.5600000000000D+00  0.0000000000000D+00  0.0000000000000D+00
358  3.5700000000000D+00  0.0000000000000D+00  0.0000000000000D+00
359  3.5800000000000D+00  0.0000000000000D+00  0.0000000000000D+00
360  3.5900000000000D+00  0.0000000000000D+00  0.0000000000000D+00
361  3.6000000000000D+00  0.0000000000000D+00  0.0000000000000D+00
362  3.6100000000000D+00  0.0000000000000D+00  0.0000000000000D+00
363  3.6200000000000D+00  0.0000000000000D+00  0.0000000000000D+00
364  3.6300000000000D+00  0.0000000000000D+00  0.0000000000000D+00
365  3.6400000000000D+00  0.0000000000000D+00  0.0000000000000D+00
366  3.6500000000000D+00  0.0000000000000D+00  0.0000000000000D+00
367  3.6600000000000D+00  0.0000000000000D+00  0.0000000000000D+00
368  3.6700000000000D+00  0.0000000000000D+00  0.0000000000000D+00
369  3.6800000000000D+00  0.0000000000000D+00  0.0000000000000D+00
370  3.6900000000000D+00  0.0000000000000D+00  0.0000000000000D+00
371  3.7000000000000D+00  0.0000000000000D+00  0.0000000000000D+00
372  3.7100000000000D+00  0.0000000000000D+00  0.0000000000000D+00
373  3.7200000000000D+00  0.0000000000000D+00  0.0000000000000D+00
374  3.7300000000000D+00  0.0000000000000D+00  0.0000000000000D+00
375  3.7400000000000D+00  0.0000000000000D+00  0.0000000000000D+00
376  3.7500000000000D+00  0.0000000000000D+00  0.0000000000000D+00
377  3.7600000000000D+00  0.0000000000000D+00  0.0000000000000D+00
378  3.7700000000000D+00  0.0000000000000D+00  0.0000000000000D+00
379  3.7800000000000D+00  0.0000000000000D+00  0.0000000000000D+00
380  3.7900000000000D+00  0.0000000000000D+00  0.0000000000000D+00
381  3.8000000000000D+00  0.0000000000000D+00  0.0000000000000D+00
382  3.8100000000000D+00  0.0000000000000D+00  0.0000000000000D+00
383  3.8200000000000D+00  0.0000000000000D+00  0.0000000000000D+00
384  3.8300000000000D+00  0.0000000000000D+00  0.0000000000000D+00
385  3.8400000000000D+00  0.0000000000000D+00  0.0000000000000D+00
386  3.8500000000000D+00  0.0000000000000D+00  0.0000000000000D+00
387  3.8600000000000D+00  0.0000000000000D+00  0.0000000000000D+00
388  3.8700000000000D+00  0.0000000000000D+00  0.0000000000000D+00
389  3.8800000000000D+00  0.0000000000000D+00  0.0000000000000D+00
390  3.8900000000000D+00  0.0000000000000D+00  0.0000000000000D+00
391  3.9000000000000D+00  0.0000000000000D+00  0.0000000000000D+00
392  3.9100000000000D+00  0.0000000000000D+00  0.0000000000000D+00
393  3.9200000000000D+00  0.0000000000000D+00  0.0000000000000D+00
394  3.9300000000000D+00  0.0000000000000D+00  0.0000000000000D+00
395  3.9400000000000D+00  0.0000000000000D+00  0.0000000000000D+00
396  3.9500000000000D+00  0.0000000000000D+00  0.0000000000000D+00
397  3.9600000000000D+00  0.0000000000000D+00  0.0000000000000D+00
398  3.9700000000000D+00  0.0000000000000D+00  0.0000000000000D+00
399  3.9800000000000D+00  0.0000000000000D+00  0.0000000000000D+00
400  3.9900000000000D+00  0.0000000000000D+00  0.0000000000000D+00
401  4.0000000000000D+00  0.0000000000000D+00  0.0000000000000D+00
402  4.0100000000000D+00  0.0000000000000D+00  0.0000000000000D+00
403  4.0200000000000D+00  0.0000000000000D+00  0.0000000000000D+00
404  4.0300000000000D+00  0.0000000000000D+00  0.0000000000000D+00
405  4.0400000000000D+00  0.0000000000000D+00  0.0000000000000D+00
406  4.0500000000000D+00  0.0000000000000D+00  0.0000000000000D+00
407  4.0600000000000D+00  0.0000000000000D+00  0.0000000000000D+00
408  4.0700000000000D+00  0.0000000000000D+00  0.0000000000000D+00
409  4.0800000000000D+00  0.0000000000000D+00  0.0000000000000D+00
410  4.0900000000000D+00  0.0000000000000D+00  0.0000000000000D+00
411  4.1000000000000D+00  0.0000000000000D+00  0.0000000000000D+00
412  4.1100000000000D+00  0.0000000000000D+00  0.0000000000000D+00
413  4.1200000000000D+00  0.0000000000000D+00  0.0000000000000D+00
414  4.1300000000000D+00  0.0000000000000D+00  0.0000000000000D+00
415  4.1400000000000D+00  0.0000000000000D+00  0.0000000000000D+00
416  4.1500000000000D+00  0.0000000000000D+00  0.0000000000000D+00
417  4.1600000000000D+00  0.0000000000000D+00  0.0000000000000D+00
418  4.1700000000000D+00  0.0000000000000D+00  0.0000000000000D+00
419  4.1800000000000D+00  0.0000000000000D+00  0.0000000000000D+00
420  4.1900000000000D+00  0.0000000000000D+00  0.0000000000000D+00
421  4.2000000000000D+00  0.0000000000000D+00  0.0000000000000D+00
422  4.2100000000000D+00  0.0000000000000D+00  0.0000000000000D+00
423  4.2200000000000D+00  0.0000000000000D+00  0.0000000000000D+00
424  4.2300000000000D+00  0.0000000000000D+00  0.0000000000000D+00
425  4.2400000000000D+00  0.0000000000000D+00  0.0000000000000D+00
426  4.2500000000000D+00  0.0000000000000D+00  0.0000000000000D+00
427  4.2600000000000D+00  0.0000000000000D+00  0.0000000000000D+00
428  4.2700000000000D+00  0.0000000000000D+00  0.0000000000000D+00
429  4.2800000000000D+00  0.0000000000000D+00  0.0000000000000D+00
430  4.2900000000000D+00  0.0000000000000D+00  0.0000000000000D+00
431  4.3000000000000D+00  0.0000000000000D+00  0.0000000000000D+00
432  4.3100000000000D+00  0.0000000000000D+00  0.0000000000000D+00
433  4.3200000000000D+00  0.0000000000000D+00  0.0000000000000D+00
434  4.3300000000000D+00  0.0000000000000D+00  0.0000000000000D+00
435  4.3400000000000D+00  0.0000000000000D+00  0.0000000000000D+00
436  4.3500000000000D+00  0.0000000000000D+00  0.0000000000000D+00
437  4.3600000000000D+00  0.0000000000000D+00  0.0000000000000D+00
438  4.3700000000000D+00  0.0000000000000D+00  0.0000000000000D+00
439  4.3800000000000D+00  0.0000000000000D+00  0.0000000000000D+00
440  4.3900000000000D+00  0.0000000000000D+00  0.0000000000000D+00
441  4.4000000000000D+00  0.0000000000000D+00  0.0000000000000D+00
442  4.4100000000000D+00  0.0000000000000D+00  0.0000000000000D+00
443  4.4200000000000D+00  0.0000000000000D+00  0.0000000000000D+00