As    ONCVPSP-3.3.0  r_core=   1.80867   1.60529   1.80867
33.0000     15.0000      171103    zatom,zion,pspd
8   -1012   2     4   600     0    pspcod,pspxc,lmax,lloc,mmax,r2well
5.99000000  5.00000000  0.00000000    rchrg fchrg qchrg
2     2     2     0     0    nproj
1     1           extension_switch
0                         7.5962430272900D+00  8.5680799276798D-01
1  0.0000000000000D+00  1.4342138587864D-11 -6.8321416232808D-11
2  1.0000000000000D-02  2.7979742191533D-02  1.8314457915997D-03
3  2.0000000000000D-02  5.5968710838953D-02  3.5856392926493D-03
4  3.0000000000000D-02  8.3975979824252D-02  5.1859049056995D-03
5  4.0000000000000D-02  1.1201031868019D-01  6.5567171125576D-03
6  5.0000000000000D-02  1.4008004240839D-01  7.6242672638512D-03
7  6.0000000000000D-02  1.6819286367860D-01  8.3170205168470D-03
8  7.0000000000000D-02  1.9635574818595D-01  8.5662597179376D-03
9  8.0000000000000D-02  2.2457477392869D-01  8.3066130945300D-03
10  9.0000000000000D-02  2.5285499515110D-01  7.4765627059287D-03
11  1.0000000000000D-01  2.8120031167504D-01  6.0189307036466D-03
12  1.1000000000000D-01  3.0961334431898D-01  3.8813405681067D-03
13  1.2000000000000D-01  3.3809531707560D-01  1.0166506200926D-03
14  1.3000000000000D-01  3.6664594668834D-01 -2.6166427486922D-03
15  1.4000000000000D-01  3.9526334023315D-01 -7.0540345221329D-03
16  1.5000000000000D-01  4.2394390127544D-01 -1.2324675406971D-02
17  1.6000000000000D-01  4.5268224513245D-01 -1.8451073119904D-02
18  1.7000000000000D-01  4.8147112372988D-01 -2.5448832457992D-02
19  1.8000000000000D-01  5.1030136049704D-01 -3.3326435789773D-02
20  1.9000000000000D-01  5.3916179569886D-01 -4.2085065389525D-02
21  2.0000000000000D-01  5.6803924255456D-01 -5.1718468813647D-02
22  2.1000000000000D-01  5.9691845444296D-01 -6.2212868287961D-02
23  2.2000000000000D-01  6.2578210344290D-01 -7.3546914838490D-02
24  2.3000000000000D-01  6.5461077040429D-01 -8.5691687657330D-02
25  2.4000000000000D-01  6.8338294669175D-01 -9.8610738950912D-02
26  2.5000000000000D-01  7.1207504768773D-01 -1.1226018427116D-01
27  2.6000000000000D-01  7.4066143808692D-01 -1.2658883808265D-01
28  2.7000000000000D-01  7.6911446895819D-01 -1.4153839407108D-01
29  2.8000000000000D-01  7.9740452649420D-01 -1.5704364945302D-01
30  2.9000000000000D-01  8.2550009231379D-01 -1.7303277230362D-01
31  3.0000000000000D-01  8.5336781512632D-01 -1.8942761067987D-01
32  3.1000000000000D-01  8.8097259351332D-01 -2.0614404208410D-01
33  3.2000000000000D-01  9.0827766952864D-01 -2.2309236158470D-01
34  3.3000000000000D-01  9.3524473276596D-01 -2.4017770669258D-01
35  3.4000000000000D-01  9.6183403449141D-01 -2.5730051688144D-01
36  3.5000000000000D-01  9.8800451138950D-01 -2.7435702544031D-01
37  3.6000000000000D-01  1.0137139184229D+00 -2.9123978115792D-01
38  3.7000000000000D-01  1.0389189702613D+00 -3.0783819716257D-01
39  3.8000000000000D-01  1.0635754906907D+00 -3.2403912407807D-01
40  3.9000000000000D-01  1.0876385693744D+00 -3.3972744450791D-01
41  4.0000000000000D-01  1.1110627252992D+00 -3.5478668572634D-01
42  4.1000000000000D-01  1.1338020762034D+00 -3.6909964733807D-01
43  4.2000000000000D-01  1.1558105132541D+00 -3.8254904056720D-01
44  4.3000000000000D-01  1.1770418802099D+00 -3.9501813575337D-01
45  4.4000000000000D-01  1.1974501562799D+00 -4.0639141456758D-01
46  4.5000000000000D-01  1.2169896418716D+00 -4.1655522341361D-01
47  4.6000000000000D-01  1.2356151463959D+00 -4.2539842445293D-01
48  4.7000000000000D-01  1.2532821772888D+00 -4.3281304068223D-01
49  4.8000000000000D-01  1.2699471293957D+00 -4.3869489150358D-01
50  4.9000000000000D-01  1.2855674738578D+00 -4.4294421525646D-01
51  5.0000000000000D-01  1.3001019456383D+00 -4.4546627523110D-01
52  5.1000000000000D-01  1.3135107288268D+00 -4.4617194575025D-01
53  5.2000000000000D-01  1.3257556388658D+00 -4.4497827499490D-01
54  5.3000000000000D-01  1.3368003008516D+00 -4.4180902135518D-01
55  5.4000000000000D-01  1.3466103230775D+00 -4.3659516021214D-01
56  5.5000000000000D-01  1.3551534650011D+00 -4.2927535819910D-01
57  5.6000000000000D-01  1.3623997988429D+00 -4.1979641214909D-01
58  5.7000000000000D-01  1.3683218640426D+00 -4.0811365011210D-01
59  5.8000000000000D-01  1.3728948138351D+00 -3.9419129201516D-01
60  5.9000000000000D-01  1.3760965532334D+00 -3.7800276774510D-01
61  6.0000000000000D-01  1.3779078677469D+00 -3.5953099065164D-01
62  6.1000000000000D-01  1.3783125421990D+00 -3.3876858470059D-01
63  6.2000000000000D-01  1.3772974690513D+00 -3.1571806374835D-01
64  6.3000000000000D-01  1.3748527456860D+00 -2.9039196166230D-01
65  6.4000000000000D-01  1.3709717601479D+00 -2.6281291227077D-01
66  6.5000000000000D-01  1.3656512648926D+00 -2.3301367839599D-01
67  6.6000000000000D-01  1.3588914381468D+00 -2.0103712949512D-01
68  6.7000000000000D-01  1.3506959325344D+00 -1.6693616771332D-01
69  6.8000000000000D-01  1.3410719106824D+00 -1.3077360243209D-01
70  6.9000000000000D-01  1.3300300675778D+00 -9.2621973678014D-02
71  7.0000000000000D-01  1.3175846395029D+00 -5.2563325037813D-02
72  7.1000000000000D-01  1.3037533994396D+00 -1.0688927002642D-02
73  7.2000000000000D-01  1.2885576388917D+00  3.2901048058795D-02
74  7.3000000000000D-01  1.2720221361359D+00  7.8097897830420D-02
75  7.4000000000000D-01  1.2541751109712D+00  1.2478480715216D-01
76  7.5000000000000D-01  1.2350481661003D+00  1.7283730831170D-01
77  7.6000000000000D-01  1.2146762153332D+00  2.2212378229694D-01
78  7.7000000000000D-01  1.1930973988640D+00  2.7250599854805D-01
79  7.8000000000000D-01  1.1703529859302D+00  3.2383969052926D-01
80  7.9000000000000D-01  1.1464872652195D+00  3.7597516423458D-01
81  8.0000000000000D-01  1.1215474234436D+00  4.2875793655225D-01
82  8.1000000000000D-01  1.0955834125540D+00  4.8202940023945D-01
83  8.2000000000000D-01  1.0686478061213D+00  5.3562751210315D-01
84  8.3000000000000D-01  1.0407956454512D+00  5.8938750084688D-01
85  8.4000000000000D-01  1.0120842760548D+00  6.4314259092573D-01
86  8.5000000000000D-01  9.8257317513162D-01  6.9672473865544D-01
87  8.6000000000000D-01  9.5232377076579D-01  7.4996537674647D-01
88  8.7000000000000D-01  9.2139925356963D-01  8.0269616337939D-01
89  8.8000000000000D-01  8.8986438154260D-01  8.5474973190669D-01
90  8.9000000000000D-01  8.5778527894144D-01  9.0596043725641D-01
91  9.0000000000000D-01  8.2522922998303D-01  9.5616509512602D-01
92  9.1000000000000D-01  7.9226446822187D-01  1.0052037100902D+00
93  9.2000000000000D-01  7.5895996246165D-01  1.0529201888045D+00
94  9.3000000000000D-01  7.2538520007272D-01  1.0991630345650D+00
95  9.4000000000000D-01  6.9160996859660D-01  1.1437860195888D+00
96  9.5000000000000D-01  6.5770413652281D-01  1.1866488314979D+00
97  9.6000000000000D-01  6.2373743412410D-01  1.2276176906360D+00
98  9.7000000000000D-01  5.8977923523206D-01  1.2665659350098D+00
99  9.8000000000000D-01  5.5589834082780D-01  1.3033745698238D+00
100  9.9000000000000D-01  5.2216276531010D-01  1.3379327787798D+00
101  1.0000000000000D+00  4.8863952628780D-01  1.3701383945278D+00
102  1.0100000000000D+00  4.5539443872347D-01  1.3998983258829D+00
103  1.0200000000000D+00  4.2249191423216D-01  1.4271289396674D+00
104  1.0300000000000D+00  3.8999476631216D-01  1.4517563952942D+00
105  1.0400000000000D+00  3.5796402225302D-01  1.4737169304806D+00
106  1.0500000000000D+00  3.2645874243584D-01  1.4929570967374D+00
107  1.0600000000000D+00  2.9553584769995D-01  1.5094339435898D+00
108  1.0700000000000D+00  2.6524995541374D-01  1.5231151507560D+00
109  1.0800000000000D+00  2.3565322484470D-01  1.5339791078061D+00
110  1.0900000000000D+00  2.0679521237622D-01  1.5420149411376D+00
111  1.1000000000000D+00  1.7872273708073D-01  1.5472224883507D+00
112  1.1100000000000D+00  1.5147975709967D-01  1.5496122204627D+00
113  1.1200000000000D+00  1.2510725723917D-01  1.5492051126448D+00
114  1.1300000000000D+00  9.9643148132402D-02  1.5460324644835D+00
115  1.1400000000000D+00  7.5122177276868D-02  1.5401356710011D+00
116  1.1500000000000D+00  5.1575852193008D-02  1.5315659459858D+00
117  1.1600000000000D+00  2.9032375901518D-02  1.5203839994171D+00
118  1.1700000000000D+00  7.5165948574168D-03  1.5066596710440D+00
119  1.1800000000000D+00 -1.2950040558152D-02  1.4904715223378D+00
120  1.1900000000000D+00 -3.2349502960682D-02  1.4719063893513D+00
121  1.2000000000000D+00 -5.0667202314080D-02  1.4510588991642D+00
122  1.2100000000000D+00 -6.7891987778205D-02  1.4280309527868D+00
123  1.2200000000000D+00 -8.4016137161863D-02  1.4029311775423D+00
124  1.2300000000000D+00 -9.9035334156329D-02  1.3758743521444D+00
125  1.2400000000000D+00 -1.1294863356623D-01  1.3469808077733D+00
126  1.2500000000000D+00 -1.2575841477615D-01  1.3163758085306D+00
127  1.2600000000000D+00 -1.3747032377395D-01  1.2841889148138D+00
128  1.2700000000000D+00 -1.4809320407393D-01  1.2505533331389D+00
129  1.2800000000000D+00 -1.5763901690128D-01  1.2156052559984D+00
130  1.2900000000000D+00 -1.6612275107423D-01  1.1794831953855D+00
131  1.3000000000000D+00 -1.7356232303613D-01  1.1423273135354D+00
132  1.3100000000000D+00 -1.7997846749788D-01  1.1042787545000D+00
133  1.3200000000000D+00 -1.8539461922240D-01  1.0654789800438D+00
134  1.3300000000000D+00 -1.8983678647986D-01  1.0260691132448D+00
135  1.3400000000000D+00 -1.9333341671620D-01  9.8618929326363D-01
136  1.3500000000000D+00 -1.9591525503019D-01  9.4597804437416D-01
137  1.3600000000000D+00 -1.9761519603569D-01  9.0557166237417D-01
138  1.3700000000000D+00 -1.9846812971504D-01  8.6510362142437D-01
139  1.3800000000000D+00 -1.9851078188255D-01  8.2470400382899D-01
140  1.3900000000000D+00 -1.9778154986871D-01  7.8449895559650D-01
141  1.4000000000000D+00 -1.9632033405831D-01  7.4461017001538D-01
142  1.4100000000000D+00 -1.9416836589682D-01  7.0515440126673D-01
143  1.4200000000000D+00 -1.9136803300065D-01  6.6624301040676D-01
144  1.4300000000000D+00 -1.8796270197509D-01  6.2798154485751D-01
145  1.4400000000000D+00 -1.8399653956414D-01  5.9046935334812D-01
146  1.4500000000000D+00 -1.7951433273184D-01  5.5379923724886D-01
147  1.4600000000000D+00 -1.7456130825109D-01  5.1805713911767D-01
148  1.4700000000000D+00 -1.6918295241463D-01  4.8332186965918D-01
149  1.4800000000000D+00 -1.6342483137223D-01  4.4966487268281D-01
150  1.4900000000000D+00 -1.5733241270779D-01  4.1715002920333D-01
151  1.5000000000000D+00 -1.5095088871884D-01  3.8583349970533D-01
152  1.5100000000000D+00 -1.4432500194579D-01  3.5576360482982D-01
153  1.5200000000000D+00 -1.3749887342755D-01  3.2698074369178D-01
154  1.5300000000000D+00 -1.3051583411458D-01  2.9951734881097D-01
155  1.5400000000000D+00 -1.2341825995271D-01  2.7339787719601D-01
156  1.5500000000000D+00 -1.1624741080828D-01  2.4863883465590D-01
157  1.5600000000000D+00 -1.0904327396063D-01  2.2524883409736D-01
158  1.5700000000000D+00 -1.0184441264496D-01  2.0322868723635D-01
159  1.5800000000000D+00 -9.4687819344404D-02  1.8257152133786D-01
160  1.5900000000000D+00 -8.7608794631831D-02  1.6326304091731D-01
161  1.6000000000000D+00 -8.0640744570739D-02  1.4528131681720D-01
162  1.6100000000000D+00 -7.3815098828788D-02  1.2859724542367D-01
163  1.6200000000000D+00 -6.7161401821585D-02  1.1317603219231D-01
164  1.6300000000000D+00 -6.0707376896651D-02  9.8978395672214D-02
165  1.6400000000000D+00 -5.4479079379075D-02  8.5962156601032D-02
166  1.6500000000000D+00 -4.8500923887347D-02  7.4083075151275D-02
167  1.6600000000000D+00 -4.2795584969222D-02  6.3294881470303D-02
168  1.6700000000000D+00 -3.7383973617245D-02  5.3549742252661D-02
169  1.6800000000000D+00 -3.2285215401337D-02  4.4798721005345D-02
170  1.6900000000000D+00 -2.7516620085542D-02  3.6992152087315D-02
171  1.7000000000000D+00 -2.3093658970188D-02  3.0080034040118D-02
172  1.7100000000000D+00 -1.9029942515827D-02  2.4012393145536D-02
173  1.7200000000000D+00 -1.5337200566775D-02  1.8739630370077D-02
174  1.7300000000000D+00 -1.2025264470432D-02  1.4212845350428D-02
175  1.7400000000000D+00 -9.1020509965373D-03  1.0384136010522D-02
176  1.7500000000000D+00 -6.5744227904106D-03  7.2072095673445D-03
177  1.7600000000000D+00 -4.4449805571621D-03  4.6363884314140D-03
178  1.7700000000000D+00 -2.7113648924423D-03  2.6280335185752D-03
179  1.7800000000000D+00 -1.3799565817035D-03  1.1413000597504D-03
180  1.7900000000000D+00 -4.6313805276114D-04  1.3107486780075D-04
181  1.8000000000000D+00  5.4208366043353D-05 -4.3683408856227D-04
182  1.8100000000000D+00  2.2606877700562D-04 -5.6243683505450D-04
183  1.8200000000000D+00  1.4781657517552D-04 -3.1742714093900D-04
184  1.8300000000000D+00  4.5379201665000D-06 -9.2716438195931D-06
185  1.8400000000000D+00 -3.7528014945115D-05  7.5271651770370D-05
186  1.8500000000000D+00 -1.0138178348606D-05  1.9978350806363D-05
187  1.8600000000000D+00  7.3362640877173D-06 -1.5377285073030D-05
188  1.8700000000000D+00  4.3608093955005D-06 -9.0593276273910D-06
189  1.8800000000000D+00 -4.7097509436502D-07  1.2189785626196D-06
190  1.8900000000000D+00 -5.0372640979565D-07  1.3037455744747D-06
191  1.9000000000000D+00  0.0000000000000D+00  0.0000000000000D+00
192  1.9100000000000D+00  0.0000000000000D+00  0.0000000000000D+00
193  1.9200000000000D+00  0.0000000000000D+00  0.0000000000000D+00
194  1.9300000000000D+00  0.0000000000000D+00  0.0000000000000D+00
195  1.9400000000000D+00  0.0000000000000D+00  0.0000000000000D+00
196  1.9500000000000D+00  0.0000000000000D+00  0.0000000000000D+00
197  1.9600000000000D+00  0.0000000000000D+00  0.0000000000000D+00
198  1.9700000000000D+00  0.0000000000000D+00  0.0000000000000D+00
199  1.9800000000000D+00  0.0000000000000D+00  0.0000000000000D+00
200  1.9900000000000D+00  0.0000000000000D+00  0.0000000000000D+00
201  2.0000000000000D+00  0.0000000000000D+00  0.0000000000000D+00
202  2.0100000000000D+00  0.0000000000000D+00  0.0000000000000D+00
203  2.0200000000000D+00  0.0000000000000D+00  0.0000000000000D+00
204  2.0300000000000D+00  0.0000000000000D+00  0.0000000000000D+00
205  2.0400000000000D+00  0.0000000000000D+00  0.0000000000000D+00
206  2.0500000000000D+00  0.0000000000000D+00  0.0000000000000D+00
207  2.0600000000000D+00  0.0000000000000D+00  0.0000000000000D+00
208  2.0700000000000D+00  0.0000000000000D+00  0.0000000000000D+00
209  2.0800000000000D+00  0.0000000000000D+00  0.0000000000000D+00
210  2.0900000000000D+00  0.0000000000000D+00  0.0000000000000D+00
211  2.1000000000000D+00  0.0000000000000D+00  0.0000000000000D+00
212  2.1100000000000D+00  0.0000000000000D+00  0.0000000000000D+00
213  2.1200000000000D+00  0.0000000000000D+00  0.0000000000000D+00
214  2.1300000000000D+00  0.0000000000000D+00  0.0000000000000D+00
215  2.1400000000000D+00  0.0000000000000D+00  0.0000000000000D+00
216  2.1500000000000D+00  0.0000000000000D+00  0.0000000000000D+00
217  2.1600000000000D+00  0.0000000000000D+00  0.0000000000000D+00
218  2.1700000000000D+00  0.0000000000000D+00  0.0000000000000D+00
219  2.1800000000000D+00  0.0000000000000D+00  0.0000000000000D+00
220  2.1900000000000D+00  0.0000000000000D+00  0.0000000000000D+00
221  2.2000000000000D+00  0.0000000000000D+00  0.0000000000000D+00
222  2.2100000000000D+00  0.0000000000000D+00  0.0000000000000D+00
223  2.2200000000000D+00  0.0000000000000D+00  0.0000000000000D+00
224  2.2300000000000D+00  0.0000000000000D+00  0.0000000000000D+00
225  2.2400000000000D+00  0.0000000000000D+00  0.0000000000000D+00
226  2.2500000000000D+00  0.0000000000000D+00  0.0000000000000D+00
227  2.2600000000000D+00  0.0000000000000D+00  0.0000000000000D+00
228  2.2700000000000D+00  0.0000000000000D+00  0.0000000000000D+00
229  2.2800000000000D+00  0.0000000000000D+00  0.0000000000000D+00
230  2.2900000000000D+00  0.0000000000000D+00  0.0000000000000D+00
231  2.3000000000000D+00  0.0000000000000D+00  0.0000000000000D+00
232  2.3100000000000D+00  0.0000000000000D+00  0.0000000000000D+00
233  2.3200000000000D+00  0.0000000000000D+00  0.0000000000000D+00
234  2.3300000000000D+00  0.0000000000000D+00  0.0000000000000D+00
235  2.3400000000000D+00  0.0000000000000D+00  0.0000000000000D+00
236  2.3500000000000D+00  0.0000000000000D+00  0.0000000000000D+00
237  2.3600000000000D+00  0.0000000000000D+00  0.0000000000000D+00
238  2.3700000000000D+00  0.0000000000000D+00  0.0000000000000D+00
239  2.3800000000000D+00  0.0000000000000D+00  0.0000000000000D+00
240  2.3900000000000D+00  0.0000000000000D+00  0.0000000000000D+00
241  2.4000000000000D+00  0.0000000000000D+00  0.0000000000000D+00
242  2.4100000000000D+00  0.0000000000000D+00  0.0000000000000D+00
243  2.4200000000000D+00  0.0000000000000D+00  0.0000000000000D+00
244  2.4300000000000D+00  0.0000000000000D+00  0.0000000000000D+00
245  2.4400000000000D+00  0.0000000000000D+00  0.0000000000000D+00
246  2.4500000000000D+00  0.0000000000000D+00  0.0000000000000D+00
247  2.4600000000000D+00  0.0000000000000D+00  0.0000000000000D+00
248  2.4700000000000D+00  0.0000000000000D+00  0.0000000000000D+00
249  2.4800000000000D+00  0.0000000000000D+00  0.0000000000000D+00
250  2.4900000000000D+00  0.0000000000000D+00  0.0000000000000D+00
251  2.5000000000000D+00  0.0000000000000D+00  0.0000000000000D+00
252  2.5100000000000D+00  0.0000000000000D+00  0.0000000000000D+00
253  2.5200000000000D+00  0.0000000000000D+00  0.0000000000000D+00
254  2.5300000000000D+00  0.0000000000000D+00  0.0000000000000D+00
255  2.5400000000000D+00  0.0000000000000D+00  0.0000000000000D+00
256  2.5500000000000D+00  0.0000000000000D+00  0.0000000000000D+00
257  2.5600000000000D+00  0.0000000000000D+00  0.0000000000000D+00
258  2.5700000000000D+00  0.0000000000000D+00  0.0000000000000D+00
259  2.5800000000000D+00  0.0000000000000D+00  0.0000000000000D+00
260  2.5900000000000D+00  0.0000000000000D+00  0.0000000000000D+00
261  2.6000000000000D+00  0.0000000000000D+00  0.0000000000000D+00
262  2.6100000000000D+00  0.0000000000000D+00  0.0000000000000D+00
263  2.6200000000000D+00  0.0000000000000D+00  0.0000000000000D+00
264  2.6300000000000D+00  0.0000000000000D+00  0.0000000000000D+00
265  2.6400000000000D+00  0.0000000000000D+00  0.0000000000000D+00
266  2.6500000000000D+00  0.0000000000000D+00  0.0000000000000D+00
267  2.6600000000000D+00  0.0000000000000D+00  0.0000000000000D+00
268  2.6700000000000D+00  0.0000000000000D+00  0.0000000000000D+00
269  2.6800000000000D+00  0.0000000000000D+00  0.0000000000000D+00
270  2.6900000000000D+00  0.0000000000000D+00  0.0000000000000D+00
271  2.7000000000000D+00  0.0000000000000D+00  0.0000000000000D+00
272  2.7100000000000D+00  0.0000000000000D+00  0.0000000000000D+00
273  2.7200000000000D+00  0.0000000000000D+00  0.0000000000000D+00
274  2.7300000000000D+00  0.0000000000000D+00  0.0000000000000D+00
275  2.7400000000000D+00  0.0000000000000D+00  0.0000000000000D+00
276  2.7500000000000D+00  0.0000000000000D+00  0.0000000000000D+00
277  2.7600000000000D+00  0.0000000000000D+00  0.0000000000000D+00
278  2.7700000000000D+00  0.0000000000000D+00  0.0000000000000D+00
279  2.7800000000000D+00  0.0000000000000D+00  0.0000000000000D+00
280  2.7900000000000D+00  0.0000000000000D+00  0.0000000000000D+00
281  2.8000000000000D+00  0.0000000000000D+00  0.0000000000000D+00
282  2.8100000000000D+00  0.0000000000000D+00  0.0000000000000D+00
283  2.8200000000000D+00  0.0000000000000D+00  0.0000000000000D+00
284  2.8300000000000D+00  0.0000000000000D+00  0.0000000000000D+00
285  2.8400000000000D+00  0.0000000000000D+00  0.0000000000000D+00
286  2.8500000000000D+00  0.0000000000000D+00  0.0000000000000D+00
287  2.8600000000000D+00  0.0000000000000D+00  0.0000000000000D+00
288  2.8700000000000D+00  0.0000000000000D+00  0.0000000000000D+00
289  2.8800000000000D+00  0.0000000000000D+00  0.0000000000000D+00
290  2.8900000000000D+00  0.0000000000000D+00  0.0000000000000D+00
291  2.9000000000000D+00  0.0000000000000D+00  0.0000000000000D+00
292  2.9100000000000D+00  0.0000000000000D+00  0.0000000000000D+00
293  2.9200000000000D+00  0.0000000000000D+00  0.0000000000000D+00
294  2.9300000000000D+00  0.0000000000000D+00  0.0000000000000D+00
295  2.9400000000000D+00  0.0000000000000D+00  0.0000000000000D+00
296  2.9500000000000D+00  0.0000000000000D+00  0.0000000000000D+00
297  2.9600000000000D+00  0.0000000000000D+00  0.0000000000000D+00
298  2.9700000000000D+00  0.0000000000000D+00  0.0000000000000D+00
299  2.9800000000000D+00  0.0000000000000D+00  0.0000000000000D+00
300  2.9900000000000D+00  0.0000000000000D+00  0.0000000000000D+00
301  3.0000000000000D+00  0.0000000000000D+00  0.0000000000000D+00
302  3.0100000000000D+00  0.0000000000000D+00  0.0000000000000D+00
303  3.0200000000000D+00  0.0000000000000D+00  0.0000000000000D+00
304  3.0300000000000D+00  0.0000000000000D+00  0.0000000000000D+00
305  3.0400000000000D+00  0.0000000000000D+00  0.0000000000000D+00
306  3.0500000000000D+00  0.0000000000000D+00  0.0000000000000D+00
307  3.0600000000000D+00  0.0000000000000D+00  0.0000000000000D+00
308  3.0700000000000D+00  0.0000000000000D+00  0.0000000000000D+00
309  3.0800000000000D+00  0.0000000000000D+00  0.0000000000000D+00
310  3.0900000000000D+00  0.0000000000000D+00  0.0000000000000D+00
311  3.1000000000000D+00  0.0000000000000D+00  0.0000000000000D+00
312  3.1100000000000D+00  0.0000000000000D+00  0.0000000000000D+00
313  3.1200000000000D+00  0.0000000000000D+00  0.0000000000000D+00
314  3.1300000000000D+00  0.0000000000000D+00  0.0000000000000D+00
315  3.1400000000000D+00  0.0000000000000D+00  0.0000000000000D+00
316  3.1500000000000D+00  0.0000000000000D+00  0.0000000000000D+00
317  3.1600000000000D+00  0.0000000000000D+00  0.0000000000000D+00
318  3.1700000000000D+00  0.0000000000000D+00  0.0000000000000D+00
319  3.1800000000000D+00  0.0000000000000D+00  0.0000000000000D+00
320  3.1900000000000D+00  0.0000000000000D+00  0.0000000000000D+00
321  3.2000000000000D+00  0.0000000000000D+00  0.0000000000000D+00
322  3.2100000000000D+00  0.0000000000000D+00  0.0000000000000D+00
323  3.2200000000000D+00  0.0000000000000D+00  0.0000000000000D+00
324  3.2300000000000D+00  0.0000000000000D+00  0.0000000000000D+00
325  3.2400000000000D+00  0.0000000000000D+00  0.0000000000000D+00
326  3.2500000000000D+00  0.0000000000000D+00  0.0000000000000D+00
327  3.2600000000000D+00  0.0000000000000D+00  0.0000000000000D+00
328  3.2700000000000D+00  0.0000000000000D+00  0.0000000000000D+00
329  3.2800000000000D+00  0.0000000000000D+00  0.0000000000000D+00
330  3.2900000000000D+00  0.0000000000000D+00  0.0000000000000D+00
331  3.3000000000000D+00  0.0000000000000D+00  0.0000000000000D+00
332  3.3100000000000D+00  0.0000000000000D+00  0.0000000000000D+00
333  3.3200000000000D+00  0.0000000000000D+00  0.0000000000000D+00
334  3.3300000000000D+00  0.0000000000000D+00  0.0000000000000D+00
335  3.3400000000000D+00  0.0000000000000D+00  0.0000000000000D+00
336  3.3500000000000D+00  0.0000000000000D+00  0.0000000000000D+00
337  3.3600000000000D+00  0.0000000000000D+00  0.0000000000000D+00
338  3.3700000000000D+00  0.0000000000000D+00  0.0000000000000D+00
339  3.3800000000000D+00  0.0000000000000D+00  0.0000000000000D+00
340  3.3900000000000D+00  0.0000000000000D+00  0.0000000000000D+00
341  3.4000000000000D+00  0.0000000000000D+00  0.0000000000000D+00
342  3.4100000000000D+00  0.0000000000000D+00  0.0000000000000D+00
343  3.4200000000000D+00  0.0000000000000D+00  0.0000000000000D+00
344  3.4300000000000D+00  0.0000000000000D+00  0.0000000000000D+00
345  3.4400000000000D+00  0.0000000000000D+00  0.0000000000000D+00
346  3.4500000000000D+00  0.0000000000000D+00  0.0000000000000D+00
347  3.4600000000000D+00  0.0000000000000D+00  0.0000000000000D+00
348  3.4700000000000D+00  0.0000000000000D+00  0.0000000000000D+00
349  3.4800000000000D+00  0.0000000000000D+00  0.0000000000000D+00
350  3.4900000000000D+00  0.0000000000000D+00  0.0000000000000D+00
351  3.5000000000000D+00  0.0000000000000D+00  0.0000000000000D+00
352  3.5100000000000D+00  0.0000000000000D+00  0.0000000000000D+00
353  3.5200000000000D+00  0.0000000000000D+00  0.0000000000000D+00
354  3.5300000000000D+00  0.0000000000000D+00  0.0000000000000D+00
355  3.5400000000000D+00  0.0000000000000D+00  0.0000000000000D+00
356  3.5500000000000D+00  0.0000000000000D+00  0.0000000000000D+00
357  3.5600000000000D+00  0.0000000000000D+00  0.0000000000000D+00
358  3.5700000000000D+00  0.0000000000000D+00  0.0000000000000D+00
359  3.5800000000000D+00  0.0000000000000D+00  0.0000000000000D+00
360  3.5900000000000D+00  0.0000000000000D+00  0.0000000000000D+00
361  3.6000000000000D+00  0.0000000000000D+00  0.0000000000000D+00
362  3.6100000000000D+00  0.0000000000000D+00  0.0000000000000D+00
363  3.6200000000000D+00  0.0000000000000D+00  0.0000000000000D+00
364  3.6300000000000D+00  0.0000000000000D+00  0.0000000000000D+00
365  3.6400000000000D+00  0.0000000000000D+00  0.0000000000000D+00
366  3.6500000000000D+00  0.0000000000000D+00  0.0000000000000D+00
367  3.6600000000000D+00  0.0000000000000D+00  0.0000000000000D+00
368  3.6700000000000D+00  0.0000000000000D+00  0.0000000000000D+00
369  3.6800000000000D+00  0.0000000000000D+00  0.0000000000000D+00
370  3.6900000000000D+00  0.0000000000000D+00  0.0000000000000D+00
371  3.7000000000000D+00  0.0000000000000D+00  0.0000000000000D+00
372  3.7100000000000D+00  0.0000000000000D+00  0.0000000000000D+00
373  3.7200000000000D+00  0.0000000000000D+00  0.0000000000000D+00
374  3.7300000000000D+00  0.0000000000000D+00  0.0000000000000D+00
375  3.7400000000000D+00  0.0000000000000D+00  0.0000000000000D+00
376  3.7500000000000D+00  0.0000000000000D+00  0.0000000000000D+00
377  3.7600000000000D+00  0.0000000000000D+00  0.0000000000000D+00
378  3.7700000000000D+00  0.0000000000000D+00  0.0000000000000D+00
379  3.7800000000000D+00  0.0000000000000D+00  0.0000000000000D+00
380  3.7900000000000D+00  0.0000000000000D+00  0.0000000000000D+00
381  3.8000000000000D+00  0.0000000000000D+00  0.0000000000000D+00
382  3.8100000000000D+00  0.0000000000000D+00  0.0000000000000D+00
383  3.8200000000000D+00  0.0000000000000D+00  0.0000000000000D+00
384  3.8300000000000D+00  0.0000000000000D+00  0.0000000000000D+00
385  3.8400000000000D+00  0.0000000000000D+00  0.0000000000000D+00
386  3.8500000000000D+00  0.0000000000000D+00  0.0000000000000D+00
387  3.8600000000000D+00  0.0000000000000D+00  0.0000000000000D+00
388  3.8700000000000D+00  0.0000000000000D+00  0.0000000000000D+00
389  3.8800000000000D+00  0.0000000000000D+00  0.0000000000000D+00
390  3.8900000000000D+00  0.0000000000000D+00  0.0000000000000D+00
391  3.9000000000000D+00  0.0000000000000D+00  0.0000000000000D+00
392  3.9100000000000D+00  0.0000000000000D+00  0.0000000000000D+00
393  3.9200000000000D+00  0.0000000000000D+00  0.0000000000000D+00
394  3.9300000000000D+00  0.0000000000000D+00  0.0000000000000D+00
395  3.9400000000000D+00  0.0000000000000D+00  0.0000000000000D+00
396  3.9500000000000D+00  0.0000000000000D+00  0.0000000000000D+00
397  3.9600000000000D+00  0.0000000000000D+00  0.0000000000000D+00
398  3.9700000000000D+00  0.0000000000000D+00  0.0000000000000D+00
399  3.9800000000000D+00  0.0000000000000D+00  0.0000000000000D+00
400  3.9900000000000D+00  0.0000000000000D+00  0.0000000000000D+00
401  4.0000000000000D+00  0.0000000000000D+00  0.0000000000000D+00
402  4.0100000000000D+00  0.0000000000000D+00  0.0000000000000D+00
403  4.0200000000000D+00  0.0000000000000D+00  0.0000000000000D+00
404  4.0300000000000D+00  0.0000000000000D+00  0.0000000000000D+00
405  4.0400000000000D+00  0.0000000000000D+00  0.0000000000000D+00
406  4.0500000000000D+00  0.0000000000000D+00  0.0000000000000D+00
407  4.0600000000000D+00  0.0000000000000D+00  0.0000000000000D+00
408  4.0700000000000D+00  0.0000000000000D+00  0.0000000000000D+00
409  4.0800000000000D+00  0.0000000000000D+00  0.0000000000000D+00
410  4.0900000000000D+00  0.0000000000000D+00  0.0000000000000D+00
411  4.1000000000000D+00  0.0000000000000D+00  0.0000000000000D+00
412  4.1100000000000D+00  0.0000000000000D+00  0.0000000000000D+00
413  4.1200000000000D+00  0.0000000000000D+00  0.0000000000000D+00
414  4.1300000000000D+00  0.0000000000000D+00  0.0000000000000D+00
415  4.1400000000000D+00  0.0000000000000D+00  0.0000000000000D+00
416  4.1500000000000D+00  0.0000000000000D+00  0.0000000000000D+00
417  4.1600000000000D+00  0.0000000000000D+00  0.0000000000000D+00
418  4.1700000000000D+00  0.0000000000000D+00  0.0000000000000D+00
419  4.1800000000000D+00  0.0000000000000D+00  0.0000000000000D+00
420  4.1900000000000D+00  0.0000000000000D+00  0.0000000000000D+00
421  4.2000000000000D+00  0.0000000000000D+00  0.0000000000000D+00
422  4.2100000000000D+00  0.0000000000000D+00  0.0000000000000D+00
423  4.2200000000000D+00  0.0000000000000D+00  0.0000000000000D+00
424  4.2300000000000D+00  0.0000000000000D+00  0.0000000000000D+00
425  4.2400000000000D+00  0.0000000000000D+00  0.0000000000000D+00
426  4.2500000000000D+00  0.0000000000000D+00  0.0000000000000D+00
427  4.2600000000000D+00  0.0000000000000D+00  0.0000000000000D+00
428  4.2700000000000D+00  0.0000000000000D+00  0.0000000000000D+00
429  4.2800000000000D+00  0.0000000000000D+00  0.0000000000000D+00
430  4.2900000000000D+00  0.0000000000000D+00  0.0000000000000D+00
431  4.3000000000000D+00  0.0000000000000D+00  0.0000000000000D+00
432  4.3100000000000D+00  0.0000000000000D+00  0.0000000000000D+00
433  4.3200000000000D+00  0.0000000000000D+00  0.0000000000000D+00
434  4.3300000000000D+00  0.0000000000000D+00  0.0000000000000D+00
435  4.3400000000000D+00  0.0000000000000D+00  0.0000000000000D+00
436  4.3500000000000D+00  0.0000000000000D+00  0.0000000000000D+00
437  4.3600000000000D+00  0.0000000000000D+00  0.0000000000000D+00
438  4.3700000000000D+00  0.0000000000000D+00  0.0000000000000D+00
439  4.3800000000000D+00  0.0000000000000D+00  0.0000000000000D+00
440  4.3900000000000D+00  0.0000000000000D+00  0.0000000000000D+00
441  4.4000000000000D+00  0.0000000000000D+00  0.0000000000000D+00
442  4.4100000000000D+00  0.0000000000000D+00  0.0000000000000D+00
443  4.4200000000000D+00  0.0000000000000D+00  0.0000000000000D+00