Au    ONCVPSP-3.3.0  r_core=   1.45604   1.56407   1.56407   1.60183
79.0000     19.0000      171114    zatom,zion,pspd
8   -1012   3     4   500     0    pspcod,pspxc,lmax,lloc,mmax,r2well
4.99000000  5.00000000  0.00000000    rchrg fchrg qchrg
2     2     2     1     0    nproj
1     1           extension_switch
0                         9.4139990751283D+00 -1.9909283914364D-01
1  0.0000000000000D+00 -5.3243720543605D-10 -5.1303228887356D-09
2  1.0000000000000D-02  8.1132802380107D-02  4.3228162552574D-02
3  2.0000000000000D-02  1.6204286899317D-01  8.6018542086823D-02
4  3.0000000000000D-02  2.4250852486483D-01  1.2793936812906D-01
5  4.0000000000000D-02  3.2231020902437D-01  1.6857078737501D-01
6  5.0000000000000D-02  4.0123151093846D-01  2.0751057247739D-01
7  6.0000000000000D-02  4.7906018088631D-01  2.4437955401743D-01
8  7.0000000000000D-02  5.5558910542137D-01  2.7882669869505D-01
9  8.0000000000000D-02  6.3061723959710D-01  3.1053376190305D-01
10  9.0000000000000D-02  7.0395048825748D-01  3.3921944908819D-01
11  1.0000000000000D-01  7.7540252939665D-01  3.6464302754525D-01
12  1.1000000000000D-01  8.4479557336800D-01  3.8660733842282D-01
13  1.2000000000000D-01  9.1196105255819D-01  4.0496116761376D-01
14  1.3000000000000D-01  9.7674023702613D-01  4.1960094371777D-01
15  1.4000000000000D-01  1.0389847725278D+00  4.3047174125282D-01
16  1.5000000000000D-01  1.0985571382929D+00  4.3756757759993D-01
17  1.6000000000000D-01  1.1553310228750D+00  4.4093100263552D-01
18  1.7000000000000D-01  1.2091916173544D+00  4.4065199047752D-01
19  1.8000000000000D-01  1.2600358261121D+00  4.3686615308600D-01
20  1.9000000000000D-01  1.3077723963119D+00  4.2975230546349D-01
21  2.0000000000000D-01  1.3523219681071D+00  4.1952942174151D-01
22  2.1000000000000D-01  1.3936170484167D+00  4.0645303037883D-01
23  2.2000000000000D-01  1.4316019118942D+00  3.9081110490060D-01
24  2.3000000000000D-01  1.4662324334131D+00  3.7291951395337D-01
25  2.4000000000000D-01  1.4974758570279D+00  3.5311710083521D-01
26  2.5000000000000D-01  1.5253105069144D+00  3.3176046798697D-01
27  2.6000000000000D-01  1.5497254462552D+00  3.0921854612563D-01
28  2.7000000000000D-01  1.5707200904032D+00  2.8586703070289D-01
29  2.8000000000000D-01  1.5883037809266D+00  2.6208277014164D-01
30  2.9000000000000D-01  1.6024953273137D+00  2.3823819081401D-01
31  3.0000000000000D-01  1.6133225231909D+00  2.1469584297429D-01
32  3.1000000000000D-01  1.6208216438864D+00  1.9180314986101D-01
33  3.2000000000000D-01  1.6250369320558D+00  1.6988743896512D-01
34  3.3000000000000D-01  1.6260200778766D+00  1.4925133007736D-01
35  3.4000000000000D-01  1.6238297000268D+00  1.3016854924011D-01
36  3.5000000000000D-01  1.6185308332858D+00  1.1288023122208D-01
37  3.6000000000000D-01  1.6101944281459D+00  9.7591765701107D-02
38  3.7000000000000D-01  1.5988968673110D+00  8.4470234093030D-02
39  3.8000000000000D-01  1.5847195033822D+00  7.3642475021435D-02
40  3.9000000000000D-01  1.5677482214146D+00  6.5193806915583D-02
41  4.0000000000000D-01  1.5480730293662D+00  5.9167426289845D-02
42  4.1000000000000D-01  1.5257876787801D+00  5.5564490040621D-02
43  4.2000000000000D-01  1.5009893173308D+00  5.4344879745846D-02
44  4.3000000000000D-01  1.4737781741649D+00  5.5428635615249D-02
45  4.4000000000000D-01  1.4442572782546D+00  5.8698037566860D-02
46  4.5000000000000D-01  1.4125322092979D+00  6.4000301044628D-02
47  4.6000000000000D-01  1.3787108800335D+00  7.1150845784342D-02
48  4.7000000000000D-01  1.3429033482108D+00  7.9937086918266D-02
49  4.8000000000000D-01  1.3052216558688D+00  9.0122689710361D-02
50  4.9000000000000D-01  1.2657796930506D+00  1.0145222195182D-01
51  5.0000000000000D-01  1.2246930826052D+00  1.1365613172787D-01
52  5.1000000000000D-01  1.1820790823284D+00  1.2645597298623D-01
53  5.2000000000000D-01  1.1380565003627D+00  1.3956979717097D-01
54  5.3000000000000D-01  1.0927456195260D+00  1.5271762620180D-01
55  5.4000000000000D-01  1.0462681260673D+00  1.6562692032353D-01
56  5.5000000000000D-01  9.9874703826118D-01  1.7803795385133D-01
57  5.6000000000000D-01  9.5030663025234D-01  1.8970901261697D-01
58  5.7000000000000D-01  9.0107234664464D-01  2.0042132896111D-01
59  5.8000000000000D-01  8.5117070349588D-01  2.0998367341685D-01
60  5.9000000000000D-01  8.0072917162813D-01  2.1823652671649D-01
61  6.0000000000000D-01  7.4987603848983D-01  2.2505576142337D-01
62  6.1000000000000D-01  6.9874024520287D-01  2.3035576920317D-01
63  6.2000000000000D-01  6.4745119589367D-01  2.3409197748428D-01
64  6.3000000000000D-01  5.9613853693220D-01  2.3626270787617D-01
65  6.4000000000000D-01  5.4493190427742D-01  2.3691033807330D-01
66  6.5000000000000D-01  4.9396063775021D-01  2.3612173905001D-01
67  6.6000000000000D-01  4.4335346170690D-01  2.3402796987311D-01
68  6.7000000000000D-01  3.9323813226376D-01  2.3080322336378D-01
69  6.8000000000000D-01  3.4374105191706D-01  2.2666302700363D-01
70  6.9000000000000D-01  2.9498685309685D-01  2.2186171465252D-01
71  7.0000000000000D-01  2.4709795287982D-01  2.1668919571885D-01
72  7.1000000000000D-01  2.0019408175766D-01  2.1146705929231D-01
73  7.2000000000000D-01  1.5439178999795D-01  2.0654406115822D-01
74  7.3000000000000D-01  1.0980393573601D-01  2.0229105146929D-01
75  7.4000000000000D-01  6.6539159490762D-02  1.9909541001549D-01
76  7.5000000000000D-01  2.4701350291061D-02  1.9735506430757D-01
77  7.6000000000000D-01 -1.5610890969929D-02  1.9747217305075D-01
78  7.7000000000000D-01 -5.4304784981499D-02  1.9984656379887D-01
79  7.8000000000000D-01 -9.1293898018204D-02  2.0486901862828D-01
80  7.9000000000000D-01 -1.2649865006648D-01  2.1291450543265D-01
81  8.0000000000000D-01 -1.5984680054647D-01  2.2433545485437D-01
82  8.1000000000000D-01 -1.9127390509867D-01  2.3945518387844D-01
83  8.2000000000000D-01 -2.2072373699905D-01  2.5856156669161D-01
84  8.3000000000000D-01 -2.4814866695772D-01  2.8190105153690D-01
85  8.4000000000000D-01 -2.7350999534306D-01  3.0967311897769D-01
86  8.5000000000000D-01 -2.9677823125448D-01  3.4202527225637D-01
87  8.6000000000000D-01 -3.1793331333829D-01  3.7904864433064D-01
88  8.7000000000000D-01 -3.3696476779796D-01  4.2077429876956D-01
89  8.8000000000000D-01 -3.5387179968606D-01  4.6717029307203D-01
90  8.9000000000000D-01 -3.6866331427306D-01  5.1813956324008D-01
91  9.0000000000000D-01 -3.8135786605909D-01  5.7351867771786D-01
92  9.1000000000000D-01 -3.9198353381925D-01  6.3307749723341D-01
93  9.2000000000000D-01 -4.0057772094038D-01  6.9651976480548D-01
94  9.3000000000000D-01 -4.0718688120607D-01  7.6348463736450D-01
95  9.4000000000000D-01 -4.1186617110490D-01  8.3354915726166D-01
96  9.5000000000000D-01 -4.1467903066194D-01  9.0623164858327D-01
97  9.6000000000000D-01 -4.1569669571243D-01  9.8099600983781D-01
98  9.7000000000000D-01 -4.1499764543555D-01  1.0572568614419D+00
99  9.8000000000000D-01 -4.1266698983751D-01  1.1343854936115D+00
100  9.9000000000000D-01 -4.0879580269095D-01  1.2117165481447D+00
101  1.0000000000000D+00 -4.0348040619883D-01  1.2885553562163D+00
102  1.0100000000000D+00 -3.9682161436207D-01  1.3641858435780D+00
103  1.0200000000000D+00 -3.8892394262993D-01  1.4378789054020D+00
104  1.0300000000000D+00 -3.7989479194397D-01  1.5089011447608D+00
105  1.0400000000000D+00 -3.6984361571128D-01  1.5765238619897D+00
106  1.0500000000000D+00 -3.5888107855737D-01  1.6400321769663D+00
107  1.0600000000000D+00 -3.4711821591296D-01  1.6987341627657D+00
108  1.0700000000000D+00 -3.3466560358359D-01  1.7519698669858D+00
109  1.0800000000000D+00 -3.2163254640333D-01  1.7991200970453D+00
110  1.0900000000000D+00 -3.0812629491847D-01  1.8396148472238D+00
111  1.1000000000000D+00 -2.9425129873755D-01  1.8729412489059D+00
112  1.1100000000000D+00 -2.8010850485396D-01  1.8986509295796D+00
113  1.1200000000000D+00 -2.6579470862624D-01  1.9163666742240D+00
114  1.1300000000000D+00 -2.5140196454664D-01  1.9257882900955D+00
115  1.1400000000000D+00 -2.3701706304628D-01  1.9266975878308D+00
116  1.1500000000000D+00 -2.2272107903675D-01  1.9189623991994D+00
117  1.1600000000000D+00 -2.0858899661538D-01  1.9025395692951D+00
118  1.1700000000000D+00 -1.9468941357569D-01  1.8774768718403D+00
119  1.1800000000000D+00 -1.8108432815406D-01  1.8439138130748D+00
120  1.1900000000000D+00 -1.6782900964796D-01  1.8020813007625D+00
121  1.2000000000000D+00 -1.5497195295059D-01  1.7523001771102D+00
122  1.2100000000000D+00 -1.4255491605411D-01  1.6949786283759D+00
123  1.2200000000000D+00 -1.3061303870438D-01  1.6306084961556D+00
124  1.2300000000000D+00 -1.1917503882483D-01  1.5597605374150D+00
125  1.2400000000000D+00 -1.0826348225517D-01  1.4830786955587D+00
126  1.2500000000000D+00 -9.7895120552928D-02  1.4012734561300D+00
127  1.2600000000000D+00 -8.8081290465483D-02  1.3151143769208D+00
128  1.2700000000000D+00 -7.8828367423431D-02  1.2254219002027D+00
129  1.2800000000000D+00 -7.0138265054969D-02  1.1330585598189D+00
130  1.2900000000000D+00 -6.2008971799545D-02  1.0389197090087D+00
131  1.3000000000000D+00 -5.4435114746128D-02  9.4392390853180D-01
132  1.3100000000000D+00 -4.7408540886013D-02  8.4900311374055D-01
133  1.3200000000000D+00 -4.0918905154081D-02  7.5509281095493D-01
134  1.3300000000000D+00 -3.4954254545309D-02  6.6312225482804D-01
135  1.3400000000000D+00 -2.9501597644559D-02  5.7400495762756D-01
136  1.3500000000000D+00 -2.4547448530261D-02  4.8862958686317D-01
137  1.3600000000000D+00 -2.0078333595405D-02  4.0785144813583D-01
138  1.3700000000000D+00 -1.6081259824774D-02  3.3248447871261D-01
139  1.3800000000000D+00 -1.2544096184430D-02  2.6329480726593D-01
140  1.3900000000000D+00 -9.4560094179469D-03  2.0099252780031D-01
141  1.4000000000000D+00 -6.8075532112010D-03  1.4623084237859D-01
142  1.4100000000000D+00 -4.5919554485512D-03  9.9626226011346D-02
143  1.4200000000000D+00 -2.8014159355926D-03  6.1619992453541D-02
144  1.4300000000000D+00 -1.4285486600403D-03  3.2439415824524D-02
145  1.4400000000000D+00 -5.0451839821150D-04  1.3056590594831D-02
146  1.4500000000000D+00 -3.0058676473247D-05  3.3780199843610D-03
147  1.4600000000000D+00  9.1837459527867D-05  1.4435639263722D-04
148  1.4700000000000D+00  2.8856822119243D-05 -1.3135260001936D-04
149  1.4800000000000D+00 -1.8374904462335D-05  1.1273893996568D-04
150  1.4900000000000D+00 -3.3022007776726D-06  2.3322326819627D-05
151  1.5000000000000D+00  3.7592521687700D-06 -1.7470671377974D-05
152  1.5100000000000D+00 -4.1463687522979D-08 -4.8781097464768D-07
153  1.5200000000000D+00 -2.0496649141100D-07 -2.4113847541877D-06
154  1.5300000000000D+00  0.0000000000000D+00  0.0000000000000D+00
155  1.5400000000000D+00  0.0000000000000D+00  0.0000000000000D+00
156  1.5500000000000D+00  0.0000000000000D+00  0.0000000000000D+00
157  1.5600000000000D+00  0.0000000000000D+00  0.0000000000000D+00
158  1.5700000000000D+00  0.0000000000000D+00  0.0000000000000D+00
159  1.5800000000000D+00  0.0000000000000D+00  0.0000000000000D+00
160  1.5900000000000D+00  0.0000000000000D+00  0.0000000000000D+00
161  1.6000000000000D+00  0.0000000000000D+00  0.0000000000000D+00
162  1.6100000000000D+00  0.0000000000000D+00  0.0000000000000D+00
163  1.6200000000000D+00  0.0000000000000D+00  0.0000000000000D+00
164  1.6300000000000D+00  0.0000000000000D+00  0.0000000000000D+00
165  1.6400000000000D+00  0.0000000000000D+00  0.0000000000000D+00
166  1.6500000000000D+00  0.0000000000000D+00  0.0000000000000D+00
167  1.6600000000000D+00  0.0000000000000D+00  0.0000000000000D+00
168  1.6700000000000D+00  0.0000000000000D+00  0.0000000000000D+00
169  1.6800000000000D+00  0.0000000000000D+00  0.0000000000000D+00
170  1.6900000000000D+00  0.0000000000000D+00  0.0000000000000D+00
171  1.7000000000000D+00  0.0000000000000D+00  0.0000000000000D+00
172  1.7100000000000D+00  0.0000000000000D+00  0.0000000000000D+00
173  1.7200000000000D+00  0.0000000000000D+00  0.0000000000000D+00
174  1.7300000000000D+00  0.0000000000000D+00  0.0000000000000D+00
175  1.7400000000000D+00  0.0000000000000D+00  0.0000000000000D+00
176  1.7500000000000D+00  0.0000000000000D+00  0.0000000000000D+00
177  1.7600000000000D+00  0.0000000000000D+00  0.0000000000000D+00
178  1.7700000000000D+00  0.0000000000000D+00  0.0000000000000D+00
179  1.7800000000000D+00  0.0000000000000D+00  0.0000000000000D+00
180  1.7900000000000D+00  0.0000000000000D+00  0.0000000000000D+00
181  1.8000000000000D+00  0.0000000000000D+00  0.0000000000000D+00
182  1.8100000000000D+00  0.0000000000000D+00  0.0000000000000D+00
183  1.8200000000000D+00  0.0000000000000D+00  0.0000000000000D+00
184  1.8300000000000D+00  0.0000000000000D+00  0.0000000000000D+00
185  1.8400000000000D+00  0.0000000000000D+00  0.0000000000000D+00
186  1.8500000000000D+00  0.0000000000000D+00  0.0000000000000D+00
187  1.8600000000000D+00  0.0000000000000D+00  0.0000000000000D+00
188  1.8700000000000D+00  0.0000000000000D+00  0.0000000000000D+00
189  1.8800000000000D+00  0.0000000000000D+00  0.0000000000000D+00
190  1.8900000000000D+00  0.0000000000000D+00  0.0000000000000D+00
191  1.9000000000000D+00  0.0000000000000D+00  0.0000000000000D+00
192  1.9100000000000D+00  0.0000000000000D+00  0.0000000000000D+00
193  1.9200000000000D+00  0.0000000000000D+00  0.0000000000000D+00
194  1.9300000000000D+00  0.0000000000000D+00  0.0000000000000D+00
195  1.9400000000000D+00  0.0000000000000D+00  0.0000000000000D+00
196  1.9500000000000D+00  0.0000000000000D+00  0.0000000000000D+00
197  1.9600000000000D+00  0.0000000000000D+00  0.0000000000000D+00
198  1.9700000000000D+00  0.0000000000000D+00  0.0000000000000D+00
199  1.9800000000000D+00  0.0000000000000D+00  0.0000000000000D+00
200  1.9900000000000D+00  0.0000000000000D+00  0.0000000000000D+00
201  2.0000000000000D+00  0.0000000000000D+00  0.0000000000000D+00
202  2.0100000000000D+00  0.0000000000000D+00  0.0000000000000D+00
203  2.0200000000000D+00  0.0000000000000D+00  0.0000000000000D+00
204  2.0300000000000D+00  0.0000000000000D+00  0.0000000000000D+00
205  2.0400000000000D+00  0.0000000000000D+00  0.0000000000000D+00
206  2.0500000000000D+00  0.0000000000000D+00  0.0000000000000D+00
207  2.0600000000000D+00  0.0000000000000D+00  0.0000000000000D+00
208  2.0700000000000D+00  0.0000000000000D+00  0.0000000000000D+00
209  2.0800000000000D+00  0.0000000000000D+00  0.0000000000000D+00
210  2.0900000000000D+00  0.0000000000000D+00  0.0000000000000D+00
211  2.1000000000000D+00  0.0000000000000D+00  0.0000000000000D+00
212  2.1100000000000D+00  0.0000000000000D+00  0.0000000000000D+00
213  2.1200000000000D+00  0.0000000000000D+00  0.0000000000000D+00
214  2.1300000000000D+00  0.0000000000000D+00  0.0000000000000D+00
215  2.1400000000000D+00  0.0000000000000D+00  0.0000000000000D+00
216  2.1500000000000D+00  0.0000000000000D+00  0.0000000000000D+00
217  2.1600000000000D+00  0.0000000000000D+00  0.0000000000000D+00
218  2.1700000000000D+00  0.0000000000000D+00  0.0000000000000D+00
219  2.1800000000000D+00  0.0000000000000D+00  0.0000000000000D+00
220  2.1900000000000D+00  0.0000000000000D+00  0.0000000000000D+00
221  2.2000000000000D+00  0.0000000000000D+00  0.0000000000000D+00
222  2.2100000000000D+00  0.0000000000000D+00  0.0000000000000D+00
223  2.2200000000000D+00  0.0000000000000D+00  0.0000000000000D+00
224  2.2300000000000D+00  0.0000000000000D+00  0.0000000000000D+00
225  2.2400000000000D+00  0.0000000000000D+00  0.0000000000000D+00
226  2.2500000000000D+00  0.0000000000000D+00  0.0000000000000D+00
227  2.2600000000000D+00  0.0000000000000D+00  0.0000000000000D+00
228  2.2700000000000D+00  0.0000000000000D+00  0.0000000000000D+00
229  2.2800000000000D+00  0.0000000000000D+00  0.0000000000000D+00
230  2.2900000000000D+00  0.0000000000000D+00  0.0000000000000D+00
231  2.3000000000000D+00  0.0000000000000D+00  0.0000000000000D+00
232  2.3100000000000D+00  0.0000000000000D+00  0.0000000000000D+00
233  2.3200000000000D+00  0.0000000000000D+00  0.0000000000000D+00
234  2.3300000000000D+00  0.0000000000000D+00  0.0000000000000D+00
235  2.3400000000000D+00  0.0000000000000D+00  0.0000000000000D+00
236  2.3500000000000D+00  0.0000000000000D+00  0.0000000000000D+00
237  2.3600000000000D+00  0.0000000000000D+00  0.0000000000000D+00
238  2.3700000000000D+00  0.0000000000000D+00  0.0000000000000D+00
239  2.3800000000000D+00  0.0000000000000D+00  0.0000000000000D+00
240  2.3900000000000D+00  0.0000000000000D+00  0.0000000000000D+00
241  2.4000000000000D+00  0.0000000000000D+00  0.0000000000000D+00
242  2.4100000000000D+00  0.0000000000000D+00  0.0000000000000D+00
243  2.4200000000000D+00  0.0000000000000D+00  0.0000000000000D+00
244  2.4300000000000D+00  0.0000000000000D+00  0.0000000000000D+00
245  2.4400000000000D+00  0.0000000000000D+00  0.0000000000000D+00
246  2.4500000000000D+00  0.0000000000000D+00  0.0000000000000D+00
247  2.4600000000000D+00  0.0000000000000D+00  0.0000000000000D+00
248  2.4700000000000D+00  0.0000000000000D+00  0.0000000000000D+00
249  2.4800000000000D+00  0.0000000000000D+00  0.0000000000000D+00
250  2.4900000000000D+00  0.0000000000000D+00  0.0000000000000D+00
251  2.5000000000000D+00  0.0000000000000D+00  0.0000000000000D+00
252  2.5100000000000D+00  0.0000000000000D+00  0.0000000000000D+00
253  2.5200000000000D+00  0.0000000000000D+00  0.0000000000000D+00
254  2.5300000000000D+00  0.0000000000000D+00  0.0000000000000D+00
255  2.5400000000000D+00  0.0000000000000D+00  0.0000000000000D+00
256  2.5500000000000D+00  0.0000000000000D+00  0.0000000000000D+00
257  2.5600000000000D+00  0.0000000000000D+00  0.0000000000000D+00
258  2.5700000000000D+00  0.0000000000000D+00  0.0000000000000D+00
259  2.5800000000000D+00  0.0000000000000D+00  0.0000000000000D+00
260  2.5900000000000D+00  0.0000000000000D+00  0.0000000000000D+00
261  2.6000000000000D+00  0.0000000000000D+00  0.0000000000000D+00
262  2.6100000000000D+00  0.0000000000000D+00  0.0000000000000D+00
263  2.6200000000000D+00  0.0000000000000D+00  0.0000000000000D+00
264  2.6300000000000D+00  0.0000000000000D+00  0.0000000000000D+00
265  2.6400000000000D+00  0.0000000000000D+00  0.0000000000000D+00
266  2.6500000000000D+00  0.0000000000000D+00  0.0000000000000D+00
267  2.6600000000000D+00  0.0000000000000D+00  0.0000000000000D+00
268  2.6700000000000D+00  0.0000000000000D+00  0.0000000000000D+00
269  2.6800000000000D+00  0.0000000000000D+00  0.0000000000000D+00
270  2.6900000000000D+00  0.0000000000000D+00  0.0000000000000D+00
271  2.7000000000000D+00  0.0000000000000D+00  0.0000000000000D+00
272  2.7100000000000D+00  0.0000000000000D+00  0.0000000000000D+00
273  2.7200000000000D+00  0.0000000000000D+00  0.0000000000000D+00
274  2.7300000000000D+00  0.0000000000000D+00  0.0000000000000D+00
275  2.7400000000000D+00  0.0000000000000D+00  0.0000000000000D+00
276  2.7500000000000D+00  0.0000000000000D+00  0.0000000000000D+00
277  2.7600000000000D+00  0.0000000000000D+00  0.0000000000000D+00
278  2.7700000000000D+00  0.0000000000000D+00  0.0000000000000D+00
279  2.7800000000000D+00  0.0000000000000D+00  0.0000000000000D+00
280  2.7900000000000D+00  0.0000000000000D+00  0.0000000000000D+00
281  2.8000000000000D+00  0.0000000000000D+00  0.0000000000000D+00
282  2.8100000000000D+00  0.0000000000000D+00  0.0000000000000D+00
283  2.8200000000000D+00  0.0000000000000D+00  0.0000000000000D+00
284  2.8300000000000D+00  0.0000000000000D+00  0.0000000000000D+00
285  2.8400000000000D+00  0.0000000000000D+00  0.0000000000000D+00
286  2.8500000000000D+00  0.0000000000000D+00  0.0000000000000D+00
287  2.8600000000000D+00  0.0000000000000D+00  0.0000000000000D+00
288  2.8700000000000D+00  0.0000000000000D+00  0.0000000000000D+00
289  2.8800000000000D+00  0.0000000000000D+00  0.0000000000000D+00
290  2.8900000000000D+00  0.0000000000000D+00  0.0000000000000D+00
291  2.9000000000000D+00  0.0000000000000D+00  0.0000000000000D+00
292  2.9100000000000D+00  0.0000000000000D+00  0.0000000000000D+00
293  2.9200000000000D+00  0.0000000000000D+00  0.0000000000000D+00
294  2.9300000000000D+00  0.0000000000000D+00  0.0000000000000D+00
295  2.9400000000000D+00  0.0000000000000D+00  0.0000000000000D+00
296  2.9500000000000D+00  0.0000000000000D+00  0.0000000000000D+00
297  2.9600000000000D+00  0.0000000000000D+00  0.0000000000000D+00
298  2.9700000000000D+00  0.0000000000000D+00  0.0000000000000D+00
299  2.9800000000000D+00  0.0000000000000D+00  0.0000000000000D+00
300  2.9900000000000D+00  0.0000000000000D+00  0.0000000000000D+00
301  3.0000000000000D+00  0.0000000000000D+00  0.0000000000000D+00
302  3.0100000000000D+00  0.0000000000000D+00  0.0000000000000D+00
303  3.0200000000000D+00  0.0000000000000D+00  0.0000000000000D+00
304  3.0300000000000D+00  0.0000000000000D+00  0.0000000000000D+00
305  3.0400000000000D+00  0.0000000000000D+00  0.0000000000000D+00
306  3.0500000000000D+00  0.0000000000000D+00  0.0000000000000D+00
307  3.0600000000000D+00  0.0000000000000D+00  0.0000000000000D+00
308  3.0700000000000D+00  0.0000000000000D+00  0.0000000000000D+00
309  3.0800000000000D+00  0.0000000000000D+00  0.0000000000000D+00
310  3.0900000000000D+00  0.0000000000000D+00  0.0000000000000D+00
311  3.1000000000000D+00  0.0000000000000D+00  0.0000000000000D+00
312  3.1100000000000D+00  0.0000000000000D+00  0.0000000000000D+00
313  3.1200000000000D+00  0.0000000000000D+00  0.0000000000000D+00
314  3.1300000000000D+00  0.0000000000000D+00  0.0000000000000D+00
315  3.1400000000000D+00  0.0000000000000D+00  0.0000000000000D+00
316  3.1500000000000D+00  0.0000000000000D+00  0.0000000000000D+00
317  3.1600000000000D+00  0.0000000000000D+00  0.0000000000000D+00
318  3.1700000000000D+00  0.0000000000000D+00  0.0000000000000D+00
319  3.1800000000000D+00  0.0000000000000D+00  0.0000000000000D+00
320  3.1900000000000D+00  0.0000000000000D+00  0.0000000000000D+00
321  3.2000000000000D+00  0.0000000000000D+00  0.0000000000000D+00
322  3.2100000000000D+00  0.0000000000000D+00  0.0000000000000D+00
323  3.2200000000000D+00  0.0000000000000D+00  0.0000000000000D+00
324  3.2300000000000D+00  0.0000000000000D+00  0.0000000000000D+00
325  3.2400000000000D+00  0.0000000000000D+00  0.0000000000000D+00
326  3.2500000000000D+00  0.0000000000000D+00  0.0000000000000D+00
327  3.2600000000000D+00  0.0000000000000D+00  0.0000000000000D+00
328  3.2700000000000D+00  0.0000000000000D+00  0.0000000000000D+00
329  3.2800000000000D+00  0.0000000000000D+00  0.0000000000000D+00
330  3.2900000000000D+00  0.0000000000000D+00  0.0000000000000D+00
331  3.3000000000000D+00  0.0000000000000D+00  0.0000000000000D+00
332  3.3100000000000D+00  0.0000000000000D+00  0.0000000000000D+00
333  3.3200000000000D+00  0.0000000000000D+00  0.0000000000000D+00
334  3.3300000000000D+00  0.0000000000000D+00  0.0000000000000D+00
335  3.3400000000000D+00  0.0000000000000D+00  0.0000000000000D+00
336  3.3500000000000D+00  0.0000000000000D+00  0.0000000000000D+00
337  3.3600000000000D+00  0.0000000000000D+00  0.0000000000000D+00
338  3.3700000000000D+00  0.0000000000000D+00  0.0000000000000D+00
339  3.3800000000000D+00  0.0000000000000D+00  0.0000000000000D+00
340  3.3900000000000D+00  0.0000000000000D+00  0.0000000000000D+00
341  3.4000000000000D+00  0.0000000000000D+00  0.0000000000000D+00
342  3.4100000000000D+00  0.0000000000000D+00  0.0000000000000D+00
343  3.4200000000000D+00  0.0000000000000D+00  0.0000000000000D+00
344  3.4300000000000D+00  0.0000000000000D+00  0.0000000000000D+00
345  3.4400000000000D+00  0.0000000000000D+00  0.0000000000000D+00
346  3.4500000000000D+00  0.0000000000000D+00  0.0000000000000D+00
347  3.4600000000000D+00  0.0000000000000D+00  0.0000000000000D+00
348  3.4700000000000D+00  0.0000000000000D+00  0.0000000000000D+00
349  3.4800000000000D+00  0.0000000000000D+00  0.0000000000000D+00
350  3.4900000000000D+00  0.0000000000000D+00  0.0000000000000D+00
351  3.5000000000000D+00  0.0000000000000D+00  0.0000000000000D+00
352  3.5100000000000D+00  0.0000000000000D+00  0.0000000000000D+00
353  3.5200000000000D+00  0.0000000000000D+00  0.0000000000000D+00
354  3.5300000000000D+00  0.0000000000000D+00  0.0000000000000D+00
355  3.5400000000000D+00  0.0000000000000D+00  0.0000000000000D+00
356  3.5500000000000D+00  0.0000000000000D+00  0.0000000000000D+00
357  3.5600000000000D+00  0.0000000000000D+00  0.0000000000000D+00
358  3.5700000000000D+00  0.0000000000000D+00  0.0000000000000D+00
359  3.5800000000000D+00  0.0000000000000D+00  0.0000000000000D+00
360  3.5900000000000D+00  0.0000000000000D+00  0.0000000000000D+00
361  3.6000000000000D+00  0.0000000000000D+00  0.0000000000000D+00
362  3.6100000000000D+00  0.0000000000000D+00  0.0000000000000D+00
363  3.6200000000000D+00  0.0000000000000D+00  0.0000000000000D+00
364  3.6300000000000D+00  0.0000000000000D+00  0.0000000000000D+00
365  3.6400000000000D+00  0.0000000000000D+00  0.0000000000000D+00
366  3.6500000000000D+00  0.0000000000000D+00  0.0000000000000D+00
367  3.6600000000000D+00  0.0000000000000D+00  0.0000000000000D+00
368  3.6700000000000D+00  0.0000000000000D+00  0.0000000000000D+00
369  3.6800000000000D+00  0.0000000000000D+00  0.0000000000000D+00
370  3.6900000000000D+00  0.0000000000000D+00  0.0000000000000D+00
371  3.7000000000000D+00  0.0000000000000D+00  0.0000000000000D+00
372  3.7100000000000D+00  0.0000000000000D+00  0.0000000000000D+00
373  3.7200000000000D+00  0.0000000000000D+00  0.0000000000000D+00
374  3.7300000000000D+00  0.0000000000000D+00  0.0000000000000D+00
375  3.7400000000000D+00  0.0000000000000D+00  0.0000000000000D+00
376  3.7500000000000D+00  0.0000000000000D+00  0.0000000000000D+00
377  3.7600000000000D+00  0.0000000000000D+00  0.0000000000000D+00
378  3.7700000000000D+00  0.0000000000000D+00  0.0000000000000D+00
379  3.7800000000000D+00  0.0000000000000D+00  0.0000000000000D+00
380  3.7900000000000D+00  0.0000000000000D+00  0.0000000000000D+00
381  3.8000000000000D+00  0.0000000000000D+00  0.0000000000000D+00
382  3.8100000000000D+00  0.0000000000000D+00  0.0000000000000D+00
383  3.8200000000000D+00  0.0000000000000D+00  0.0000000000000D+00
384  3.8300000000000D+00  0.0000000000000D+00  0.0000000000000D+00
385  3.8400000000000D+00  0.0000000000000D+00  0.0000000000000D+00
386  3.8500000000000D+00  0.0000000000000D+00  0.0000000000000D+00
387  3.8600000000000D+00  0.0000000000000D+00  0.0000000000000D+00
388  3.8700000000000D+00  0.0000000000000D+00  0.0000000000000D+00
389  3.8800000000000D+00  0.0000000000000D+00  0.0000000000000D+00
390  3.8900000000000D+00  0.0000000000000D+00  0.0000000000000D+00
391  3.9000000000000D+00  0.0000000000000D+00  0.0000000000000D+00
392  3.9100000000000D+00  0.0000000000000D+00  0.0000000000000D+00
393  3.9200000000000D+00  0.0000000000000D+00  0.0000000000000D+00
394  3.9300000000000D+00  0.0000000000000D+00  0.0000000000000D+00
395  3.9400000000000D+00  0.0000000000000D+00  0.0000000000000D+00
396  3.9500000000000D+00  0.0000000000000D+00  0.0000000000000D+00
397  3.9600000000000D+00  0.0000000000000D+00  0.0000000000000D+00
398  3.9700000000000D+00  0.0000000000000D+00  0.0000000000000D+00
399  3.9800000000000D+00  0.0000000000000D+00  0.0000000000000D+00
400  3.9900000000000D+00  0.0000000000000D+00  0.0000000000000D+00
401  4.0000000000000D+00  0.0000000000000D+00  0.0000000000000D+00
402  4.0100000000000D+00  0.0000000000000D+00  0.0000000000000D+00
403  4.0200000000000D+00  0.0000000000000D+00  0.0000000000000D+00
404  4.0300000000000D+00  0.0000000000000D+00  0.0000000000000D+00
405  4.0400000000000D+00  0.0000000000000D+00  0.0000000000000D+00
406  4.0500000000000D+00  0.0000000000000D+00  0.0000000000000D+00
407  4.0600000000000D+00  0.0000000000000D+00  0.0000000000000D+00
408  4.0700000000000D+00  0.0000000000000D+00  0.0000000000000D+00
409  4.0800000000000D+00  0.0000000000000D+00  0.0000000000000D+00
410  4.0900000000000D+00  0.0000000000000D+00  0.0000000000000D+00
411  4.1000000000000D+00  0.0000000000000D+00  0.0000000000000D+00
412  4.1100000000000D+00  0.0000000000000D+00  0.0000000000000D+00
413  4.1200000000000D+00  0.0000000000000D+00  0.0000000000000D+00
414  4.1300000000000D+00  0.0000000000000D+00  0.0000000000000D+00
415  4.1400000000000D+00  0.0000000000000D+00  0.0000000000000D+00
416  4.1500000000000D+00  0.0000000000000D+00  0.0000000000000D+00
417  4.1600000000000D+00  0.0000000000000D+00  0.0000000000000D+00
418  4.1700000000000D+00  0.0000000000000D+00  0.0000000000000D+00
419  4.1800000000000D+00  0.0000000000000D+00  0.0000000000000D+00
420  4.1900000000000D+00  0.0000000000000D+00  0.0000000000000D+00
421  4.2000000000000D+00  0.0000000000000D+00  0.0000000000000D+00
422  4.2100000000000D+00  0.0000000000000D+00  0.0000000000000D+00
423  4.2200000000000D+00  0.0000000000000D+00  0.0000000000000D+00
424  4.2300000000000D+00  0.0000000000000D+00  0.0000000000000D+00
425  4.2400000000000D+00  0.0000000000000D+00  0.0000000000000D+00
426  4.2500000000000D+00  0.0000000000000D+00  0.0000000000000D+00
427  4.2600000000000D+00  0.0000000000000D+00  0.0000000000000D+00
428  4.2700000000000D+00  0.0000000000000D+00  0.0000000000000D+00
429  4.2800000000000D+00  0.0000000000000D+00  0.0000000000000D+00
430  4.2900000000000D+00  0.0000000000000D+00  0.0000000000000D+00
431  4.3000000000000D+00  0.0000000000000D+00  0.0000000000000D+00
432  4.3100000000000D+00  0.0000000000000D+00  0.0000000000000D+00
433  4.3200000000000D+00  0.0000000000000D+00  0.0000000000000D+00
434  4.3300000000000D+00  0.0000000000000D+00  0.0000000000000D+00
435  4.3400000000000D+00  0.0000000000000D+00  0.0000000000000D+00
436  4.3500000000000D+00  0.0000000000000D+00  0.0000000000000D+00
437  4.3600000000000D+00  0.0000000000000D+00  0.0000000000000D+00
438  4.3700000000000D+00  0.0000000000000D+00  0.0000000000000D+00
439  4.3800000000000D+00  0.0000000000000D+00  0.0000000000000D+00
440  4.3900000000000D+00  0.0000000000000D+00  0.0000000000000D+00
441  4.4000000000000D+00  0.0000000000000D+00  0.0000000000000D+00
442  4.4100000000000D+00  0.0000000000000D+00  0.0000000000000D+00
443  4.4200000000000D+00  0.0000000000000D+00  0.0000000000000D+00