Ba    ONCVPSP-3.3.0  r_core=   2.15444   1.91218   2.15444
56.0000     10.0000      171108    zatom,zion,pspd
8   -1012   2     4   600     0    pspcod,pspxc,lmax,lloc,mmax,r2well
5.99000000  5.00000000  0.00000000    rchrg fchrg qchrg
2     2     2     0     0    nproj
1     1           extension_switch
0                         6.6684551467768D+00  6.8565680806678D-01
1  0.0000000000000D+00  5.8404669989187D-12 -1.6856597714887D-11
2  1.0000000000000D-02  2.6025695526200D-02  1.0076312182024D-03
3  2.0000000000000D-02  5.2055089469426D-02  1.9721893255016D-03
4  3.0000000000000D-02  7.8091792471067D-02  2.8508602998253D-03
5  4.0000000000000D-02  1.0413924001548D-01  3.6013471712238D-03
6  5.0000000000000D-02  1.3020060583558D-01  4.1821257383142D-03
7  6.0000000000000D-02  1.5627871649534D-01  4.5526969250317D-03
8  7.0000000000000D-02  1.8237596753456D-01  4.6738346774542D-03
9  8.0000000000000D-02  2.0849424155560D-01  4.5078283173205D-03
10  9.0000000000000D-02  2.3463482862457D-01  4.0187182896784D-03
11  1.0000000000000D-01  2.6079834935064D-01  3.1725242671160D-03
12  1.1000000000000D-01  2.8698468099725D-01  1.9374646018482D-03
13  1.2000000000000D-01  3.1319288696785D-01  2.8416614971484D-04
14  1.3000000000000D-01  3.3942114999573D-01 -1.8141364733517D-03
15  1.4000000000000D-01  3.6566670935403D-01 -4.3814131016697D-03
16  1.5000000000000D-01  3.9192580238670D-01 -7.4386625526044D-03
17  1.6000000000000D-01  4.1819361064487D-01 -1.1003750290343D-02
18  1.7000000000000D-01  4.4446421089596D-01 -1.5091259979050D-02
19  1.8000000000000D-01  4.7073053125398D-01 -1.9712359630262D-02
20  1.9000000000000D-01  4.9698431266062D-01 -2.4874682993417D-02
21  2.0000000000000D-01  5.2321607592575D-01 -3.0582226779322D-02
22  2.1000000000000D-01  5.4941509451532D-01 -3.6835264245065D-02
23  2.2000000000000D-01  5.7556937325208D-01 -4.3630275605049D-02
24  2.3000000000000D-01  6.0166563307232D-01 -5.0959895667209D-02
25  2.4000000000000D-01  6.2768930195815D-01 -5.8812879025624D-02
26  2.5000000000000D-01  6.5362451214094D-01 -6.7174083071643D-02
27  2.6000000000000D-01  6.7945410364731D-01 -7.6024469014757D-02
28  2.7000000000000D-01  7.0515963423415D-01 -8.5341121032907D-02
29  2.8000000000000D-01  7.3072139573405D-01 -9.5097283598928D-02
30  2.9000000000000D-01  7.5611843680720D-01 -1.0526241695672D-01
31  3.0000000000000D-01  7.8132859207054D-01 -1.1580227064686D-01
32  3.1000000000000D-01  8.0632851754923D-01 -1.2667897490776D-01
33  3.2000000000000D-01  8.3109373237024D-01 -1.3785114970460D-01
34  3.3000000000000D-01  8.5559866659266D-01 -1.4927403106524D-01
35  3.4000000000000D-01  8.7981671504409D-01 -1.6089961432992D-01
36  3.5000000000000D-01  9.0372029700798D-01 -1.7267681384972D-01
37  3.6000000000000D-01  9.2728092158239D-01 -1.8455163859905D-01
38  3.7000000000000D-01  9.5046925850719D-01 -1.9646738309842D-01
39  3.8000000000000D-01  9.7325521423303D-01 -2.0836483297696D-01
40  3.9000000000000D-01  9.9560801298368D-01 -2.2018248443966D-01
41  4.0000000000000D-01  1.0174962825412D+00 -2.3185677684151D-01
42  4.1000000000000D-01  1.0388881444628D+00 -2.4332233751143D-01
43  4.2000000000000D-01  1.0597513084186D+00 -2.5451223791146D-01
44  4.3000000000000D-01  1.0800531703208D+00 -2.6535826016357D-01
45  4.4000000000000D-01  1.0997609138963D+00 -2.7579117292528D-01
46  4.5000000000000D-01  1.1188416153400D+00 -2.8574101554903D-01
47  4.6000000000000D-01  1.1372623506699D+00 -2.9513738941733D-01
48  4.7000000000000D-01  1.1549903053900D+00 -3.0390975530583D-01
49  4.8000000000000D-01  1.1719928860581D+00 -3.1198773559305D-01
50  4.9000000000000D-01  1.1882378333414D+00 -3.1930142010397D-01
51  5.0000000000000D-01  1.2036933361338D+00 -3.2578167434950D-01
52  5.1000000000000D-01  1.2183281463038D+00 -3.3136044890274D-01
53  5.2000000000000D-01  1.2321116936315D+00 -3.3597108863635D-01
54  5.3000000000000D-01  1.2450142004924D+00 -3.3954864053478D-01
55  5.4000000000000D-01  1.2570067958396D+00 -3.4203015878822D-01
56  5.5000000000000D-01  1.2680616280376D+00 -3.4335500587480D-01
57  5.6000000000000D-01  1.2781519760998D+00 -3.4346514834145D-01
58  5.7000000000000D-01  1.2872523588848D+00 -3.4230544600327D-01
59  5.8000000000000D-01  1.2953386418094D+00 -3.3982393329663D-01
60  5.9000000000000D-01  1.3023881406449D+00 -3.3597209154061D-01
61  6.0000000000000D-01  1.3083797219670D+00 -3.3070511088752D-01
62  6.1000000000000D-01  1.3132938998427D+00 -3.2398214077299D-01
63  6.2000000000000D-01  1.3171129283457D+00 -3.1576652771321D-01
64  6.3000000000000D-01  1.3198208895058D+00 -3.0602603933641D-01
65  6.4000000000000D-01  1.3214037763131D+00 -2.9473307358258D-01
66  6.5000000000000D-01  1.3218495704112D+00 -2.8186485205580D-01
67  6.6000000000000D-01  1.3211483141340D+00 -2.6740359656897D-01
68  6.7000000000000D-01  1.3192921765569D+00 -2.5133668798069D-01
69  6.8000000000000D-01  1.3162755132576D+00 -2.3365680648866D-01
70  6.9000000000000D-01  1.3120949194987D+00 -2.1436205261193D-01
71  7.0000000000000D-01  1.3067492765714D+00 -1.9345604816684D-01
72  7.1000000000000D-01  1.3002397910620D+00 -1.7094801661765D-01
73  7.2000000000000D-01  1.2925700268301D+00 -1.4685284226143D-01
74  7.3000000000000D-01  1.2837459295108D+00 -1.2119110779006D-01
75  7.4000000000000D-01  1.2737758433852D+00 -9.3989109856233D-02
76  7.5000000000000D-01  1.2626705204869D+00 -6.5278852358285D-02
77  7.6000000000000D-01  1.2504431218466D+00 -3.5098017248474D-02
78  7.7000000000000D-01  1.2371092108011D+00 -3.4899127596447D-03
79  7.8000000000000D-01  1.2226867383278D+00  2.9496600961190D-02
80  7.9000000000000D-01  1.2071960203933D+00  6.3807208731375D-02
81  8.0000000000000D-01  1.1906597073372D+00  9.9382259547202D-02
82  8.1000000000000D-01  1.1731027453422D+00  1.3615690786523D-01
83  8.2000000000000D-01  1.1545523300741D+00  1.7406127658633D-01
84  8.3000000000000D-01  1.1350378526027D+00  2.1302064128550D-01
85  8.4000000000000D-01  1.1145908377503D+00  2.5295563513822D-01
86  8.5000000000000D-01  1.0932448750393D+00  2.9378247390292D-01
87  8.6000000000000D-01  1.0710355424446D+00  3.3541320023093D-01
88  8.7000000000000D-01  1.0480003231824D+00  3.7775594648785D-01
89  8.8000000000000D-01  1.0241785157968D+00  4.2071521518689D-01
90  8.9000000000000D-01  9.9961113783318D-01  4.6419217605373D-01
91  9.0000000000000D-01  9.7434082341215D-01  5.0808497866506D-01
92  9.1000000000000D-01  9.4841171504507D-01  5.5228907952924D-01
93  9.2000000000000D-01  9.2186935005477D-01  5.9669758240855D-01
94  9.3000000000000D-01  8.9476054198819D-01  6.4120159061751D-01
95  9.4000000000000D-01  8.6713325742890D-01  6.8569056997170D-01
96  9.5000000000000D-01  8.3903648863688D-01  7.3005272100740D-01
97  9.6000000000000D-01  8.1052012246113D-01  7.7417535904258D-01
98  9.7000000000000D-01  7.8163480598658D-01  8.1794530060665D-01
99  9.8000000000000D-01  7.5243180939142D-01  8.6124925472906D-01
100  9.9000000000000D-01  7.2296288650342D-01  9.0397421754536D-01
101  1.0000000000000D+00  6.9328013355411D-01  9.4600786865514D-01
102  1.0100000000000D+00  6.6343584663850D-01  9.8723896764769D-01
103  1.0200000000000D+00  6.3348237839426D-01  1.0275577491999D+00
104  1.0300000000000D+00  6.0347199441868D-01  1.0668563151464D+00
105  1.0400000000000D+00  5.7345672994397D-01  1.1050290219251D+00
106  1.0500000000000D+00  5.4348824729134D-01  1.1419728618093D+00
107  1.0600000000000D+00  5.1361769462220D-01  1.1775878363553D+00
108  1.0700000000000D+00  4.8389556650087D-01  1.2117773205171D+00
109  1.0800000000000D+00  4.5437156677623D-01  1.2444484159093D+00
110  1.0900000000000D+00  4.2509447428143D-01  1.2755122917395D+00
111  1.1000000000000D+00  3.9611201183965D-01  1.3048845119717D+00
112  1.1100000000000D+00  3.6747071905177D-01  1.3324853473363D+00
113  1.1200000000000D+00  3.3921582932690D-01  1.3582400708535D+00
114  1.1300000000000D+00  3.1139115159924D-01  1.3820792356074D+00
115  1.1400000000000D+00  2.8403895715626D-01  1.4039389335743D+00
116  1.1500000000000D+00  2.5719987198262D-01  1.4237610343816D+00
117  1.1600000000000D+00  2.3091277500439D-01  1.4414934029510D+00
118  1.1700000000000D+00  2.0521470258993D-01  1.4570900950735D+00
119  1.1800000000000D+00  1.8014075963921D-01  1.4705115300546D+00
120  1.1900000000000D+00  1.5572403757133D-01  1.4817246396448D+00
121  1.2000000000000D+00  1.3199553948701D-01  1.4907029925829D+00
122  1.2100000000000D+00  1.0898411275296D-01  1.4974268941866D+00
123  1.2200000000000D+00  8.6716389224283D-02  1.5018834605258D+00
124  1.2300000000000D+00  6.5216733300637D-02  1.5040666667875D+00
125  1.2400000000000D+00  4.4507197962315D-02  1.5039773696079D+00
126  1.2500000000000D+00  2.4607488903590D-02  1.5016233032439D+00
127  1.2600000000000D+00  5.5349368691351D-03  1.4970190494952D+00
128  1.2700000000000D+00 -1.2695521766502D-02  1.4901859815093D+00
129  1.2800000000000D+00 -3.0071356159394D-02  1.4811521816756D+00
130  1.2900000000000D+00 -4.6582443888904D-02  1.4699523338466D+00
131  1.3000000000000D+00 -6.2221065645916D-02  1.4566275903582D+00
132  1.3100000000000D+00 -7.6981891803874D-02  1.4412254143968D+00
133  1.3200000000000D+00 -9.0861960955690D-02  1.4237993982496D+00
134  1.3300000000000D+00 -1.0386065059191D-01  1.4044090582708D+00
135  1.3400000000000D+00 -1.1597964009125D-01  1.3831196073822D+00
136  1.3500000000000D+00 -1.2722286620917D-01  1.3600017059727D+00
137  1.3600000000000D+00 -1.3759647133590D-01  1.3351311923331D+00
138  1.3700000000000D+00 -1.4710874476645D-01  1.3085887936689D+00
139  1.3800000000000D+00 -1.5577005727492D-01  1.2804598188897D+00
140  1.3900000000000D+00 -1.6359278933904D-01  1.2508338345358D+00
141  1.4000000000000D+00 -1.7059125331636D-01  1.2198043250686D+00
142  1.4100000000000D+00 -1.7678160997480D-01  1.1874683390526D+00
143  1.4200000000000D+00 -1.8218177974816D-01  1.1539261226563D+00
144  1.4300000000000D+00 -1.8681134911170D-01  1.1192807419802D+00
145  1.4400000000000D+00 -1.9069147252914D-01  1.0836376958588D+00
146  1.4500000000000D+00 -1.9384477037038D-01  1.0471045206567D+00
147  1.4600000000000D+00 -1.9629522328270D-01  1.0097903887869D+00
148  1.4700000000000D+00 -1.9806806345351D-01  9.7180570255440D-01
149  1.4800000000000D+00 -1.9918966324186D-01  9.3326168504767D-01
150  1.4900000000000D+00 -1.9968742165094D-01  8.9426996972493D-01
151  1.5000000000000D+00 -1.9958964911846D-01  8.5494219043127D-01
152  1.5100000000000D+00 -1.9892545110185D-01  8.1538957345165D-01
153  1.5200000000000D+00 -1.9772461094100D-01  7.7572253333617D-01
154  1.5300000000000D+00 -1.9601747246695D-01  7.3605027405890D-01
155  1.5400000000000D+00 -1.9383482282578D-01  6.9648039713847D-01
156  1.5500000000000D+00 -1.9120777598964D-01  6.5711851830906D-01
157  1.5600000000000D+00 -1.8816765737465D-01  6.1806789412183D-01
158  1.5700000000000D+00 -1.8474589006072D-01  5.7942906016634D-01
159  1.5800000000000D+00 -1.8097388294726D-01  5.4129948191853D-01
160  1.5900000000000D+00 -1.7688292137965D-01  5.0377322006151D-01
161  1.6000000000000D+00 -1.7250406046684D-01  4.6694061082261D-01
162  1.6100000000000D+00 -1.6786802166257D-01  4.3088796331047D-01
163  1.6200000000000D+00 -1.6300509273076D-01  3.9569727400543D-01
164  1.6300000000000D+00 -1.5794503165060D-01  3.6144596030185D-01
165  1.6400000000000D+00 -1.5271697452781D-01  3.2820661305857D-01
166  1.6500000000000D+00 -1.4734934801041D-01  2.9604676981358D-01
167  1.6600000000000D+00 -1.4186978622938D-01  2.6502870845667D-01
168  1.6700000000000D+00 -1.3630505269826D-01  2.3520926275306D-01
169  1.6800000000000D+00 -1.3068096713852D-01  2.0663965931991D-01
170  1.6900000000000D+00 -1.2502233760414D-01  1.7936537720739D-01
171  1.7000000000000D+00 -1.1935289780320D-01  1.5342602943598D-01
172  1.7100000000000D+00 -1.1369524994411D-01  1.2885526745947D-01
173  1.7200000000000D+00 -1.0807081291154D-01  1.0568070757079D-01
174  1.7300000000000D+00 -1.0249977607804D-01  8.3923880128557D-02
175  1.7400000000000D+00 -9.7001058434938D-02  6.3600200186075D-02
176  1.7500000000000D+00 -9.1592273357051D-02  4.4718960418609D-02
177  1.7600000000000D+00 -8.6289698533154D-02  2.7283344393594D-02
178  1.7700000000000D+00 -8.1108251416953D-02  1.1290461207127D-02
179  1.7800000000000D+00 -7.6061469553564D-02 -3.2686010838113D-03
180  1.7900000000000D+00 -7.1161496199215D-02 -1.6408702011075D-02
181  1.8000000000000D+00 -6.6419070412814D-02 -2.8150558393910D-02
182  1.8100000000000D+00 -6.1843522065407D-02 -3.8520635898304D-02
183  1.8200000000000D+00 -5.7442770885057D-02 -4.7551025801735D-02
184  1.8300000000000D+00 -5.3223329837760D-02 -5.5279306219827D-02
185  1.8400000000000D+00 -4.9190312092306D-02 -6.1748390649059D-02
186  1.8500000000000D+00 -4.5347440440339D-02 -6.7006369379540D-02
187  1.8600000000000D+00 -4.1697065034557D-02 -7.1106316398618D-02
188  1.8700000000000D+00 -3.8240171764575D-02 -7.4106142364752D-02
189  1.8800000000000D+00 -3.4976407992050D-02 -7.6068374022057D-02
190  1.8900000000000D+00 -3.1904131778549D-02 -7.7059829817527D-02
191  1.9000000000000D+00 -2.9020386808367D-02 -7.7151623900533D-02
192  1.9100000000000D+00 -2.6320812710014D-02 -7.6419504940317D-02
193  1.9200000000000D+00 -2.3799986557337D-02 -7.4942182943517D-02
194  1.9300000000000D+00 -2.1451601425441D-02 -7.2800394772396D-02
195  1.9400000000000D+00 -1.9268708164110D-02 -7.0075796836937D-02
196  1.9500000000000D+00 -1.7244048850262D-02 -6.6849441392546D-02
197  1.9600000000000D+00 -1.5370245138542D-02 -6.3200932728817D-02
198  1.9700000000000D+00 -1.3639805633968D-02 -5.9208436066287D-02
199  1.9800000000000D+00 -1.2045176523369D-02 -5.4948509073210D-02
200  1.9900000000000D+00 -1.0578892897992D-02 -5.0495427788687D-02
201  2.0000000000000D+00 -9.2336418221786D-03 -4.5920945674998D-02
202  2.0100000000000D+00 -8.0023525522380D-03 -4.1293920224873D-02
203  2.0200000000000D+00 -6.8782785385862D-03 -3.6679977931682D-02
204  2.0300000000000D+00 -5.8550747140886D-03 -3.2141200218616D-02
205  2.0400000000000D+00 -4.9268708630494D-03 -2.7735825910929D-02
206  2.0500000000000D+00 -4.0883409603844D-03 -2.3517971160414D-02
207  2.0600000000000D+00 -3.3347669033501D-03 -1.9537372613824D-02
208  2.0700000000000D+00 -2.6620976854538D-03 -1.5839149927353D-02
209  2.0800000000000D+00 -2.0670809572313D-03 -1.2464093764968D-02
210  2.0900000000000D+00 -1.5474304953838D-03 -9.4492450305340D-03
211  2.1000000000000D+00 -1.1003642463938D-03 -6.8180912702156D-03
212  2.1100000000000D+00 -7.2384089066865D-04 -4.5854200533411D-03
213  2.1200000000000D+00 -4.2073513749991D-04 -2.7934870642156D-03
214  2.1300000000000D+00 -1.9518529912039D-04 -1.4835073258086D-03
215  2.1400000000000D+00 -4.7850768777904D-05 -6.6394455944705D-04
216  2.1500000000000D+00  2.9079023926758D-05 -2.2364616889684D-04
217  2.1600000000000D+00  4.6905159797147D-05 -3.4846888921865D-05
218  2.1700000000000D+00  2.8194971892124D-05  1.3524513204693D-05
219  2.1800000000000D+00  7.0840174893823D-07  6.4477870309537D-07
220  2.1900000000000D+00 -8.6173872444564D-06 -9.9589146835288D-06
221  2.2000000000000D+00 -5.3617178410811D-06 -7.1561906828014D-06
222  2.2100000000000D+00  8.5569842572668D-07  5.6747606743546D-07
223  2.2200000000000D+00  1.7694923586512D-06  1.3705587222909D-06
224  2.2300000000000D+00  5.5885711753622D-07  4.8132708817283D-07
225  2.2400000000000D+00 -9.8827363170400D-08  2.6672098208510D-07
226  2.2500000000000D+00 -1.0953546534286D-07  2.9562062522121D-07
227  2.2600000000000D+00  0.0000000000000D+00  0.0000000000000D+00
228  2.2700000000000D+00  0.0000000000000D+00  0.0000000000000D+00
229  2.2800000000000D+00  0.0000000000000D+00  0.0000000000000D+00
230  2.2900000000000D+00  0.0000000000000D+00  0.0000000000000D+00
231  2.3000000000000D+00  0.0000000000000D+00  0.0000000000000D+00
232  2.3100000000000D+00  0.0000000000000D+00  0.0000000000000D+00
233  2.3200000000000D+00  0.0000000000000D+00  0.0000000000000D+00
234  2.3300000000000D+00  0.0000000000000D+00  0.0000000000000D+00
235  2.3400000000000D+00  0.0000000000000D+00  0.0000000000000D+00
236  2.3500000000000D+00  0.0000000000000D+00  0.0000000000000D+00
237  2.3600000000000D+00  0.0000000000000D+00  0.0000000000000D+00
238  2.3700000000000D+00  0.0000000000000D+00  0.0000000000000D+00
239  2.3800000000000D+00  0.0000000000000D+00  0.0000000000000D+00
240  2.3900000000000D+00  0.0000000000000D+00  0.0000000000000D+00
241  2.4000000000000D+00  0.0000000000000D+00  0.0000000000000D+00
242  2.4100000000000D+00  0.0000000000000D+00  0.0000000000000D+00
243  2.4200000000000D+00  0.0000000000000D+00  0.0000000000000D+00
244  2.4300000000000D+00  0.0000000000000D+00  0.0000000000000D+00
245  2.4400000000000D+00  0.0000000000000D+00  0.0000000000000D+00
246  2.4500000000000D+00  0.0000000000000D+00  0.0000000000000D+00
247  2.4600000000000D+00  0.0000000000000D+00  0.0000000000000D+00
248  2.4700000000000D+00  0.0000000000000D+00  0.0000000000000D+00
249  2.4800000000000D+00  0.0000000000000D+00  0.0000000000000D+00
250  2.4900000000000D+00  0.0000000000000D+00  0.0000000000000D+00
251  2.5000000000000D+00  0.0000000000000D+00  0.0000000000000D+00
252  2.5100000000000D+00  0.0000000000000D+00  0.0000000000000D+00
253  2.5200000000000D+00  0.0000000000000D+00  0.0000000000000D+00
254  2.5300000000000D+00  0.0000000000000D+00  0.0000000000000D+00
255  2.5400000000000D+00  0.0000000000000D+00  0.0000000000000D+00
256  2.5500000000000D+00  0.0000000000000D+00  0.0000000000000D+00
257  2.5600000000000D+00  0.0000000000000D+00  0.0000000000000D+00
258  2.5700000000000D+00  0.0000000000000D+00  0.0000000000000D+00
259  2.5800000000000D+00  0.0000000000000D+00  0.0000000000000D+00
260  2.5900000000000D+00  0.0000000000000D+00  0.0000000000000D+00
261  2.6000000000000D+00  0.0000000000000D+00  0.0000000000000D+00
262  2.6100000000000D+00  0.0000000000000D+00  0.0000000000000D+00
263  2.6200000000000D+00  0.0000000000000D+00  0.0000000000000D+00
264  2.6300000000000D+00  0.0000000000000D+00  0.0000000000000D+00
265  2.6400000000000D+00  0.0000000000000D+00  0.0000000000000D+00
266  2.6500000000000D+00  0.0000000000000D+00  0.0000000000000D+00
267  2.6600000000000D+00  0.0000000000000D+00  0.0000000000000D+00
268  2.6700000000000D+00  0.0000000000000D+00  0.0000000000000D+00
269  2.6800000000000D+00  0.0000000000000D+00  0.0000000000000D+00
270  2.6900000000000D+00  0.0000000000000D+00  0.0000000000000D+00
271  2.7000000000000D+00  0.0000000000000D+00  0.0000000000000D+00
272  2.7100000000000D+00  0.0000000000000D+00  0.0000000000000D+00
273  2.7200000000000D+00  0.0000000000000D+00  0.0000000000000D+00
274  2.7300000000000D+00  0.0000000000000D+00  0.0000000000000D+00
275  2.7400000000000D+00  0.0000000000000D+00  0.0000000000000D+00
276  2.7500000000000D+00  0.0000000000000D+00  0.0000000000000D+00
277  2.7600000000000D+00  0.0000000000000D+00  0.0000000000000D+00
278  2.7700000000000D+00  0.0000000000000D+00  0.0000000000000D+00
279  2.7800000000000D+00  0.0000000000000D+00  0.0000000000000D+00
280  2.7900000000000D+00  0.0000000000000D+00  0.0000000000000D+00
281  2.8000000000000D+00  0.0000000000000D+00  0.0000000000000D+00
282  2.8100000000000D+00  0.0000000000000D+00  0.0000000000000D+00
283  2.8200000000000D+00  0.0000000000000D+00  0.0000000000000D+00
284  2.8300000000000D+00  0.0000000000000D+00  0.0000000000000D+00
285  2.8400000000000D+00  0.0000000000000D+00  0.0000000000000D+00
286  2.8500000000000D+00  0.0000000000000D+00  0.0000000000000D+00
287  2.8600000000000D+00  0.0000000000000D+00  0.0000000000000D+00
288  2.8700000000000D+00  0.0000000000000D+00  0.0000000000000D+00
289  2.8800000000000D+00  0.0000000000000D+00  0.0000000000000D+00
290  2.8900000000000D+00  0.0000000000000D+00  0.0000000000000D+00
291  2.9000000000000D+00  0.0000000000000D+00  0.0000000000000D+00
292  2.9100000000000D+00  0.0000000000000D+00  0.0000000000000D+00
293  2.9200000000000D+00  0.0000000000000D+00  0.0000000000000D+00
294  2.9300000000000D+00  0.0000000000000D+00  0.0000000000000D+00
295  2.9400000000000D+00  0.0000000000000D+00  0.0000000000000D+00
296  2.9500000000000D+00  0.0000000000000D+00  0.0000000000000D+00
297  2.9600000000000D+00  0.0000000000000D+00  0.0000000000000D+00
298  2.9700000000000D+00  0.0000000000000D+00  0.0000000000000D+00
299  2.9800000000000D+00  0.0000000000000D+00  0.0000000000000D+00
300  2.9900000000000D+00  0.0000000000000D+00  0.0000000000000D+00
301  3.0000000000000D+00  0.0000000000000D+00  0.0000000000000D+00
302  3.0100000000000D+00  0.0000000000000D+00  0.0000000000000D+00
303  3.0200000000000D+00  0.0000000000000D+00  0.0000000000000D+00
304  3.0300000000000D+00  0.0000000000000D+00  0.0000000000000D+00
305  3.0400000000000D+00  0.0000000000000D+00  0.0000000000000D+00
306  3.0500000000000D+00  0.0000000000000D+00  0.0000000000000D+00
307  3.0600000000000D+00  0.0000000000000D+00  0.0000000000000D+00
308  3.0700000000000D+00  0.0000000000000D+00  0.0000000000000D+00
309  3.0800000000000D+00  0.0000000000000D+00  0.0000000000000D+00
310  3.0900000000000D+00  0.0000000000000D+00  0.0000000000000D+00
311  3.1000000000000D+00  0.0000000000000D+00  0.0000000000000D+00
312  3.1100000000000D+00  0.0000000000000D+00  0.0000000000000D+00
313  3.1200000000000D+00  0.0000000000000D+00  0.0000000000000D+00
314  3.1300000000000D+00  0.0000000000000D+00  0.0000000000000D+00
315  3.1400000000000D+00  0.0000000000000D+00  0.0000000000000D+00
316  3.1500000000000D+00  0.0000000000000D+00  0.0000000000000D+00
317  3.1600000000000D+00  0.0000000000000D+00  0.0000000000000D+00
318  3.1700000000000D+00  0.0000000000000D+00  0.0000000000000D+00
319  3.1800000000000D+00  0.0000000000000D+00  0.0000000000000D+00
320  3.1900000000000D+00  0.0000000000000D+00  0.0000000000000D+00
321  3.2000000000000D+00  0.0000000000000D+00  0.0000000000000D+00
322  3.2100000000000D+00  0.0000000000000D+00  0.0000000000000D+00
323  3.2200000000000D+00  0.0000000000000D+00  0.0000000000000D+00
324  3.2300000000000D+00  0.0000000000000D+00  0.0000000000000D+00
325  3.2400000000000D+00  0.0000000000000D+00  0.0000000000000D+00
326  3.2500000000000D+00  0.0000000000000D+00  0.0000000000000D+00
327  3.2600000000000D+00  0.0000000000000D+00  0.0000000000000D+00
328  3.2700000000000D+00  0.0000000000000D+00  0.0000000000000D+00
329  3.2800000000000D+00  0.0000000000000D+00  0.0000000000000D+00
330  3.2900000000000D+00  0.0000000000000D+00  0.0000000000000D+00
331  3.3000000000000D+00  0.0000000000000D+00  0.0000000000000D+00
332  3.3100000000000D+00  0.0000000000000D+00  0.0000000000000D+00
333  3.3200000000000D+00  0.0000000000000D+00  0.0000000000000D+00
334  3.3300000000000D+00  0.0000000000000D+00  0.0000000000000D+00
335  3.3400000000000D+00  0.0000000000000D+00  0.0000000000000D+00
336  3.3500000000000D+00  0.0000000000000D+00  0.0000000000000D+00
337  3.3600000000000D+00  0.0000000000000D+00  0.0000000000000D+00
338  3.3700000000000D+00  0.0000000000000D+00  0.0000000000000D+00
339  3.3800000000000D+00  0.0000000000000D+00  0.0000000000000D+00
340  3.3900000000000D+00  0.0000000000000D+00  0.0000000000000D+00
341  3.4000000000000D+00  0.0000000000000D+00  0.0000000000000D+00
342  3.4100000000000D+00  0.0000000000000D+00  0.0000000000000D+00
343  3.4200000000000D+00  0.0000000000000D+00  0.0000000000000D+00
344  3.4300000000000D+00  0.0000000000000D+00  0.0000000000000D+00
345  3.4400000000000D+00  0.0000000000000D+00  0.0000000000000D+00
346  3.4500000000000D+00  0.0000000000000D+00  0.0000000000000D+00
347  3.4600000000000D+00  0.0000000000000D+00  0.0000000000000D+00
348  3.4700000000000D+00  0.0000000000000D+00  0.0000000000000D+00
349  3.4800000000000D+00  0.0000000000000D+00  0.0000000000000D+00
350  3.4900000000000D+00  0.0000000000000D+00  0.0000000000000D+00
351  3.5000000000000D+00  0.0000000000000D+00  0.0000000000000D+00
352  3.5100000000000D+00  0.0000000000000D+00  0.0000000000000D+00
353  3.5200000000000D+00  0.0000000000000D+00  0.0000000000000D+00
354  3.5300000000000D+00  0.0000000000000D+00  0.0000000000000D+00
355  3.5400000000000D+00  0.0000000000000D+00  0.0000000000000D+00
356  3.5500000000000D+00  0.0000000000000D+00  0.0000000000000D+00
357  3.5600000000000D+00  0.0000000000000D+00  0.0000000000000D+00
358  3.5700000000000D+00  0.0000000000000D+00  0.0000000000000D+00
359  3.5800000000000D+00  0.0000000000000D+00  0.0000000000000D+00
360  3.5900000000000D+00  0.0000000000000D+00  0.0000000000000D+00
361  3.6000000000000D+00  0.0000000000000D+00  0.0000000000000D+00
362  3.6100000000000D+00  0.0000000000000D+00  0.0000000000000D+00
363  3.6200000000000D+00  0.0000000000000D+00  0.0000000000000D+00
364  3.6300000000000D+00  0.0000000000000D+00  0.0000000000000D+00
365  3.6400000000000D+00  0.0000000000000D+00  0.0000000000000D+00
366  3.6500000000000D+00  0.0000000000000D+00  0.0000000000000D+00
367  3.6600000000000D+00  0.0000000000000D+00  0.0000000000000D+00
368  3.6700000000000D+00  0.0000000000000D+00  0.0000000000000D+00
369  3.6800000000000D+00  0.0000000000000D+00  0.0000000000000D+00
370  3.6900000000000D+00  0.0000000000000D+00  0.0000000000000D+00
371  3.7000000000000D+00  0.0000000000000D+00  0.0000000000000D+00
372  3.7100000000000D+00  0.0000000000000D+00  0.0000000000000D+00
373  3.7200000000000D+00  0.0000000000000D+00  0.0000000000000D+00
374  3.7300000000000D+00  0.0000000000000D+00  0.0000000000000D+00
375  3.7400000000000D+00  0.0000000000000D+00  0.0000000000000D+00
376  3.7500000000000D+00  0.0000000000000D+00  0.0000000000000D+00
377  3.7600000000000D+00  0.0000000000000D+00  0.0000000000000D+00
378  3.7700000000000D+00  0.0000000000000D+00  0.0000000000000D+00
379  3.7800000000000D+00  0.0000000000000D+00  0.0000000000000D+00
380  3.7900000000000D+00  0.0000000000000D+00  0.0000000000000D+00
381  3.8000000000000D+00  0.0000000000000D+00  0.0000000000000D+00
382  3.8100000000000D+00  0.0000000000000D+00  0.0000000000000D+00
383  3.8200000000000D+00  0.0000000000000D+00  0.0000000000000D+00
384  3.8300000000000D+00  0.0000000000000D+00  0.0000000000000D+00
385  3.8400000000000D+00  0.0000000000000D+00  0.0000000000000D+00
386  3.8500000000000D+00  0.0000000000000D+00  0.0000000000000D+00
387  3.8600000000000D+00  0.0000000000000D+00  0.0000000000000D+00
388  3.8700000000000D+00  0.0000000000000D+00  0.0000000000000D+00
389  3.8800000000000D+00  0.0000000000000D+00  0.0000000000000D+00
390  3.8900000000000D+00  0.0000000000000D+00  0.0000000000000D+00
391  3.9000000000000D+00  0.0000000000000D+00  0.0000000000000D+00
392  3.9100000000000D+00  0.0000000000000D+00  0.0000000000000D+00
393  3.9200000000000D+00  0.0000000000000D+00  0.0000000000000D+00
394  3.9300000000000D+00  0.0000000000000D+00  0.0000000000000D+00
395  3.9400000000000D+00  0.0000000000000D+00  0.0000000000000D+00
396  3.9500000000000D+00  0.0000000000000D+00  0.0000000000000D+00
397  3.9600000000000D+00  0.0000000000000D+00  0.0000000000000D+00
398  3.9700000000000D+00  0.0000000000000D+00  0.0000000000000D+00
399  3.9800000000000D+00  0.0000000000000D+00  0.0000000000000D+00
400  3.9900000000000D+00  0.0000000000000D+00  0.0000000000000D+00
401  4.0000000000000D+00  0.0000000000000D+00  0.0000000000000D+00
402  4.0100000000000D+00  0.0000000000000D+00  0.0000000000000D+00
403  4.0200000000000D+00  0.0000000000000D+00  0.0000000000000D+00
404  4.0300000000000D+00  0.0000000000000D+00  0.0000000000000D+00
405  4.0400000000000D+00  0.0000000000000D+00  0.0000000000000D+00
406  4.0500000000000D+00  0.0000000000000D+00  0.0000000000000D+00
407  4.0600000000000D+00  0.0000000000000D+00  0.0000000000000D+00
408  4.0700000000000D+00  0.0000000000000D+00  0.0000000000000D+00
409  4.0800000000000D+00  0.0000000000000D+00  0.0000000000000D+00
410  4.0900000000000D+00  0.0000000000000D+00  0.0000000000000D+00
411  4.1000000000000D+00  0.0000000000000D+00  0.0000000000000D+00
412  4.1100000000000D+00  0.0000000000000D+00  0.0000000000000D+00
413  4.1200000000000D+00  0.0000000000000D+00  0.0000000000000D+00
414  4.1300000000000D+00  0.0000000000000D+00  0.0000000000000D+00
415  4.1400000000000D+00  0.0000000000000D+00  0.0000000000000D+00
416  4.1500000000000D+00  0.0000000000000D+00  0.0000000000000D+00
417  4.1600000000000D+00  0.0000000000000D+00  0.0000000000000D+00
418  4.1700000000000D+00  0.0000000000000D+00  0.0000000000000D+00
419  4.1800000000000D+00  0.0000000000000D+00  0.0000000000000D+00
420  4.1900000000000D+00  0.0000000000000D+00  0.0000000000000D+00
421  4.2000000000000D+00  0.0000000000000D+00  0.0000000000000D+00
422  4.2100000000000D+00  0.0000000000000D+00  0.0000000000000D+00
423  4.2200000000000D+00  0.0000000000000D+00  0.0000000000000D+00
424  4.2300000000000D+00  0.0000000000000D+00  0.0000000000000D+00
425  4.2400000000000D+00  0.0000000000000D+00  0.0000000000000D+00
426  4.2500000000000D+00  0.0000000000000D+00  0.0000000000000D+00
427  4.2600000000000D+00  0.0000000000000D+00  0.0000000000000D+00
428  4.2700000000000D+00  0.0000000000000D+00  0.0000000000000D+00
429  4.2800000000000D+00  0.0000000000000D+00  0.0000000000000D+00
430  4.2900000000000D+00  0.0000000000000D+00  0.0000000000000D+00
431  4.3000000000000D+00  0.0000000000000D+00  0.0000000000000D+00
432  4.3100000000000D+00  0.0000000000000D+00  0.0000000000000D+00
433  4.3200000000000D+00  0.0000000000000D+00  0.0000000000000D+00
434  4.3300000000000D+00  0.0000000000000D+00  0.0000000000000D+00
435  4.3400000000000D+00  0.0000000000000D+00  0.0000000000000D+00
436  4.3500000000000D+00  0.0000000000000D+00  0.0000000000000D+00
437  4.3600000000000D+00  0.0000000000000D+00  0.0000000000000D+00
438  4.3700000000000D+00  0.0000000000000D+00  0.0000000000000D+00
439  4.3800000000000D+00  0.0000000000000D+00  0.0000000000000D+00
440  4.3900000000000D+00  0.0000000000000D+00  0.0000000000000D+00
441  4.4000000000000D+00  0.0000000000000D+00  0.0000000000000D+00
442  4.4100000000000D+00  0.0000000000000D+00  0.0000000000000D+00
443  4.4200000000000D+00  0.0000000000000D+00  0.0000000000000D+00