<UPF version="2.0.1">
  <PP_INFO>

 This pseudopotential file has been produced using the code
 ONCVPSP  (Optimized Norm-Conservinng Vanderbilt PSeudopotential)
 scalar-relativistic version 3.3.1 12/12/2017 by D. R. Hamann
 The code is available through a link at URL www.mat-simresearch.com.
 Documentation with the package provides a full discription of the
 input data below.


 While it is not required under the terms of the GNU GPL, it is
 suggested that you cite D. R. Hamann, Phys. Rev. B 88, 085117 (2013)
 in any publication using these pseudopotentials.

    <PP_INPUTFILE>
# ATOM AND REFERENCE CONFIGURATION
# atsym  z   nc   nv     iexc    psfile
  F  9.00    1    2   -1012      both
#
#   n    l    f        energy (Ha)
    1    0    2.00
    2    0    2.00
    2    1    5.00
#
# PSEUDOPOTENTIAL AND OPTIMIZATION
# lmax
    2
#
#   l,   rc,      ep,       ncon, nbas, qcut
    0   1.30000  -1.08958    4    8   8.60000
    1   1.45000  -0.41509    4    8   9.00000
    2   1.60000   0.20000    4    8   5.80000
#
# LOCAL POTENTIAL
# lloc, lpopt,  rc(5),   dvloc0
    4    5   0.95000      0.00000
#
# VANDERBILT-KLEINMAN-BYLANDER PROJECTORs
# l, nproj, debl
    0    2   1.50000
    1    2   1.50000
    2    1   2.00000
#
# MODEL CORE CHARGE
# icmod, fcfact, rcfact
    3   2.50000   1.85000
#
# LOG DERIVATIVE ANALYSIS
# epsh1, epsh2, depsh
  -12.00   12.00    0.02
#
# OUTPUT GRID
# rlmax, drl
    6.00    0.01
#
# TEST CONFIGURATIONS
# ncnf
    0
# nvcnf
#   n    l    f
    </PP_INPUTFILE>
  </PP_INFO>
  <!--                               -->
  <!-- END OF HUMAN READABLE SECTION -->
  <!--                               -->
    <PP_HEADER
       generated="Generated using ONCVPSP code by D. R. Hamann"
       author="anonymous"
       date="201202"
       comment=""
       element="F "
       pseudo_type="NC"
       relativistic="scalar"
       is_ultrasoft="F"
       is_paw="F"
       is_coulomb="F"
       has_so="F"
       has_wfc="F"
       has_gipaw="F"
       core_correction="T"
       functional="SLA  PW   NOGX NOGC"
       z_valence="    7.00"
       total_psenergy="  -4.77075840293E+01"
       rho_cutoff="   8.23000000000E+00"
       l_max="2"
       l_local="-1"
       mesh_size="   824"
       number_of_wfc="2"
       number_of_proj="5"/>
 <PP_MESH>
   <PP_R type="real"  size=" 824" columns="8">
    0.0000    0.0100    0.0200    0.0300    0.0400    0.0500    0.0600    0.0700
    0.0800    0.0900    0.1000    0.1100    0.1200    0.1300    0.1400    0.1500
    0.1600    0.1700    0.1800    0.1900    0.2000    0.2100    0.2200    0.2300
    0.2400    0.2500    0.2600    0.2700    0.2800    0.2900    0.3000    0.3100
    0.3200    0.3300    0.3400    0.3500    0.3600    0.3700    0.3800    0.3900
    0.4000    0.4100    0.4200    0.4300    0.4400    0.4500    0.4600    0.4700
    0.4800    0.4900    0.5000    0.5100    0.5200    0.5300    0.5400    0.5500
    0.5600    0.5700    0.5800    0.5900    0.6000    0.6100    0.6200    0.6300
    0.6400    0.6500    0.6600    0.6700    0.6800    0.6900    0.7000    0.7100
    0.7200    0.7300    0.7400    0.7500    0.7600    0.7700    0.7800    0.7900
    0.8000    0.8100    0.8200    0.8300    0.8400    0.8500    0.8600    0.8700
    0.8800    0.8900    0.9000    0.9100    0.9200    0.9300    0.9400    0.9500
    0.9600    0.9700    0.9800    0.9900    1.0000    1.0100    1.0200    1.0300
    1.0400    1.0500    1.0600    1.0700    1.0800    1.0900    1.1000    1.1100
    1.1200    1.1300    1.1400    1.1500    1.1600    1.1700    1.1800    1.1900
    1.2000    1.2100    1.2200    1.2300    1.2400    1.2500    1.2600    1.2700
    1.2800    1.2900    1.3000    1.3100    1.3200    1.3300    1.3400    1.3500
    1.3600    1.3700    1.3800    1.3900    1.4000    1.4100    1.4200    1.4300
    1.4400    1.4500    1.4600    1.4700    1.4800    1.4900    1.5000    1.5100
    1.5200    1.5300    1.5400    1.5500    1.5600    1.5700    1.5800    1.5900
    1.6000    1.6100    1.6200    1.6300    1.6400    1.6500    1.6600    1.6700
    1.6800    1.6900    1.7000    1.7100    1.7200    1.7300    1.7400    1.7500
    1.7600    1.7700    1.7800    1.7900    1.8000    1.8100    1.8200    1.8300
    1.8400    1.8500    1.8600    1.8700    1.8800    1.8900    1.9000    1.9100
    1.9200    1.9300    1.9400    1.9500    1.9600    1.9700    1.9800    1.9900
    2.0000    2.0100    2.0200    2.0300    2.0400    2.0500    2.0600    2.0700
    2.0800    2.0900    2.1000    2.1100    2.1200    2.1300    2.1400    2.1500
    2.1600    2.1700    2.1800    2.1900    2.2000    2.2100    2.2200    2.2300
    2.2400    2.2500    2.2600    2.2700    2.2800    2.2900    2.3000    2.3100
    2.3200    2.3300    2.3400    2.3500    2.3600    2.3700    2.3800    2.3900
    2.4000    2.4100    2.4200    2.4300    2.4400    2.4500    2.4600    2.4700
    2.4800    2.4900    2.5000    2.5100    2.5200    2.5300    2.5400    2.5500
    2.5600    2.5700    2.5800    2.5900    2.6000    2.6100    2.6200    2.6300
    2.6400    2.6500    2.6600    2.6700    2.6800    2.6900    2.7000    2.7100
    2.7200    2.7300    2.7400    2.7500    2.7600    2.7700    2.7800    2.7900
    2.8000    2.8100    2.8200    2.8300    2.8400    2.8500    2.8600    2.8700
    2.8800    2.8900    2.9000    2.9100    2.9200    2.9300    2.9400    2.9500
    2.9600    2.9700    2.9800    2.9900    3.0000    3.0100    3.0200    3.0300
    3.0400    3.0500    3.0600    3.0700    3.0800    3.0900    3.1000    3.1100
    3.1200    3.1300    3.1400    3.1500    3.1600    3.1700    3.1800    3.1900
    3.2000    3.2100    3.2200    3.2300    3.2400    3.2500    3.2600    3.2700
    3.2800    3.2900    3.3000    3.3100    3.3200    3.3300    3.3400    3.3500
    3.3600    3.3700    3.3800    3.3900    3.4000    3.4100    3.4200    3.4300
    3.4400    3.4500    3.4600    3.4700    3.4800    3.4900    3.5000    3.5100
    3.5200    3.5300    3.5400    3.5500    3.5600    3.5700    3.5800    3.5900
    3.6000    3.6100    3.6200    3.6300    3.6400    3.6500    3.6600    3.6700
    3.6800    3.6900    3.7000    3.7100    3.7200    3.7300    3.7400    3.7500
    3.7600    3.7700    3.7800    3.7900    3.8000    3.8100    3.8200    3.8300
    3.8400    3.8500    3.8600    3.8700    3.8800    3.8900    3.9000    3.9100
    3.9200    3.9300    3.9400    3.9500    3.9600    3.9700    3.9800    3.9900
    4.0000    4.0100    4.0200    4.0300    4.0400    4.0500    4.0600    4.0700
    4.0800    4.0900    4.1000    4.1100    4.1200    4.1300    4.1400    4.1500
    4.1600    4.1700    4.1800    4.1900    4.2000    4.2100    4.2200    4.2300
    4.2400    4.2500    4.2600    4.2700    4.2800    4.2900    4.3000    4.3100
    4.3200    4.3300    4.3400    4.3500    4.3600    4.3700    4.3800    4.3900
    4.4000    4.4100    4.4200    4.4300    4.4400    4.4500    4.4600    4.4700
    4.4800    4.4900    4.5000    4.5100    4.5200    4.5300    4.5400    4.5500
    4.5600    4.5700    4.5800    4.5900    4.6000    4.6100    4.6200    4.6300
    4.6400    4.6500    4.6600    4.6700    4.6800    4.6900    4.7000    4.7100
    4.7200    4.7300    4.7400    4.7500    4.7600    4.7700    4.7800    4.7900
    4.8000    4.8100    4.8200    4.8300    4.8400    4.8500    4.8600    4.8700
    4.8800    4.8900    4.9000    4.9100    4.9200    4.9300    4.9400    4.9500
    4.9600    4.9700    4.9800    4.9900    5.0000    5.0100    5.0200    5.0300
    5.0400    5.0500    5.0600    5.0700    5.0800    5.0900    5.1000    5.1100
    5.1200    5.1300    5.1400    5.1500    5.1600    5.1700    5.1800    5.1900
    5.2000    5.2100    5.2200    5.2300    5.2400    5.2500    5.2600    5.2700
    5.2800    5.2900    5.3000    5.3100    5.3200    5.3300    5.3400    5.3500
    5.3600    5.3700    5.3800    5.3900    5.4000    5.4100    5.4200    5.4300
    5.4400    5.4500    5.4600    5.4700    5.4800    5.4900    5.5000    5.5100
    5.5200    5.5300    5.5400    5.5500    5.5600    5.5700    5.5800    5.5900
    5.6000    5.6100    5.6200    5.6300    5.6400    5.6500    5.6600    5.6700
    5.6800    5.6900    5.7000    5.7100    5.7200    5.7300    5.7400    5.7500
    5.7600    5.7700    5.7800    5.7900    5.8000    5.8100    5.8200    5.8300
    5.8400    5.8500    5.8600    5.8700    5.8800    5.8900    5.9000    5.9100
    5.9200    5.9300    5.9400    5.9500    5.9600    5.9700    5.9800    5.9900
    6.0000    6.0100    6.0200    6.0300    6.0400    6.0500    6.0600    6.0700
    6.0800    6.0900    6.1000    6.1100    6.1200    6.1300    6.1400    6.1500
    6.1600    6.1700    6.1800    6.1900    6.2000    6.2100    6.2200    6.2300
    6.2400    6.2500    6.2600    6.2700    6.2800    6.2900    6.3000    6.3100
    6.3200    6.3300    6.3400    6.3500    6.3600    6.3700    6.3800    6.3900
    6.4000    6.4100    6.4200    6.4300    6.4400    6.4500    6.4600    6.4700
    6.4800    6.4900    6.5000    6.5100    6.5200    6.5300    6.5400    6.5500
    6.5600    6.5700    6.5800    6.5900    6.6000    6.6100    6.6200    6.6300
    6.6400    6.6500    6.6600    6.6700    6.6800    6.6900    6.7000    6.7100
    6.7200    6.7300    6.7400    6.7500    6.7600    6.7700    6.7800    6.7900
    6.8000    6.8100    6.8200    6.8300    6.8400    6.8500    6.8600    6.8700
    6.8800    6.8900    6.9000    6.9100    6.9200    6.9300    6.9400    6.9500
    6.9600    6.9700    6.9800    6.9900    7.0000    7.0100    7.0200    7.0300
    7.0400    7.0500    7.0600    7.0700    7.0800    7.0900    7.1000    7.1100
    7.1200    7.1300    7.1400    7.1500    7.1600    7.1700    7.1800    7.1900
    7.2000    7.2100    7.2200    7.2300    7.2400    7.2500    7.2600    7.2700
    7.2800    7.2900    7.3000    7.3100    7.3200    7.3300    7.3400    7.3500
    7.3600    7.3700    7.3800    7.3900    7.4000    7.4100    7.4200    7.4300
    7.4400    7.4500    7.4600    7.4700    7.4800    7.4900    7.5000    7.5100
    7.5200    7.5300    7.5400    7.5500    7.5600    7.5700    7.5800    7.5900
    7.6000    7.6100    7.6200    7.6300    7.6400    7.6500    7.6600    7.6700
    7.6800    7.6900    7.7000    7.7100    7.7200    7.7300    7.7400    7.7500
    7.7600    7.7700    7.7800    7.7900    7.8000    7.8100    7.8200    7.8300
    7.8400    7.8500    7.8600    7.8700    7.8800    7.8900    7.9000    7.9100
    7.9200    7.9300    7.9400    7.9500    7.9600    7.9700    7.9800    7.9900
    8.0000    8.0100    8.0200    8.0300    8.0400    8.0500    8.0600    8.0700
    8.0800    8.0900    8.1000    8.1100    8.1200    8.1300    8.1400    8.1500
    8.1600    8.1700    8.1800    8.1900    8.2000    8.2100    8.2200    8.2300
   </PP_R>
   <PP_RAB type="real"  size=" 824" columns="8">
    0.0100    0.0100    0.0100    0.0100    0.0100    0.0100    0.0100    0.0100
    0.0100    0.0100    0.0100    0.0100    0.0100    0.0100    0.0100    0.0100
    0.0100    0.0100    0.0100    0.0100    0.0100    0.0100    0.0100    0.0100
    0.0100    0.0100    0.0100    0.0100    0.0100    0.0100    0.0100    0.0100
    0.0100    0.0100    0.0100    0.0100    0.0100    0.0100    0.0100    0.0100
    0.0100    0.0100    0.0100    0.0100    0.0100    0.0100    0.0100    0.0100
    0.0100    0.0100    0.0100    0.0100    0.0100    0.0100    0.0100    0.0100
    0.0100    0.0100    0.0100    0.0100    0.0100    0.0100    0.0100    0.0100
    0.0100    0.0100    0.0100    0.0100    0.0100    0.0100    0.0100    0.0100
    0.0100    0.0100    0.0100    0.0100    0.0100    0.0100    0.0100    0.0100
    0.0100    0.0100    0.0100    0.0100    0.0100    0.0100    0.0100    0.0100
    0.0100    0.0100    0.0100    0.0100    0.0100    0.0100    0.0100    0.0100
    0.0100    0.0100    0.0100    0.0100    0.0100    0.0100    0.0100    0.0100
    0.0100    0.0100    0.0100    0.0100    0.0100    0.0100    0.0100    0.0100
    0.0100    0.0100    0.0100    0.0100    0.0100    0.0100    0.0100    0.0100
    0.0100    0.0100    0.0100    0.0100    0.0100    0.0100    0.0100    0.0100
    0.0100    0.0100    0.0100    0.0100    0.0100    0.0100    0.0100    0.0100
    0.0100    0.0100    0.0100    0.0100    0.0100    0.0100    0.0100    0.0100
    0.0100    0.0100    0.0100    0.0100    0.0100    0.0100    0.0100    0.0100
    0.0100    0.0100    0.0100    0.0100    0.0100    0.0100    0.0100    0.0100
    0.0100    0.0100    0.0100    0.0100    0.0100    0.0100    0.0100    0.0100
    0.0100    0.0100    0.0100    0.0100    0.0100    0.0100    0.0100    0.0100
    0.0100    0.0100    0.0100    0.0100    0.0100    0.0100    0.0100    0.0100
    0.0100    0.0100    0.0100    0.0100    0.0100    0.0100    0.0100    0.0100
    0.0100    0.0100    0.0100    0.0100    0.0100    0.0100    0.0100    0.0100
    0.0100    0.0100    0.0100    0.0100    0.0100    0.0100    0.0100    0.0100
    0.0100    0.0100    0.0100    0.0100    0.0100    0.0100    0.0100    0.0100
    0.0100    0.0100    0.0100    0.0100    0.0100    0.0100    0.0100    0.0100
    0.0100    0.0100    0.0100    0.0100    0.0100    0.0100    0.0100    0.0100
    0.0100    0.0100    0.0100    0.0100    0.0100    0.0100    0.0100    0.0100
    0.0100    0.0100    0.0100    0.0100    0.0100    0.0100    0.0100    0.0100
    0.0100    0.0100    0.0100    0.0100    0.0100    0.0100    0.0100    0.0100
    0.0100    0.0100    0.0100    0.0100    0.0100    0.0100    0.0100    0.0100
    0.0100    0.0100    0.0100    0.0100    0.0100    0.0100    0.0100    0.0100
    0.0100    0.0100    0.0100    0.0100    0.0100    0.0100    0.0100    0.0100
    0.0100    0.0100    0.0100    0.0100    0.0100    0.0100    0.0100    0.0100
    0.0100    0.0100    0.0100    0.0100    0.0100    0.0100    0.0100    0.0100
    0.0100    0.0100    0.0100    0.0100    0.0100    0.0100    0.0100    0.0100
    0.0100    0.0100    0.0100    0.0100    0.0100    0.0100    0.0100    0.0100
    0.0100    0.0100    0.0100    0.0100    0.0100    0.0100    0.0100    0.0100
    0.0100    0.0100    0.0100    0.0100    0.0100    0.0100    0.0100    0.0100
    0.0100    0.0100    0.0100    0.0100    0.0100    0.0100    0.0100    0.0100
    0.0100    0.0100    0.0100    0.0100    0.0100    0.0100    0.0100    0.0100
    0.0100    0.0100    0.0100    0.0100    0.0100    0.0100    0.0100    0.0100
    0.0100    0.0100    0.0100    0.0100    0.0100    0.0100    0.0100    0.0100
    0.0100    0.0100    0.0100    0.0100    0.0100    0.0100    0.0100    0.0100
    0.0100    0.0100    0.0100    0.0100    0.0100    0.0100    0.0100    0.0100
    0.0100    0.0100    0.0100    0.0100    0.0100    0.0100    0.0100    0.0100
    0.0100    0.0100    0.0100    0.0100    0.0100    0.0100    0.0100    0.0100
    0.0100    0.0100    0.0100    0.0100    0.0100    0.0100    0.0100    0.0100
    0.0100    0.0100    0.0100    0.0100    0.0100    0.0100    0.0100    0.0100
    0.0100    0.0100    0.0100    0.0100    0.0100    0.0100    0.0100    0.0100
    0.0100    0.0100    0.0100    0.0100    0.0100    0.0100    0.0100    0.0100
    0.0100    0.0100    0.0100    0.0100    0.0100    0.0100    0.0100    0.0100
    0.0100    0.0100    0.0100    0.0100    0.0100    0.0100    0.0100    0.0100
    0.0100    0.0100    0.0100    0.0100    0.0100    0.0100    0.0100    0.0100
    0.0100    0.0100    0.0100    0.0100    0.0100    0.0100    0.0100    0.0100
    0.0100    0.0100    0.0100    0.0100    0.0100    0.0100    0.0100    0.0100
    0.0100    0.0100    0.0100    0.0100    0.0100    0.0100    0.0100    0.0100
    0.0100    0.0100    0.0100    0.0100    0.0100    0.0100    0.0100    0.0100
    0.0100    0.0100    0.0100    0.0100    0.0100    0.0100    0.0100    0.0100
    0.0100    0.0100    0.0100    0.0100    0.0100    0.0100    0.0100    0.0100
    0.0100    0.0100    0.0100    0.0100    0.0100    0.0100    0.0100    0.0100
    0.0100    0.0100    0.0100    0.0100    0.0100    0.0100    0.0100    0.0100
    0.0100    0.0100    0.0100    0.0100    0.0100    0.0100    0.0100    0.0100
    0.0100    0.0100    0.0100    0.0100    0.0100    0.0100    0.0100    0.0100
    0.0100    0.0100    0.0100    0.0100    0.0100    0.0100    0.0100    0.0100
    0.0100    0.0100    0.0100    0.0100    0.0100    0.0100    0.0100    0.0100
    0.0100    0.0100    0.0100    0.0100    0.0100    0.0100    0.0100    0.0100
    0.0100    0.0100    0.0100    0.0100    0.0100    0.0100    0.0100    0.0100
    0.0100    0.0100    0.0100    0.0100    0.0100    0.0100    0.0100    0.0100
    0.0100    0.0100    0.0100    0.0100    0.0100    0.0100    0.0100    0.0100
    0.0100    0.0100    0.0100    0.0100    0.0100    0.0100    0.0100    0.0100
    0.0100    0.0100    0.0100    0.0100    0.0100    0.0100    0.0100    0.0100
    0.0100    0.0100    0.0100    0.0100    0.0100    0.0100    0.0100    0.0100
    0.0100    0.0100    0.0100    0.0100    0.0100    0.0100    0.0100    0.0100
    0.0100    0.0100    0.0100    0.0100    0.0100    0.0100    0.0100    0.0100
    0.0100    0.0100    0.0100    0.0100    0.0100    0.0100    0.0100    0.0100
    0.0100    0.0100    0.0100    0.0100    0.0100    0.0100    0.0100    0.0100
    0.0100    0.0100    0.0100    0.0100    0.0100    0.0100    0.0100    0.0100
    0.0100    0.0100    0.0100    0.0100    0.0100    0.0100    0.0100    0.0100
    0.0100    0.0100    0.0100    0.0100    0.0100    0.0100    0.0100    0.0100
    0.0100    0.0100    0.0100    0.0100    0.0100    0.0100    0.0100    0.0100
    0.0100    0.0100    0.0100    0.0100    0.0100    0.0100    0.0100    0.0100
    0.0100    0.0100    0.0100    0.0100    0.0100    0.0100    0.0100    0.0100
    0.0100    0.0100    0.0100    0.0100    0.0100    0.0100    0.0100    0.0100
    0.0100    0.0100    0.0100    0.0100    0.0100    0.0100    0.0100    0.0100
    0.0100    0.0100    0.0100    0.0100    0.0100    0.0100    0.0100    0.0100
    0.0100    0.0100    0.0100    0.0100    0.0100    0.0100    0.0100    0.0100
    0.0100    0.0100    0.0100    0.0100    0.0100    0.0100    0.0100    0.0100
    0.0100    0.0100    0.0100    0.0100    0.0100    0.0100    0.0100    0.0100
    0.0100    0.0100    0.0100    0.0100    0.0100    0.0100    0.0100    0.0100
    0.0100    0.0100    0.0100    0.0100    0.0100    0.0100    0.0100    0.0100
    0.0100    0.0100    0.0100    0.0100    0.0100    0.0100    0.0100    0.0100
    0.0100    0.0100    0.0100    0.0100    0.0100    0.0100    0.0100    0.0100
    0.0100    0.0100    0.0100    0.0100    0.0100    0.0100    0.0100    0.0100
    0.0100    0.0100    0.0100    0.0100    0.0100    0.0100    0.0100    0.0100
    0.0100    0.0100    0.0100    0.0100    0.0100    0.0100    0.0100    0.0100
    0.0100    0.0100    0.0100    0.0100    0.0100    0.0100    0.0100    0.0100
    0.0100    0.0100    0.0100    0.0100    0.0100    0.0100    0.0100    0.0100
    0.0100    0.0100    0.0100    0.0100    0.0100    0.0100    0.0100    0.0100
    0.0100    0.0100    0.0100    0.0100    0.0100    0.0100    0.0100    0.0100
    0.0100    0.0100    0.0100    0.0100    0.0100    0.0100    0.0100    0.0100
   </PP_RAB>
 </PP_MESH>
  <PP_LOCAL type="real"  size=" 824" columns="4">
   -3.0336065121E+01   -3.0333484325E+01   -3.0325741626E+01   -3.0312836133E+01
   -3.0294766405E+01   -3.0271530512E+01   -3.0243126126E+01   -3.0209550635E+01
   -3.0170801277E+01   -3.0126875304E+01   -3.0077770164E+01   -3.0023483699E+01
   -2.9964014375E+01   -2.9899361516E+01   -2.9829525564E+01   -2.9754508351E+01
   -2.9674313381E+01   -2.9588946134E+01   -2.9498414361E+01   -2.9402728406E+01
   -2.9301901520E+01   -2.9195950182E+01   -2.9084894422E+01   -2.8968758139E+01
   -2.8847569417E+01   -2.8721360836E+01   -2.8590169771E+01   -2.8454038678E+01
   -2.8313015374E+01   -2.8167153291E+01   -2.8016511718E+01   -2.7861156018E+01
   -2.7701157827E+01   -2.7536595217E+01   -2.7367552847E+01   -2.7194122069E+01
   -2.7016401014E+01   -2.6834494643E+01   -2.6648514757E+01   -2.6458579985E+01
   -2.6264815729E+01   -2.6067354067E+01   -2.5866333639E+01   -2.5661899476E+01
   -2.5454202807E+01   -2.5243400827E+01   -2.5029656435E+01   -2.4813137934E+01
   -2.4594018706E+01   -2.4372476860E+01   -2.4148694846E+01   -2.3922859055E+01
   -2.3695159391E+01   -2.3465788828E+01   -2.3234942947E+01   -2.3002819467E+01
   -2.2769617755E+01   -2.2535538338E+01   -2.2300782402E+01   -2.2065551296E+01
   -2.1830046024E+01   -2.1594466750E+01   -2.1359012299E+01   -2.1123879664E+01
   -2.0889263526E+01   -2.0655355770E+01   -2.0422345023E+01   -2.0190416192E+01
   -1.9959750022E+01   -1.9730522655E+01   -1.9502905209E+01   -1.9277063369E+01
   -1.9053156981E+01   -1.8831339670E+01   -1.8611758464E+01   -1.8394553425E+01
   -1.8179857303E+01   -1.7967795185E+01   -1.7758484170E+01   -1.7552033041E+01
   -1.7348541953E+01   -1.7148102126E+01   -1.6950795541E+01   -1.6756694653E+01
   -1.6565862101E+01   -1.6378350424E+01   -1.6194201780E+01   -1.6013447675E+01
   -1.5836108684E+01   -1.5662194182E+01   -1.5491702068E+01   -1.5324618497E+01
   -1.5160917603E+01   -1.5000561224E+01   -1.4843498623E+01   -1.4689666261E+01
   -1.4538987328E+01   -1.4391372356E+01   -1.4246726755E+01   -1.4104958492E+01
   -1.3965979281E+01   -1.3829704126E+01   -1.3696051283E+01   -1.3564942142E+01
   -1.3436301110E+01   -1.3310055508E+01   -1.3186135465E+01   -1.3064473824E+01
   -1.2945006044E+01   -1.2827670110E+01   -1.2712406445E+01   -1.2599157820E+01
   -1.2487869273E+01   -1.2378488020E+01   -1.2270963380E+01   -1.2165246688E+01
   -1.2061291219E+01   -1.1959052109E+01   -1.1858486280E+01   -1.1759552360E+01
   -1.1662210614E+01   -1.1566422866E+01   -1.1472152429E+01   -1.1379364036E+01
   -1.1288023769E+01   -1.1198098990E+01   -1.1109558278E+01   -1.1022371364E+01
   -1.0936509066E+01   -1.0851943227E+01   -1.0768646662E+01   -1.0686593094E+01
   -1.0605757088E+01   -1.0526113982E+01   -1.0447639789E+01   -1.0370311134E+01
   -1.0294105222E+01   -1.0218999794E+01   -1.0144973084E+01   -1.0072003783E+01
   -1.0000071004E+01   -9.9291542487E+00   -9.8592333782E+00   -9.7902885863E+00
   -9.7223003749E+00   -9.6552495332E+00   -9.5891171202E+00   -9.5238845048E+00
   -9.4595334084E+00   -9.3960460359E+00   -9.3334051165E+00   -9.2715938266E+00
   -9.2105957838E+00   -9.1503950394E+00   -9.0909760627E+00   -9.0323237262E+00
   -8.9744232930E+00   -8.9172604035E+00   -8.8608210633E+00   -8.8050916309E+00
   -8.7500588064E+00   -8.6957096206E+00   -8.6420314238E+00   -8.5890118762E+00
   -8.5366389379E+00   -8.4849008596E+00   -8.4337861737E+00   -8.3832836854E+00
   -8.3333824652E+00   -8.2840718406E+00   -8.2353413886E+00   -8.1871809287E+00
   -8.1395805162E+00   -8.0925304350E+00   -8.0460211918E+00   -8.0000435098E+00
   -7.9545883226E+00   -7.9096467686E+00   -7.8652101858E+00   -7.8212701057E+00
   -7.7778182488E+00   -7.7348465190E+00   -7.6923469990E+00   -7.6503119455E+00
   -7.6087337842E+00   -7.5676051042E+00   -7.5269186555E+00   -7.4866673508E+00
   -7.4468442549E+00   -7.4074425746E+00   -7.3684556562E+00   -7.3298769849E+00
   -7.2917001819E+00   -7.2539189999E+00   -7.2165273212E+00   -7.1795191531E+00
   -7.1428886256E+00   -7.1066299877E+00   -7.0707376044E+00   -7.0352059542E+00
   -7.0000296261E+00   -6.9652033165E+00   -6.9307218271E+00   -6.8965800619E+00
   -6.8627730248E+00   -6.8292958173E+00   -6.7961436359E+00   -6.7633117700E+00
   -6.7307955995E+00   -6.6985905929E+00   -6.6666923048E+00   -6.6350963742E+00
   -6.6037985225E+00   -6.5727945511E+00   -6.5420803403E+00   -6.5116518468E+00
   -6.4815051022E+00   -6.4516362112E+00   -6.4220413501E+00   -6.3927167651E+00
   -6.3636587704E+00   -6.3348637472E+00   -6.3063281416E+00   -6.2780484637E+00
   -6.2500212859E+00   -6.2222432414E+00   -6.1947110230E+00   -6.1674213819E+00
   -6.1403711263E+00   -6.1135571200E+00   -6.0869762815E+00   -6.0606255825E+00
   -6.0345020471E+00   -6.0086027504E+00   -5.9829248175E+00   -5.9574654223E+00
   -5.9322217869E+00   -5.9071911800E+00   -5.8823709164E+00   -5.8577583558E+00
   -5.8333509017E+00   -5.8091460010E+00   -5.7851411427E+00   -5.7613338571E+00
   -5.7377217148E+00   -5.7143023265E+00   -5.6910733414E+00   -5.6680324469E+00
   -5.6451773676E+00   -5.6225058648E+00   -5.6000157356E+00   -5.5777048121E+00
   -5.5555709608E+00   -5.5336120822E+00   -5.5118261094E+00   -5.4902110084E+00
   -5.4687647767E+00   -5.4474854430E+00   -5.4263710666E+00   -5.4054197369E+00
   -5.3846295724E+00   -5.3639987207E+00   -5.3435253575E+00   -5.3232076865E+00
   -5.3030439383E+00   -5.2830323704E+00   -5.2631712664E+00   -5.2434589358E+00
   -5.2238937132E+00   -5.2044739578E+00   -5.1851980534E+00   -5.1660644076E+00
   -5.1470714513E+00   -5.1282176383E+00   -5.1095014454E+00   -5.0909213710E+00
   -5.0724759357E+00   -5.0541636812E+00   -5.0359831704E+00   -5.0179329866E+00
   -5.0000117334E+00   -4.9822180344E+00   -4.9645505325E+00   -4.9470078901E+00
   -4.9295887881E+00   -4.9122919260E+00   -4.8951160217E+00   -4.8780598108E+00
   -4.8611220464E+00   -4.8443014990E+00   -4.8275969560E+00   -4.8110072215E+00
   -4.7945311158E+00   -4.7781674756E+00   -4.7619151533E+00   -4.7457730167E+00
   -4.7297399492E+00   -4.7138148490E+00   -4.6979966291E+00   -4.6822842173E+00
   -4.6666765554E+00   -4.6511725993E+00   -4.6357713189E+00   -4.6204716976E+00
   -4.6052727322E+00   -4.5901734325E+00   -4.5751728216E+00   -4.5602699349E+00
   -4.5454638206E+00   -4.5307535391E+00   -4.5161381632E+00   -4.5016167771E+00
   -4.4871884773E+00   -4.4728523715E+00   -4.4586075788E+00   -4.4444532295E+00
   -4.4303884652E+00   -4.4164124378E+00   -4.4025243104E+00   -4.3887232562E+00
   -4.3750084589E+00   -4.3613791124E+00   -4.3478344205E+00   -4.3343735970E+00
   -4.3209958653E+00   -4.3077004584E+00   -4.2944866187E+00   -4.2813535979E+00
   -4.2683006568E+00   -4.2553270651E+00   -4.2424321016E+00   -4.2296150534E+00
   -4.2168752167E+00   -4.2042118958E+00   -4.1916244034E+00   -4.1791120604E+00
   -4.1666741959E+00   -4.1543101469E+00   -4.1420192582E+00   -4.1298008823E+00
   -4.1176543794E+00   -4.1055791173E+00   -4.0935744709E+00   -4.0816398227E+00
   -4.0697745622E+00   -4.0579780860E+00   -4.0462497977E+00   -4.0345891078E+00
   -4.0229954336E+00   -4.0114681990E+00   -4.0000068344E+00   -3.9886107770E+00
   -3.9772794701E+00   -3.9660123634E+00   -3.9548089128E+00   -3.9436685805E+00
   -3.9325908344E+00   -3.9215751488E+00   -3.9106210034E+00   -3.8997278840E+00
   -3.8888952822E+00   -3.8781226949E+00   -3.8674096248E+00   -3.8567555801E+00
   -3.8461600742E+00   -3.8356226260E+00   -3.8251427597E+00   -3.8147200045E+00
   -3.8043538948E+00   -3.7940439701E+00   -3.7837897749E+00   -3.7735908585E+00
   -3.7634467752E+00   -3.7533570838E+00   -3.7433213481E+00   -3.7333391364E+00
   -3.7234100218E+00   -3.7135335816E+00   -3.7037093978E+00   -3.6939370568E+00
   -3.6842161493E+00   -3.6745462703E+00   -3.6649270190E+00   -3.6553579990E+00
   -3.6458388176E+00   -3.6363690867E+00   -3.6269484218E+00   -3.6175764427E+00
   -3.6082527728E+00   -3.5989770396E+00   -3.5897488744E+00   -3.5805679122E+00
   -3.5714337917E+00   -3.5623461553E+00   -3.5533046492E+00   -3.5443089230E+00
   -3.5353586298E+00   -3.5264534264E+00   -3.5175929728E+00   -3.5087769325E+00
   -3.5000049726E+00   -3.4912767632E+00   -3.4825919778E+00   -3.4739502931E+00
   -3.4653513891E+00   -3.4567949490E+00   -3.4482806588E+00   -3.4398082080E+00
   -3.4313772889E+00   -3.4229875969E+00   -3.4146388302E+00   -3.4063306903E+00
   -3.3980628811E+00   -3.3898351099E+00   -3.3816470864E+00   -3.3734985234E+00
   -3.3653891362E+00   -3.3573186430E+00   -3.3492867647E+00   -3.3412932247E+00
   -3.3333377493E+00   -3.3254200672E+00   -3.3175399097E+00   -3.3096970107E+00
   -3.3018911066E+00   -3.2941219362E+00   -3.2863892409E+00   -3.2786927643E+00
   -3.2710322526E+00   -3.2634074543E+00   -3.2558181203E+00   -3.2482640036E+00
   -3.2407448597E+00   -3.2332604464E+00   -3.2258105235E+00   -3.2183948532E+00
   -3.2110131997E+00   -3.2036653296E+00   -3.1963510115E+00   -3.1890700161E+00
   -3.1818221162E+00   -3.1746070866E+00   -3.1674247042E+00   -3.1602747480E+00
   -3.1531569989E+00   -3.1460712397E+00   -3.1390172552E+00   -3.1319948323E+00
   -3.1250037595E+00   -3.1180438274E+00   -3.1111148283E+00   -3.1042165566E+00
   -3.0973488082E+00   -3.0905113811E+00   -3.0837040748E+00   -3.0769266908E+00
   -3.0701790322E+00   -3.0634609039E+00   -3.0567721124E+00   -3.0501124661E+00
   -3.0434817747E+00   -3.0368798500E+00   -3.0303065051E+00   -3.0237615547E+00
   -3.0172448154E+00   -3.0107561052E+00   -3.0042952435E+00   -2.9978620515E+00
   -2.9914563518E+00   -2.9850779686E+00   -2.9787267274E+00   -2.9724024555E+00
   -2.9661049814E+00   -2.9598341351E+00   -2.9535897481E+00   -2.9473716533E+00
   -2.9411796850E+00   -2.9350136788E+00   -2.9288734719E+00   -2.9227589026E+00
   -2.9166698108E+00   -2.9106060374E+00   -2.9045674249E+00   -2.8985538171E+00
   -2.8925650590E+00   -2.8866009967E+00   -2.8806614780E+00   -2.8747463516E+00
   -2.8688554675E+00   -2.8629886771E+00   -2.8571458328E+00   -2.8513267883E+00
   -2.8455313985E+00   -2.8397595194E+00   -2.8340110082E+00   -2.8282857235E+00
   -2.8225835245E+00   -2.8169042721E+00   -2.8112478279E+00   -2.8056140549E+00
   -2.8000028170E+00   -2.7944139793E+00   -2.7888474080E+00   -2.7833029701E+00
   -2.7777805340E+00   -2.7722799689E+00   -2.7668011453E+00   -2.7613439344E+00
   -2.7559082086E+00   -2.7504938412E+00   -2.7451007068E+00   -2.7397286805E+00
   -2.7343776387E+00   -2.7290474587E+00   -2.7237380187E+00   -2.7184491979E+00
   -2.7131808765E+00   -2.7079329355E+00   -2.7027052568E+00   -2.6974977233E+00
   -2.6923102188E+00   -2.6871426280E+00   -2.6819948364E+00   -2.6768667305E+00
   -2.6717581975E+00   -2.6666691256E+00   -2.6615994038E+00   -2.6565489220E+00
   -2.6515175708E+00   -2.6465052418E+00   -2.6415118273E+00   -2.6365372203E+00