Ga    ONCVPSP-3.3.0  r_core=   1.66857   1.75011   1.90252
31.0000     13.0000      171103    zatom,zion,pspd
8   -1012   2     4   600     0    pspcod,pspxc,lmax,lloc,mmax,r2well
5.99000000  5.00000000  0.00000000    rchrg fchrg qchrg
2     2     2     0     0    nproj
1     1           extension_switch
0                         7.0466730988730D+00  1.1717944143943D+00
1  0.0000000000000D+00  1.6971785686895D-09 -3.1419497559249D-09
2  1.0000000000000D-02 -2.2219215367671D-03  4.7027512568668D-02
3  2.0000000000000D-02 -4.1286227581398D-03  9.3471803085506D-02
4  3.0000000000000D-02 -5.4085930826475D-03  1.3875645132166D-01
5  4.0000000000000D-02 -5.7577006776347D-03  1.8231856554406D-01
6  5.0000000000000D-02 -4.8827804717390D-03  2.2361535969436D-01
7  6.0000000000000D-02 -2.5051017482842D-03  2.6213050833503D-01
8  7.0000000000000D-02  1.6363228083020D-03  2.9738020900938D-01
9  8.0000000000000D-02  7.7816230437556D-03  3.2891888480422D-01
10  9.0000000000000D-02  1.6147186585581D-02  3.5634446376958D-01
11  1.0000000000000D-01  2.6923035300877D-02  3.7930317639726D-01
12  1.1000000000000D-01  4.0270492046340D-02  3.9749381754334D-01
13  1.2000000000000D-01  5.6320163682746D-02  4.1067142494278D-01
14  1.3000000000000D-01  7.5170262931586D-02  4.1865033274734D-01
15  1.4000000000000D-01  9.6885288011512D-02  4.2130656525500D-01
16  1.5000000000000D-01  1.2149507514511D-01  4.1857954311819D-01
17  1.6000000000000D-01  1.4899423501279D-01  4.1047308174581D-01
18  1.7000000000000D-01  1.7934198009271D-01  3.9705566926999D-01
19  1.8000000000000D-01  2.1246234560662D-01  3.7846001925344D-01
20  1.9000000000000D-01  2.4824480253730D-01  3.5488190118385D-01
21  2.0000000000000D-01  2.8654525693684D-01  3.2657825965422D-01
22  2.1000000000000D-01  3.2718742555367D-01  2.9386464087978D-01
23  2.2000000000000D-01  3.6996457371235D-01  2.5711195277001D-01
24  2.3000000000000D-01  4.1464159742935D-01  2.1674259207759D-01
25  2.4000000000000D-01  4.6095742798036D-01  1.7322597910729D-01
26  2.5000000000000D-01  5.0862773359267D-01  1.2707354701108D-01
27  2.6000000000000D-01  5.5734788965591D-01  7.8833238751804D-02
28  2.7000000000000D-01  6.0679618586287D-01  2.9083570319957D-02
29  2.8000000000000D-01  6.5663723604087D-01 -2.1572676322695D-02
30  2.9000000000000D-01  7.0652555414190D-01 -7.2515062876680D-02
31  3.0000000000000D-01  7.5610925795293D-01 -1.2311233571114D-01
32  3.1000000000000D-01  8.0503386058640D-01 -1.7272942428285D-01
33  3.2000000000000D-01  8.5294610873284D-01 -2.2073452103710D-01
34  3.3000000000000D-01  8.9949782601549D-01 -2.6650616569648D-01
35  3.4000000000000D-01  9.4434971958824D-01 -3.0944025650363D-01
36  3.5000000000000D-01  9.8717510836793D-01 -3.4895691147357D-01
37  3.6000000000000D-01  1.0276635319871D+00 -3.8450710402695D-01
38  3.7000000000000D-01  1.0655242006893D+00 -4.1557899950783D-01
39  3.8000000000000D-01  1.1004892479561D+00 -4.4170392201737D-01
40  3.9000000000000D-01  1.1323167496321D+00 -4.6246188469066D-01
41  4.0000000000000D-01  1.1607934756958D+00 -4.7748662097109D-01
42  4.1000000000000D-01  1.1857373435642D+00 -4.8647005955064D-01
43  4.2000000000000D-01  1.2069995449163D+00 -4.8916619139398D-01
44  4.3000000000000D-01  1.2244663214194D+00 -4.8539428359095D-01
45  4.4000000000000D-01  1.2380603684233D+00 -4.7504140161900D-01
46  4.5000000000000D-01  1.2477418496071D+00 -4.5806420887717D-01
47  4.6000000000000D-01  1.2535090096803D+00 -4.3449001999698D-01
48  4.7000000000000D-01  1.2553983765130D+00 -4.0441709236565D-01
49  4.8000000000000D-01  1.2534845484536D+00 -3.6801414843058D-01
50  4.9000000000000D-01  1.2478795670400D+00 -3.2551912960174D-01
51  5.0000000000000D-01  1.2387318797786D+00 -2.7723719084872D-01
52  5.1000000000000D-01  1.2262249020954D+00 -2.2353795330919D-01
53  5.2000000000000D-01  1.2105751919303D+00 -1.6485204029985D-01
54  5.3000000000000D-01  1.1920302546699D+00 -1.0166692995879D-01
55  5.4000000000000D-01  1.1708660001883D+00 -3.4522165276316D-02
56  5.5000000000000D-01  1.1473838776104D+00  3.5996030608450D-02
57  5.6000000000000D-01  1.1219077170073D+00  1.0926067932325D-01
58  5.7000000000000D-01  1.0947803105390D+00  1.8461045176391D-01
59  5.8000000000000D-01  1.0663597685193D+00  2.6135648609045D-01
60  5.9000000000000D-01  1.0370156884886D+00  3.3878954831156D-01
61  6.0000000000000D-01  1.0071251775832D+00  4.1618746050334D-01
62  6.1000000000000D-01  9.7706877028255D-01  4.9282271841085D-01
63  6.2000000000000D-01  9.4722628495965D-01  5.6797021772678D-01
64  6.3000000000000D-01  9.1797266355242D-01  6.4091500672384D-01
65  6.4000000000000D-01  8.8967383909139D-01  7.1095998218043D-01
66  6.5000000000000D-01  8.6268267576597D-01  7.7743344567813D-01
67  6.6000000000000D-01  8.3733502567472D-01  8.3969643838583D-01
68  6.7000000000000D-01  8.1394594539404D-01  8.9714977436139D-01
69  6.8000000000000D-01  7.9280611403135D-01  9.4924069516602D-01
70  6.9000000000000D-01  7.7417849249018D-01  9.9546907222366D-01
71  7.0000000000000D-01  7.5829526131697D-01  1.0353930877705D+00
72  7.1000000000000D-01  7.4535507171519D-01  1.0686343304437D+00
73  7.2000000000000D-01  7.3552064116659D-01  1.0948822474299D+00
74  7.3000000000000D-01  7.2891672156703D-01  1.1138979016849D+00
75  7.4000000000000D-01  7.2562846396449D-01  1.1255169898516D+00
76  7.5000000000000D-01  7.2570019987473D-01  1.1296520841676D+00
77  7.6000000000000D-01  7.2913465480602D-01  1.1262940697346D+00
78  7.7000000000000D-01  7.3589260508310D-01  1.1155127569773D+00
79  7.8000000000000D-01  7.4589298439571D-01  1.0974566577908D+00
80  7.9000000000000D-01  7.5901344171076D-01  1.0723519227749D+00
81  8.0000000000000D-01  7.7509134737717D-01  1.0405004458905D+00
82  8.1000000000000D-01  7.9392523944663D-01  1.0022771518002D+00
83  8.2000000000000D-01  8.1527669748332D-01  9.5812648997105D-01
84  8.3000000000000D-01  8.3887262649834D-01  9.0855816822649D-01
85  8.4000000000000D-01  8.6440792916728D-01  8.5414216673289D-01
86  8.5000000000000D-01  8.9154854022197D-01  7.9550308132007D-01
87  8.6000000000000D-01  9.1993479289569D-01  7.3331385246381D-01
88  8.7000000000000D-01  9.4918508358960D-01  6.6828894312810D-01
89  8.8000000000000D-01  9.7889979755896D-01  6.0117703489524D-01
90  8.9000000000000D-01  1.0086654554274D+00  5.3275331733430D-01
91  9.0000000000000D-01  1.0380590377611D+00  4.6381145030863D-01
92  9.1000000000000D-01  1.0666524428017D+00  3.9515528284837D-01
93  9.2000000000000D-01  1.0940170307907D+00  3.2759041526471D-01
94  9.3000000000000D-01  1.1197282071444D+00  2.6191569332426D-01
95  9.4000000000000D-01  1.1433699960615D+00  1.9891472451004D-01
96  9.5000000000000D-01  1.1645395559988D+00  1.3934750661876D-01
97  9.6000000000000D-01  1.1828515887885D+00  8.3942258276563D-02
98  9.7000000000000D-01  1.1979425950665D+00  3.3387539229047D-02
99  9.8000000000000D-01  1.2094749300578D+00 -1.1675254335820D-02
100  9.9000000000000D-01  1.2171406156490D+00 -5.0658937730587D-02
101  1.0000000000000D+00  1.2206648670444D+00 -8.3037051715501D-02
102  1.0100000000000D+00  1.2198092951071D+00 -1.0834977045627D-01
103  1.0200000000000D+00  1.2143747487960D+00 -1.2620913768800D-01
104  1.0300000000000D+00  1.2042037656712D+00 -1.3630357194567D-01
105  1.0400000000000D+00  1.1891826024509D+00 -1.3840158922184D-01
106  1.0500000000000D+00  1.1692428220343D+00 -1.3235469967885D-01
107  1.0600000000000D+00  1.1443624178729D+00 -1.1809944338831D-01
108  1.0700000000000D+00  1.1145664614564D+00 -9.5658539178736D-02
109  1.0800000000000D+00  1.0799272638190D+00 -6.5141130249757D-02
110  1.0900000000000D+00  1.0405640465470D+00 -2.6742118745568D-02
111  1.1000000000000D+00  9.9664212374827D-01  1.9259407394312D-02
112  1.1100000000000D+00  9.4837160099238D-01  7.2502643509848D-02
113  1.1200000000000D+00  8.9600560292706D-01  1.3254841083179D-01
114  1.1300000000000D+00  8.3983804556990D-01  1.9888334225249D-01
115  1.1400000000000D+00  7.8020097493676D-01  2.7092487035132D-01
116  1.1500000000000D+00  7.1746149800957D-01  3.4802696870669D-01
117  1.1600000000000D+00  6.5201833676979D-01  4.2948658875837D-01
118  1.1700000000000D+00  5.8429803931162D-01  5.1455072838131D-01
119  1.1800000000000D+00  5.1475088692069D-01  6.0242405930136D-01
120  1.1900000000000D+00  4.4384653882177D-01  6.9227703526891D-01
121  1.2000000000000D+00  3.7206945933245D-01  7.8325439730252D-01
122  1.2100000000000D+00  2.9991417422149D-01  8.7448398850092D-01
123  1.2200000000000D+00  2.2788040607802D-01  9.6508578538963D-01
124  1.2300000000000D+00  1.5646813900405D-01  1.0541810518689D+00
125  1.2400000000000D+00  8.6172664118285D-02  1.1409015196688D+00
126  1.2500000000000D+00  1.7479658280773D-02  1.2243984975826D+00
127  1.2600000000000D+00 -4.9139652651755D-02  1.3038518138481D+00
128  1.2700000000000D+00 -1.1323319467097D-01  1.3784784959666D+00
129  1.2800000000000D+00 -1.7437256033312D-01  1.4475410944494D+00
130  1.2900000000000D+00 -2.3215729044440D-01  1.5103555632512D+00
131  1.3000000000000D+00 -2.8621887588220D-01  1.5662986097840D+00
132  1.3100000000000D+00 -3.3622443642830D-01  1.6148144344096D+00
133  1.3200000000000D+00 -3.8188003928784D-01  1.6554207901766D+00
134  1.3300000000000D+00 -4.2293361810765D-01  1.6877142900877D+00
135  1.3400000000000D+00 -4.5917746215204D-01  1.7113749057813D+00
136  1.3500000000000D+00 -4.9045025116850D-01  1.7261696124939D+00
137  1.3600000000000D+00 -5.1663860655861D-01  1.7319551259805D+00
138  1.3700000000000D+00 -5.3767814825121D-01  1.7286797122258D+00
139  1.3800000000000D+00 -5.5355404213147D-01  1.7163840422573D+00
140  1.3900000000000D+00 -5.6430102770610D-01  1.6952010734273D+00
141  1.4000000000000D+00 -5.7000293275091D-01  1.6653549704084D+00
142  1.4100000000000D+00 -5.7079166893357D-01  1.6271590553252D+00
143  1.4200000000000D+00 -5.6684572488091D-01  1.5810128184392D+00
144  1.4300000000000D+00 -5.5838817064670D-01  1.5273980160879D+00
145  1.4400000000000D+00 -5.4568418708331D-01  1.4668738817626D+00
146  1.4500000000000D+00 -5.2903815671588D-01  1.4000715192822D+00
147  1.4600000000000D+00 -5.0879033235852D-01  1.3276875090538D+00
148  1.4700000000000D+00 -4.8531312886949D-01  1.2504768127870D+00
149  1.4800000000000D+00 -4.5900706994056D-01  1.1692450368317D+00
150  1.4900000000000D+00 -4.3029643226663D-01  1.0848401338281D+00
151  1.5000000000000D+00 -3.9962463671918D-01  9.9814363583455D-01
152  1.5100000000000D+00 -3.6744942663592D-01  9.1006149448246D-01
153  1.5200000000000D+00 -3.3423789210677D-01  8.2151463849980D-01
154  1.5300000000000D+00 -3.0046138428436D-01  7.3342933144282D-01
155  1.5400000000000D+00 -2.6659037868770D-01  6.4672744009778D-01
156  1.5500000000000D+00 -2.3308933681406D-01  5.6231670615426D-01
157  1.5600000000000D+00 -2.0041162296367D-01  4.8108112620438D-01
158  1.5700000000000D+00 -1.6899452775115D-01  4.0387154685226D-01
159  1.5800000000000D+00 -1.3925444564488D-01  3.3149652464314D-01
160  1.5900000000000D+00 -1.1158228265812D-01  2.6471370842675D-01
161  1.6000000000000D+00 -8.6339091713069D-02  2.0422154416587D-01
162  1.6100000000000D+00 -6.3852176743014D-02  1.5065183747447D-01
163  1.6200000000000D+00 -4.4426768590532D-02  1.0459929082514D-01
164  1.6300000000000D+00 -2.8253066924846D-02  6.6405234631520D-02
165  1.6400000000000D+00 -1.5514565189596D-02  3.6413778321454D-02
166  1.6500000000000D+00 -6.6758294315077D-03  1.5646790101809D-02
167  1.6600000000000D+00 -1.7779947110418D-03  4.1544529217479D-03
168  1.6700000000000D+00  1.4352322314309D-04 -3.4707838524717D-04
169  1.6800000000000D+00  3.2807340884822D-04 -7.7300878379904D-04
170  1.6900000000000D+00 -3.2998634489245D-05  7.7683599912371D-05
171  1.7000000000000D+00 -1.1186104746700D-04  2.6310603163490D-04
172  1.7100000000000D+00  4.4237519279385D-06 -1.0437799099533D-05
173  1.7200000000000D+00  2.0925159634740D-05 -4.9352797044304D-05
174  1.7300000000000D+00 -1.4264278323328D-09  7.1231280890337D-09
175  1.7400000000000D+00 -1.2243503708834D-08  6.1140173515794D-08
176  1.7500000000000D+00 -2.0144637643347D-10  1.0059592990839D-09
177  1.7600000000000D+00  0.0000000000000D+00  0.0000000000000D+00
178  1.7700000000000D+00  0.0000000000000D+00  0.0000000000000D+00
179  1.7800000000000D+00  0.0000000000000D+00  0.0000000000000D+00
180  1.7900000000000D+00  0.0000000000000D+00  0.0000000000000D+00
181  1.8000000000000D+00  0.0000000000000D+00  0.0000000000000D+00
182  1.8100000000000D+00  0.0000000000000D+00  0.0000000000000D+00
183  1.8200000000000D+00  0.0000000000000D+00  0.0000000000000D+00
184  1.8300000000000D+00  0.0000000000000D+00  0.0000000000000D+00
185  1.8400000000000D+00  0.0000000000000D+00  0.0000000000000D+00
186  1.8500000000000D+00  0.0000000000000D+00  0.0000000000000D+00
187  1.8600000000000D+00  0.0000000000000D+00  0.0000000000000D+00
188  1.8700000000000D+00  0.0000000000000D+00  0.0000000000000D+00
189  1.8800000000000D+00  0.0000000000000D+00  0.0000000000000D+00
190  1.8900000000000D+00  0.0000000000000D+00  0.0000000000000D+00
191  1.9000000000000D+00  0.0000000000000D+00  0.0000000000000D+00
192  1.9100000000000D+00  0.0000000000000D+00  0.0000000000000D+00
193  1.9200000000000D+00  0.0000000000000D+00  0.0000000000000D+00
194  1.9300000000000D+00  0.0000000000000D+00  0.0000000000000D+00
195  1.9400000000000D+00  0.0000000000000D+00  0.0000000000000D+00
196  1.9500000000000D+00  0.0000000000000D+00  0.0000000000000D+00
197  1.9600000000000D+00  0.0000000000000D+00  0.0000000000000D+00
198  1.9700000000000D+00  0.0000000000000D+00  0.0000000000000D+00
199  1.9800000000000D+00  0.0000000000000D+00  0.0000000000000D+00
200  1.9900000000000D+00  0.0000000000000D+00  0.0000000000000D+00
201  2.0000000000000D+00  0.0000000000000D+00  0.0000000000000D+00
202  2.0100000000000D+00  0.0000000000000D+00  0.0000000000000D+00
203  2.0200000000000D+00  0.0000000000000D+00  0.0000000000000D+00
204  2.0300000000000D+00  0.0000000000000D+00  0.0000000000000D+00
205  2.0400000000000D+00  0.0000000000000D+00  0.0000000000000D+00
206  2.0500000000000D+00  0.0000000000000D+00  0.0000000000000D+00
207  2.0600000000000D+00  0.0000000000000D+00  0.0000000000000D+00
208  2.0700000000000D+00  0.0000000000000D+00  0.0000000000000D+00
209  2.0800000000000D+00  0.0000000000000D+00  0.0000000000000D+00
210  2.0900000000000D+00  0.0000000000000D+00  0.0000000000000D+00
211  2.1000000000000D+00  0.0000000000000D+00  0.0000000000000D+00
212  2.1100000000000D+00  0.0000000000000D+00  0.0000000000000D+00
213  2.1200000000000D+00  0.0000000000000D+00  0.0000000000000D+00
214  2.1300000000000D+00  0.0000000000000D+00  0.0000000000000D+00
215  2.1400000000000D+00  0.0000000000000D+00  0.0000000000000D+00
216  2.1500000000000D+00  0.0000000000000D+00  0.0000000000000D+00
217  2.1600000000000D+00  0.0000000000000D+00  0.0000000000000D+00
218  2.1700000000000D+00  0.0000000000000D+00  0.0000000000000D+00
219  2.1800000000000D+00  0.0000000000000D+00  0.0000000000000D+00
220  2.1900000000000D+00  0.0000000000000D+00  0.0000000000000D+00
221  2.2000000000000D+00  0.0000000000000D+00  0.0000000000000D+00
222  2.2100000000000D+00  0.0000000000000D+00  0.0000000000000D+00
223  2.2200000000000D+00  0.0000000000000D+00  0.0000000000000D+00
224  2.2300000000000D+00  0.0000000000000D+00  0.0000000000000D+00
225  2.2400000000000D+00  0.0000000000000D+00  0.0000000000000D+00
226  2.2500000000000D+00  0.0000000000000D+00  0.0000000000000D+00
227  2.2600000000000D+00  0.0000000000000D+00  0.0000000000000D+00
228  2.2700000000000D+00  0.0000000000000D+00  0.0000000000000D+00
229  2.2800000000000D+00  0.0000000000000D+00  0.0000000000000D+00
230  2.2900000000000D+00  0.0000000000000D+00  0.0000000000000D+00
231  2.3000000000000D+00  0.0000000000000D+00  0.0000000000000D+00
232  2.3100000000000D+00  0.0000000000000D+00  0.0000000000000D+00
233  2.3200000000000D+00  0.0000000000000D+00  0.0000000000000D+00
234  2.3300000000000D+00  0.0000000000000D+00  0.0000000000000D+00
235  2.3400000000000D+00  0.0000000000000D+00  0.0000000000000D+00
236  2.3500000000000D+00  0.0000000000000D+00  0.0000000000000D+00
237  2.3600000000000D+00  0.0000000000000D+00  0.0000000000000D+00
238  2.3700000000000D+00  0.0000000000000D+00  0.0000000000000D+00
239  2.3800000000000D+00  0.0000000000000D+00  0.0000000000000D+00
240  2.3900000000000D+00  0.0000000000000D+00  0.0000000000000D+00
241  2.4000000000000D+00  0.0000000000000D+00  0.0000000000000D+00
242  2.4100000000000D+00  0.0000000000000D+00  0.0000000000000D+00
243  2.4200000000000D+00  0.0000000000000D+00  0.0000000000000D+00
244  2.4300000000000D+00  0.0000000000000D+00  0.0000000000000D+00
245  2.4400000000000D+00  0.0000000000000D+00  0.0000000000000D+00
246  2.4500000000000D+00  0.0000000000000D+00  0.0000000000000D+00
247  2.4600000000000D+00  0.0000000000000D+00  0.0000000000000D+00
248  2.4700000000000D+00  0.0000000000000D+00  0.0000000000000D+00
249  2.4800000000000D+00  0.0000000000000D+00  0.0000000000000D+00
250  2.4900000000000D+00  0.0000000000000D+00  0.0000000000000D+00
251  2.5000000000000D+00  0.0000000000000D+00  0.0000000000000D+00
252  2.5100000000000D+00  0.0000000000000D+00  0.0000000000000D+00
253  2.5200000000000D+00  0.0000000000000D+00  0.0000000000000D+00
254  2.5300000000000D+00  0.0000000000000D+00  0.0000000000000D+00
255  2.5400000000000D+00  0.0000000000000D+00  0.0000000000000D+00
256  2.5500000000000D+00  0.0000000000000D+00  0.0000000000000D+00
257  2.5600000000000D+00  0.0000000000000D+00  0.0000000000000D+00
258  2.5700000000000D+00  0.0000000000000D+00  0.0000000000000D+00
259  2.5800000000000D+00  0.0000000000000D+00  0.0000000000000D+00
260  2.5900000000000D+00  0.0000000000000D+00  0.0000000000000D+00
261  2.6000000000000D+00  0.0000000000000D+00  0.0000000000000D+00
262  2.6100000000000D+00  0.0000000000000D+00  0.0000000000000D+00
263  2.6200000000000D+00  0.0000000000000D+00  0.0000000000000D+00
264  2.6300000000000D+00  0.0000000000000D+00  0.0000000000000D+00
265  2.6400000000000D+00  0.0000000000000D+00  0.0000000000000D+00
266  2.6500000000000D+00  0.0000000000000D+00  0.0000000000000D+00
267  2.6600000000000D+00  0.0000000000000D+00  0.0000000000000D+00
268  2.6700000000000D+00  0.0000000000000D+00  0.0000000000000D+00
269  2.6800000000000D+00  0.0000000000000D+00  0.0000000000000D+00
270  2.6900000000000D+00  0.0000000000000D+00  0.0000000000000D+00
271  2.7000000000000D+00  0.0000000000000D+00  0.0000000000000D+00
272  2.7100000000000D+00  0.0000000000000D+00  0.0000000000000D+00
273  2.7200000000000D+00  0.0000000000000D+00  0.0000000000000D+00
274  2.7300000000000D+00  0.0000000000000D+00  0.0000000000000D+00
275  2.7400000000000D+00  0.0000000000000D+00  0.0000000000000D+00
276  2.7500000000000D+00  0.0000000000000D+00  0.0000000000000D+00
277  2.7600000000000D+00  0.0000000000000D+00  0.0000000000000D+00
278  2.7700000000000D+00  0.0000000000000D+00  0.0000000000000D+00
279  2.7800000000000D+00  0.0000000000000D+00  0.0000000000000D+00
280  2.7900000000000D+00  0.0000000000000D+00  0.0000000000000D+00
281  2.8000000000000D+00  0.0000000000000D+00  0.0000000000000D+00
282  2.8100000000000D+00  0.0000000000000D+00  0.0000000000000D+00
283  2.8200000000000D+00  0.0000000000000D+00  0.0000000000000D+00
284  2.8300000000000D+00  0.0000000000000D+00  0.0000000000000D+00
285  2.8400000000000D+00  0.0000000000000D+00  0.0000000000000D+00
286  2.8500000000000D+00  0.0000000000000D+00  0.0000000000000D+00
287  2.8600000000000D+00  0.0000000000000D+00  0.0000000000000D+00
288  2.8700000000000D+00  0.0000000000000D+00  0.0000000000000D+00
289  2.8800000000000D+00  0.0000000000000D+00  0.0000000000000D+00
290  2.8900000000000D+00  0.0000000000000D+00  0.0000000000000D+00
291  2.9000000000000D+00  0.0000000000000D+00  0.0000000000000D+00
292  2.9100000000000D+00  0.0000000000000D+00  0.0000000000000D+00
293  2.9200000000000D+00  0.0000000000000D+00  0.0000000000000D+00
294  2.9300000000000D+00  0.0000000000000D+00  0.0000000000000D+00
295  2.9400000000000D+00  0.0000000000000D+00  0.0000000000000D+00
296  2.9500000000000D+00  0.0000000000000D+00  0.0000000000000D+00
297  2.9600000000000D+00  0.0000000000000D+00  0.0000000000000D+00
298  2.9700000000000D+00  0.0000000000000D+00  0.0000000000000D+00
299  2.9800000000000D+00  0.0000000000000D+00  0.0000000000000D+00
300  2.9900000000000D+00  0.0000000000000D+00  0.0000000000000D+00
301  3.0000000000000D+00  0.0000000000000D+00  0.0000000000000D+00
302  3.0100000000000D+00  0.0000000000000D+00  0.0000000000000D+00
303  3.0200000000000D+00  0.0000000000000D+00  0.0000000000000D+00
304  3.0300000000000D+00  0.0000000000000D+00  0.0000000000000D+00
305  3.0400000000000D+00  0.0000000000000D+00  0.0000000000000D+00
306  3.0500000000000D+00  0.0000000000000D+00  0.0000000000000D+00
307  3.0600000000000D+00  0.0000000000000D+00  0.0000000000000D+00
308  3.0700000000000D+00  0.0000000000000D+00  0.0000000000000D+00
309  3.0800000000000D+00  0.0000000000000D+00  0.0000000000000D+00
310  3.0900000000000D+00  0.0000000000000D+00  0.0000000000000D+00
311  3.1000000000000D+00  0.0000000000000D+00  0.0000000000000D+00
312  3.1100000000000D+00  0.0000000000000D+00  0.0000000000000D+00
313  3.1200000000000D+00  0.0000000000000D+00  0.0000000000000D+00
314  3.1300000000000D+00  0.0000000000000D+00  0.0000000000000D+00
315  3.1400000000000D+00  0.0000000000000D+00  0.0000000000000D+00
316  3.1500000000000D+00  0.0000000000000D+00  0.0000000000000D+00
317  3.1600000000000D+00  0.0000000000000D+00  0.0000000000000D+00
318  3.1700000000000D+00  0.0000000000000D+00  0.0000000000000D+00
319  3.1800000000000D+00  0.0000000000000D+00  0.0000000000000D+00
320  3.1900000000000D+00  0.0000000000000D+00  0.0000000000000D+00
321  3.2000000000000D+00  0.0000000000000D+00  0.0000000000000D+00
322  3.2100000000000D+00  0.0000000000000D+00  0.0000000000000D+00
323  3.2200000000000D+00  0.0000000000000D+00  0.0000000000000D+00
324  3.2300000000000D+00  0.0000000000000D+00  0.0000000000000D+00
325  3.2400000000000D+00  0.0000000000000D+00  0.0000000000000D+00
326  3.2500000000000D+00  0.0000000000000D+00  0.0000000000000D+00
327  3.2600000000000D+00  0.0000000000000D+00  0.0000000000000D+00
328  3.2700000000000D+00  0.0000000000000D+00  0.0000000000000D+00
329  3.2800000000000D+00  0.0000000000000D+00  0.0000000000000D+00
330  3.2900000000000D+00  0.0000000000000D+00  0.0000000000000D+00
331  3.3000000000000D+00  0.0000000000000D+00  0.0000000000000D+00
332  3.3100000000000D+00  0.0000000000000D+00  0.0000000000000D+00
333  3.3200000000000D+00  0.0000000000000D+00  0.0000000000000D+00
334  3.3300000000000D+00  0.0000000000000D+00  0.0000000000000D+00
335  3.3400000000000D+00  0.0000000000000D+00  0.0000000000000D+00
336  3.3500000000000D+00  0.0000000000000D+00  0.0000000000000D+00
337  3.3600000000000D+00  0.0000000000000D+00  0.0000000000000D+00
338  3.3700000000000D+00  0.0000000000000D+00  0.0000000000000D+00
339  3.3800000000000D+00  0.0000000000000D+00  0.0000000000000D+00
340  3.3900000000000D+00  0.0000000000000D+00  0.0000000000000D+00
341  3.4000000000000D+00  0.0000000000000D+00  0.0000000000000D+00
342  3.4100000000000D+00  0.0000000000000D+00  0.0000000000000D+00
343  3.4200000000000D+00  0.0000000000000D+00  0.0000000000000D+00
344  3.4300000000000D+00  0.0000000000000D+00  0.0000000000000D+00
345  3.4400000000000D+00  0.0000000000000D+00  0.0000000000000D+00
346  3.4500000000000D+00  0.0000000000000D+00  0.0000000000000D+00
347  3.4600000000000D+00  0.0000000000000D+00  0.0000000000000D+00
348  3.4700000000000D+00  0.0000000000000D+00  0.0000000000000D+00
349  3.4800000000000D+00  0.0000000000000D+00  0.0000000000000D+00
350  3.4900000000000D+00  0.0000000000000D+00  0.0000000000000D+00
351  3.5000000000000D+00  0.0000000000000D+00  0.0000000000000D+00
352  3.5100000000000D+00  0.0000000000000D+00  0.0000000000000D+00
353  3.5200000000000D+00  0.0000000000000D+00  0.0000000000000D+00
354  3.5300000000000D+00  0.0000000000000D+00  0.0000000000000D+00
355  3.5400000000000D+00  0.0000000000000D+00  0.0000000000000D+00
356  3.5500000000000D+00  0.0000000000000D+00  0.0000000000000D+00
357  3.5600000000000D+00  0.0000000000000D+00  0.0000000000000D+00
358  3.5700000000000D+00  0.0000000000000D+00  0.0000000000000D+00
359  3.5800000000000D+00  0.0000000000000D+00  0.0000000000000D+00
360  3.5900000000000D+00  0.0000000000000D+00  0.0000000000000D+00
361  3.6000000000000D+00  0.0000000000000D+00  0.0000000000000D+00
362  3.6100000000000D+00  0.0000000000000D+00  0.0000000000000D+00
363  3.6200000000000D+00  0.0000000000000D+00  0.0000000000000D+00
364  3.6300000000000D+00  0.0000000000000D+00  0.0000000000000D+00
365  3.6400000000000D+00  0.0000000000000D+00  0.0000000000000D+00
366  3.6500000000000D+00  0.0000000000000D+00  0.0000000000000D+00
367  3.6600000000000D+00  0.0000000000000D+00  0.0000000000000D+00
368  3.6700000000000D+00  0.0000000000000D+00  0.0000000000000D+00
369  3.6800000000000D+00  0.0000000000000D+00  0.0000000000000D+00
370  3.6900000000000D+00  0.0000000000000D+00  0.0000000000000D+00
371  3.7000000000000D+00  0.0000000000000D+00  0.0000000000000D+00
372  3.7100000000000D+00  0.0000000000000D+00  0.0000000000000D+00
373  3.7200000000000D+00  0.0000000000000D+00  0.0000000000000D+00
374  3.7300000000000D+00  0.0000000000000D+00  0.0000000000000D+00
375  3.7400000000000D+00  0.0000000000000D+00  0.0000000000000D+00
376  3.7500000000000D+00  0.0000000000000D+00  0.0000000000000D+00
377  3.7600000000000D+00  0.0000000000000D+00  0.0000000000000D+00
378  3.7700000000000D+00  0.0000000000000D+00  0.0000000000000D+00
379  3.7800000000000D+00  0.0000000000000D+00  0.0000000000000D+00
380  3.7900000000000D+00  0.0000000000000D+00  0.0000000000000D+00
381  3.8000000000000D+00  0.0000000000000D+00  0.0000000000000D+00
382  3.8100000000000D+00  0.0000000000000D+00  0.0000000000000D+00
383  3.8200000000000D+00  0.0000000000000D+00  0.0000000000000D+00
384  3.8300000000000D+00  0.0000000000000D+00  0.0000000000000D+00
385  3.8400000000000D+00  0.0000000000000D+00  0.0000000000000D+00
386  3.8500000000000D+00  0.0000000000000D+00  0.0000000000000D+00
387  3.8600000000000D+00  0.0000000000000D+00  0.0000000000000D+00
388  3.8700000000000D+00  0.0000000000000D+00  0.0000000000000D+00
389  3.8800000000000D+00  0.0000000000000D+00  0.0000000000000D+00
390  3.8900000000000D+00  0.0000000000000D+00  0.0000000000000D+00
391  3.9000000000000D+00  0.0000000000000D+00  0.0000000000000D+00
392  3.9100000000000D+00  0.0000000000000D+00  0.0000000000000D+00
393  3.9200000000000D+00  0.0000000000000D+00  0.0000000000000D+00
394  3.9300000000000D+00  0.0000000000000D+00  0.0000000000000D+00
395  3.9400000000000D+00  0.0000000000000D+00  0.0000000000000D+00
396  3.9500000000000D+00  0.0000000000000D+00  0.0000000000000D+00
397  3.9600000000000D+00  0.0000000000000D+00  0.0000000000000D+00
398  3.9700000000000D+00  0.0000000000000D+00  0.0000000000000D+00
399  3.9800000000000D+00  0.0000000000000D+00  0.0000000000000D+00
400  3.9900000000000D+00  0.0000000000000D+00  0.0000000000000D+00
401  4.0000000000000D+00  0.0000000000000D+00  0.0000000000000D+00
402  4.0100000000000D+00  0.0000000000000D+00  0.0000000000000D+00
403  4.0200000000000D+00  0.0000000000000D+00  0.0000000000000D+00
404  4.0300000000000D+00  0.0000000000000D+00  0.0000000000000D+00
405  4.0400000000000D+00  0.0000000000000D+00  0.0000000000000D+00
406  4.0500000000000D+00  0.0000000000000D+00  0.0000000000000D+00
407  4.0600000000000D+00  0.0000000000000D+00  0.0000000000000D+00
408  4.0700000000000D+00  0.0000000000000D+00  0.0000000000000D+00
409  4.0800000000000D+00  0.0000000000000D+00  0.0000000000000D+00
410  4.0900000000000D+00  0.0000000000000D+00  0.0000000000000D+00
411  4.1000000000000D+00  0.0000000000000D+00  0.0000000000000D+00
412  4.1100000000000D+00  0.0000000000000D+00  0.0000000000000D+00
413  4.1200000000000D+00  0.0000000000000D+00  0.0000000000000D+00
414  4.1300000000000D+00  0.0000000000000D+00  0.0000000000000D+00
415  4.1400000000000D+00  0.0000000000000D+00  0.0000000000000D+00
416  4.1500000000000D+00  0.0000000000000D+00  0.0000000000000D+00
417  4.1600000000000D+00  0.0000000000000D+00  0.0000000000000D+00
418  4.1700000000000D+00  0.0000000000000D+00  0.0000000000000D+00
419  4.1800000000000D+00  0.0000000000000D+00  0.0000000000000D+00
420  4.1900000000000D+00  0.0000000000000D+00  0.0000000000000D+00
421  4.2000000000000D+00  0.0000000000000D+00  0.0000000000000D+00
422  4.2100000000000D+00  0.0000000000000D+00  0.0000000000000D+00
423  4.2200000000000D+00  0.0000000000000D+00  0.0000000000000D+00
424  4.2300000000000D+00  0.0000000000000D+00  0.0000000000000D+00
425  4.2400000000000D+00  0.0000000000000D+00  0.0000000000000D+00
426  4.2500000000000D+00  0.0000000000000D+00  0.0000000000000D+00
427  4.2600000000000D+00  0.0000000000000D+00  0.0000000000000D+00
428  4.2700000000000D+00  0.0000000000000D+00  0.0000000000000D+00
429  4.2800000000000D+00  0.0000000000000D+00  0.0000000000000D+00
430  4.2900000000000D+00  0.0000000000000D+00  0.0000000000000D+00
431  4.3000000000000D+00  0.0000000000000D+00  0.0000000000000D+00
432  4.3100000000000D+00  0.0000000000000D+00  0.0000000000000D+00
433  4.3200000000000D+00  0.0000000000000D+00  0.0000000000000D+00
434  4.3300000000000D+00  0.0000000000000D+00  0.0000000000000D+00
435  4.3400000000000D+00  0.0000000000000D+00  0.0000000000000D+00
436  4.3500000000000D+00  0.0000000000000D+00  0.0000000000000D+00
437  4.3600000000000D+00  0.0000000000000D+00  0.0000000000000D+00
438  4.3700000000000D+00  0.0000000000000D+00  0.0000000000000D+00
439  4.3800000000000D+00  0.0000000000000D+00  0.0000000000000D+00
440  4.3900000000000D+00  0.0000000000000D+00  0.0000000000000D+00
441  4.4000000000000D+00  0.0000000000000D+00  0.0000000000000D+00
442  4.4100000000000D+00  0.0000000000000D+00  0.0000000000000D+00
443  4.4200000000000D+00  0.0000000000000D+00  0.0000000000000D+00