Li    ONCVPSP-3.3.0  r_core=   1.20595   1.00838
3.0000      3.0000      171101    zatom,zion,pspd
8   -1012   1     4   400     0    pspcod,pspxc,lmax,lloc,mmax,r2well
3.99000000  0.00000000  0.00000000    rchrg fchrg qchrg
2     2     0     0     0    nproj
1     1           extension_switch
0                        -5.3454186685844D+00 -1.4985430394195D+00
1  0.0000000000000D+00 -4.0390502054066D-09  1.2389919701317D-08
2  1.0000000000000D-02  1.1617436555903D-01 -5.3367528176570D-02
3  2.0000000000000D-02  2.3182656040519D-01 -1.0604804483454D-01
4  3.0000000000000D-02  3.4643855547947D-01 -1.5736370315711D-01
5  4.0000000000000D-02  4.5950054793739D-01 -2.0665482363776D-01
6  5.0000000000000D-02  5.7051493258625D-01 -2.5328857576731D-01
7  6.0000000000000D-02  6.7900010627438D-01 -2.9666718643372D-01
8  7.0000000000000D-02  7.8449405441059D-01 -3.3623553219365D-01
9  8.0000000000000D-02  8.8655767283184D-01 -3.7148798496514D-01
10  9.0000000000000D-02  9.8477778312837D-01 -4.0197439568682D-01
11  1.0000000000000D-01  1.0787698051812D+00 -4.2730511778148D-01
12  1.1000000000000D-01  1.1681800569499D+00 -4.4715499148819D-01
13  1.2000000000000D-01  1.2526876583422D+00 -4.6126623088961D-01
14  1.3000000000000D-01  1.3320060231624D+00 -4.6945017732569D-01
15  1.4000000000000D-01  1.4058839305270D+00 -4.7158790539790D-01
16  1.5000000000000D-01  1.4741061746060D+00 -4.6762969045965D-01
17  1.6000000000000D-01  1.5364937989378D+00 -4.5759336888689D-01
18  1.7000000000000D-01  1.5929039287379D+00 -4.4156164406080D-01
19  1.8000000000000D-01  1.6432292214208D+00 -4.1967841142234D-01
20  1.9000000000000D-01  1.6873969618463D+00 -3.9214419475000D-01
21  2.0000000000000D-01  1.7253678344699D+00 -3.5921080257677D-01
22  2.1000000000000D-01  1.7571344094920D+00 -3.2117532805113D-01
23  2.2000000000000D-01  1.7827193841875D+00 -2.7837362726218D-01
24  2.3000000000000D-01  1.8021736237551D+00 -2.3117341984607D-01
25  2.4000000000000D-01  1.8155740482169D+00 -1.7996716139139D-01
26  2.5000000000000D-01  1.8230214130661D+00 -1.2516483964783D-01
27  2.6000000000000D-01  1.8246380315035D+00 -6.7186845767154D-02
28  2.7000000000000D-01  1.8205654852150D+00 -6.4570677926314D-03
29  2.8000000000000D-01  1.8109623687559D+00  5.6603653550995D-02
30  2.9000000000000D-01  1.7960021097747D+00  1.2158357686829D-01
31  3.0000000000000D-01  1.7758709035866D+00  1.8808550293003D-01
32  3.1000000000000D-01  1.7507657960996D+00  2.5573150677310D-01
33  3.2000000000000D-01  1.7208929438919D+00  3.2416687506476D-01
34  3.3000000000000D-01  1.6864660744721D+00  3.9306318406734D-01
35  3.4000000000000D-01  1.6477051635458D+00  4.6212047422433D-01
36  3.5000000000000D-01  1.6048353396114D+00  5.3106849897037D-01
37  3.6000000000000D-01  1.5580860195562D+00  5.9966704737669D-01
38  3.7000000000000D-01  1.5076902722850D+00  6.6770536219386D-01
39  3.8000000000000D-01  1.4538844009191D+00  7.3500069626477D-01
40  3.9000000000000D-01  1.3969077279262D+00  8.0139607067810D-01
41  4.0000000000000D-01  1.3370025618043D+00  8.6675731696017D-01
42  4.1000000000000D-01  1.2744143187849D+00  9.3096950264226D-01
43  4.2000000000000D-01  1.2093917685722D+00  9.9393285430124D-01
44  4.3000000000000D-01  1.1421873694771D+00  1.0555583043196D+00
45  4.4000000000000D-01  1.0730576555583D+00  1.1157627968630D+00
46  4.5000000000000D-01  1.0022636365809D+00  1.1744644947106D+00
47  4.6000000000000D-01  9.3007117082478D-01  1.2315780314358D+00
48  4.7000000000000D-01  8.5675127101876D-01  1.2870099529500D+00
49  4.8000000000000D-01  7.8258030496720D-01  1.3406544885622D+00
50  4.9000000000000D-01  7.0784005473205D-01  1.3923897845509D+00
51  5.0000000000000D-01  6.3281760150643D-01  1.4420747229194D+00
52  5.1000000000000D-01  5.5780500749081D-01  1.4895464347104D+00
53  5.2000000000000D-01  4.8309877107629D-01  1.5346186012763D+00
54  5.3000000000000D-01  4.0899903734279D-01  1.5770806185581D+00
55  5.4000000000000D-01  3.3580855216935D-01  1.6166976791214D+00
56  5.5000000000000D-01  2.6383135500111D-01  1.6532118048231D+00
57  5.6000000000000D-01  1.9337121234717D-01  1.6863438401062D+00
58  5.7000000000000D-01  1.2472980127974D-01  1.7157963923888D+00
59  5.8000000000000D-01  5.8204659352923D-02  1.7412576825271D+00
60  5.9000000000000D-01 -5.9130756537036D-03  1.7624062452336D+00
61  6.0000000000000D-01 -6.7341106148929D-02  1.7789163973082D+00
62  6.1000000000000D-01 -1.2580855914977D-01  1.7904643709194D+00
63  6.2000000000000D-01 -1.8105867311376D-01  1.7967349906414D+00
64  6.3000000000000D-01 -2.3285154089867D-01  1.7974287566937D+00
65  6.4000000000000D-01 -2.8096685882713D-01  1.7922691835082D+00
66  6.5000000000000D-01 -3.2520662908206D-01  1.7810102324636D+00
67  6.6000000000000D-01 -3.6539776102322D-01  1.7634436708006D+00
68  6.7000000000000D-01 -4.0139451653160D-01  1.7394061855098D+00
69  6.8000000000000D-01 -4.3308074519835D-01  1.7087860814807D+00
70  6.9000000000000D-01 -4.6037185709256D-01  1.6715293975004D+00
71  7.0000000000000D-01 -4.8321648395512D-01  1.6276452817586D+00
72  7.1000000000000D-01 -5.0159778389544D-01  1.5772104801289D+00
73  7.2000000000000D-01 -5.1553435002828D-01  1.5203728056976D+00
74  7.3000000000000D-01 -5.2508068979672D-01  1.4573534762640D+00
75  7.4000000000000D-01 -5.3032724893037D-01  1.3884482276749D+00
76  7.5000000000000D-01 -5.3139996194007D-01  1.3140271344345D+00
77  7.6000000000000D-01 -5.2845931957800D-01  1.2345330945313D+00
78  7.7000000000000D-01 -5.2169895265442D-01  1.1504789624051D+00
79  7.8000000000000D-01 -5.1134374083325D-01  1.0624433419304D+00
80  7.9000000000000D-01 -4.9764746428376D-01  9.7106507947119D-01
81  8.0000000000000D-01 -4.8089002522411D-01  8.7703652508443D-01
82  8.1000000000000D-01 -4.6137427522406D-01  7.8109565710134D-01
83  8.2000000000000D-01 -4.3942249246465D-01  6.8401719106465D-01
84  8.3000000000000D-01 -4.1537256080373D-01  5.8660281777787D-01
85  8.4000000000000D-01 -3.8957390929976D-01  4.8967073651324D-01
86  8.5000000000000D-01 -3.6238327665250D-01  3.9404466775272D-01
87  8.6000000000000D-01 -3.3416036969416D-01  3.0054254478009D-01
88  8.7000000000000D-01 -3.0526348849703D-01  2.0996509465137D-01
89  8.8000000000000D-01 -2.7604519310799D-01  1.2308452760692D-01
90  8.9000000000000D-01 -2.4684808720393D-01  4.0633554960710D-02
91  9.0000000000000D-01 -2.1800077459035D-01 -3.6705117042717D-02
92  9.1000000000000D-01 -1.8981417210298D-01 -1.0830817081809D-01
93  9.2000000000000D-01 -1.6257744136618D-01 -1.7362290681510D-01
94  9.3000000000000D-01 -1.3655337122700D-01 -2.3218081516732D-01
95  9.4000000000000D-01 -1.1197461299296D-01 -2.8360789697265D-01
96  9.5000000000000D-01 -8.9041243433409D-02 -3.2763015588835D-01
97  9.6000000000000D-01 -6.7918788831963D-02 -3.6407785150524D-01
98  9.7000000000000D-01 -4.8736840331304D-02 -3.9288801430232D-01
99  9.8000000000000D-01 -3.1588265812304D-02 -4.1410522783137D-01
100  9.9000000000000D-01 -1.6529030298541D-02 -4.2788064203663D-01
101  1.0000000000000D+00 -3.5786268079970D-03 -4.3446921187509D-01
102  1.0100000000000D+00  7.2788916485806D-03 -4.3422518946556D-01
103  1.0200000000000D+00  1.6093298927135D-02 -4.2759593027293D-01
104  1.0300000000000D+00  2.2946031950647D-02 -4.1511410549199D-01
105  1.0400000000000D+00  2.7947516736282D-02 -3.9738844306784D-01
106  1.0500000000000D+00  3.1234033628748D-02 -3.7509314673978D-01
107  1.0600000000000D+00  3.2964180195219D-02 -3.4895617004372D-01
108  1.0700000000000D+00  3.3314997053534D-02 -3.1974654292662D-01
109  1.0800000000000D+00  3.2477828360650D-02 -2.8826096827060D-01
110  1.0900000000000D+00  3.0653993512305D-02 -2.5530992033238D-01
111  1.1000000000000D+00  2.8050350014332D-02 -2.2170348751399D-01
112  1.1100000000000D+00  2.4874829867539D-02 -1.8823720918940D-01
113  1.1200000000000D+00  2.1332032027239D-02 -1.5567815702703D-01
114  1.1300000000000D+00  1.7618952199719D-02 -1.2475150735395D-01
115  1.1400000000000D+00  1.3920929531261D-02 -9.6127845953347D-02
116  1.1500000000000D+00  1.0407885056164D-02 -7.0411432467188D-02
117  1.1600000000000D+00  7.2309216945776D-03 -4.8129636149118D-02
118  1.1700000000000D+00  4.5208293697796D-03 -2.9733459189412D-02
119  1.1800000000000D+00  2.3739063996137D-03 -1.5512893762243D-02
120  1.1900000000000D+00  8.8190574708429D-04 -5.8015809953177D-03
121  1.2000000000000D+00  1.2740385873373D-04 -9.5520448181297D-04
122  1.2100000000000D+00 -6.0357916476323D-05  2.9007382043771D-04
123  1.2200000000000D+00 -3.0468096356840D-06  1.6408400925284D-05
124  1.2300000000000D+00  1.2398046866070D-05 -6.8504669407773D-05
125  1.2400000000000D+00 -2.6513750883341D-06  1.4201125175396D-05
126  1.2500000000000D+00  2.6696912338615D-09 -7.0455565112933D-09
127  1.2600000000000D+00  7.8974479048819D-08 -2.0842078965199D-07
128  1.2700000000000D+00  0.0000000000000D+00  0.0000000000000D+00
129  1.2800000000000D+00  0.0000000000000D+00  0.0000000000000D+00
130  1.2900000000000D+00  0.0000000000000D+00  0.0000000000000D+00
131  1.3000000000000D+00  0.0000000000000D+00  0.0000000000000D+00
132  1.3100000000000D+00  0.0000000000000D+00  0.0000000000000D+00
133  1.3200000000000D+00  0.0000000000000D+00  0.0000000000000D+00
134  1.3300000000000D+00  0.0000000000000D+00  0.0000000000000D+00
135  1.3400000000000D+00  0.0000000000000D+00  0.0000000000000D+00
136  1.3500000000000D+00  0.0000000000000D+00  0.0000000000000D+00
137  1.3600000000000D+00  0.0000000000000D+00  0.0000000000000D+00
138  1.3700000000000D+00  0.0000000000000D+00  0.0000000000000D+00
139  1.3800000000000D+00  0.0000000000000D+00  0.0000000000000D+00
140  1.3900000000000D+00  0.0000000000000D+00  0.0000000000000D+00
141  1.4000000000000D+00  0.0000000000000D+00  0.0000000000000D+00
142  1.4100000000000D+00  0.0000000000000D+00  0.0000000000000D+00
143  1.4200000000000D+00  0.0000000000000D+00  0.0000000000000D+00
144  1.4300000000000D+00  0.0000000000000D+00  0.0000000000000D+00
145  1.4400000000000D+00  0.0000000000000D+00  0.0000000000000D+00
146  1.4500000000000D+00  0.0000000000000D+00  0.0000000000000D+00
147  1.4600000000000D+00  0.0000000000000D+00  0.0000000000000D+00
148  1.4700000000000D+00  0.0000000000000D+00  0.0000000000000D+00
149  1.4800000000000D+00  0.0000000000000D+00  0.0000000000000D+00
150  1.4900000000000D+00  0.0000000000000D+00  0.0000000000000D+00
151  1.5000000000000D+00  0.0000000000000D+00  0.0000000000000D+00
152  1.5100000000000D+00  0.0000000000000D+00  0.0000000000000D+00
153  1.5200000000000D+00  0.0000000000000D+00  0.0000000000000D+00
154  1.5300000000000D+00  0.0000000000000D+00  0.0000000000000D+00
155  1.5400000000000D+00  0.0000000000000D+00  0.0000000000000D+00
156  1.5500000000000D+00  0.0000000000000D+00  0.0000000000000D+00
157  1.5600000000000D+00  0.0000000000000D+00  0.0000000000000D+00
158  1.5700000000000D+00  0.0000000000000D+00  0.0000000000000D+00
159  1.5800000000000D+00  0.0000000000000D+00  0.0000000000000D+00
160  1.5900000000000D+00  0.0000000000000D+00  0.0000000000000D+00
161  1.6000000000000D+00  0.0000000000000D+00  0.0000000000000D+00
162  1.6100000000000D+00  0.0000000000000D+00  0.0000000000000D+00
163  1.6200000000000D+00  0.0000000000000D+00  0.0000000000000D+00
164  1.6300000000000D+00  0.0000000000000D+00  0.0000000000000D+00
165  1.6400000000000D+00  0.0000000000000D+00  0.0000000000000D+00
166  1.6500000000000D+00  0.0000000000000D+00  0.0000000000000D+00
167  1.6600000000000D+00  0.0000000000000D+00  0.0000000000000D+00
168  1.6700000000000D+00  0.0000000000000D+00  0.0000000000000D+00
169  1.6800000000000D+00  0.0000000000000D+00  0.0000000000000D+00
170  1.6900000000000D+00  0.0000000000000D+00  0.0000000000000D+00
171  1.7000000000000D+00  0.0000000000000D+00  0.0000000000000D+00
172  1.7100000000000D+00  0.0000000000000D+00  0.0000000000000D+00
173  1.7200000000000D+00  0.0000000000000D+00  0.0000000000000D+00
174  1.7300000000000D+00  0.0000000000000D+00  0.0000000000000D+00
175  1.7400000000000D+00  0.0000000000000D+00  0.0000000000000D+00
176  1.7500000000000D+00  0.0000000000000D+00  0.0000000000000D+00
177  1.7600000000000D+00  0.0000000000000D+00  0.0000000000000D+00
178  1.7700000000000D+00  0.0000000000000D+00  0.0000000000000D+00
179  1.7800000000000D+00  0.0000000000000D+00  0.0000000000000D+00
180  1.7900000000000D+00  0.0000000000000D+00  0.0000000000000D+00
181  1.8000000000000D+00  0.0000000000000D+00  0.0000000000000D+00
182  1.8100000000000D+00  0.0000000000000D+00  0.0000000000000D+00
183  1.8200000000000D+00  0.0000000000000D+00  0.0000000000000D+00
184  1.8300000000000D+00  0.0000000000000D+00  0.0000000000000D+00
185  1.8400000000000D+00  0.0000000000000D+00  0.0000000000000D+00
186  1.8500000000000D+00  0.0000000000000D+00  0.0000000000000D+00
187  1.8600000000000D+00  0.0000000000000D+00  0.0000000000000D+00
188  1.8700000000000D+00  0.0000000000000D+00  0.0000000000000D+00
189  1.8800000000000D+00  0.0000000000000D+00  0.0000000000000D+00
190  1.8900000000000D+00  0.0000000000000D+00  0.0000000000000D+00
191  1.9000000000000D+00  0.0000000000000D+00  0.0000000000000D+00
192  1.9100000000000D+00  0.0000000000000D+00  0.0000000000000D+00
193  1.9200000000000D+00  0.0000000000000D+00  0.0000000000000D+00
194  1.9300000000000D+00  0.0000000000000D+00  0.0000000000000D+00
195  1.9400000000000D+00  0.0000000000000D+00  0.0000000000000D+00
196  1.9500000000000D+00  0.0000000000000D+00  0.0000000000000D+00
197  1.9600000000000D+00  0.0000000000000D+00  0.0000000000000D+00
198  1.9700000000000D+00  0.0000000000000D+00  0.0000000000000D+00
199  1.9800000000000D+00  0.0000000000000D+00  0.0000000000000D+00
200  1.9900000000000D+00  0.0000000000000D+00  0.0000000000000D+00
201  2.0000000000000D+00  0.0000000000000D+00  0.0000000000000D+00
202  2.0100000000000D+00  0.0000000000000D+00  0.0000000000000D+00
203  2.0200000000000D+00  0.0000000000000D+00  0.0000000000000D+00
204  2.0300000000000D+00  0.0000000000000D+00  0.0000000000000D+00
205  2.0400000000000D+00  0.0000000000000D+00  0.0000000000000D+00
206  2.0500000000000D+00  0.0000000000000D+00  0.0000000000000D+00
207  2.0600000000000D+00  0.0000000000000D+00  0.0000000000000D+00
208  2.0700000000000D+00  0.0000000000000D+00  0.0000000000000D+00
209  2.0800000000000D+00  0.0000000000000D+00  0.0000000000000D+00
210  2.0900000000000D+00  0.0000000000000D+00  0.0000000000000D+00
211  2.1000000000000D+00  0.0000000000000D+00  0.0000000000000D+00
212  2.1100000000000D+00  0.0000000000000D+00  0.0000000000000D+00
213  2.1200000000000D+00  0.0000000000000D+00  0.0000000000000D+00
214  2.1300000000000D+00  0.0000000000000D+00  0.0000000000000D+00
215  2.1400000000000D+00  0.0000000000000D+00  0.0000000000000D+00
216  2.1500000000000D+00  0.0000000000000D+00  0.0000000000000D+00
217  2.1600000000000D+00  0.0000000000000D+00  0.0000000000000D+00
218  2.1700000000000D+00  0.0000000000000D+00  0.0000000000000D+00
219  2.1800000000000D+00  0.0000000000000D+00  0.0000000000000D+00
220  2.1900000000000D+00  0.0000000000000D+00  0.0000000000000D+00
221  2.2000000000000D+00  0.0000000000000D+00  0.0000000000000D+00
222  2.2100000000000D+00  0.0000000000000D+00  0.0000000000000D+00
223  2.2200000000000D+00  0.0000000000000D+00  0.0000000000000D+00
224  2.2300000000000D+00  0.0000000000000D+00  0.0000000000000D+00
225  2.2400000000000D+00  0.0000000000000D+00  0.0000000000000D+00
226  2.2500000000000D+00  0.0000000000000D+00  0.0000000000000D+00
227  2.2600000000000D+00  0.0000000000000D+00  0.0000000000000D+00
228  2.2700000000000D+00  0.0000000000000D+00  0.0000000000000D+00
229  2.2800000000000D+00  0.0000000000000D+00  0.0000000000000D+00
230  2.2900000000000D+00  0.0000000000000D+00  0.0000000000000D+00
231  2.3000000000000D+00  0.0000000000000D+00  0.0000000000000D+00
232  2.3100000000000D+00  0.0000000000000D+00  0.0000000000000D+00
233  2.3200000000000D+00  0.0000000000000D+00  0.0000000000000D+00
234  2.3300000000000D+00  0.0000000000000D+00  0.0000000000000D+00
235  2.3400000000000D+00  0.0000000000000D+00  0.0000000000000D+00
236  2.3500000000000D+00  0.0000000000000D+00  0.0000000000000D+00
237  2.3600000000000D+00  0.0000000000000D+00  0.0000000000000D+00
238  2.3700000000000D+00  0.0000000000000D+00  0.0000000000000D+00
239  2.3800000000000D+00  0.0000000000000D+00  0.0000000000000D+00
240  2.3900000000000D+00  0.0000000000000D+00  0.0000000000000D+00
241  2.4000000000000D+00  0.0000000000000D+00  0.0000000000000D+00
242  2.4100000000000D+00  0.0000000000000D+00  0.0000000000000D+00
243  2.4200000000000D+00  0.0000000000000D+00  0.0000000000000D+00
244  2.4300000000000D+00  0.0000000000000D+00  0.0000000000000D+00
245  2.4400000000000D+00  0.0000000000000D+00  0.0000000000000D+00
246  2.4500000000000D+00  0.0000000000000D+00  0.0000000000000D+00
247  2.4600000000000D+00  0.0000000000000D+00  0.0000000000000D+00
248  2.4700000000000D+00  0.0000000000000D+00  0.0000000000000D+00
249  2.4800000000000D+00  0.0000000000000D+00  0.0000000000000D+00
250  2.4900000000000D+00  0.0000000000000D+00  0.0000000000000D+00
251  2.5000000000000D+00  0.0000000000000D+00  0.0000000000000D+00
252  2.5100000000000D+00  0.0000000000000D+00  0.0000000000000D+00
253  2.5200000000000D+00  0.0000000000000D+00  0.0000000000000D+00
254  2.5300000000000D+00  0.0000000000000D+00  0.0000000000000D+00
255  2.5400000000000D+00  0.0000000000000D+00  0.0000000000000D+00
256  2.5500000000000D+00  0.0000000000000D+00  0.0000000000000D+00
257  2.5600000000000D+00  0.0000000000000D+00  0.0000000000000D+00
258  2.5700000000000D+00  0.0000000000000D+00  0.0000000000000D+00
259  2.5800000000000D+00  0.0000000000000D+00  0.0000000000000D+00
260  2.5900000000000D+00  0.0000000000000D+00  0.0000000000000D+00
261  2.6000000000000D+00  0.0000000000000D+00  0.0000000000000D+00
262  2.6100000000000D+00  0.0000000000000D+00  0.0000000000000D+00
263  2.6200000000000D+00  0.0000000000000D+00  0.0000000000000D+00
264  2.6300000000000D+00  0.0000000000000D+00  0.0000000000000D+00
265  2.6400000000000D+00  0.0000000000000D+00  0.0000000000000D+00
266  2.6500000000000D+00  0.0000000000000D+00  0.0000000000000D+00
267  2.6600000000000D+00  0.0000000000000D+00  0.0000000000000D+00
268  2.6700000000000D+00  0.0000000000000D+00  0.0000000000000D+00
269  2.6800000000000D+00  0.0000000000000D+00  0.0000000000000D+00
270  2.6900000000000D+00  0.0000000000000D+00  0.0000000000000D+00
271  2.7000000000000D+00  0.0000000000000D+00  0.0000000000000D+00
272  2.7100000000000D+00  0.0000000000000D+00  0.0000000000000D+00
273  2.7200000000000D+00  0.0000000000000D+00  0.0000000000000D+00
274  2.7300000000000D+00  0.0000000000000D+00  0.0000000000000D+00
275  2.7400000000000D+00  0.0000000000000D+00  0.0000000000000D+00
276  2.7500000000000D+00  0.0000000000000D+00  0.0000000000000D+00
277  2.7600000000000D+00  0.0000000000000D+00  0.0000000000000D+00
278  2.7700000000000D+00  0.0000000000000D+00  0.0000000000000D+00
279  2.7800000000000D+00  0.0000000000000D+00  0.0000000000000D+00
280  2.7900000000000D+00  0.0000000000000D+00  0.0000000000000D+00
281  2.8000000000000D+00  0.0000000000000D+00  0.0000000000000D+00
282  2.8100000000000D+00  0.0000000000000D+00  0.0000000000000D+00
283  2.8200000000000D+00  0.0000000000000D+00  0.0000000000000D+00
284  2.8300000000000D+00  0.0000000000000D+00  0.0000000000000D+00
285  2.8400000000000D+00  0.0000000000000D+00  0.0000000000000D+00
286  2.8500000000000D+00  0.0000000000000D+00  0.0000000000000D+00
287  2.8600000000000D+00  0.0000000000000D+00  0.0000000000000D+00
288  2.8700000000000D+00  0.0000000000000D+00  0.0000000000000D+00
289  2.8800000000000D+00  0.0000000000000D+00  0.0000000000000D+00
290  2.8900000000000D+00  0.0000000000000D+00  0.0000000000000D+00
291  2.9000000000000D+00  0.0000000000000D+00  0.0000000000000D+00
292  2.9100000000000D+00  0.0000000000000D+00  0.0000000000000D+00
293  2.9200000000000D+00  0.0000000000000D+00  0.0000000000000D+00
294  2.9300000000000D+00  0.0000000000000D+00  0.0000000000000D+00
295  2.9400000000000D+00  0.0000000000000D+00  0.0000000000000D+00
296  2.9500000000000D+00  0.0000000000000D+00  0.0000000000000D+00
297  2.9600000000000D+00  0.0000000000000D+00  0.0000000000000D+00
298  2.9700000000000D+00  0.0000000000000D+00  0.0000000000000D+00
299  2.9800000000000D+00  0.0000000000000D+00  0.0000000000000D+00
300  2.9900000000000D+00  0.0000000000000D+00  0.0000000000000D+00
301  3.0000000000000D+00  0.0000000000000D+00  0.0000000000000D+00
302  3.0100000000000D+00  0.0000000000000D+00  0.0000000000000D+00
303  3.0200000000000D+00  0.0000000000000D+00  0.0000000000000D+00
304  3.0300000000000D+00  0.0000000000000D+00  0.0000000000000D+00
305  3.0400000000000D+00  0.0000000000000D+00  0.0000000000000D+00
306  3.0500000000000D+00  0.0000000000000D+00  0.0000000000000D+00
307  3.0600000000000D+00  0.0000000000000D+00  0.0000000000000D+00
308  3.0700000000000D+00  0.0000000000000D+00  0.0000000000000D+00
309  3.0800000000000D+00  0.0000000000000D+00  0.0000000000000D+00
310  3.0900000000000D+00  0.0000000000000D+00  0.0000000000000D+00
311  3.1000000000000D+00  0.0000000000000D+00  0.0000000000000D+00
312  3.1100000000000D+00  0.0000000000000D+00  0.0000000000000D+00
313  3.1200000000000D+00  0.0000000000000D+00  0.0000000000000D+00
314  3.1300000000000D+00  0.0000000000000D+00  0.0000000000000D+00
315  3.1400000000000D+00  0.0000000000000D+00  0.0000000000000D+00
316  3.1500000000000D+00  0.0000000000000D+00  0.0000000000000D+00
317  3.1600000000000D+00  0.0000000000000D+00  0.0000000000000D+00
318  3.1700000000000D+00  0.0000000000000D+00  0.0000000000000D+00
319  3.1800000000000D+00  0.0000000000000D+00  0.0000000000000D+00
320  3.1900000000000D+00  0.0000000000000D+00  0.0000000000000D+00
321  3.2000000000000D+00  0.0000000000000D+00  0.0000000000000D+00
322  3.2100000000000D+00  0.0000000000000D+00  0.0000000000000D+00
323  3.2200000000000D+00  0.0000000000000D+00  0.0000000000000D+00
324  3.2300000000000D+00  0.0000000000000D+00  0.0000000000000D+00
325  3.2400000000000D+00  0.0000000000000D+00  0.0000000000000D+00
326  3.2500000000000D+00  0.0000000000000D+00  0.0000000000000D+00
327  3.2600000000000D+00  0.0000000000000D+00  0.0000000000000D+00
328  3.2700000000000D+00  0.0000000000000D+00  0.0000000000000D+00
329  3.2800000000000D+00  0.0000000000000D+00  0.0000000000000D+00
330  3.2900000000000D+00  0.0000000000000D+00  0.0000000000000D+00
331  3.3000000000000D+00  0.0000000000000D+00  0.0000000000000D+00
332  3.3100000000000D+00  0.0000000000000D+00  0.0000000000000D+00
333  3.3200000000000D+00  0.0000000000000D+00  0.0000000000000D+00
334  3.3300000000000D+00  0.0000000000000D+00  0.0000000000000D+00
335  3.3400000000000D+00  0.0000000000000D+00  0.0000000000000D+00
336  3.3500000000000D+00  0.0000000000000D+00  0.0000000000000D+00
337  3.3600000000000D+00  0.0000000000000D+00  0.0000000000000D+00
338  3.3700000000000D+00  0.0000000000000D+00  0.0000000000000D+00
339  3.3800000000000D+00  0.0000000000000D+00  0.0000000000000D+00
340  3.3900000000000D+00  0.0000000000000D+00  0.0000000000000D+00
341  3.4000000000000D+00  0.0000000000000D+00  0.0000000000000D+00
342  3.4100000000000D+00  0.0000000000000D+00  0.0000000000000D+00
343  3.4200000000000D+00  0.0000000000000D+00  0.0000000000000D+00
344  3.4300000000000D+00  0.0000000000000D+00  0.0000000000000D+00
345  3.4400000000000D+00  0.0000000000000D+00  0.0000000000000D+00
346  3.4500000000000D+00  0.0000000000000D+00  0.0000000000000D+00
347  3.4600000000000D+00  0.0000000000000D+00  0.0000000000000D+00
348  3.4700000000000D+00  0.0000000000000D+00  0.0000000000000D+00
349  3.4800000000000D+00  0.0000000000000D+00  0.0000000000000D+00
350  3.4900000000000D+00  0.0000000000000D+00  0.0000000000000D+00
351  3.5000000000000D+00  0.0000000000000D+00  0.0000000000000D+00
352  3.5100000000000D+00  0.0000000000000D+00  0.0000000000000D+00
353  3.5200000000000D+00  0.0000000000000D+00  0.0000000000000D+00
354  3.5300000000000D+00  0.0000000000000D+00  0.0000000000000D+00
355  3.5400000000000D+00  0.0000000000000D+00  0.0000000000000D+00
356  3.5500000000000D+00  0.0000000000000D+00  0.0000000000000D+00
357  3.5600000000000D+00  0.0000000000000D+00  0.0000000000000D+00
358  3.5700000000000D+00  0.0000000000000D+00  0.0000000000000D+00
359  3.5800000000000D+00  0.0000000000000D+00  0.0000000000000D+00
360  3.5900000000000D+00  0.0000000000000D+00  0.0000000000000D+00
361  3.6000000000000D+00  0.0000000000000D+00  0.0000000000000D+00
362  3.6100000000000D+00  0.0000000000000D+00  0.0000000000000D+00
363  3.6200000000000D+00  0.0000000000000D+00  0.0000000000000D+00
364  3.6300000000000D+00  0.0000000000000D+00  0.0000000000000D+00
365  3.6400000000000D+00  0.0000000000000D+00  0.0000000000000D+00
366  3.6500000000000D+00  0.0000000000000D+00  0.0000000000000D+00
367  3.6600000000000D+00  0.0000000000000D+00  0.0000000000000D+00
368  3.6700000000000D+00  0.0000000000000D+00  0.0000000000000D+00
369  3.6800000000000D+00  0.0000000000000D+00  0.0000000000000D+00
370  3.6900000000000D+00  0.0000000000000D+00  0.0000000000000D+00
371  3.7000000000000D+00  0.0000000000000D+00  0.0000000000000D+00
372  3.7100000000000D+00  0.0000000000000D+00  0.0000000000000D+00
373  3.7200000000000D+00  0.0000000000000D+00  0.0000000000000D+00
374  3.7300000000000D+00  0.0000000000000D+00  0.0000000000000D+00
375  3.7400000000000D+00  0.0000000000000D+00  0.0000000000000D+00
376  3.7500000000000D+00  0.0000000000000D+00  0.0000000000000D+00
377  3.7600000000000D+00  0.0000000000000D+00  0.0000000000000D+00
378  3.7700000000000D+00  0.0000000000000D+00  0.0000000000000D+00
379  3.7800000000000D+00  0.0000000000000D+00  0.0000000000000D+00
380  3.7900000000000D+00  0.0000000000000D+00  0.0000000000000D+00
381  3.8000000000000D+00  0.0000000000000D+00  0.0000000000000D+00
382  3.8100000000000D+00  0.0000000000000D+00  0.0000000000000D+00
383  3.8200000000000D+00  0.0000000000000D+00  0.0000000000000D+00
384  3.8300000000000D+00  0.0000000000000D+00  0.0000000000000D+00
385  3.8400000000000D+00  0.0000000000000D+00  0.0000000000000D+00
386  3.8500000000000D+00  0.0000000000000D+00  0.0000000000000D+00
387  3.8600000000000D+00  0.0000000000000D+00  0.0000000000000D+00
388  3.8700000000000D+00  0.0000000000000D+00  0.0000000000000D+00
389  3.8800000000000D+00  0.0000000000000D+00  0.0000000000000D+00
390  3.8900000000000D+00  0.0000000000000D+00  0.0000000000000D+00
391  3.9000000000000D+00  0.0000000000000D+00  0.0000000000000D+00
392  3.9100000000000D+00  0.0000000000000D+00  0.0000000000000D+00
393  3.9200000000000D+00  0.0000000000000D+00  0.0000000000000D+00
394  3.9300000000000D+00  0.0000000000000D+00  0.0000000000000D+00
395  3.9400000000000D+00  0.0000000000000D+00  0.0000000000000D+00
396  3.9500000000000D+00  0.0000000000000D+00  0.0000000000000D+00
397  3.9600000000000D+00  0.0000000000000D+00  0.0000000000000D+00
398  3.9700000000000D+00  0.0000000000000D+00  0.0000000000000D+00
399  3.9800000000000D+00  0.0000000000000D+00  0.0000000000000D+00
400  3.9900000000000D+00  0.0000000000000D+00  0.0000000000000D+00
1                        -2.2591334565059D+00 -5.7941960252298D-01
1  0.0000000000000D+00  3.9341596297371D-07 -6.2338695977493D-07
2  1.0000000000000D-02  6.7795569114107D-03 -6.0794791180486D-03
3  2.0000000000000D-02  2.6912366162843D-02 -2.4020528748552D-02
4  3.0000000000000D-02  5.9788302388773D-02 -5.2942617892291D-02
5  4.0000000000000D-02  1.0441508356869D-01 -9.1416539179977D-02
6  5.0000000000000D-02  1.5945422591789D-01 -1.3752043709684D-01
7  6.0000000000000D-02  2.2326954389058D-01 -1.8891532598595D-01
8  7.0000000000000D-02  2.9398643689619D-01 -2.4293730251060D-01
9  8.0000000000000D-02  3.6955981091368D-01 -2.9670303386926D-01
10  9.0000000000000D-02  4.4784816623078D-01 -3.4722460256011D-01
11  1.0000000000000D-01  5.2669115338854D-01 -3.9152942905531D-01
12  1.1000000000000D-01  6.0398776635764D-01 -4.2678078855155D-01
13  1.2000000000000D-01  6.7777230992103D-01 -4.5039439474172D-01
14  1.3000000000000D-01  7.4628534856089D-01 -4.6014664430243D-01
15  1.4000000000000D-01  8.0803701461913D-01 -4.5427039669390D-01
16  1.5000000000000D-01  8.6186031836878D-01 -4.3153459540957D-01
17  1.6000000000000D-01  9.0695245282126D-01 -3.9130460411769D-01
18  1.7000000000000D-01  9.4290250949982D-01 -3.3358081446065D-01
19  1.8000000000000D-01  9.6970450333188D-01 -2.5901385771130D-01
20  1.9000000000000D-01  9.8775512844816D-01 -1.6889559275705D-01
21  2.0000000000000D-01  9.9783621370998D-01 -6.5125918336362D-02
22  2.1000000000000D-01  1.0010823980200D+00  4.9843662937414D-02
23  2.2000000000000D-01  9.9893508148866D-01  1.7308794876831D-01
24  2.3000000000000D-01  9.9308421037761D-01  3.0130483475722D-01
25  2.4000000000000D-01  9.8539990358920D-01  4.3092772191949D-01
26  2.5000000000000D-01  9.7785631023491D-01  5.5824965397089D-01
27  2.6000000000000D-01  9.7245038771619D-01  6.7955484124934D-01
28  2.7000000000000D-01  9.7111849681812D-01  7.9125291620057D-01
29  2.8000000000000D-01  9.7565381676145D-01  8.9001111647429D-01
30  2.9000000000000D-01  9.8762758466647D-01  9.7287961222530D-01
31  3.0000000000000D-01  1.0083170597760D+00  1.0374053846332D+00
32  3.1000000000000D-01  1.0386429060551D+00  1.0817304174345D+00
33  3.2000000000000D-01  1.0791183840070D+00  1.1046704710832D+00
34  3.3000000000000D-01  1.1298123536590D+00  1.1057713532860D+00
35  3.4000000000000D-01  1.1903276286662D+00  1.0853403584508D+00
36  3.5000000000000D-01  1.2597957019275D+00  1.0444513963150D+00
37  3.6000000000000D-01  1.3368883036584D+00  9.8492323762162D-01
38  3.7000000000000D-01  1.4198456726649D+00  9.0927124087466D-01
39  3.8000000000000D-01  1.5065208405112D+00  8.2063385647705D-01
40  3.9000000000000D-01  1.5944386664628D+00  7.2267610032340D-01
41  4.0000000000000D-01  1.6808678380449D+00  6.1947301666053D-01
42  4.1000000000000D-01  1.7629035859788D+00  5.1537688049591D-01
43  4.2000000000000D-01  1.8375584696205D+00  4.1487249676297D-01