Mg    ONCVPSP-3.3.0  r_core=   2.31813   2.10714
12.0000      2.0000      171101    zatom,zion,pspd
8   -1012   1     4   400     0    pspcod,pspxc,lmax,lloc,mmax,r2well
3.99000000  4.00000000  0.00000000    rchrg fchrg qchrg
2     2     0     0     0    nproj
1     1           extension_switch
0                         6.2393054889519D+00  6.8862621692161D-01
1  0.0000000000000D+00 -1.8603174556375D-11  5.4966439386184D-11
2  1.0000000000000D-02  2.6253200436747D-02 -1.7950176100881D-03
3  2.0000000000000D-02  5.2491542099845D-02 -3.5792181448007D-03
4  3.0000000000000D-02  7.8700218148985D-02 -5.3419441589078D-03
5  4.0000000000000D-02  1.0486452508647D-01 -7.0728558238181D-03
6  5.0000000000000D-02  1.3096991312307D-01 -8.7620856408025D-03
7  6.0000000000000D-02  1.5700203499066D-01 -1.0400388279245D-02
8  7.0000000000000D-02  1.8294679270577D-01 -1.1979283979870D-02
9  8.0000000000000D-02  2.0879038180696D-01 -1.3491194017855D-02
10  9.0000000000000D-02  2.3451933261176D-01 -1.4929566788661D-02
11  1.0000000000000D-01  2.6012054806620D-01 -1.6288993159659D-02
12  1.1000000000000D-01  2.8558133779089D-01 -1.7565309822719D-02
13  1.2000000000000D-01  3.1088944796267D-01 -1.8755689485837D-02
14  1.3000000000000D-01  3.3603308670871D-01 -1.9858716855186D-02
15  1.4000000000000D-01  3.6100094473170D-01 -2.0874449481363D-02
16  1.5000000000000D-01  3.8578221092842D-01 -2.1804462674405D-02
17  1.6000000000000D-01  4.1036658281087D-01 -2.2651877830113D-02
18  1.7000000000000D-01  4.3474427158724D-01 -2.3421373654402D-02
19  1.8000000000000D-01  4.5890600181045D-01 -2.4119179921388D-02
20  1.9000000000000D-01  4.8284300555303D-01 -2.4753053553944D-02
21  2.0000000000000D-01  5.0654701111925D-01 -2.5332236970667D-02
22  2.1000000000000D-01  5.3001022635793D-01 -2.5867398800022D-02
23  2.2000000000000D-01  5.5322531669122D-01 -2.6370557218966D-02
24  2.3000000000000D-01  5.7618537802695D-01 -2.6854986328791D-02
25  2.4000000000000D-01  5.9888390477206D-01 -2.7335106133731D-02
26  2.5000000000000D-01  6.2131475321463D-01 -2.7826356836895D-02
27  2.6000000000000D-01  6.4347210058884D-01 -2.8345058312019D-02
28  2.7000000000000D-01  6.6535040018253D-01 -2.8908255747330D-02
29  2.8000000000000D-01  6.8694433288937D-01 -2.9533552588131D-02
30  2.9000000000000D-01  7.0824875564691D-01 -3.0238932026590D-02
31  3.0000000000000D-01  7.2925864723772D-01 -3.1042568399630D-02
32  3.1000000000000D-01  7.4996905196298D-01 -3.1962629957675D-02
33  3.2000000000000D-01  7.7037502172572D-01 -3.3017074557598D-02
34  3.3000000000000D-01  7.9047155708492D-01 -3.4223439911641D-02
35  3.4000000000000D-01  8.1025354786036D-01 -3.5598630089652D-02
36  3.5000000000000D-01  8.2971571388278D-01 -3.7158700024130D-02
37  3.6000000000000D-01  8.4885254649283D-01 -3.8918639805805D-02
38  3.7000000000000D-01  8.6765825139671D-01 -4.0892160581357D-02
39  3.8000000000000D-01  8.8612669348521D-01 -4.3091483874266D-02
40  3.9000000000000D-01  9.0425134421646D-01 -4.5527136144199D-02
41  4.0000000000000D-01  9.2202523215136D-01 -4.8207750380421D-02
42  4.1000000000000D-01  9.3944089721326D-01 -5.1139876489487D-02
43  4.2000000000000D-01  9.5649034922204D-01 -5.4327802188429D-02
44  4.3000000000000D-01  9.7316503122485D-01 -5.7773386050819D-02
45  4.4000000000000D-01  9.8945578811438D-01 -6.1475904276099D-02
46  4.5000000000000D-01  1.0053528409881D+00 -6.5431912661896D-02
47  4.6000000000000D-01  1.0208457676613D+00 -6.9635125156294D-02
48  4.7000000000000D-01  1.0359234897000D+00 -7.4076310252334D-02
49  4.8000000000000D-01  1.0505742662924D+00 -7.8743206361557D-02
50  4.9000000000000D-01  1.0647856952221D+00 -8.3620457168042D-02
51  5.0000000000000D-01  1.0785447211520D+00 -8.8689567820363D-02
52  5.1000000000000D-01  1.0918376513685D+00 -9.3928882667048D-02
53  5.2000000000000D-01  1.1046501790730D+00 -9.9313585083118D-02
54  5.3000000000000D-01  1.1169674142466D+00 -1.0481571977187D-01
55  5.4000000000000D-01  1.1287739220478D+00 -1.1040423775924D-01
56  5.5000000000000D-01  1.1400537686388D+00 -1.1604506412862D-01
57  5.6000000000000D-01  1.1507905742679D+00 -1.2170118837383D-01
58  5.7000000000000D-01  1.1609675733742D+00 -1.2733277707824D-01
59  5.8000000000000D-01  1.1705676814107D+00 -1.3289730846021D-01
60  5.9000000000000D-01  1.1795735680227D+00 -1.3834972816145D-01
61  6.0000000000000D-01  1.1879677361534D+00 -1.4364262549497D-01
62  6.1000000000000D-01  1.1957326065916D+00 -1.4872642921740D-01
63  6.2000000000000D-01  1.2028506074177D+00 -1.5354962174538D-01
64  6.3000000000000D-01  1.2093042677523D+00 -1.5805897060046D-01
65  6.4000000000000D-01  1.2150763151613D+00 -1.6219977574208D-01
66  6.5000000000000D-01  1.2201497760280D+00 -1.6591613133557D-01
67  6.6000000000000D-01  1.2245080781607D+00 -1.6915120040224D-01
68  6.7000000000000D-01  1.2281351548704D+00 -1.7184750071350D-01
69  6.8000000000000D-01  1.2310155497241D+00 -1.7394720022060D-01
70  6.9000000000000D-01  1.2331345211551D+00 -1.7539242025791D-01
71  7.0000000000000D-01  1.2344781460969D+00 -1.7612554472076D-01
72  7.1000000000000D-01  1.2350334217933D+00 -1.7608953339998D-01
73  7.2000000000000D-01  1.2347883649397D+00 -1.7522823765434D-01
74  7.3000000000000D-01  1.2337321073080D+00 -1.7348671662036D-01
75  7.4000000000000D-01  1.2318549870238D+00 -1.7081155219631D-01
76  7.5000000000000D-01  1.2291486346814D+00 -1.6715116109301D-01
77  7.6000000000000D-01  1.2256060535053D+00 -1.6245610232069D-01
78  7.7000000000000D-01  1.2212216928058D+00 -1.5667937857517D-01
79  7.8000000000000D-01  1.2159915140112D+00 -1.4977673010108D-01
80  7.9000000000000D-01  1.2099130486117D+00 -1.4170691974174D-01
81  8.0000000000000D-01  1.2029854474016D+00 -1.3243200803539D-01
82  8.1000000000000D-01  1.1952095204717D+00 -1.2191761738506D-01
83  8.2000000000000D-01  1.1865877674691D+00 -1.1013318451288D-01
84  8.3000000000000D-01  1.1771243977202D+00 -9.7052200608372D-02
85  8.4000000000000D-01  1.1668253398906D+00 -8.2652438793839D-02
86  8.5000000000000D-01  1.1556982409438D+00 -6.6916168755560D-02
87  8.6000000000000D-01  1.1437524542516D+00 -4.9830358627413D-02
88  8.7000000000000D-01  1.1309990168069D+00 -3.1386864460899D-02
89  8.8000000000000D-01  1.1174506155866D+00 -1.1582607871688D-02
90  8.9000000000000D-01  1.1031215432198D+00  9.5802572846236D-03
91  9.0000000000000D-01  1.0880276432210D+00  3.2094188087143D-02
92  9.1000000000000D-01  1.0721862451565D+00  5.5946104183754D-02
93  9.2000000000000D-01  1.0556160902250D+00  8.1117246221959D-02
94  9.3000000000000D-01  1.0383372478412D+00  1.0758303914294D-01
95  9.4000000000000D-01  1.0203710239249D+00  1.3531295813732D-01
96  9.5000000000000D-01  1.0017398617082D+00  1.6427039479822D-01
97  9.6000000000000D-01  9.8246723598125D-01  1.9441252075114D-01
98  9.7000000000000D-01  9.6257754180660D-01  2.2569014579359D-01
99  9.8000000000000D-01  9.4209597867577D-01  2.5804756688191D-01
100  9.9000000000000D-01  9.2104843103003D-01  2.9142240322051D-01
101  1.0000000000000D+00  8.9946136070225D-01  3.2574545800655D-01
102  1.0100000000000D+00  8.7736162938363D-01  3.6094035392929D-01
103  1.0200000000000D+00  8.5477673581808D-01  3.9692435376079D-01
104  1.0300000000000D+00  8.3173536635809D-01  4.3361026232837D-01
105  1.0400000000000D+00  8.0826773718936D-01  4.7090799689924D-01
106  1.0500000000000D+00  7.8440542975178D-01  5.0872479989525D-01
107  1.0600000000000D+00  7.6018128890343D-01  5.4696563275762D-01
108  1.0700000000000D+00  7.3562930132874D-01  5.8553352810831D-01
109  1.0800000000000D+00  7.1078447566810D-01  6.2432995479331D-01
110  1.0900000000000D+00  6.8568272004115D-01  6.6325518196995D-01
111  1.1000000000000D+00  6.6036071858565D-01  7.0220864439319D-01
112  1.1100000000000D+00  6.3485580721677D-01  7.4108930717935D-01
113  1.1200000000000D+00  6.0920584899393D-01  7.7979602882643D-01
114  1.1300000000000D+00  5.8344910948207D-01  8.1822792127792D-01
115  1.1400000000000D+00  5.5762413249142D-01  8.5628470583281D-01
116  1.1500000000000D+00  5.3176961657852D-01  8.9386706371537D-01
117  1.1600000000000D+00  5.0592429268533D-01  9.3087698014619D-01
118  1.1700000000000D+00  4.8012680328881D-01  9.6721808077758D-01
119  1.1800000000000D+00  4.5441558342500D-01  1.0027959593907D+00
120  1.1900000000000D+00  4.2882874394712D-01  1.0375184957730D+00
121  1.2000000000000D+00  4.0340395736419D-01  1.0712961627463D+00
122  1.2100000000000D+00  3.7817834659694D-01  1.1040423213550D+00
123  1.2200000000000D+00  3.5318837697982D-01  1.1356735032540D+00
124  1.2300000000000D+00  3.2846975182216D-01  1.1661096793991D+00
125  1.2400000000000D+00  3.0405731182673D-01  1.1952745141941D+00
126  1.2500000000000D+00  2.7998493865232D-01  1.2230956042982D+00
127  1.2600000000000D+00  2.5628546289358D-01  1.2495047013406D+00
128  1.2700000000000D+00  2.3299057672589D-01  1.2744379178891D+00
129  1.2800000000000D+00  2.1013075145288D-01  1.2978359160501D+00
130  1.2900000000000D+00  1.8773516018097D-01  1.3196440781296D+00
131  1.3000000000000D+00  1.6583160580962D-01  1.3398126589112D+00
132  1.3100000000000D+00  1.4444645452138D-01  1.3582969191216D+00
133  1.3200000000000D+00  1.2360457493776D-01  1.3750572397206D+00
134  1.3300000000000D+00  1.0332928306364D-01  1.3900592168023D+00
135  1.3400000000000D+00  8.3642293150948D-02  1.4032737368643D+00
136  1.3500000000000D+00  6.4563674577015D-02  1.4146770323294D+00
137  1.3600000000000D+00  4.6111814792151D-02  1.4242507173356D+00
138  1.3700000000000D+00  2.8303388417712D-02  1.4319818037257D+00
139  1.3800000000000D+00  1.1153332499561D-02  1.4378626974228D+00
140  1.3900000000000D+00 -5.3251720761421D-03  1.4418911753673D+00
141  1.4000000000000D+00 -2.1120712995756D-02  1.4440703431902D+00
142  1.4100000000000D+00 -3.6223652839178D-02  1.4444085740800D+00
143  1.4200000000000D+00 -5.0626129331489D-02  1.4429194291206D+00
144  1.4300000000000D+00 -6.4322049627994D-02  1.4396215596318D+00
145  1.4400000000000D+00 -7.7307078746908D-02  1.4345385920774D+00
146  1.4500000000000D+00 -8.9578622236606D-02  1.4276989960262D+00
147  1.4600000000000D+00 -1.0113580328080D-01  1.4191359360027D+00
148  1.4700000000000D+00 -1.1197943434871D-01  1.4088871077727D+00
149  1.4800000000000D+00 -1.2211198362075D-01  1.3969945599831D+00
150  1.4900000000000D+00 -1.3153753637316D-01  1.3835045019222D+00
151  1.5000000000000D+00 -1.4026175153357D-01  1.3684670982668D+00
152  1.5100000000000D+00 -1.4829181368105D-01  1.3519362518324D+00
153  1.5200000000000D+00 -1.5563638068606D-01  1.3339693751501D+00
154  1.5300000000000D+00 -1.6230552732414D-01  1.3146271520395D+00
155  1.5400000000000D+00 -1.6831068507662D-01  1.2939732900524D+00
156  1.5500000000000D+00 -1.7366457846481D-01  1.2720742649796D+00
157  1.5600000000000D+00 -1.7838115817770D-01  1.2489990584069D+00
158  1.5700000000000D+00 -1.8247553132849D-01  1.2248188894837D+00
159  1.5800000000000D+00 -1.8596388914287D-01  1.1996069419724D+00
160  1.5900000000000D+00 -1.8886343240730D-01  1.1734380877326D+00
161  1.6000000000000D+00 -1.9119229500177D-01  1.1463886077167D+00
162  1.6100000000000D+00 -1.9296946584953D-01  1.1185359116593D+00
163  1.6200000000000D+00 -1.9421470960603D-01  1.0899582574729D+00
164  1.6300000000000D+00 -1.9494848643531D-01  1.0607344715900D+00
165  1.6400000000000D+00 -1.9519187117130D-01  1.0309436711370D+00
166  1.6500000000000D+00 -1.9496647223783D-01  1.0006649892636D+00
167  1.6600000000000D+00 -1.9429435057981D-01  9.6997730432703D-01
168  1.6700000000000D+00 -1.9319793901182D-01  9.3895897435741D-01
169  1.6800000000000D+00 -1.9169996217734D-01  9.0768757728118D-01
170  1.6900000000000D+00 -1.8982335755710D-01  8.7623965842065D-01
171  1.7000000000000D+00 -1.8759119765350D-01  8.4469048551577D-01
172  1.7100000000000D+00 -1.8502661381926D-01  8.1311381286412D-01
173  1.7200000000000D+00 -1.8215272178269D-01  7.8158165457309D-01
174  1.7300000000000D+00 -1.7899254936771D-01  7.5016406859666D-01
175  1.7400000000000D+00 -1.7556896638344D-01  7.1892895129454D-01
176  1.7500000000000D+00 -1.7190461719838D-01  6.8794184422204D-01
177  1.7600000000000D+00 -1.6802185591163D-01  6.5726575268614D-01
178  1.7700000000000D+00 -1.6394268462602D-01  6.2696097771491D-01
179  1.7800000000000D+00 -1.5968869469908D-01  5.9708496086672D-01
180  1.7900000000000D+00 -1.5528101143232D-01  5.6769214335645D-01
181  1.8000000000000D+00 -1.5074024207352D-01  5.3883383893051D-01
182  1.8100000000000D+00 -1.4608642750378D-01  5.1055812165032D-01
183  1.8200000000000D+00 -1.4133899752970D-01  4.8290972818074D-01
184  1.8300000000000D+00 -1.3651673001000D-01  4.5592997524627D-01
185  1.8400000000000D+00 -1.3163771383836D-01  4.2965669220351D-01
186  1.8500000000000D+00 -1.2671931581071D-01  4.0412416869903D-01
187  1.8600000000000D+00 -1.2177815155770D-01  3.7936311790800D-01
188  1.8700000000000D+00 -1.1683006031619D-01  3.5540065444814D-01
189  1.8800000000000D+00 -1.1189008392217D-01  3.3226028815737D-01
190  1.8900000000000D+00 -1.0697244953049D-01  3.0996193190688D-01
191  1.9000000000000D+00 -1.0209055659288D-01  2.8852192515024D-01
192  1.9100000000000D+00 -9.7256967506908D-02  2.6795307106228D-01
193  1.9200000000000D+00 -9.2483402327380D-02  2.4826468848571D-01
194  1.9300000000000D+00 -8.7780737167256D-02  2.2946267727786D-01
195  1.9400000000000D+00 -8.3159006323899D-02  2.1154959705230D-01
196  1.9500000000000D+00 -7.8627408089068D-02  1.9452475904549D-01
197  1.9600000000000D+00 -7.4194313878765D-02  1.7838432973303D-01
198  1.9700000000000D+00 -6.9867280950474D-02  1.6312144698214D-01
199  1.9800000000000D+00 -6.5653068084515D-02  1.4872634648244D-01
200  1.9900000000000D+00 -6.1557654536661D-02  1.3518649936935D-01
201  2.0000000000000D+00 -5.7586261744305D-02  1.2248675915042D-01
202  2.0100000000000D+00 -5.3743377779441D-02  1.1060951777538D-01
203  2.0200000000000D+00 -5.0032784389147D-02  9.9534870175559D-02
204  2.0300000000000D+00 -4.6457586223879D-02  8.9240785796317D-02
205  2.0400000000000D+00 -4.3020242361460D-02  7.9703287326810D-02
206  2.0500000000000D+00 -3.9722599596147D-02  7.0896634738677D-02
207  2.0600000000000D+00 -3.6565927507755D-02  6.2793514507855D-02
208  2.0700000000000D+00 -3.3550954986151D-02  5.5365232818289D-02
209  2.0800000000000D+00 -3.0677907969625D-02  4.8581911807040D-02
210  2.0900000000000D+00 -2.7946548246143D-02  4.2412688155352D-02
211  2.1000000000000D+00 -2.5356213011723D-02  3.6825912965660D-02
212  2.1100000000000D+00 -2.2905854977386D-02  3.1789351974045D-02
213  2.1200000000000D+00 -2.0594082807593D-02  2.7270385332047D-02
214  2.1300000000000D+00 -1.8419201657838D-02  2.3236206041126D-02
215  2.1400000000000D+00 -1.6379253498140D-02  1.9654015768660D-02
216  2.1500000000000D+00 -1.4472057192912D-02  1.6491218012960D-02
217  2.1600000000000D+00 -1.2695247849582D-02  1.3715606650997D-02
218  2.1700000000000D+00 -1.1046315406967D-02  1.1295549797634D-02
219  2.1800000000000D+00 -9.5226423003539D-03  9.2001683470597D-03
220  2.1900000000000D+00 -8.1215396443460D-03  7.3995070047034D-03
221  2.2000000000000D+00 -6.8402822803503D-03  5.8646991856708D-03
222  2.2100000000000D+00 -5.6761420126566D-03  4.5681231484616D-03
223  2.2200000000000D+00 -4.6264189668321D-03  3.4835491146749D-03
224  2.2300000000000D+00 -3.6884713811772D-03  2.5862785697432D-03
225  2.2400000000000D+00 -2.8599349365251D-03  1.8532284769003D-03
226  2.2500000000000D+00 -2.1383290655751D-03  1.2631428195464D-03
227  2.2600000000000D+00 -1.5205421871411D-03  7.9681948264656D-04
228  2.2700000000000D+00 -1.0034456213452D-03  4.3815480434148D-04
229  2.2800000000000D+00 -5.8748295023643D-04  1.6966378366854D-04
230  2.2900000000000D+00 -2.7354532201186D-04 -2.4004971124183D-05
231  2.3000000000000D+00 -5.9043460973695D-05 -1.6041126527252D-04
232  2.3100000000000D+00  6.2230943651699D-05 -2.2907501740965D-04
233  2.3200000000000D+00  1.0171224720168D-04 -2.2368746886938D-04
234  2.3300000000000D+00  7.6830213304675D-05 -1.4544507991209D-04
235  2.3400000000000D+00  2.7592610030731D-05 -4.8937324966484D-05
236  2.3500000000000D+00 -9.1920321379712D-06  1.5941217282036D-05
237  2.3600000000000D+00 -1.5902124828558D-05  2.6871106740858D-05
238  2.3700000000000D+00 -5.9633667930693D-06  9.8982541187966D-06
239  2.3800000000000D+00  2.3455003307075D-06 -4.2299346145501D-06
240  2.3900000000000D+00  3.2814138126481D-06 -5.8595225351832D-06
241  2.4000000000000D+00  8.7704816872489D-07 -1.5536049344714D-06
242  2.4100000000000D+00 -2.2278841182985D-07  5.1435183390549D-07
243  2.4200000000000D+00 -2.6337742460982D-07  6.0805972916056D-07
244  2.4300000000000D+00 -4.1491945532208D-08  9.5792497022230D-08
245  2.4400000000000D+00  0.0000000000000D+00  0.0000000000000D+00
246  2.4500000000000D+00  0.0000000000000D+00  0.0000000000000D+00
247  2.4600000000000D+00  0.0000000000000D+00  0.0000000000000D+00
248  2.4700000000000D+00  0.0000000000000D+00  0.0000000000000D+00
249  2.4800000000000D+00  0.0000000000000D+00  0.0000000000000D+00
250  2.4900000000000D+00  0.0000000000000D+00  0.0000000000000D+00
251  2.5000000000000D+00  0.0000000000000D+00  0.0000000000000D+00
252  2.5100000000000D+00  0.0000000000000D+00  0.0000000000000D+00
253  2.5200000000000D+00  0.0000000000000D+00  0.0000000000000D+00
254  2.5300000000000D+00  0.0000000000000D+00  0.0000000000000D+00
255  2.5400000000000D+00  0.0000000000000D+00  0.0000000000000D+00
256  2.5500000000000D+00  0.0000000000000D+00  0.0000000000000D+00
257  2.5600000000000D+00  0.0000000000000D+00  0.0000000000000D+00
258  2.5700000000000D+00  0.0000000000000D+00  0.0000000000000D+00
259  2.5800000000000D+00  0.0000000000000D+00  0.0000000000000D+00
260  2.5900000000000D+00  0.0000000000000D+00  0.0000000000000D+00
261  2.6000000000000D+00  0.0000000000000D+00  0.0000000000000D+00
262  2.6100000000000D+00  0.0000000000000D+00  0.0000000000000D+00
263  2.6200000000000D+00  0.0000000000000D+00  0.0000000000000D+00
264  2.6300000000000D+00  0.0000000000000D+00  0.0000000000000D+00
265  2.6400000000000D+00  0.0000000000000D+00  0.0000000000000D+00
266  2.6500000000000D+00  0.0000000000000D+00  0.0000000000000D+00
267  2.6600000000000D+00  0.0000000000000D+00  0.0000000000000D+00
268  2.6700000000000D+00  0.0000000000000D+00  0.0000000000000D+00
269  2.6800000000000D+00  0.0000000000000D+00  0.0000000000000D+00
270  2.6900000000000D+00  0.0000000000000D+00  0.0000000000000D+00
271  2.7000000000000D+00  0.0000000000000D+00  0.0000000000000D+00
272  2.7100000000000D+00  0.0000000000000D+00  0.0000000000000D+00
273  2.7200000000000D+00  0.0000000000000D+00  0.0000000000000D+00
274  2.7300000000000D+00  0.0000000000000D+00  0.0000000000000D+00
275  2.7400000000000D+00  0.0000000000000D+00  0.0000000000000D+00
276  2.7500000000000D+00  0.0000000000000D+00  0.0000000000000D+00
277  2.7600000000000D+00  0.0000000000000D+00  0.0000000000000D+00
278  2.7700000000000D+00  0.0000000000000D+00  0.0000000000000D+00
279  2.7800000000000D+00  0.0000000000000D+00  0.0000000000000D+00
280  2.7900000000000D+00  0.0000000000000D+00  0.0000000000000D+00
281  2.8000000000000D+00  0.0000000000000D+00  0.0000000000000D+00
282  2.8100000000000D+00  0.0000000000000D+00  0.0000000000000D+00
283  2.8200000000000D+00  0.0000000000000D+00  0.0000000000000D+00
284  2.8300000000000D+00  0.0000000000000D+00  0.0000000000000D+00
285  2.8400000000000D+00  0.0000000000000D+00  0.0000000000000D+00
286  2.8500000000000D+00  0.0000000000000D+00  0.0000000000000D+00
287  2.8600000000000D+00  0.0000000000000D+00  0.0000000000000D+00
288  2.8700000000000D+00  0.0000000000000D+00  0.0000000000000D+00
289  2.8800000000000D+00  0.0000000000000D+00  0.0000000000000D+00
290  2.8900000000000D+00  0.0000000000000D+00  0.0000000000000D+00
291  2.9000000000000D+00  0.0000000000000D+00  0.0000000000000D+00
292  2.9100000000000D+00  0.0000000000000D+00  0.0000000000000D+00
293  2.9200000000000D+00  0.0000000000000D+00  0.0000000000000D+00
294  2.9300000000000D+00  0.0000000000000D+00  0.0000000000000D+00
295  2.9400000000000D+00  0.0000000000000D+00  0.0000000000000D+00
296  2.9500000000000D+00  0.0000000000000D+00  0.0000000000000D+00
297  2.9600000000000D+00  0.0000000000000D+00  0.0000000000000D+00
298  2.9700000000000D+00  0.0000000000000D+00  0.0000000000000D+00
299  2.9800000000000D+00  0.0000000000000D+00  0.0000000000000D+00
300  2.9900000000000D+00  0.0000000000000D+00  0.0000000000000D+00
301  3.0000000000000D+00  0.0000000000000D+00  0.0000000000000D+00
302  3.0100000000000D+00  0.0000000000000D+00  0.0000000000000D+00
303  3.0200000000000D+00  0.0000000000000D+00  0.0000000000000D+00
304  3.0300000000000D+00  0.0000000000000D+00  0.0000000000000D+00
305  3.0400000000000D+00  0.0000000000000D+00  0.0000000000000D+00
306  3.0500000000000D+00  0.0000000000000D+00  0.0000000000000D+00
307  3.0600000000000D+00  0.0000000000000D+00  0.0000000000000D+00
308  3.0700000000000D+00  0.0000000000000D+00  0.0000000000000D+00
309  3.0800000000000D+00  0.0000000000000D+00  0.0000000000000D+00
310  3.0900000000000D+00  0.0000000000000D+00  0.0000000000000D+00
311  3.1000000000000D+00  0.0000000000000D+00  0.0000000000000D+00
312  3.1100000000000D+00  0.0000000000000D+00  0.0000000000000D+00
313  3.1200000000000D+00  0.0000000000000D+00  0.0000000000000D+00
314  3.1300000000000D+00  0.0000000000000D+00  0.0000000000000D+00
315  3.1400000000000D+00  0.0000000000000D+00  0.0000000000000D+00
316  3.1500000000000D+00  0.0000000000000D+00  0.0000000000000D+00
317  3.1600000000000D+00  0.0000000000000D+00  0.0000000000000D+00
318  3.1700000000000D+00  0.0000000000000D+00  0.0000000000000D+00
319  3.1800000000000D+00  0.0000000000000D+00  0.0000000000000D+00
320  3.1900000000000D+00  0.0000000000000D+00  0.0000000000000D+00
321  3.2000000000000D+00  0.0000000000000D+00  0.0000000000000D+00
322  3.2100000000000D+00  0.0000000000000D+00  0.0000000000000D+00
323  3.2200000000000D+00  0.0000000000000D+00  0.0000000000000D+00
324  3.2300000000000D+00  0.0000000000000D+00  0.0000000000000D+00
325  3.2400000000000D+00  0.0000000000000D+00  0.0000000000000D+00
326  3.2500000000000D+00  0.0000000000000D+00  0.0000000000000D+00
327  3.2600000000000D+00  0.0000000000000D+00  0.0000000000000D+00
328  3.2700000000000D+00  0.0000000000000D+00  0.0000000000000D+00
329  3.2800000000000D+00  0.0000000000000D+00  0.0000000000000D+00
330  3.2900000000000D+00  0.0000000000000D+00  0.0000000000000D+00
331  3.3000000000000D+00  0.0000000000000D+00  0.0000000000000D+00
332  3.3100000000000D+00  0.0000000000000D+00  0.0000000000000D+00
333  3.3200000000000D+00  0.0000000000000D+00  0.0000000000000D+00
334  3.3300000000000D+00  0.0000000000000D+00  0.0000000000000D+00
335  3.3400000000000D+00  0.0000000000000D+00  0.0000000000000D+00
336  3.3500000000000D+00  0.0000000000000D+00  0.0000000000000D+00
337  3.3600000000000D+00  0.0000000000000D+00  0.0000000000000D+00
338  3.3700000000000D+00  0.0000000000000D+00  0.0000000000000D+00
339  3.3800000000000D+00  0.0000000000000D+00  0.0000000000000D+00
340  3.3900000000000D+00  0.0000000000000D+00  0.0000000000000D+00
341  3.4000000000000D+00  0.0000000000000D+00  0.0000000000000D+00
342  3.4100000000000D+00  0.0000000000000D+00  0.0000000000000D+00
343  3.4200000000000D+00  0.0000000000000D+00  0.0000000000000D+00
344  3.4300000000000D+00  0.0000000000000D+00  0.0000000000000D+00
345  3.4400000000000D+00  0.0000000000000D+00  0.0000000000000D+00
346  3.4500000000000D+00  0.0000000000000D+00  0.0000000000000D+00
347  3.4600000000000D+00  0.0000000000000D+00  0.0000000000000D+00
348  3.4700000000000D+00  0.0000000000000D+00  0.0000000000000D+00
349  3.4800000000000D+00  0.0000000000000D+00  0.0000000000000D+00
350  3.4900000000000D+00  0.0000000000000D+00  0.0000000000000D+00
351  3.5000000000000D+00  0.0000000000000D+00  0.0000000000000D+00
352  3.5100000000000D+00  0.0000000000000D+00  0.0000000000000D+00
353  3.5200000000000D+00  0.0000000000000D+00  0.0000000000000D+00
354  3.5300000000000D+00  0.0000000000000D+00  0.0000000000000D+00
355  3.5400000000000D+00  0.0000000000000D+00  0.0000000000000D+00
356  3.5500000000000D+00  0.0000000000000D+00  0.0000000000000D+00
357  3.5600000000000D+00  0.0000000000000D+00  0.0000000000000D+00
358  3.5700000000000D+00  0.0000000000000D+00  0.0000000000000D+00
359  3.5800000000000D+00  0.0000000000000D+00  0.0000000000000D+00
360  3.5900000000000D+00  0.0000000000000D+00  0.0000000000000D+00
361  3.6000000000000D+00  0.0000000000000D+00  0.0000000000000D+00
362  3.6100000000000D+00  0.0000000000000D+00  0.0000000000000D+00
363  3.6200000000000D+00  0.0000000000000D+00  0.0000000000000D+00
364  3.6300000000000D+00  0.0000000000000D+00  0.0000000000000D+00
365  3.6400000000000D+00  0.0000000000000D+00  0.0000000000000D+00
366  3.6500000000000D+00  0.0000000000000D+00  0.0000000000000D+00
367  3.6600000000000D+00  0.0000000000000D+00  0.0000000000000D+00
368  3.6700000000000D+00  0.0000000000000D+00  0.0000000000000D+00
369  3.6800000000000D+00  0.0000000000000D+00  0.0000000000000D+00
370  3.6900000000000D+00  0.0000000000000D+00  0.0000000000000D+00
371  3.7000000000000D+00  0.0000000000000D+00  0.0000000000000D+00
372  3.7100000000000D+00  0.0000000000000D+00  0.0000000000000D+00
373  3.7200000000000D+00  0.0000000000000D+00  0.0000000000000D+00
374  3.7300000000000D+00  0.0000000000000D+00  0.0000000000000D+00
375  3.7400000000000D+00  0.0000000000000D+00  0.0000000000000D+00
376  3.7500000000000D+00  0.0000000000000D+00  0.0000000000000D+00
377  3.7600000000000D+00  0.0000000000000D+00  0.0000000000000D+00
378  3.7700000000000D+00  0.0000000000000D+00  0.0000000000000D+00
379  3.7800000000000D+00  0.0000000000000D+00  0.0000000000000D+00
380  3.7900000000000D+00  0.0000000000000D+00  0.0000000000000D+00
381  3.8000000000000D+00  0.0000000000000D+00  0.0000000000000D+00
382  3.8100000000000D+00  0.0000000000000D+00  0.0000000000000D+00
383  3.8200000000000D+00  0.0000000000000D+00  0.0000000000000D+00
384  3.8300000000000D+00  0.0000000000000D+00  0.0000000000000D+00
385  3.8400000000000D+00  0.0000000000000D+00  0.0000000000000D+00
386  3.8500000000000D+00  0.0000000000000D+00  0.0000000000000D+00
387  3.8600000000000D+00  0.0000000000000D+00  0.0000000000000D+00
388  3.8700000000000D+00  0.0000000000000D+00  0.0000000000000D+00
389  3.8800000000000D+00  0.0000000000000D+00  0.0000000000000D+00
390  3.8900000000000D+00  0.0000000000000D+00  0.0000000000000D+00
391  3.9000000000000D+00  0.0000000000000D+00  0.0000000000000D+00
392  3.9100000000000D+00  0.0000000000000D+00  0.0000000000000D+00
393  3.9200000000000D+00  0.0000000000000D+00  0.0000000000000D+00
394  3.9300000000000D+00  0.0000000000000D+00  0.0000000000000D+00
395  3.9400000000000D+00  0.0000000000000D+00  0.0000000000000D+00
396  3.9500000000000D+00  0.0000000000000D+00  0.0000000000000D+00
397  3.9600000000000D+00  0.0000000000000D+00  0.0000000000000D+00
398  3.9700000000000D+00  0.0000000000000D+00  0.0000000000000D+00
399  3.9800000000000D+00  0.0000000000000D+00  0.0000000000000D+00
400  3.9900000000000D+00  0.0000000000000D+00  0.0000000000000D+00
1                         4.1979934878402D+00  7.5715455944147D-01
1  0.0000000000000D+00  1.0092784941129D-10 -5.3690506901516D-11
2  1.0000000000000D-02  1.1944449065416D-03 -3.9659748285541D-04
3  2.0000000000000D-02  4.7722620458492D-03 -1.5830244128427D-03
4  3.0000000000000D-02  1.0716921564575D-02 -3.5492000386999D-03
5  4.0000000000000D-02  1.9000949953480D-02 -6.2783757685154D-03
6  5.0000000000000D-02  2.9586044256608D-02 -9.7472140844857D-03
7  6.0000000000000D-02  4.2423231641213D-02 -1.3925898870019D-02
8  7.0000000000000D-02  5.7453074000419D-02 -1.8778276989823D-02
9  8.0000000000000D-02  7.4605917159683D-02 -2.4262030909926D-02
10  9.0000000000000D-02  9.3802184152050D-02 -3.0328882085036D-02
11  1.0000000000000D-01  1.1495271191495D-01 -3.6924824773971D-02
12  1.1000000000000D-01  1.3795913064222D-01 -4.3990389869429D-02
13  1.2000000000000D-01  1.6271428489822D-01 -5.1460938245037D-02
14  1.3000000000000D-01  1.8910269546637D-01 -5.9266983029932D-02
15  1.4000000000000D-01  2.1700106076111D-01 -6.7334540118645D-02
16  1.5000000000000D-01  2.4627879648073D-01 -7.5585506111409D-02
17  1.6000000000000D-01  2.7679861201879D-01 -8.3938062757296D-02
18  1.7000000000000D-01  3.0841712198343D-01 -9.2307106839920D-02
19  1.8000000000000D-01  3.4098549099866D-01 -1.0060470430315D-01
20  1.9000000000000D-01  3.7435010977892D-01 -1.0874056726316D-01
21  2.0000000000000D-01  4.0835330028036D-01 -1.1662255239376D-01
22  2.1000000000000D-01  4.4283404753892D-01 -1.2415717900586D-01
23  2.2000000000000D-01  4.7762875560935D-01 -1.3125016496961D-01
24  2.3000000000000D-01  5.1257202482108D-01 -1.3780697845177D-01
25  2.4000000000000D-01  5.4749744736898D-01 -1.4373340326168D-01
26  2.5000000000000D-01  5.8223841806085D-01 -1.4893611541970D-01
27  2.6000000000000D-01  6.1662895685145D-01 -1.5332326838371D-01
28  2.7000000000000D-01  6.5050453960697D-01 -1.5680508419390D-01
29  2.8000000000000D-01  6.8370293336626D-01 -1.5929444762726D-01
30  2.9000000000000D-01  7.1606503219866D-01 -1.6070750029112D-01
31  3.0000000000000D-01  7.4743568960483D-01 -1.6096423143466D-01
32  3.1000000000000D-01  7.7766454326906D-01 -1.5998906211872D-01
33  3.2000000000000D-01  8.0660682785245D-01 -1.5771141926120D-01
34  3.3000000000000D-01  8.3412417141667D-01 -1.5406629597019D-01
35  3.4000000000000D-01  8.6008537099211D-01 -1.4899479449105D-01
36  3.5000000000000D-01  8.8436714275294D-01 -1.4244464803095D-01
37  3.6000000000000D-01  9.0685484223724D-01 -1.3437071768475D-01
38  3.7000000000000D-01  9.2744315005543D-01 -1.2473546067411D-01
39  3.8000000000000D-01  9.4603671856591D-01 -1.1350936612667D-01
40  3.9000000000000D-01  9.6255077506432D-01 -1.0067135466724D-01
41  4.0000000000000D-01  9.7691167713475D-01 -8.6209138169459D-02
42  4.1000000000000D-01  9.8905741594649D-01 -7.0119536123925D-02
43  4.2000000000000D-01  9.9893806345140D-01 -5.2408745220384D-02