O     ONCVPSP-3.3.0  r_core=   1.35509   1.45563   1.35509
8.0000      6.0000      171101    zatom,zion,pspd
8   -1012   2     4   600     0    pspcod,pspxc,lmax,lloc,mmax,r2well
5.99000000  4.00000000  0.00000000    rchrg fchrg qchrg
2     2     1     0     0    nproj
1     1           extension_switch
0                         6.0260281166406D+00  8.1616704464047D-01
1  0.0000000000000D+00 -2.2646937658521D-09  5.7020430044297D-09
2  1.0000000000000D-02  9.6782840459094D-02 -3.8195144181228D-02
3  2.0000000000000D-02  1.9319257832267D-01 -7.5914028423273D-02
4  3.0000000000000D-02  2.8885897892991D-01 -1.1268630211168D-01
5  4.0000000000000D-02  3.8341750612449D-01 -1.4805334270509D-01
6  5.0000000000000D-02  4.7651207868455D-01 -1.8157389481691D-01
7  6.0000000000000D-02  5.6779771700847D-01 -2.1282944348767D-01
8  7.0000000000000D-02  6.5694304618355D-01 -2.4142923986605D-01
9  8.0000000000000D-02  7.4363262382967D-01 -2.6701490321858D-01
10  9.0000000000000D-02  8.2756906387032D-01 -2.8926453013749D-01
11  1.0000000000000D-01  9.0847493059487D-01 -3.0789624989809D-01
12  1.1000000000000D-01  9.8609438098557D-01 -3.2267117399913D-01
13  1.2000000000000D-01  1.0601945372317D+00 -3.3339569785101D-01
14  1.3000000000000D-01  1.1305665755763D+00 -3.3992312319433D-01
15  1.4000000000000D-01  1.1970265220705D+00 -3.4215458095877D-01
16  1.5000000000000D-01  1.2594157503706D+00 -3.4003924572719D-01
17  1.6000000000000D-01  1.3176011813345D+00 -3.3357384456013D-01
18  1.7000000000000D-01  1.3714751887740D+00 -3.2280147447200D-01
19  1.8000000000000D-01  1.4209552202305D+00 -3.0780975413870D-01
20  1.9000000000000D-01  1.4659831459793D+00 -2.8872834627025D-01
21  2.0000000000000D-01  1.5065243535748D+00 -2.6572589732035D-01
22  2.1000000000000D-01  1.5425666090407D+00 -2.3900645065645D-01
23  2.2000000000000D-01  1.5741187092408D+00 -2.0880539782030D-01
24  2.3000000000000D-01  1.6012089529653D+00 -1.7538503992733D-01
25  2.4000000000000D-01  1.6238834607982D+00 -1.3902983745812D-01
26  2.5000000000000D-01  1.6422043758405D+00 -1.0004143158105D-01
27  2.6000000000000D-01  1.6562479788266D+00 -5.8733523627845D-02
28  2.7000000000000D-01  1.6661027520605D+00 -1.5426701362866D-02
29  2.8000000000000D-01  1.6718674268956D+00  2.9556698794535D-02
30  2.9000000000000D-01  1.6736490491915D+00  7.5897605429511D-02
31  3.0000000000000D-01  1.6715610962968D+00  1.2328501600094D-01
32  3.1000000000000D-01  1.6657216776541D+00  1.7142050920203D-01
33  3.2000000000000D-01  1.6562518491182D+00  2.2002238944648D-01
34  3.3000000000000D-01  1.6432740685608D+00  2.6882939377792D-01
35  3.4000000000000D-01  1.6269108173434D+00  3.1760389936678D-01
36  3.5000000000000D-01  1.6072834088252D+00  3.6613457870127D-01
37  3.6000000000000D-01  1.5845110012985D+00  4.1423845944510D-01
38  3.7000000000000D-01  1.5587098286641D+00  4.6176235656606D-01
39  3.8000000000000D-01  1.5299926578511D+00  5.0858365555485D-01
40  3.9000000000000D-01  1.4984684775223D+00  5.5461043716719D-01
41  4.0000000000000D-01  1.4642424180594D+00  5.9978094593704D-01
42  4.1000000000000D-01  1.4274158982769D+00  6.4406241652703D-01
43  4.2000000000000D-01  1.3880869898402D+00  6.8744928359924D-01
44  4.3000000000000D-01  1.3463509860508D+00  7.2996081211149D-01
45  4.4000000000000D-01  1.3023011575749D+00  7.7163819557139D-01
46  4.5000000000000D-01  1.2560296739060D+00  8.1254117963638D-01
47  4.6000000000000D-01  1.2076286659436D+00  8.5274427734983D-01
48  4.7000000000000D-01  1.1571914020841D+00  8.9233265010498D-01
49  4.8000000000000D-01  1.1048135477266D+00  9.3139773497743D-01
50  4.9000000000000D-01  1.0505944761332D+00  9.7003270425434D-01
51  5.0000000000000D-01  9.9463859719140D-01  1.0083278467063D+00
52  5.1000000000000D-01  9.3705666983618D-01  1.0463659623298D+00
53  5.2000000000000D-01  8.7796706371202D-01  1.0842178628800D+00
54  5.3000000000000D-01  8.1749693611372D-01  1.1219380694946D+00
55  5.4000000000000D-01  7.5578329131736D-01  1.1595607960848D+00
56  5.5000000000000D-01  6.9297389110545D-01  1.1970963029721D+00
57  5.6000000000000D-01  6.2922798756703D-01  1.2345276995239D+00
58  5.7000000000000D-01  5.6471685208280D-01  1.2718082674071D+00
59  5.8000000000000D-01  4.9962407775525D-01  1.3088593675809D+00
60  5.9000000000000D-01  4.3414563633598D-01  1.3455689845159D+00
61  6.0000000000000D-01  3.6848967491629D-01  1.3817909503807D+00
62  6.1000000000000D-01  3.0287604216489D-01  1.4173448804077D+00
63  6.2000000000000D-01  2.3753553869384D-01  1.4520168383651D+00
64  6.3000000000000D-01  1.7270889109863D-01  1.4855607383375D+00
65  6.4000000000000D-01  1.0864545426438D-01  1.5177004760486D+00
66  6.5000000000000D-01  4.5601651618259D-02  1.5481327698596D+00
67  6.6000000000000D-01 -1.6160832018996D-02  1.5765306787401D+00
68  6.7000000000000D-01 -7.6377085501619D-02  1.6025477520132D+00
69  6.8000000000000D-01 -1.3478121028025D-01  1.6258227537650D+00
70  6.9000000000000D-01 -1.9110873486671D-01  1.6459848937502D+00
71  7.0000000000000D-01 -2.4509917269739D-01  1.6626594865712D+00
72  7.1000000000000D-01 -2.9649868786888D-01  1.6754739519885D+00
73  7.2000000000000D-01 -3.4506283040106D-01  1.6840640617054D+00
74  7.3000000000000D-01 -3.9055930044643D-01  1.6880803319167D+00
75  7.4000000000000D-01 -4.3277069926869D-01  1.6871944564698D+00
76  7.5000000000000D-01 -4.7149722389367D-01  1.6811056727461D+00
77  7.6000000000000D-01 -5.0655926211137D-01  1.6695469513839D+00
78  7.7000000000000D-01 -5.3779984500091D-01  1.6522909017946D+00
79  7.8000000000000D-01 -5.6508691535180D-01  1.6291552880473D+00
80  7.9000000000000D-01 -5.8831537226161D-01  1.6000080541076D+00
81  8.0000000000000D-01 -6.0740885477717D-01  1.5647717635566D+00
82  8.1000000000000D-01 -6.2232123068003D-01  1.5234273667062D+00
83  8.2000000000000D-01 -6.3303776035337D-01  1.4760172173498D+00
84  8.3000000000000D-01 -6.3957591004958D-01  1.4226472721126D+00
85  8.4000000000000D-01 -6.4198579374378D-01  1.3634884173333D+00
86  8.5000000000000D-01 -6.4035022803074D-01  1.2987768814222D+00
87  8.6000000000000D-01 -6.3478439012417D-01  1.2288137045190D+00
88  8.7000000000000D-01 -6.2543507485816D-01  1.1539632517747D+00
89  8.8000000000000D-01 -6.1247955257964D-01  1.0746507714937D+00
90  8.9000000000000D-01 -5.9612403586214D-01  9.9135901444159D-01
91  9.0000000000000D-01 -5.7660176896839D-01  9.0462394561773D-01
92  9.1000000000000D-01 -5.5417075984347D-01  8.1502959444887D-01
93  9.2000000000000D-01 -5.2911118003587D-01  7.2320210345640D-01
94  9.3000000000000D-01 -5.0172246322823D-01  6.2980304873321D-01
95  9.4000000000000D-01 -4.7232013792200D-01  5.3552211782278D-01
96  9.5000000000000D-01 -4.4123243418015D-01  4.4106924160888D-01
97  9.6000000000000D-01 -4.0879670811261D-01  3.4716628640927D-01
98  9.7000000000000D-01 -3.7535573092396D-01  2.5453842045111D-01
99  9.8000000000000D-01 -3.4125389177904D-01  1.6390527515527D-01
100  9.9000000000000D-01 -3.0683336541017D-01  7.5972025994127D-02
101  1.0000000000000D+00 -2.7243029631170D-01 -8.5794798390817D-03
102  1.0100000000000D+00 -2.3837105146072D-01 -8.9099421294646D-02
103  1.0200000000000D+00 -2.0496859277540D-01 -1.6497840085755D-01
104  1.0300000000000D+00 -1.7251901900477D-01 -2.3565541907257D-01
105  1.0400000000000D+00 -1.4129832446125D-01 -3.0062530934669D-01
106  1.0500000000000D+00 -1.1155941870565D-01 -3.5944552424939D-01
107  1.0600000000000D+00 -8.3529448006517D-02 -4.1174217260681D-01
108  1.0700000000000D+00 -5.7407454324140D-02 -4.5721521918786D-01
109  1.0800000000000D+00 -3.3362402905066D-02 -4.9564277031138D-01
110  1.0900000000000D+00 -1.1531603877153D-02 -5.2688438280113D-01
111  1.1000000000000D+00  7.9804531398664D-03 -5.5088334952324D-01
112  1.1100000000000D+00  2.5102837702625D-02 -5.6766792791267D-01
113  1.1200000000000D+00  3.9798484858438D-02 -5.7735149795009D-01
114  1.1300000000000D+00  5.2064069109628D-02 -5.8013165006521D-01
115  1.1400000000000D+00  6.1929453889357D-02 -5.7628822298852D-01
116  1.1500000000000D+00  6.9456729396155D-02 -5.6618032397965D-01
117  1.1600000000000D+00  7.4738860334932D-02 -5.5024238552347D-01
118  1.1700000000000D+00  7.7897972379280D-02 -5.2897933201245D-01
119  1.1800000000000D+00  7.9083310698700D-02 -5.0296093874401D-01
120  1.1900000000000D+00  7.8468818044694D-02 -4.7281521045975D-01
121  1.2000000000000D+00  7.6250756145655D-02 -4.3922202664713D-01
122  1.2100000000000D+00  7.2644763376049D-02 -4.0290521085374D-01
123  1.2200000000000D+00  6.7880192106171D-02 -3.6461635868929D-01
124  1.2300000000000D+00  6.2193955426650D-02 -3.2511763734466D-01
125  1.2400000000000D+00  5.5824873474977D-02 -2.8516640295598D-01
126  1.2500000000000D+00  4.9010246853230D-02 -2.4550678360550D-01
127  1.2600000000000D+00  4.1981901375015D-02 -2.0685959938662D-01
128  1.2700000000000D+00  3.4962442553045D-02 -1.6991288529362D-01
129  1.2800000000000D+00  2.8161655609278D-02 -1.3531278652737D-01
130  1.2900000000000D+00  2.1773133659012D-02 -1.0365504646816D-01
131  1.3000000000000D+00  1.5971167368259D-02 -7.5477161290680D-02
132  1.3100000000000D+00  1.0909353241763D-02 -5.1257866709210D-02
133  1.3200000000000D+00  6.7131743181763D-03 -3.1387873508224D-02
134  1.3300000000000D+00  3.4629232254466D-03 -1.6096777316333D-02
135  1.3400000000000D+00  1.3017947561117D-03 -5.9474348850924D-03
136  1.3500000000000D+00  2.5870908776890D-04 -1.0325054789798D-03
137  1.3600000000000D+00 -3.5173824837164D-05  2.8998580996749D-04
138  1.3700000000000D+00 -9.1883206117581D-06  5.5281493649413D-05
139  1.3800000000000D+00  1.6915982851115D-05 -9.6910584637671D-05
140  1.3900000000000D+00 -1.3076621716597D-06  8.1142358652697D-06
141  1.4000000000000D+00 -2.0956945843558D-06  1.2669593303532D-05
142  1.4100000000000D+00 -1.1657197339446D-07  1.1100932520255D-07
143  1.4200000000000D+00 -2.9585440898045D-08  2.8173665884496D-08
144  1.4300000000000D+00  0.0000000000000D+00  0.0000000000000D+00
145  1.4400000000000D+00  0.0000000000000D+00  0.0000000000000D+00
146  1.4500000000000D+00  0.0000000000000D+00  0.0000000000000D+00
147  1.4600000000000D+00  0.0000000000000D+00  0.0000000000000D+00
148  1.4700000000000D+00  0.0000000000000D+00  0.0000000000000D+00
149  1.4800000000000D+00  0.0000000000000D+00  0.0000000000000D+00
150  1.4900000000000D+00  0.0000000000000D+00  0.0000000000000D+00
151  1.5000000000000D+00  0.0000000000000D+00  0.0000000000000D+00
152  1.5100000000000D+00  0.0000000000000D+00  0.0000000000000D+00
153  1.5200000000000D+00  0.0000000000000D+00  0.0000000000000D+00
154  1.5300000000000D+00  0.0000000000000D+00  0.0000000000000D+00
155  1.5400000000000D+00  0.0000000000000D+00  0.0000000000000D+00
156  1.5500000000000D+00  0.0000000000000D+00  0.0000000000000D+00
157  1.5600000000000D+00  0.0000000000000D+00  0.0000000000000D+00
158  1.5700000000000D+00  0.0000000000000D+00  0.0000000000000D+00
159  1.5800000000000D+00  0.0000000000000D+00  0.0000000000000D+00
160  1.5900000000000D+00  0.0000000000000D+00  0.0000000000000D+00
161  1.6000000000000D+00  0.0000000000000D+00  0.0000000000000D+00
162  1.6100000000000D+00  0.0000000000000D+00  0.0000000000000D+00
163  1.6200000000000D+00  0.0000000000000D+00  0.0000000000000D+00
164  1.6300000000000D+00  0.0000000000000D+00  0.0000000000000D+00
165  1.6400000000000D+00  0.0000000000000D+00  0.0000000000000D+00
166  1.6500000000000D+00  0.0000000000000D+00  0.0000000000000D+00
167  1.6600000000000D+00  0.0000000000000D+00  0.0000000000000D+00
168  1.6700000000000D+00  0.0000000000000D+00  0.0000000000000D+00
169  1.6800000000000D+00  0.0000000000000D+00  0.0000000000000D+00
170  1.6900000000000D+00  0.0000000000000D+00  0.0000000000000D+00
171  1.7000000000000D+00  0.0000000000000D+00  0.0000000000000D+00
172  1.7100000000000D+00  0.0000000000000D+00  0.0000000000000D+00
173  1.7200000000000D+00  0.0000000000000D+00  0.0000000000000D+00
174  1.7300000000000D+00  0.0000000000000D+00  0.0000000000000D+00
175  1.7400000000000D+00  0.0000000000000D+00  0.0000000000000D+00
176  1.7500000000000D+00  0.0000000000000D+00  0.0000000000000D+00
177  1.7600000000000D+00  0.0000000000000D+00  0.0000000000000D+00
178  1.7700000000000D+00  0.0000000000000D+00  0.0000000000000D+00
179  1.7800000000000D+00  0.0000000000000D+00  0.0000000000000D+00
180  1.7900000000000D+00  0.0000000000000D+00  0.0000000000000D+00
181  1.8000000000000D+00  0.0000000000000D+00  0.0000000000000D+00
182  1.8100000000000D+00  0.0000000000000D+00  0.0000000000000D+00
183  1.8200000000000D+00  0.0000000000000D+00  0.0000000000000D+00
184  1.8300000000000D+00  0.0000000000000D+00  0.0000000000000D+00
185  1.8400000000000D+00  0.0000000000000D+00  0.0000000000000D+00
186  1.8500000000000D+00  0.0000000000000D+00  0.0000000000000D+00
187  1.8600000000000D+00  0.0000000000000D+00  0.0000000000000D+00
188  1.8700000000000D+00  0.0000000000000D+00  0.0000000000000D+00
189  1.8800000000000D+00  0.0000000000000D+00  0.0000000000000D+00
190  1.8900000000000D+00  0.0000000000000D+00  0.0000000000000D+00
191  1.9000000000000D+00  0.0000000000000D+00  0.0000000000000D+00
192  1.9100000000000D+00  0.0000000000000D+00  0.0000000000000D+00
193  1.9200000000000D+00  0.0000000000000D+00  0.0000000000000D+00
194  1.9300000000000D+00  0.0000000000000D+00  0.0000000000000D+00
195  1.9400000000000D+00  0.0000000000000D+00  0.0000000000000D+00
196  1.9500000000000D+00  0.0000000000000D+00  0.0000000000000D+00
197  1.9600000000000D+00  0.0000000000000D+00  0.0000000000000D+00
198  1.9700000000000D+00  0.0000000000000D+00  0.0000000000000D+00
199  1.9800000000000D+00  0.0000000000000D+00  0.0000000000000D+00
200  1.9900000000000D+00  0.0000000000000D+00  0.0000000000000D+00
201  2.0000000000000D+00  0.0000000000000D+00  0.0000000000000D+00
202  2.0100000000000D+00  0.0000000000000D+00  0.0000000000000D+00
203  2.0200000000000D+00  0.0000000000000D+00  0.0000000000000D+00
204  2.0300000000000D+00  0.0000000000000D+00  0.0000000000000D+00
205  2.0400000000000D+00  0.0000000000000D+00  0.0000000000000D+00
206  2.0500000000000D+00  0.0000000000000D+00  0.0000000000000D+00
207  2.0600000000000D+00  0.0000000000000D+00  0.0000000000000D+00
208  2.0700000000000D+00  0.0000000000000D+00  0.0000000000000D+00
209  2.0800000000000D+00  0.0000000000000D+00  0.0000000000000D+00
210  2.0900000000000D+00  0.0000000000000D+00  0.0000000000000D+00
211  2.1000000000000D+00  0.0000000000000D+00  0.0000000000000D+00
212  2.1100000000000D+00  0.0000000000000D+00  0.0000000000000D+00
213  2.1200000000000D+00  0.0000000000000D+00  0.0000000000000D+00
214  2.1300000000000D+00  0.0000000000000D+00  0.0000000000000D+00
215  2.1400000000000D+00  0.0000000000000D+00  0.0000000000000D+00
216  2.1500000000000D+00  0.0000000000000D+00  0.0000000000000D+00
217  2.1600000000000D+00  0.0000000000000D+00  0.0000000000000D+00
218  2.1700000000000D+00  0.0000000000000D+00  0.0000000000000D+00
219  2.1800000000000D+00  0.0000000000000D+00  0.0000000000000D+00
220  2.1900000000000D+00  0.0000000000000D+00  0.0000000000000D+00
221  2.2000000000000D+00  0.0000000000000D+00  0.0000000000000D+00
222  2.2100000000000D+00  0.0000000000000D+00  0.0000000000000D+00
223  2.2200000000000D+00  0.0000000000000D+00  0.0000000000000D+00
224  2.2300000000000D+00  0.0000000000000D+00  0.0000000000000D+00
225  2.2400000000000D+00  0.0000000000000D+00  0.0000000000000D+00
226  2.2500000000000D+00  0.0000000000000D+00  0.0000000000000D+00
227  2.2600000000000D+00  0.0000000000000D+00  0.0000000000000D+00
228  2.2700000000000D+00  0.0000000000000D+00  0.0000000000000D+00
229  2.2800000000000D+00  0.0000000000000D+00  0.0000000000000D+00
230  2.2900000000000D+00  0.0000000000000D+00  0.0000000000000D+00
231  2.3000000000000D+00  0.0000000000000D+00  0.0000000000000D+00
232  2.3100000000000D+00  0.0000000000000D+00  0.0000000000000D+00
233  2.3200000000000D+00  0.0000000000000D+00  0.0000000000000D+00
234  2.3300000000000D+00  0.0000000000000D+00  0.0000000000000D+00
235  2.3400000000000D+00  0.0000000000000D+00  0.0000000000000D+00
236  2.3500000000000D+00  0.0000000000000D+00  0.0000000000000D+00
237  2.3600000000000D+00  0.0000000000000D+00  0.0000000000000D+00
238  2.3700000000000D+00  0.0000000000000D+00  0.0000000000000D+00
239  2.3800000000000D+00  0.0000000000000D+00  0.0000000000000D+00
240  2.3900000000000D+00  0.0000000000000D+00  0.0000000000000D+00
241  2.4000000000000D+00  0.0000000000000D+00  0.0000000000000D+00
242  2.4100000000000D+00  0.0000000000000D+00  0.0000000000000D+00
243  2.4200000000000D+00  0.0000000000000D+00  0.0000000000000D+00
244  2.4300000000000D+00  0.0000000000000D+00  0.0000000000000D+00
245  2.4400000000000D+00  0.0000000000000D+00  0.0000000000000D+00
246  2.4500000000000D+00  0.0000000000000D+00  0.0000000000000D+00
247  2.4600000000000D+00  0.0000000000000D+00  0.0000000000000D+00
248  2.4700000000000D+00  0.0000000000000D+00  0.0000000000000D+00
249  2.4800000000000D+00  0.0000000000000D+00  0.0000000000000D+00
250  2.4900000000000D+00  0.0000000000000D+00  0.0000000000000D+00
251  2.5000000000000D+00  0.0000000000000D+00  0.0000000000000D+00
252  2.5100000000000D+00  0.0000000000000D+00  0.0000000000000D+00
253  2.5200000000000D+00  0.0000000000000D+00  0.0000000000000D+00
254  2.5300000000000D+00  0.0000000000000D+00  0.0000000000000D+00
255  2.5400000000000D+00  0.0000000000000D+00  0.0000000000000D+00
256  2.5500000000000D+00  0.0000000000000D+00  0.0000000000000D+00
257  2.5600000000000D+00  0.0000000000000D+00  0.0000000000000D+00
258  2.5700000000000D+00  0.0000000000000D+00  0.0000000000000D+00
259  2.5800000000000D+00  0.0000000000000D+00  0.0000000000000D+00
260  2.5900000000000D+00  0.0000000000000D+00  0.0000000000000D+00
261  2.6000000000000D+00  0.0000000000000D+00  0.0000000000000D+00
262  2.6100000000000D+00  0.0000000000000D+00  0.0000000000000D+00
263  2.6200000000000D+00  0.0000000000000D+00  0.0000000000000D+00
264  2.6300000000000D+00  0.0000000000000D+00  0.0000000000000D+00
265  2.6400000000000D+00  0.0000000000000D+00  0.0000000000000D+00
266  2.6500000000000D+00  0.0000000000000D+00  0.0000000000000D+00
267  2.6600000000000D+00  0.0000000000000D+00  0.0000000000000D+00
268  2.6700000000000D+00  0.0000000000000D+00  0.0000000000000D+00
269  2.6800000000000D+00  0.0000000000000D+00  0.0000000000000D+00
270  2.6900000000000D+00  0.0000000000000D+00  0.0000000000000D+00
271  2.7000000000000D+00  0.0000000000000D+00  0.0000000000000D+00
272  2.7100000000000D+00  0.0000000000000D+00  0.0000000000000D+00
273  2.7200000000000D+00  0.0000000000000D+00  0.0000000000000D+00
274  2.7300000000000D+00  0.0000000000000D+00  0.0000000000000D+00
275  2.7400000000000D+00  0.0000000000000D+00  0.0000000000000D+00
276  2.7500000000000D+00  0.0000000000000D+00  0.0000000000000D+00
277  2.7600000000000D+00  0.0000000000000D+00  0.0000000000000D+00
278  2.7700000000000D+00  0.0000000000000D+00  0.0000000000000D+00
279  2.7800000000000D+00  0.0000000000000D+00  0.0000000000000D+00
280  2.7900000000000D+00  0.0000000000000D+00  0.0000000000000D+00
281  2.8000000000000D+00  0.0000000000000D+00  0.0000000000000D+00
282  2.8100000000000D+00  0.0000000000000D+00  0.0000000000000D+00
283  2.8200000000000D+00  0.0000000000000D+00  0.0000000000000D+00
284  2.8300000000000D+00  0.0000000000000D+00  0.0000000000000D+00
285  2.8400000000000D+00  0.0000000000000D+00  0.0000000000000D+00
286  2.8500000000000D+00  0.0000000000000D+00  0.0000000000000D+00
287  2.8600000000000D+00  0.0000000000000D+00  0.0000000000000D+00
288  2.8700000000000D+00  0.0000000000000D+00  0.0000000000000D+00
289  2.8800000000000D+00  0.0000000000000D+00  0.0000000000000D+00
290  2.8900000000000D+00  0.0000000000000D+00  0.0000000000000D+00
291  2.9000000000000D+00  0.0000000000000D+00  0.0000000000000D+00
292  2.9100000000000D+00  0.0000000000000D+00  0.0000000000000D+00
293  2.9200000000000D+00  0.0000000000000D+00  0.0000000000000D+00
294  2.9300000000000D+00  0.0000000000000D+00  0.0000000000000D+00
295  2.9400000000000D+00  0.0000000000000D+00  0.0000000000000D+00
296  2.9500000000000D+00  0.0000000000000D+00  0.0000000000000D+00
297  2.9600000000000D+00  0.0000000000000D+00  0.0000000000000D+00
298  2.9700000000000D+00  0.0000000000000D+00  0.0000000000000D+00
299  2.9800000000000D+00  0.0000000000000D+00  0.0000000000000D+00
300  2.9900000000000D+00  0.0000000000000D+00  0.0000000000000D+00
301  3.0000000000000D+00  0.0000000000000D+00  0.0000000000000D+00
302  3.0100000000000D+00  0.0000000000000D+00  0.0000000000000D+00
303  3.0200000000000D+00  0.0000000000000D+00  0.0000000000000D+00
304  3.0300000000000D+00  0.0000000000000D+00  0.0000000000000D+00
305  3.0400000000000D+00  0.0000000000000D+00  0.0000000000000D+00
306  3.0500000000000D+00  0.0000000000000D+00  0.0000000000000D+00
307  3.0600000000000D+00  0.0000000000000D+00  0.0000000000000D+00
308  3.0700000000000D+00  0.0000000000000D+00  0.0000000000000D+00
309  3.0800000000000D+00  0.0000000000000D+00  0.0000000000000D+00
310  3.0900000000000D+00  0.0000000000000D+00  0.0000000000000D+00
311  3.1000000000000D+00  0.0000000000000D+00  0.0000000000000D+00
312  3.1100000000000D+00  0.0000000000000D+00  0.0000000000000D+00
313  3.1200000000000D+00  0.0000000000000D+00  0.0000000000000D+00
314  3.1300000000000D+00  0.0000000000000D+00  0.0000000000000D+00
315  3.1400000000000D+00  0.0000000000000D+00  0.0000000000000D+00
316  3.1500000000000D+00  0.0000000000000D+00  0.0000000000000D+00
317  3.1600000000000D+00  0.0000000000000D+00  0.0000000000000D+00
318  3.1700000000000D+00  0.0000000000000D+00  0.0000000000000D+00
319  3.1800000000000D+00  0.0000000000000D+00  0.0000000000000D+00
320  3.1900000000000D+00  0.0000000000000D+00  0.0000000000000D+00
321  3.2000000000000D+00  0.0000000000000D+00  0.0000000000000D+00
322  3.2100000000000D+00  0.0000000000000D+00  0.0000000000000D+00
323  3.2200000000000D+00  0.0000000000000D+00  0.0000000000000D+00
324  3.2300000000000D+00  0.0000000000000D+00  0.0000000000000D+00
325  3.2400000000000D+00  0.0000000000000D+00  0.0000000000000D+00
326  3.2500000000000D+00  0.0000000000000D+00  0.0000000000000D+00
327  3.2600000000000D+00  0.0000000000000D+00  0.0000000000000D+00
328  3.2700000000000D+00  0.0000000000000D+00  0.0000000000000D+00
329  3.2800000000000D+00  0.0000000000000D+00  0.0000000000000D+00
330  3.2900000000000D+00  0.0000000000000D+00  0.0000000000000D+00
331  3.3000000000000D+00  0.0000000000000D+00  0.0000000000000D+00
332  3.3100000000000D+00  0.0000000000000D+00  0.0000000000000D+00
333  3.3200000000000D+00  0.0000000000000D+00  0.0000000000000D+00
334  3.3300000000000D+00  0.0000000000000D+00  0.0000000000000D+00
335  3.3400000000000D+00  0.0000000000000D+00  0.0000000000000D+00
336  3.3500000000000D+00  0.0000000000000D+00  0.0000000000000D+00
337  3.3600000000000D+00  0.0000000000000D+00  0.0000000000000D+00
338  3.3700000000000D+00  0.0000000000000D+00  0.0000000000000D+00
339  3.3800000000000D+00  0.0000000000000D+00  0.0000000000000D+00
340  3.3900000000000D+00  0.0000000000000D+00  0.0000000000000D+00
341  3.4000000000000D+00  0.0000000000000D+00  0.0000000000000D+00
342  3.4100000000000D+00  0.0000000000000D+00  0.0000000000000D+00
343  3.4200000000000D+00  0.0000000000000D+00  0.0000000000000D+00
344  3.4300000000000D+00  0.0000000000000D+00  0.0000000000000D+00
345  3.4400000000000D+00  0.0000000000000D+00  0.0000000000000D+00
346  3.4500000000000D+00  0.0000000000000D+00  0.0000000000000D+00
347  3.4600000000000D+00  0.0000000000000D+00  0.0000000000000D+00
348  3.4700000000000D+00  0.0000000000000D+00  0.0000000000000D+00
349  3.4800000000000D+00  0.0000000000000D+00  0.0000000000000D+00
350  3.4900000000000D+00  0.0000000000000D+00  0.0000000000000D+00
351  3.5000000000000D+00  0.0000000000000D+00  0.0000000000000D+00
352  3.5100000000000D+00  0.0000000000000D+00  0.0000000000000D+00
353  3.5200000000000D+00  0.0000000000000D+00  0.0000000000000D+00
354  3.5300000000000D+00  0.0000000000000D+00  0.0000000000000D+00
355  3.5400000000000D+00  0.0000000000000D+00  0.0000000000000D+00
356  3.5500000000000D+00  0.0000000000000D+00  0.0000000000000D+00
357  3.5600000000000D+00  0.0000000000000D+00  0.0000000000000D+00
358  3.5700000000000D+00  0.0000000000000D+00  0.0000000000000D+00
359  3.5800000000000D+00  0.0000000000000D+00  0.0000000000000D+00
360  3.5900000000000D+00  0.0000000000000D+00  0.0000000000000D+00
361  3.6000000000000D+00  0.0000000000000D+00  0.0000000000000D+00
362  3.6100000000000D+00  0.0000000000000D+00  0.0000000000000D+00
363  3.6200000000000D+00  0.0000000000000D+00  0.0000000000000D+00
364  3.6300000000000D+00  0.0000000000000D+00  0.0000000000000D+00
365  3.6400000000000D+00  0.0000000000000D+00  0.0000000000000D+00
366  3.6500000000000D+00  0.0000000000000D+00  0.0000000000000D+00
367  3.6600000000000D+00  0.0000000000000D+00  0.0000000000000D+00
368  3.6700000000000D+00  0.0000000000000D+00  0.0000000000000D+00
369  3.6800000000000D+00  0.0000000000000D+00  0.0000000000000D+00
370  3.6900000000000D+00  0.0000000000000D+00  0.0000000000000D+00
371  3.7000000000000D+00  0.0000000000000D+00  0.0000000000000D+00
372  3.7100000000000D+00  0.0000000000000D+00  0.0000000000000D+00
373  3.7200000000000D+00  0.0000000000000D+00  0.0000000000000D+00
374  3.7300000000000D+00  0.0000000000000D+00  0.0000000000000D+00
375  3.7400000000000D+00  0.0000000000000D+00  0.0000000000000D+00
376  3.7500000000000D+00  0.0000000000000D+00  0.0000000000000D+00
377  3.7600000000000D+00  0.0000000000000D+00  0.0000000000000D+00
378  3.7700000000000D+00  0.0000000000000D+00  0.0000000000000D+00
379  3.7800000000000D+00  0.0000000000000D+00  0.0000000000000D+00
380  3.7900000000000D+00  0.0000000000000D+00  0.0000000000000D+00
381  3.8000000000000D+00  0.0000000000000D+00  0.0000000000000D+00
382  3.8100000000000D+00  0.0000000000000D+00  0.0000000000000D+00
383  3.8200000000000D+00  0.0000000000000D+00  0.0000000000000D+00
384  3.8300000000000D+00  0.0000000000000D+00  0.0000000000000D+00
385  3.8400000000000D+00  0.0000000000000D+00  0.0000000000000D+00
386  3.8500000000000D+00  0.0000000000000D+00  0.0000000000000D+00
387  3.8600000000000D+00  0.0000000000000D+00  0.0000000000000D+00
388  3.8700000000000D+00  0.0000000000000D+00  0.0000000000000D+00
389  3.8800000000000D+00  0.0000000000000D+00  0.0000000000000D+00
390  3.8900000000000D+00  0.0000000000000D+00  0.0000000000000D+00
391  3.9000000000000D+00  0.0000000000000D+00  0.0000000000000D+00
392  3.9100000000000D+00  0.0000000000000D+00  0.0000000000000D+00
393  3.9200000000000D+00  0.0000000000000D+00  0.0000000000000D+00
394  3.9300000000000D+00  0.0000000000000D+00  0.0000000000000D+00
395  3.9400000000000D+00  0.0000000000000D+00  0.0000000000000D+00
396  3.9500000000000D+00  0.0000000000000D+00  0.0000000000000D+00
397  3.9600000000000D+00  0.0000000000000D+00  0.0000000000000D+00
398  3.9700000000000D+00  0.0000000000000D+00  0.0000000000000D+00
399  3.9800000000000D+00  0.0000000000000D+00  0.0000000000000D+00
400  3.9900000000000D+00  0.0000000000000D+00  0.0000000000000D+00
401  4.0000000000000D+00  0.0000000000000D+00  0.0000000000000D+00
402  4.0100000000000D+00  0.0000000000000D+00  0.0000000000000D+00
403  4.0200000000000D+00  0.0000000000000D+00  0.0000000000000D+00
404  4.0300000000000D+00  0.0000000000000D+00  0.0000000000000D+00
405  4.0400000000000D+00  0.0000000000000D+00  0.0000000000000D+00
406  4.0500000000000D+00  0.0000000000000D+00  0.0000000000000D+00
407  4.0600000000000D+00  0.0000000000000D+00  0.0000000000000D+00
408  4.0700000000000D+00  0.0000000000000D+00  0.0000000000000D+00
409  4.0800000000000D+00  0.0000000000000D+00  0.0000000000000D+00
410  4.0900000000000D+00  0.0000000000000D+00  0.0000000000000D+00
411  4.1000000000000D+00  0.0000000000000D+00  0.0000000000000D+00
412  4.1100000000000D+00  0.0000000000000D+00  0.0000000000000D+00
413  4.1200000000000D+00  0.0000000000000D+00  0.0000000000000D+00
414  4.1300000000000D+00  0.0000000000000D+00  0.0000000000000D+00
415  4.1400000000000D+00  0.0000000000000D+00  0.0000000000000D+00
416  4.1500000000000D+00  0.0000000000000D+00  0.0000000000000D+00
417  4.1600000000000D+00  0.0000000000000D+00  0.0000000000000D+00
418  4.1700000000000D+00  0.0000000000000D+00  0.0000000000000D+00
419  4.1800000000000D+00  0.0000000000000D+00  0.0000000000000D+00
420  4.1900000000000D+00  0.0000000000000D+00  0.0000000000000D+00
421  4.2000000000000D+00  0.0000000000000D+00  0.0000000000000D+00
422  4.2100000000000D+00  0.0000000000000D+00  0.0000000000000D+00
423  4.2200000000000D+00  0.0000000000000D+00  0.0000000000000D+00
424  4.2300000000000D+00  0.0000000000000D+00  0.0000000000000D+00
425  4.2400000000000D+00  0.0000000000000D+00  0.0000000000000D+00
426  4.2500000000000D+00  0.0000000000000D+00  0.0000000000000D+00
427  4.2600000000000D+00  0.0000000000000D+00  0.0000000000000D+00
428  4.2700000000000D+00  0.0000000000000D+00  0.0000000000000D+00
429  4.2800000000000D+00  0.0000000000000D+00  0.0000000000000D+00
430  4.2900000000000D+00  0.0000000000000D+00  0.0000000000000D+00
431  4.3000000000000D+00  0.0000000000000D+00  0.0000000000000D+00
432  4.3100000000000D+00  0.0000000000000D+00  0.0000000000000D+00
433  4.3200000000000D+00  0.0000000000000D+00  0.0000000000000D+00
434  4.3300000000000D+00  0.0000000000000D+00  0.0000000000000D+00
435  4.3400000000000D+00  0.0000000000000D+00  0.0000000000000D+00
436  4.3500000000000D+00  0.0000000000000D+00  0.0000000000000D+00
437  4.3600000000000D+00  0.0000000000000D+00  0.0000000000000D+00
438  4.3700000000000D+00  0.0000000000000D+00  0.0000000000000D+00
439  4.3800000000000D+00  0.0000000000000D+00  0.0000000000000D+00
440  4.3900000000000D+00  0.0000000000000D+00  0.0000000000000D+00
441  4.4000000000000D+00  0.0000000000000D+00  0.0000000000000D+00
442  4.4100000000000D+00  0.0000000000000D+00  0.0000000000000D+00
443  4.4200000000000D+00  0.0000000000000D+00  0.0000000000000D+00