P     ONCVPSP-3.3.0  r_core=   1.46089   1.55067   1.70594
15.0000      5.0000      171102    zatom,zion,pspd
8   -1012   2     4   600     0    pspcod,pspxc,lmax,lloc,mmax,r2well
5.99000000  5.00000000  0.00000000    rchrg fchrg qchrg
2     2     2     0     0    nproj
1     1           extension_switch
0                         6.7951922407484D+00  1.0782916708880D+00
1  0.0000000000000D+00 -1.7628875192965D-08  4.3221890899670D-08
2  1.0000000000000D-02  5.6100475374758D-02 -5.2645997693819D-02
3  2.0000000000000D-02  1.1165925286328D-01 -1.0401579982635D-01
4  3.0000000000000D-02  1.6614570872616D-01 -1.5286032506218D-01
5  4.0000000000000D-02  2.1905113871661D-01 -1.9798415985875D-01
6  5.0000000000000D-02  2.6989915045959D-01 -2.3827100208146D-01
7  6.0000000000000D-02  3.1825538787777D-01 -2.7270746787899D-01
8  7.0000000000000D-02  3.6373638621652D-01 -3.0040476822559D-01
9  8.0000000000000D-02  4.0601737384893D-01 -3.2061780475929D-01
10  9.0000000000000D-02  4.4483885840918D-01 -3.3276128693017D-01
11  1.0000000000000D-01  4.8001185948088D-01 -3.3642253297592D-01
12  1.1000000000000D-01  5.1142167756427D-01 -3.3137068465193D-01
13  1.2000000000000D-01  5.3903011881239D-01 -3.1756213861250D-01
14  1.3000000000000D-01  5.6287612646603D-01 -2.9514207440730D-01
15  1.4000000000000D-01  5.8307480240087D-01 -2.6444203867888D-01
16  1.5000000000000D-01  5.9981483507730D-01 -2.2597362572508D-01
17  1.6000000000000D-01  6.1335438279306D-01 -1.8041837450750D-01
18  1.7000000000000D-01  6.2401549282666D-01 -1.2861407983357D-01
19  1.8000000000000D-01  6.3217716718630D-01 -7.1537789253070D-02
20  1.9000000000000D-01  6.3826721363747D-01 -1.0285825696085D-02
21  2.0000000000000D-01  6.4275304590571D-01  5.3948762348079D-02
22  2.1000000000000D-01  6.4613161892655D-01  1.1990086750972D-01
23  2.2000000000000D-01  6.4891870329381D-01  1.8625960674396D-01
24  2.3000000000000D-01  6.5163771726281D-01  2.5169568599409D-01
25  2.4000000000000D-01  6.5480834450150D-01  3.1488928722717D-01
26  2.5000000000000D-01  6.5893517103932D-01  3.7455790596871D-01
27  2.6000000000000D-01  6.6449657542182D-01  4.2948356619993D-01
28  2.7000000000000D-01  6.7193410191310D-01  4.7853884979986D-01
29  2.8000000000000D-01  6.8164253776541D-01  5.2071119944890D-01
30  2.9000000000000D-01  6.9396090225735D-01  5.5512498666255D-01
31  3.0000000000000D-01  7.0916453763912D-01  5.8106087977500D-01
32  3.1000000000000D-01  7.2745847065311D-01  5.9797209941686D-01
33  3.2000000000000D-01  7.4897218833340D-01  6.0549721030741D-01
34  3.3000000000000D-01  7.7375594381711D-01  6.0346916681653D-01
35  3.4000000000000D-01  8.0177867747007D-01  5.9192040439753D-01
36  3.5000000000000D-01  8.3292760633715D-01  5.7108384818350D-01
37  3.6000000000000D-01  8.6700950141319D-01  5.4138979220653D-01
38  3.7000000000000D-01  9.0375363815652D-01  5.0345868621292D-01
39  3.8000000000000D-01  9.4281637171323D-01  4.5808995024297D-01
40  3.9000000000000D-01  9.8378725516351D-01  4.0624701835759D-01
41  4.0000000000000D-01  1.0261965874098D+00  3.4903889048903D-01
42  4.1000000000000D-01  1.0695242477373D+00  2.8769854380720D-01
43  4.2000000000000D-01  1.1132096471905D+00  2.2355862075166D-01
44  4.3000000000000D-01  1.1566626032791D+00  1.5802486863498D-01
45  4.4000000000000D-01  1.1992749246331D+00  9.2547854284845D-02
46  4.5000000000000D-01  1.2404324764914D+00  2.8593515541199D-02
47  4.6000000000000D-01  1.2795274866653D+00 -3.2386861256901D-02
48  4.7000000000000D-01  1.3159708451132D+00 -8.8986632978096D-02
49  4.8000000000000D-01  1.3492041486503D+00 -1.3987315211297D-01
50  4.9000000000000D-01  1.3787112456666D+00 -1.8381587989459D-01
51  5.0000000000000D-01  1.4040290439760D+00 -2.1971268065744D-01
52  5.1000000000000D-01  1.4247573579665D+00 -2.4661375022254D-01
53  5.2000000000000D-01  1.4405675888035D+00 -2.6374267450357D-01
54  5.3000000000000D-01  1.4512100532476D+00 -2.7051416825375D-01
55  5.4000000000000D-01  1.4565198022759D+00 -2.6654810696467D-01
56  5.5000000000000D-01  1.4564207996843D+00 -2.5167953622693D-01
57  5.6000000000000D-01  1.4509283625319D+00 -2.2596442073945D-01
58  5.7000000000000D-01  1.4401497992894D+00 -1.8968097868515D-01
59  5.8000000000000D-01  1.4242832168713D+00 -1.4332653390557D-01
60  5.9000000000000D-01  1.4036145040882D+00 -8.7609907531260D-02
61  6.0000000000000D-01  1.3785125352784D+00 -2.3439459571274D-02
62  6.1000000000000D-01  1.3494226737776D+00  4.8093021025719D-02
63  6.2000000000000D-01  1.3168586891298D+00  1.2573229543466D-01
64  6.3000000000000D-01  1.2813932345404D+00  2.0808316092356D-01
65  6.4000000000000D-01  1.2436470607139D+00  2.9363700901420D-01
66  6.5000000000000D-01  1.2042771687546D+00  3.8080095627500D-01
67  6.6000000000000D-01  1.1639641275441D+00  4.6792899272223D-01
68  6.7000000000000D-01  1.1233987993742D+00  5.5335454810547D-01
69  6.8000000000000D-01  1.0832687313937D+00  6.3542384293378D-01
70  6.9000000000000D-01  1.0442444792265D+00  7.1252936994618D-01
71  7.0000000000000D-01  1.0069661326952D+00  7.8314284340534D-01
72  7.1000000000000D-01  9.7203031193751D-01  8.4584695811816D-01
73  7.2000000000000D-01  9.3997789525362D-01  8.9936531762943D-01
74  7.3000000000000D-01  9.1128272786014D-01  9.4258992138040D-01
75  7.4000000000000D-01  8.8634154362994D-01  9.7460564307642D-01
76  7.5000000000000D-01  8.6546531010198D-01  9.9471118647801D-01
77  7.6000000000000D-01  8.4887218090230D-01  1.0024360694588D+00
78  7.7000000000000D-01  8.3668220997556D-01  9.9755326060234D-01
79  7.8000000000000D-01  8.2891394871796D-01  9.8008717476582D-01
80  7.9000000000000D-01  8.2548301145375D-01  9.5031682189338D-01
81  8.0000000000000D-01  8.2620265697204D-01  9.0877399626669D-01
82  8.1000000000000D-01  8.3078639491872D-01  8.5623648916943D-01
83  8.2000000000000D-01  8.3885258645018D-01  7.9371640481583D-01
84  8.3000000000000D-01  8.4993096945789D-01  7.2244375548933D-01
85  8.4000000000000D-01  8.6347100063126D-01  6.4384560527428D-01
86  8.5000000000000D-01  8.7885187038682D-01  5.5952112070578D-01
87  8.6000000000000D-01  8.9539401297127D-01  4.7121296934975D-01
88  8.7000000000000D-01  9.1237190351582D-01  3.8077558210837D-01
89  8.8000000000000D-01  9.2902790709362D-01  2.9014086041763D-01
90  8.9000000000000D-01  9.4458692245432D-01  2.0128196413269D-01
91  9.0000000000000D-01  9.5827154554252D-01  1.1617585864806D-01
92  9.1000000000000D-01  9.6931746552273D-01  3.6765329766200D-02
93  9.2000000000000D-01  9.7698879910482D-01 -3.5078808658752D-02
94  9.3000000000000D-01  9.8059306766222D-01 -9.7594586625375D-02
95  9.4000000000000D-01  9.7949552602084D-01 -1.4916411311915D-01
96  9.5000000000000D-01  9.7313256177734D-01 -1.8834648328745D-01
97  9.6000000000000D-01  9.6102389973515D-01 -2.1390770574410D-01
98  9.7000000000000D-01  9.4278336637483D-01 -2.2484704866141D-01
99  9.8000000000000D-01  9.1812799513943D-01 -2.2041926749842D-01
100  9.9000000000000D-01  8.8688528329995D-01 -2.0015225150610D-01
101  1.0000000000000D+00  8.4899844482009D-01 -1.6385970944077D-01
102  1.0100000000000D+00  8.0452954074865D-01 -1.1164860667333D-01
103  1.0200000000000D+00  7.5366040803063D-01 -4.3921163134547D-02
104  1.0300000000000D+00  6.9669134986562D-01  3.8628674182748D-02
105  1.0400000000000D+00  6.3403759109488D-01  1.3502427087171D-01
106  1.0500000000000D+00  5.6622354642262D-01  2.4402073430933D-01
107  1.0600000000000D+00  4.9387499070162D-01  3.6412450771560D-01
108  1.0700000000000D+00  4.1770926036218D-01  4.9361780623299D-01
109  1.0800000000000D+00  3.3852365444315D-01  6.3058747525998D-01
110  1.0900000000000D+00  2.5718223722052D-01  7.7295776878961D-01
111  1.1000000000000D+00  1.7460127712285D-01  9.1852646515605D-01
112  1.1100000000000D+00  9.1733584798083D-02  1.0650036684581D+00
113  1.1200000000000D+00  9.5520342661691D-03  1.2100525923140D+00
114  1.1300000000000D+00 -7.0967431227074D-02  1.3513315794427D+00
115  1.1400000000000D+00 -1.4886299565380D-01  1.4865365828230D+00
116  1.1500000000000D+00 -2.2320404853558D-01  1.6134433164957D+00
117  1.1600000000000D+00 -2.9310782703433D-01  1.7299482900925D+00
118  1.1700000000000D+00 -3.5775531099720D-01  1.8341079597674D+00
119  1.1800000000000D+00 -4.1640606659150D-01  1.9241752444781D+00
120  1.1900000000000D+00 -4.6841175847645D-01  1.9986327171695D+00
121  1.2000000000000D+00 -5.1322807452432D-01  2.0562218401713D+00
122  1.2100000000000D+00 -5.5042482712883D-01  2.0959676638943D+00
123  1.2200000000000D+00 -5.7969403408251D-01  2.1171985045309D+00
124  1.2300000000000D+00 -6.0085582295984D-01  2.1195602178914D+00
125  1.2400000000000D+00 -6.1386203676392D-01  2.1030247702524D+00
126  1.2500000000000D+00 -6.1879745231205D-01  2.0678928906091D+00
127  1.2600000000000D+00 -6.1587859075040D-01  2.0147907567106D+00
128  1.2700000000000D+00 -6.0545012904177D-01  1.9446607400481D+00
129  1.2800000000000D+00 -5.8797894971595D-01  1.8587463053667D+00
130  1.2900000000000D+00 -5.6404595148467D-01  1.7585713710780D+00
131  1.3000000000000D+00 -5.3433575386118D-01  1.6459144629151D+00
132  1.3100000000000D+00 -4.9962446167400D-01  1.5227780741602D+00
133  1.3200000000000D+00 -4.6076573324438D-01  1.3913538379822D+00
134  1.3300000000000D+00 -4.1867538351559D-01  1.2539840865552D+00
135  1.3400000000000D+00 -3.7431480080532D-01  1.1131204886535D+00
136  1.3500000000000D+00 -3.2867349125016D-01  9.7128054448126D-01
137  1.3600000000000D+00 -2.8275104975271D-01  8.3100267893982D-01
138  1.3700000000000D+00 -2.3753890415539D-01  6.9480079257429D-01
139  1.3800000000000D+00 -1.9400214987031D-01  5.6511905618071D-01
140  1.3900000000000D+00 -1.5306182437906D-01  4.4428781497071D-01
141  1.4000000000000D+00 -1.1557793541276D-01  3.3448137923234D-01
142  1.4100000000000D+00 -8.2335241129342D-02  2.3768332060249D-01
143  1.4200000000000D+00 -5.4041072471532D-02  1.5568583408933D-01
144  1.4300000000000D+00 -3.1153233396295D-02  8.9600697329194D-02
145  1.4400000000000D+00 -1.4323251475491D-02  4.1135540905765D-02
146  1.4500000000000D+00 -4.3256395443989D-03  1.2392868740688D-02
147  1.4600000000000D+00 -1.7359555837801D-04  4.7288943944104D-04
148  1.4700000000000D+00  4.5851968503202D-04 -1.3268044645718D-03
149  1.4800000000000D+00 -5.4023905943446D-05  1.5602302359344D-04
150  1.4900000000000D+00 -1.2791637429738D-04  3.6899242665458D-04
151  1.5000000000000D+00  1.9019365210326D-05 -5.5053833747601D-05
152  1.5100000000000D+00  1.7440649401607D-05 -5.0457141269952D-05
153  1.5200000000000D+00  3.1217282433624D-08 -2.7245369081129D-08
154  1.5300000000000D+00  1.2660153607764D-08 -1.1049346092208D-08
155  1.5400000000000D+00  0.0000000000000D+00  0.0000000000000D+00
156  1.5500000000000D+00  0.0000000000000D+00  0.0000000000000D+00
157  1.5600000000000D+00  0.0000000000000D+00  0.0000000000000D+00
158  1.5700000000000D+00  0.0000000000000D+00  0.0000000000000D+00
159  1.5800000000000D+00  0.0000000000000D+00  0.0000000000000D+00
160  1.5900000000000D+00  0.0000000000000D+00  0.0000000000000D+00
161  1.6000000000000D+00  0.0000000000000D+00  0.0000000000000D+00
162  1.6100000000000D+00  0.0000000000000D+00  0.0000000000000D+00
163  1.6200000000000D+00  0.0000000000000D+00  0.0000000000000D+00
164  1.6300000000000D+00  0.0000000000000D+00  0.0000000000000D+00
165  1.6400000000000D+00  0.0000000000000D+00  0.0000000000000D+00
166  1.6500000000000D+00  0.0000000000000D+00  0.0000000000000D+00
167  1.6600000000000D+00  0.0000000000000D+00  0.0000000000000D+00
168  1.6700000000000D+00  0.0000000000000D+00  0.0000000000000D+00
169  1.6800000000000D+00  0.0000000000000D+00  0.0000000000000D+00
170  1.6900000000000D+00  0.0000000000000D+00  0.0000000000000D+00
171  1.7000000000000D+00  0.0000000000000D+00  0.0000000000000D+00
172  1.7100000000000D+00  0.0000000000000D+00  0.0000000000000D+00
173  1.7200000000000D+00  0.0000000000000D+00  0.0000000000000D+00
174  1.7300000000000D+00  0.0000000000000D+00  0.0000000000000D+00
175  1.7400000000000D+00  0.0000000000000D+00  0.0000000000000D+00
176  1.7500000000000D+00  0.0000000000000D+00  0.0000000000000D+00
177  1.7600000000000D+00  0.0000000000000D+00  0.0000000000000D+00
178  1.7700000000000D+00  0.0000000000000D+00  0.0000000000000D+00
179  1.7800000000000D+00  0.0000000000000D+00  0.0000000000000D+00
180  1.7900000000000D+00  0.0000000000000D+00  0.0000000000000D+00
181  1.8000000000000D+00  0.0000000000000D+00  0.0000000000000D+00
182  1.8100000000000D+00  0.0000000000000D+00  0.0000000000000D+00
183  1.8200000000000D+00  0.0000000000000D+00  0.0000000000000D+00
184  1.8300000000000D+00  0.0000000000000D+00  0.0000000000000D+00
185  1.8400000000000D+00  0.0000000000000D+00  0.0000000000000D+00
186  1.8500000000000D+00  0.0000000000000D+00  0.0000000000000D+00
187  1.8600000000000D+00  0.0000000000000D+00  0.0000000000000D+00
188  1.8700000000000D+00  0.0000000000000D+00  0.0000000000000D+00
189  1.8800000000000D+00  0.0000000000000D+00  0.0000000000000D+00
190  1.8900000000000D+00  0.0000000000000D+00  0.0000000000000D+00
191  1.9000000000000D+00  0.0000000000000D+00  0.0000000000000D+00
192  1.9100000000000D+00  0.0000000000000D+00  0.0000000000000D+00
193  1.9200000000000D+00  0.0000000000000D+00  0.0000000000000D+00
194  1.9300000000000D+00  0.0000000000000D+00  0.0000000000000D+00
195  1.9400000000000D+00  0.0000000000000D+00  0.0000000000000D+00
196  1.9500000000000D+00  0.0000000000000D+00  0.0000000000000D+00
197  1.9600000000000D+00  0.0000000000000D+00  0.0000000000000D+00
198  1.9700000000000D+00  0.0000000000000D+00  0.0000000000000D+00
199  1.9800000000000D+00  0.0000000000000D+00  0.0000000000000D+00
200  1.9900000000000D+00  0.0000000000000D+00  0.0000000000000D+00
201  2.0000000000000D+00  0.0000000000000D+00  0.0000000000000D+00
202  2.0100000000000D+00  0.0000000000000D+00  0.0000000000000D+00
203  2.0200000000000D+00  0.0000000000000D+00  0.0000000000000D+00
204  2.0300000000000D+00  0.0000000000000D+00  0.0000000000000D+00
205  2.0400000000000D+00  0.0000000000000D+00  0.0000000000000D+00
206  2.0500000000000D+00  0.0000000000000D+00  0.0000000000000D+00
207  2.0600000000000D+00  0.0000000000000D+00  0.0000000000000D+00
208  2.0700000000000D+00  0.0000000000000D+00  0.0000000000000D+00
209  2.0800000000000D+00  0.0000000000000D+00  0.0000000000000D+00
210  2.0900000000000D+00  0.0000000000000D+00  0.0000000000000D+00
211  2.1000000000000D+00  0.0000000000000D+00  0.0000000000000D+00
212  2.1100000000000D+00  0.0000000000000D+00  0.0000000000000D+00
213  2.1200000000000D+00  0.0000000000000D+00  0.0000000000000D+00
214  2.1300000000000D+00  0.0000000000000D+00  0.0000000000000D+00
215  2.1400000000000D+00  0.0000000000000D+00  0.0000000000000D+00
216  2.1500000000000D+00  0.0000000000000D+00  0.0000000000000D+00
217  2.1600000000000D+00  0.0000000000000D+00  0.0000000000000D+00
218  2.1700000000000D+00  0.0000000000000D+00  0.0000000000000D+00
219  2.1800000000000D+00  0.0000000000000D+00  0.0000000000000D+00
220  2.1900000000000D+00  0.0000000000000D+00  0.0000000000000D+00
221  2.2000000000000D+00  0.0000000000000D+00  0.0000000000000D+00
222  2.2100000000000D+00  0.0000000000000D+00  0.0000000000000D+00
223  2.2200000000000D+00  0.0000000000000D+00  0.0000000000000D+00
224  2.2300000000000D+00  0.0000000000000D+00  0.0000000000000D+00
225  2.2400000000000D+00  0.0000000000000D+00  0.0000000000000D+00
226  2.2500000000000D+00  0.0000000000000D+00  0.0000000000000D+00
227  2.2600000000000D+00  0.0000000000000D+00  0.0000000000000D+00
228  2.2700000000000D+00  0.0000000000000D+00  0.0000000000000D+00
229  2.2800000000000D+00  0.0000000000000D+00  0.0000000000000D+00
230  2.2900000000000D+00  0.0000000000000D+00  0.0000000000000D+00
231  2.3000000000000D+00  0.0000000000000D+00  0.0000000000000D+00
232  2.3100000000000D+00  0.0000000000000D+00  0.0000000000000D+00
233  2.3200000000000D+00  0.0000000000000D+00  0.0000000000000D+00
234  2.3300000000000D+00  0.0000000000000D+00  0.0000000000000D+00
235  2.3400000000000D+00  0.0000000000000D+00  0.0000000000000D+00
236  2.3500000000000D+00  0.0000000000000D+00  0.0000000000000D+00
237  2.3600000000000D+00  0.0000000000000D+00  0.0000000000000D+00
238  2.3700000000000D+00  0.0000000000000D+00  0.0000000000000D+00
239  2.3800000000000D+00  0.0000000000000D+00  0.0000000000000D+00
240  2.3900000000000D+00  0.0000000000000D+00  0.0000000000000D+00
241  2.4000000000000D+00  0.0000000000000D+00  0.0000000000000D+00
242  2.4100000000000D+00  0.0000000000000D+00  0.0000000000000D+00
243  2.4200000000000D+00  0.0000000000000D+00  0.0000000000000D+00
244  2.4300000000000D+00  0.0000000000000D+00  0.0000000000000D+00
245  2.4400000000000D+00  0.0000000000000D+00  0.0000000000000D+00
246  2.4500000000000D+00  0.0000000000000D+00  0.0000000000000D+00
247  2.4600000000000D+00  0.0000000000000D+00  0.0000000000000D+00
248  2.4700000000000D+00  0.0000000000000D+00  0.0000000000000D+00
249  2.4800000000000D+00  0.0000000000000D+00  0.0000000000000D+00
250  2.4900000000000D+00  0.0000000000000D+00  0.0000000000000D+00
251  2.5000000000000D+00  0.0000000000000D+00  0.0000000000000D+00
252  2.5100000000000D+00  0.0000000000000D+00  0.0000000000000D+00
253  2.5200000000000D+00  0.0000000000000D+00  0.0000000000000D+00
254  2.5300000000000D+00  0.0000000000000D+00  0.0000000000000D+00
255  2.5400000000000D+00  0.0000000000000D+00  0.0000000000000D+00
256  2.5500000000000D+00  0.0000000000000D+00  0.0000000000000D+00
257  2.5600000000000D+00  0.0000000000000D+00  0.0000000000000D+00
258  2.5700000000000D+00  0.0000000000000D+00  0.0000000000000D+00
259  2.5800000000000D+00  0.0000000000000D+00  0.0000000000000D+00
260  2.5900000000000D+00  0.0000000000000D+00  0.0000000000000D+00
261  2.6000000000000D+00  0.0000000000000D+00  0.0000000000000D+00
262  2.6100000000000D+00  0.0000000000000D+00  0.0000000000000D+00
263  2.6200000000000D+00  0.0000000000000D+00  0.0000000000000D+00
264  2.6300000000000D+00  0.0000000000000D+00  0.0000000000000D+00
265  2.6400000000000D+00  0.0000000000000D+00  0.0000000000000D+00
266  2.6500000000000D+00  0.0000000000000D+00  0.0000000000000D+00
267  2.6600000000000D+00  0.0000000000000D+00  0.0000000000000D+00
268  2.6700000000000D+00  0.0000000000000D+00  0.0000000000000D+00
269  2.6800000000000D+00  0.0000000000000D+00  0.0000000000000D+00
270  2.6900000000000D+00  0.0000000000000D+00  0.0000000000000D+00
271  2.7000000000000D+00  0.0000000000000D+00  0.0000000000000D+00
272  2.7100000000000D+00  0.0000000000000D+00  0.0000000000000D+00
273  2.7200000000000D+00  0.0000000000000D+00  0.0000000000000D+00
274  2.7300000000000D+00  0.0000000000000D+00  0.0000000000000D+00
275  2.7400000000000D+00  0.0000000000000D+00  0.0000000000000D+00
276  2.7500000000000D+00  0.0000000000000D+00  0.0000000000000D+00
277  2.7600000000000D+00  0.0000000000000D+00  0.0000000000000D+00
278  2.7700000000000D+00  0.0000000000000D+00  0.0000000000000D+00
279  2.7800000000000D+00  0.0000000000000D+00  0.0000000000000D+00
280  2.7900000000000D+00  0.0000000000000D+00  0.0000000000000D+00
281  2.8000000000000D+00  0.0000000000000D+00  0.0000000000000D+00
282  2.8100000000000D+00  0.0000000000000D+00  0.0000000000000D+00
283  2.8200000000000D+00  0.0000000000000D+00  0.0000000000000D+00
284  2.8300000000000D+00  0.0000000000000D+00  0.0000000000000D+00
285  2.8400000000000D+00  0.0000000000000D+00  0.0000000000000D+00
286  2.8500000000000D+00  0.0000000000000D+00  0.0000000000000D+00
287  2.8600000000000D+00  0.0000000000000D+00  0.0000000000000D+00
288  2.8700000000000D+00  0.0000000000000D+00  0.0000000000000D+00
289  2.8800000000000D+00  0.0000000000000D+00  0.0000000000000D+00
290  2.8900000000000D+00  0.0000000000000D+00  0.0000000000000D+00
291  2.9000000000000D+00  0.0000000000000D+00  0.0000000000000D+00
292  2.9100000000000D+00  0.0000000000000D+00  0.0000000000000D+00
293  2.9200000000000D+00  0.0000000000000D+00  0.0000000000000D+00
294  2.9300000000000D+00  0.0000000000000D+00  0.0000000000000D+00
295  2.9400000000000D+00  0.0000000000000D+00  0.0000000000000D+00
296  2.9500000000000D+00  0.0000000000000D+00  0.0000000000000D+00
297  2.9600000000000D+00  0.0000000000000D+00  0.0000000000000D+00
298  2.9700000000000D+00  0.0000000000000D+00  0.0000000000000D+00
299  2.9800000000000D+00  0.0000000000000D+00  0.0000000000000D+00
300  2.9900000000000D+00  0.0000000000000D+00  0.0000000000000D+00
301  3.0000000000000D+00  0.0000000000000D+00  0.0000000000000D+00
302  3.0100000000000D+00  0.0000000000000D+00  0.0000000000000D+00
303  3.0200000000000D+00  0.0000000000000D+00  0.0000000000000D+00
304  3.0300000000000D+00  0.0000000000000D+00  0.0000000000000D+00
305  3.0400000000000D+00  0.0000000000000D+00  0.0000000000000D+00
306  3.0500000000000D+00  0.0000000000000D+00  0.0000000000000D+00
307  3.0600000000000D+00  0.0000000000000D+00  0.0000000000000D+00
308  3.0700000000000D+00  0.0000000000000D+00  0.0000000000000D+00
309  3.0800000000000D+00  0.0000000000000D+00  0.0000000000000D+00
310  3.0900000000000D+00  0.0000000000000D+00  0.0000000000000D+00
311  3.1000000000000D+00  0.0000000000000D+00  0.0000000000000D+00
312  3.1100000000000D+00  0.0000000000000D+00  0.0000000000000D+00
313  3.1200000000000D+00  0.0000000000000D+00  0.0000000000000D+00
314  3.1300000000000D+00  0.0000000000000D+00  0.0000000000000D+00
315  3.1400000000000D+00  0.0000000000000D+00  0.0000000000000D+00
316  3.1500000000000D+00  0.0000000000000D+00  0.0000000000000D+00
317  3.1600000000000D+00  0.0000000000000D+00  0.0000000000000D+00
318  3.1700000000000D+00  0.0000000000000D+00  0.0000000000000D+00
319  3.1800000000000D+00  0.0000000000000D+00  0.0000000000000D+00
320  3.1900000000000D+00  0.0000000000000D+00  0.0000000000000D+00
321  3.2000000000000D+00  0.0000000000000D+00  0.0000000000000D+00
322  3.2100000000000D+00  0.0000000000000D+00  0.0000000000000D+00
323  3.2200000000000D+00  0.0000000000000D+00  0.0000000000000D+00
324  3.2300000000000D+00  0.0000000000000D+00  0.0000000000000D+00
325  3.2400000000000D+00  0.0000000000000D+00  0.0000000000000D+00
326  3.2500000000000D+00  0.0000000000000D+00  0.0000000000000D+00
327  3.2600000000000D+00  0.0000000000000D+00  0.0000000000000D+00
328  3.2700000000000D+00  0.0000000000000D+00  0.0000000000000D+00
329  3.2800000000000D+00  0.0000000000000D+00  0.0000000000000D+00
330  3.2900000000000D+00  0.0000000000000D+00  0.0000000000000D+00
331  3.3000000000000D+00  0.0000000000000D+00  0.0000000000000D+00
332  3.3100000000000D+00  0.0000000000000D+00  0.0000000000000D+00
333  3.3200000000000D+00  0.0000000000000D+00  0.0000000000000D+00
334  3.3300000000000D+00  0.0000000000000D+00  0.0000000000000D+00
335  3.3400000000000D+00  0.0000000000000D+00  0.0000000000000D+00
336  3.3500000000000D+00  0.0000000000000D+00  0.0000000000000D+00
337  3.3600000000000D+00  0.0000000000000D+00  0.0000000000000D+00
338  3.3700000000000D+00  0.0000000000000D+00  0.0000000000000D+00
339  3.3800000000000D+00  0.0000000000000D+00  0.0000000000000D+00
340  3.3900000000000D+00  0.0000000000000D+00  0.0000000000000D+00
341  3.4000000000000D+00  0.0000000000000D+00  0.0000000000000D+00
342  3.4100000000000D+00  0.0000000000000D+00  0.0000000000000D+00
343  3.4200000000000D+00  0.0000000000000D+00  0.0000000000000D+00
344  3.4300000000000D+00  0.0000000000000D+00  0.0000000000000D+00
345  3.4400000000000D+00  0.0000000000000D+00  0.0000000000000D+00
346  3.4500000000000D+00  0.0000000000000D+00  0.0000000000000D+00
347  3.4600000000000D+00  0.0000000000000D+00  0.0000000000000D+00
348  3.4700000000000D+00  0.0000000000000D+00  0.0000000000000D+00
349  3.4800000000000D+00  0.0000000000000D+00  0.0000000000000D+00
350  3.4900000000000D+00  0.0000000000000D+00  0.0000000000000D+00
351  3.5000000000000D+00  0.0000000000000D+00  0.0000000000000D+00
352  3.5100000000000D+00  0.0000000000000D+00  0.0000000000000D+00
353  3.5200000000000D+00  0.0000000000000D+00  0.0000000000000D+00
354  3.5300000000000D+00  0.0000000000000D+00  0.0000000000000D+00
355  3.5400000000000D+00  0.0000000000000D+00  0.0000000000000D+00
356  3.5500000000000D+00  0.0000000000000D+00  0.0000000000000D+00
357  3.5600000000000D+00  0.0000000000000D+00  0.0000000000000D+00
358  3.5700000000000D+00  0.0000000000000D+00  0.0000000000000D+00
359  3.5800000000000D+00  0.0000000000000D+00  0.0000000000000D+00
360  3.5900000000000D+00  0.0000000000000D+00  0.0000000000000D+00
361  3.6000000000000D+00  0.0000000000000D+00  0.0000000000000D+00
362  3.6100000000000D+00  0.0000000000000D+00  0.0000000000000D+00
363  3.6200000000000D+00  0.0000000000000D+00  0.0000000000000D+00
364  3.6300000000000D+00  0.0000000000000D+00  0.0000000000000D+00
365  3.6400000000000D+00  0.0000000000000D+00  0.0000000000000D+00
366  3.6500000000000D+00  0.0000000000000D+00  0.0000000000000D+00
367  3.6600000000000D+00  0.0000000000000D+00  0.0000000000000D+00
368  3.6700000000000D+00  0.0000000000000D+00  0.0000000000000D+00
369  3.6800000000000D+00  0.0000000000000D+00  0.0000000000000D+00
370  3.6900000000000D+00  0.0000000000000D+00  0.0000000000000D+00
371  3.7000000000000D+00  0.0000000000000D+00  0.0000000000000D+00
372  3.7100000000000D+00  0.0000000000000D+00  0.0000000000000D+00
373  3.7200000000000D+00  0.0000000000000D+00  0.0000000000000D+00
374  3.7300000000000D+00  0.0000000000000D+00  0.0000000000000D+00
375  3.7400000000000D+00  0.0000000000000D+00  0.0000000000000D+00
376  3.7500000000000D+00  0.0000000000000D+00  0.0000000000000D+00
377  3.7600000000000D+00  0.0000000000000D+00  0.0000000000000D+00
378  3.7700000000000D+00  0.0000000000000D+00  0.0000000000000D+00
379  3.7800000000000D+00  0.0000000000000D+00  0.0000000000000D+00
380  3.7900000000000D+00  0.0000000000000D+00  0.0000000000000D+00
381  3.8000000000000D+00  0.0000000000000D+00  0.0000000000000D+00
382  3.8100000000000D+00  0.0000000000000D+00  0.0000000000000D+00
383  3.8200000000000D+00  0.0000000000000D+00  0.0000000000000D+00
384  3.8300000000000D+00  0.0000000000000D+00  0.0000000000000D+00
385  3.8400000000000D+00  0.0000000000000D+00  0.0000000000000D+00
386  3.8500000000000D+00  0.0000000000000D+00  0.0000000000000D+00
387  3.8600000000000D+00  0.0000000000000D+00  0.0000000000000D+00
388  3.8700000000000D+00  0.0000000000000D+00  0.0000000000000D+00
389  3.8800000000000D+00  0.0000000000000D+00  0.0000000000000D+00
390  3.8900000000000D+00  0.0000000000000D+00  0.0000000000000D+00
391  3.9000000000000D+00  0.0000000000000D+00  0.0000000000000D+00
392  3.9100000000000D+00  0.0000000000000D+00  0.0000000000000D+00
393  3.9200000000000D+00  0.0000000000000D+00  0.0000000000000D+00
394  3.9300000000000D+00  0.0000000000000D+00  0.0000000000000D+00
395  3.9400000000000D+00  0.0000000000000D+00  0.0000000000000D+00
396  3.9500000000000D+00  0.0000000000000D+00  0.0000000000000D+00
397  3.9600000000000D+00  0.0000000000000D+00  0.0000000000000D+00
398  3.9700000000000D+00  0.0000000000000D+00  0.0000000000000D+00
399  3.9800000000000D+00  0.0000000000000D+00  0.0000000000000D+00
400  3.9900000000000D+00  0.0000000000000D+00  0.0000000000000D+00
401  4.0000000000000D+00  0.0000000000000D+00  0.0000000000000D+00
402  4.0100000000000D+00  0.0000000000000D+00  0.0000000000000D+00
403  4.0200000000000D+00  0.0000000000000D+00  0.0000000000000D+00
404  4.0300000000000D+00  0.0000000000000D+00  0.0000000000000D+00
405  4.0400000000000D+00  0.0000000000000D+00  0.0000000000000D+00
406  4.0500000000000D+00  0.0000000000000D+00  0.0000000000000D+00
407  4.0600000000000D+00  0.0000000000000D+00  0.0000000000000D+00
408  4.0700000000000D+00  0.0000000000000D+00  0.0000000000000D+00
409  4.0800000000000D+00  0.0000000000000D+00  0.0000000000000D+00
410  4.0900000000000D+00  0.0000000000000D+00  0.0000000000000D+00
411  4.1000000000000D+00  0.0000000000000D+00  0.0000000000000D+00
412  4.1100000000000D+00  0.0000000000000D+00  0.0000000000000D+00
413  4.1200000000000D+00  0.0000000000000D+00  0.0000000000000D+00
414  4.1300000000000D+00  0.0000000000000D+00  0.0000000000000D+00
415  4.1400000000000D+00  0.0000000000000D+00  0.0000000000000D+00
416  4.1500000000000D+00  0.0000000000000D+00  0.0000000000000D+00
417  4.1600000000000D+00  0.0000000000000D+00  0.0000000000000D+00
418  4.1700000000000D+00  0.0000000000000D+00  0.0000000000000D+00
419  4.1800000000000D+00  0.0000000000000D+00  0.0000000000000D+00
420  4.1900000000000D+00  0.0000000000000D+00  0.0000000000000D+00
421  4.2000000000000D+00  0.0000000000000D+00  0.0000000000000D+00
422  4.2100000000000D+00  0.0000000000000D+00  0.0000000000000D+00
423  4.2200000000000D+00  0.0000000000000D+00  0.0000000000000D+00
424  4.2300000000000D+00  0.0000000000000D+00  0.0000000000000D+00
425  4.2400000000000D+00  0.0000000000000D+00  0.0000000000000D+00
426  4.2500000000000D+00  0.0000000000000D+00  0.0000000000000D+00
427  4.2600000000000D+00  0.0000000000000D+00  0.0000000000000D+00
428  4.2700000000000D+00  0.0000000000000D+00  0.0000000000000D+00
429  4.2800000000000D+00  0.0000000000000D+00  0.0000000000000D+00
430  4.2900000000000D+00  0.0000000000000D+00  0.0000000000000D+00
431  4.3000000000000D+00  0.0000000000000D+00  0.0000000000000D+00
432  4.3100000000000D+00  0.0000000000000D+00  0.0000000000000D+00
433  4.3200000000000D+00  0.0000000000000D+00  0.0000000000000D+00
434  4.3300000000000D+00  0.0000000000000D+00  0.0000000000000D+00
435  4.3400000000000D+00  0.0000000000000D+00  0.0000000000000D+00
436  4.3500000000000D+00  0.0000000000000D+00  0.0000000000000D+00
437  4.3600000000000D+00  0.0000000000000D+00  0.0000000000000D+00
438  4.3700000000000D+00  0.0000000000000D+00  0.0000000000000D+00
439  4.3800000000000D+00  0.0000000000000D+00  0.0000000000000D+00
440  4.3900000000000D+00  0.0000000000000D+00  0.0000000000000D+00
441  4.4000000000000D+00  0.0000000000000D+00  0.0000000000000D+00
442  4.4100000000000D+00  0.0000000000000D+00  0.0000000000000D+00
443  4.4200000000000D+00  0.0000000000000D+00  0.0000000000000D+00