Ti    ONCVPSP-3.3.0  r_core=   1.35825   1.31050   1.66360
22.0000     12.0000      171102    zatom,zion,pspd
8   -1012   2     4   600     0    pspcod,pspxc,lmax,lloc,mmax,r2well
5.99000000  2.50000000  0.00000000    rchrg fchrg qchrg
2     2     2     0     0    nproj
1     1           extension_switch
0                         1.1277027884785D+01  1.2503963518848D+00
1  0.0000000000000D+00 -1.6506102040736D-09  5.4997111309518D-09
2  1.0000000000000D-02  8.9110091295706D-02 -4.5737992298886D-02
3  2.0000000000000D-02  1.7792150816072D-01 -9.1004107767966D-02
4  3.0000000000000D-02  2.6613767868461D-01 -1.3533214863311D-01
5  4.0000000000000D-02  3.5346620894103D-01 -1.7826718799965D-01
6  5.0000000000000D-02  4.3962090476892D-01 -2.1937098864530D-01
7  6.0000000000000D-02  5.2432371409762D-01 -2.5822716582581D-01
8  7.0000000000000D-02  6.0730656530485D-01 -2.9444601534205D-01
9  8.0000000000000D-02  6.8831307874680D-01 -3.2766893361734D-01
10  9.0000000000000D-02  7.6710013061192D-01 -3.5757236323675D-01
11  1.0000000000000D-01  8.4343925059013D-01 -3.8387120519861D-01
12  1.1000000000000D-01  9.1711783748042D-01 -4.0632164789196D-01
13  1.2000000000000D-01  9.8794017973748D-01 -4.2472337240045D-01
14  1.3000000000000D-01  1.0557282710360D+00 -4.3892110398466D-01
15  1.4000000000000D-01  1.1203224141584D+00 -4.4880549034185D-01
16  1.5000000000000D-01  1.1815816098368D+00 -4.5431329830910D-01
17  1.6000000000000D-01  1.2393837305426D+00 -4.5542693187834D-01
18  1.7000000000000D-01  1.2936254825730D+00 -4.5217328554553D-01
19  1.8000000000000D-01  1.3442221630639D+00 -4.4462195793618D-01
20  1.9000000000000D-01  1.3911072217170D+00 -4.3288286115348D-01
21  2.0000000000000D-01  1.4342316400182D+00 -4.1710327120899D-01
22  2.1000000000000D-01  1.4735631434752D+00 -3.9746437405257D-01
23  2.2000000000000D-01  1.5090852648977D+00 -3.7417736996421D-01
24  2.3000000000000D-01  1.5407962789118D+00 -3.4747920626640D-01
25  2.4000000000000D-01  1.5687080297292D+00 -3.1762801433853D-01
26  2.5000000000000D-01  1.5928446756358D+00 -2.8489833166078D-01
27  2.6000000000000D-01  1.6132413747040D+00 -2.4957619300196D-01
28  2.7000000000000D-01  1.6299429368514D+00 -2.1195417683112D-01
29  2.8000000000000D-01  1.6430024675511D+00 -1.7232649354056D-01
30  2.9000000000000D-01  1.6524800282461D+00 -1.3098420110365D-01
31  3.0000000000000D-01  1.6584413378297D+00 -8.8210631364536D-02
32  3.1000000000000D-01  1.6609565384444D+00 -4.4277106305573D-02
33  3.2000000000000D-01  1.6600990473333D+00  5.6098158234408D-04
34  3.3000000000000D-01  1.6559445145781D+00  4.6067657205805D-02
35  3.4000000000000D-01  1.6485699043147D+00  9.2029359118816D-02
36  3.5000000000000D-01  1.6380527144503D+00  1.3825739292896D-01
37  3.6000000000000D-01  1.6244703470842D+00  1.8458980033426D-01
38  3.7000000000000D-01  1.6078996387766D+00  2.3089261268264D-01
39  3.8000000000000D-01  1.5884165565925D+00  2.7706046895097D-01
40  3.9000000000000D-01  1.5660960625089D+00  3.2301658944558D-01
41  4.0000000000000D-01  1.5410121453785D+00  3.6871210814297D-01
42  4.1000000000000D-01  1.5132380162507D+00  4.1412477822210D-01
43  4.2000000000000D-01  1.4828464595116D+00  4.5925707678884D-01
44  4.3000000000000D-01  1.4499103290916D+00  5.0413374586324D-01
45  4.4000000000000D-01  1.4145031759439D+00  5.4879881720226D-01
46  4.5000000000000D-01  1.3766999901860D+00  5.9331217827758D-01
47  4.6000000000000D-01  1.3365780387627D+00  6.3774574554981D-01
48  4.7000000000000D-01  1.2942177772851D+00  6.8217931891970D-01
49  4.8000000000000D-01  1.2497038128621D+00  7.2669619775007D-01
50  4.9000000000000D-01  1.2031258933115D+00  7.7137864401743D-01
51  5.0000000000000D-01  1.1545798971389D+00  8.1630328187210D-01
52  5.1000000000000D-01  1.1041687981315D+00  8.6153652507803D-01
53  5.2000000000000D-01  1.0520035783454D+00  9.0713012441930D-01
54  5.3000000000000D-01  9.9820406367163D-01  9.5311692617117D-01
55  5.4000000000000D-01  9.4289965705094D-01  9.9950693014445D-01
56  5.5000000000000D-01  8.8622994576217D-01  1.0462837316360D+00
57  5.6000000000000D-01  8.2834516100859D-01  1.0934014259353D+00
58  5.7000000000000D-01  7.6940647025871D-01  1.1407820468922D+00
59  5.8000000000000D-01  7.0958608541603D-01  1.1883136025848D+00
60  5.9000000000000D-01  6.4906717286930D-01  1.2358487614366D+00
61  6.0000000000000D-01  5.8804355475254D-01  1.2832042313999D+00
62  6.1000000000000D-01  5.2671919428729D-01  1.3301608631686D+00
63  6.2000000000000D-01  4.6530746180246D-01  1.3764644960850D+00
64  6.3000000000000D-01  4.0403018191668D-01  1.4218275525134D+00
65  6.4000000000000D-01  3.4311646629472D-01  1.4659313733796D+00
66  6.5000000000000D-01  2.8280134035566D-01  1.5084292743315D+00
67  6.6000000000000D-01  2.2332417620269D-01  1.5489502889207D+00
68  6.7000000000000D-01  1.6492694779993D-01  1.5871035525534D+00
69  6.8000000000000D-01  1.0785232800724D-01  1.6224832688254D+00
70  6.9000000000000D-01  5.2341650395444D-02  1.6546741885781D+00
71  7.0000000000000D-01 -1.3672382315385D-03  1.6832575217064D+00
72  7.1000000000000D-01 -5.3042206061231D-02  1.7078171926789D+00
73  7.2000000000000D-01 -1.0245911447551D-01  1.7279463429254D+00
74  7.3000000000000D-01 -1.4940411373413D-01  1.7432539770442D+00
75  7.4000000000000D-01 -1.9367592239718D-01  1.7533716451486D+00
76  7.5000000000000D-01 -2.3508805603954D-01  1.7579600507869D+00
77  7.6000000000000D-01 -2.7347097065284D-01  1.7567154727825D+00
78  7.7000000000000D-01 -3.0867408653842D-01  1.7493758900929D+00
79  7.8000000000000D-01 -3.4056765946908D-01  1.7357267014025D+00
80  7.9000000000000D-01 -3.6904446742797D-01  1.7156059356076D+00
81  8.0000000000000D-01 -3.9402128330746D-01  1.6889088555904D+00
82  8.1000000000000D-01 -4.1544010654169D-01  1.6555918656241D+00
83  8.2000000000000D-01 -4.3326912971993D-01  1.6156756422978D+00
84  8.3000000000000D-01 -4.4750341974103D-01  1.5692474198630D+00
85  8.4000000000000D-01 -4.5816529697148D-01  1.5164623732183D+00
86  8.5000000000000D-01 -4.6530440010389D-01  1.4575440551806D+00
87  8.6000000000000D-01 -4.6899742891427D-01  1.3927838590397D+00
88  8.7000000000000D-01 -4.6934756181686D-01  1.3225394924202D+00
89  8.8000000000000D-01 -4.6648354994196D-01  1.2472324639630D+00
90  8.9000000000000D-01 -4.6055849433731D-01  1.1673446000230D+00
91  9.0000000000000D-01 -4.5174831774116D-01  1.0834136242122D+00
92  9.1000000000000D-01 -4.4024994711520D-01  9.9602784795064D-01
93  9.2000000000000D-01 -4.2627922768173D-01  9.0582003494974D-01
94  9.3000000000000D-01 -4.1006859350518D-01  8.1346051651409D-01
95  9.4000000000000D-01 -3.9186452362148D-01  7.1964964746007D-01
96  9.5000000000000D-01 -3.7192481628269D-01  6.2510970409507D-01
97  9.6000000000000D-01 -3.5051571698455D-01  5.3057633586958D-01
98  9.7000000000000D-01 -3.2790893854004D-01  4.3678969087002D-01
99  9.8000000000000D-01 -3.0437861344898D-01  3.4448534191588D-01
100  9.9000000000000D-01 -2.8019822027722D-01  2.5438514494660D-01
101  1.0000000000000D+00 -2.5563752651145D-01  1.6718816400543D-01
102  1.0100000000000D+00 -2.3095959049467D-01  8.3561797772019D-02
103  1.0200000000000D+00 -2.0641786452042D-01  4.1332410839045D-03
104  1.0300000000000D+00 -1.8225343998997D-01 -7.0518588717957D-02
105  1.0400000000000D+00 -1.5869247357625D-01 -1.3987053693685D-01
106  1.0500000000000D+00 -1.3594383116888D-01 -2.0346199133057D-01
107  1.0600000000000D+00 -1.1419698296469D-01 -2.6090085059748D-01
108  1.0700000000000D+00 -9.3620179694393D-02 -3.1186858632311D-01
109  1.0800000000000D+00 -7.4358935849462D-02 -3.5612431637074D-01
110  1.0900000000000D+00 -5.6534840864934D-02 -3.9350782344334D-01
111  1.1000000000000D+00 -4.0244715234669D-02 -4.2394146531515D-01
112  1.1100000000000D+00 -2.5560122161707D-02 -4.4743094372560D-01
113  1.1200000000000D+00 -1.2527240775825D-02 -4.6406491364216D-01
114  1.1300000000000D+00 -1.1671007350670D-03 -4.7401343462102D-01
115  1.1400000000000D+00  8.5238266722242D-03 -4.7752528114511D-01
116  1.1500000000000D+00  1.6572692211012D-02 -4.7492414947091D-01
117  1.1600000000000D+00  2.3029003562317D-02 -4.6660381500194D-01
118  1.1700000000000D+00  2.7963053326388D-02 -4.5302231218404D-01
119  1.1800000000000D+00  3.1464065779269D-02 -4.3469522070970D-01
120  1.1900000000000D+00  3.3638094254995D-02 -4.1218816203964D-01
121  1.2000000000000D+00  3.4605704163808D-02 -3.8610862039052D-01
122  1.2100000000000D+00  3.4499480190002D-02 -3.5709721374948D-01
123  1.2200000000000D+00  3.3461399138697D-02 -3.2581854993044D-01
124  1.2300000000000D+00  3.1640113081997D-02 -2.9295181295684D-01
125  1.2400000000000D+00  2.9188188043815D-02 -2.5918122693433D-01
126  1.2500000000000D+00  2.6259344988568D-02 -2.2518654951226D-01
127  1.2600000000000D+00  2.3005750619241D-02 -1.9163374937337D-01
128  1.2700000000000D+00  1.9575406408450D-02 -1.5916602625072D-01
129  1.2800000000000D+00  1.6109663942863D-02 -1.2839525768140D-01
130  1.2900000000000D+00  1.2740977486840D-02 -9.9894257783417D-02
131  1.3000000000000D+00  9.5906578434040D-03 -7.4188984426041D-02
132  1.3100000000000D+00  6.7676376120821D-03 -5.1754321050812D-02
133  1.3200000000000D+00  4.3677616952571D-03 -3.3018117264955D-02
134  1.3300000000000D+00  2.4535283389103D-03 -1.8231990035108D-02
135  1.3400000000000D+00  1.1006673588889D-03 -7.8030304548249D-03
136  1.3500000000000D+00  3.8000051659014D-04 -2.1556244082951D-03
137  1.3600000000000D+00  1.0506139685857D-04 -1.4303036460344D-04
138  1.3700000000000D+00  1.3405070017058D-05  9.0027702644857D-05
139  1.3800000000000D+00 -2.9492269649228D-06 -5.2244326862703D-05
140  1.3900000000000D+00 -2.3397630884132D-07 -1.0350815322484D-05
141  1.4000000000000D+00  1.0684467296538D-06  8.7886576304414D-06
142  1.4100000000000D+00 -1.7967936881138D-07  4.2536822784392D-07
143  1.4200000000000D+00 -2.7944632707678D-07  6.6155390968075D-07
144  1.4300000000000D+00  0.0000000000000D+00  0.0000000000000D+00
145  1.4400000000000D+00  0.0000000000000D+00  0.0000000000000D+00
146  1.4500000000000D+00  0.0000000000000D+00  0.0000000000000D+00
147  1.4600000000000D+00  0.0000000000000D+00  0.0000000000000D+00
148  1.4700000000000D+00  0.0000000000000D+00  0.0000000000000D+00
149  1.4800000000000D+00  0.0000000000000D+00  0.0000000000000D+00
150  1.4900000000000D+00  0.0000000000000D+00  0.0000000000000D+00
151  1.5000000000000D+00  0.0000000000000D+00  0.0000000000000D+00
152  1.5100000000000D+00  0.0000000000000D+00  0.0000000000000D+00
153  1.5200000000000D+00  0.0000000000000D+00  0.0000000000000D+00
154  1.5300000000000D+00  0.0000000000000D+00  0.0000000000000D+00
155  1.5400000000000D+00  0.0000000000000D+00  0.0000000000000D+00
156  1.5500000000000D+00  0.0000000000000D+00  0.0000000000000D+00
157  1.5600000000000D+00  0.0000000000000D+00  0.0000000000000D+00
158  1.5700000000000D+00  0.0000000000000D+00  0.0000000000000D+00
159  1.5800000000000D+00  0.0000000000000D+00  0.0000000000000D+00
160  1.5900000000000D+00  0.0000000000000D+00  0.0000000000000D+00
161  1.6000000000000D+00  0.0000000000000D+00  0.0000000000000D+00
162  1.6100000000000D+00  0.0000000000000D+00  0.0000000000000D+00
163  1.6200000000000D+00  0.0000000000000D+00  0.0000000000000D+00
164  1.6300000000000D+00  0.0000000000000D+00  0.0000000000000D+00
165  1.6400000000000D+00  0.0000000000000D+00  0.0000000000000D+00
166  1.6500000000000D+00  0.0000000000000D+00  0.0000000000000D+00
167  1.6600000000000D+00  0.0000000000000D+00  0.0000000000000D+00
168  1.6700000000000D+00  0.0000000000000D+00  0.0000000000000D+00
169  1.6800000000000D+00  0.0000000000000D+00  0.0000000000000D+00
170  1.6900000000000D+00  0.0000000000000D+00  0.0000000000000D+00
171  1.7000000000000D+00  0.0000000000000D+00  0.0000000000000D+00
172  1.7100000000000D+00  0.0000000000000D+00  0.0000000000000D+00
173  1.7200000000000D+00  0.0000000000000D+00  0.0000000000000D+00
174  1.7300000000000D+00  0.0000000000000D+00  0.0000000000000D+00
175  1.7400000000000D+00  0.0000000000000D+00  0.0000000000000D+00
176  1.7500000000000D+00  0.0000000000000D+00  0.0000000000000D+00
177  1.7600000000000D+00  0.0000000000000D+00  0.0000000000000D+00
178  1.7700000000000D+00  0.0000000000000D+00  0.0000000000000D+00
179  1.7800000000000D+00  0.0000000000000D+00  0.0000000000000D+00
180  1.7900000000000D+00  0.0000000000000D+00  0.0000000000000D+00
181  1.8000000000000D+00  0.0000000000000D+00  0.0000000000000D+00
182  1.8100000000000D+00  0.0000000000000D+00  0.0000000000000D+00
183  1.8200000000000D+00  0.0000000000000D+00  0.0000000000000D+00
184  1.8300000000000D+00  0.0000000000000D+00  0.0000000000000D+00
185  1.8400000000000D+00  0.0000000000000D+00  0.0000000000000D+00
186  1.8500000000000D+00  0.0000000000000D+00  0.0000000000000D+00
187  1.8600000000000D+00  0.0000000000000D+00  0.0000000000000D+00
188  1.8700000000000D+00  0.0000000000000D+00  0.0000000000000D+00
189  1.8800000000000D+00  0.0000000000000D+00  0.0000000000000D+00
190  1.8900000000000D+00  0.0000000000000D+00  0.0000000000000D+00
191  1.9000000000000D+00  0.0000000000000D+00  0.0000000000000D+00
192  1.9100000000000D+00  0.0000000000000D+00  0.0000000000000D+00
193  1.9200000000000D+00  0.0000000000000D+00  0.0000000000000D+00
194  1.9300000000000D+00  0.0000000000000D+00  0.0000000000000D+00
195  1.9400000000000D+00  0.0000000000000D+00  0.0000000000000D+00
196  1.9500000000000D+00  0.0000000000000D+00  0.0000000000000D+00
197  1.9600000000000D+00  0.0000000000000D+00  0.0000000000000D+00
198  1.9700000000000D+00  0.0000000000000D+00  0.0000000000000D+00
199  1.9800000000000D+00  0.0000000000000D+00  0.0000000000000D+00
200  1.9900000000000D+00  0.0000000000000D+00  0.0000000000000D+00
201  2.0000000000000D+00  0.0000000000000D+00  0.0000000000000D+00
202  2.0100000000000D+00  0.0000000000000D+00  0.0000000000000D+00
203  2.0200000000000D+00  0.0000000000000D+00  0.0000000000000D+00
204  2.0300000000000D+00  0.0000000000000D+00  0.0000000000000D+00
205  2.0400000000000D+00  0.0000000000000D+00  0.0000000000000D+00
206  2.0500000000000D+00  0.0000000000000D+00  0.0000000000000D+00
207  2.0600000000000D+00  0.0000000000000D+00  0.0000000000000D+00
208  2.0700000000000D+00  0.0000000000000D+00  0.0000000000000D+00
209  2.0800000000000D+00  0.0000000000000D+00  0.0000000000000D+00
210  2.0900000000000D+00  0.0000000000000D+00  0.0000000000000D+00
211  2.1000000000000D+00  0.0000000000000D+00  0.0000000000000D+00
212  2.1100000000000D+00  0.0000000000000D+00  0.0000000000000D+00
213  2.1200000000000D+00  0.0000000000000D+00  0.0000000000000D+00
214  2.1300000000000D+00  0.0000000000000D+00  0.0000000000000D+00
215  2.1400000000000D+00  0.0000000000000D+00  0.0000000000000D+00
216  2.1500000000000D+00  0.0000000000000D+00  0.0000000000000D+00
217  2.1600000000000D+00  0.0000000000000D+00  0.0000000000000D+00
218  2.1700000000000D+00  0.0000000000000D+00  0.0000000000000D+00
219  2.1800000000000D+00  0.0000000000000D+00  0.0000000000000D+00
220  2.1900000000000D+00  0.0000000000000D+00  0.0000000000000D+00
221  2.2000000000000D+00  0.0000000000000D+00  0.0000000000000D+00
222  2.2100000000000D+00  0.0000000000000D+00  0.0000000000000D+00
223  2.2200000000000D+00  0.0000000000000D+00  0.0000000000000D+00
224  2.2300000000000D+00  0.0000000000000D+00  0.0000000000000D+00
225  2.2400000000000D+00  0.0000000000000D+00  0.0000000000000D+00
226  2.2500000000000D+00  0.0000000000000D+00  0.0000000000000D+00
227  2.2600000000000D+00  0.0000000000000D+00  0.0000000000000D+00
228  2.2700000000000D+00  0.0000000000000D+00  0.0000000000000D+00
229  2.2800000000000D+00  0.0000000000000D+00  0.0000000000000D+00
230  2.2900000000000D+00  0.0000000000000D+00  0.0000000000000D+00
231  2.3000000000000D+00  0.0000000000000D+00  0.0000000000000D+00
232  2.3100000000000D+00  0.0000000000000D+00  0.0000000000000D+00
233  2.3200000000000D+00  0.0000000000000D+00  0.0000000000000D+00
234  2.3300000000000D+00  0.0000000000000D+00  0.0000000000000D+00
235  2.3400000000000D+00  0.0000000000000D+00  0.0000000000000D+00
236  2.3500000000000D+00  0.0000000000000D+00  0.0000000000000D+00
237  2.3600000000000D+00  0.0000000000000D+00  0.0000000000000D+00
238  2.3700000000000D+00  0.0000000000000D+00  0.0000000000000D+00
239  2.3800000000000D+00  0.0000000000000D+00  0.0000000000000D+00
240  2.3900000000000D+00  0.0000000000000D+00  0.0000000000000D+00
241  2.4000000000000D+00  0.0000000000000D+00  0.0000000000000D+00
242  2.4100000000000D+00  0.0000000000000D+00  0.0000000000000D+00
243  2.4200000000000D+00  0.0000000000000D+00  0.0000000000000D+00
244  2.4300000000000D+00  0.0000000000000D+00  0.0000000000000D+00
245  2.4400000000000D+00  0.0000000000000D+00  0.0000000000000D+00
246  2.4500000000000D+00  0.0000000000000D+00  0.0000000000000D+00
247  2.4600000000000D+00  0.0000000000000D+00  0.0000000000000D+00
248  2.4700000000000D+00  0.0000000000000D+00  0.0000000000000D+00
249  2.4800000000000D+00  0.0000000000000D+00  0.0000000000000D+00
250  2.4900000000000D+00  0.0000000000000D+00  0.0000000000000D+00
251  2.5000000000000D+00  0.0000000000000D+00  0.0000000000000D+00
252  2.5100000000000D+00  0.0000000000000D+00  0.0000000000000D+00
253  2.5200000000000D+00  0.0000000000000D+00  0.0000000000000D+00
254  2.5300000000000D+00  0.0000000000000D+00  0.0000000000000D+00
255  2.5400000000000D+00  0.0000000000000D+00  0.0000000000000D+00
256  2.5500000000000D+00  0.0000000000000D+00  0.0000000000000D+00
257  2.5600000000000D+00  0.0000000000000D+00  0.0000000000000D+00
258  2.5700000000000D+00  0.0000000000000D+00  0.0000000000000D+00
259  2.5800000000000D+00  0.0000000000000D+00  0.0000000000000D+00
260  2.5900000000000D+00  0.0000000000000D+00  0.0000000000000D+00
261  2.6000000000000D+00  0.0000000000000D+00  0.0000000000000D+00
262  2.6100000000000D+00  0.0000000000000D+00  0.0000000000000D+00
263  2.6200000000000D+00  0.0000000000000D+00  0.0000000000000D+00
264  2.6300000000000D+00  0.0000000000000D+00  0.0000000000000D+00
265  2.6400000000000D+00  0.0000000000000D+00  0.0000000000000D+00
266  2.6500000000000D+00  0.0000000000000D+00  0.0000000000000D+00
267  2.6600000000000D+00  0.0000000000000D+00  0.0000000000000D+00
268  2.6700000000000D+00  0.0000000000000D+00  0.0000000000000D+00
269  2.6800000000000D+00  0.0000000000000D+00  0.0000000000000D+00
270  2.6900000000000D+00  0.0000000000000D+00  0.0000000000000D+00
271  2.7000000000000D+00  0.0000000000000D+00  0.0000000000000D+00
272  2.7100000000000D+00  0.0000000000000D+00  0.0000000000000D+00
273  2.7200000000000D+00  0.0000000000000D+00  0.0000000000000D+00
274  2.7300000000000D+00  0.0000000000000D+00  0.0000000000000D+00
275  2.7400000000000D+00  0.0000000000000D+00  0.0000000000000D+00
276  2.7500000000000D+00  0.0000000000000D+00  0.0000000000000D+00
277  2.7600000000000D+00  0.0000000000000D+00  0.0000000000000D+00
278  2.7700000000000D+00  0.0000000000000D+00  0.0000000000000D+00
279  2.7800000000000D+00  0.0000000000000D+00  0.0000000000000D+00
280  2.7900000000000D+00  0.0000000000000D+00  0.0000000000000D+00
281  2.8000000000000D+00  0.0000000000000D+00  0.0000000000000D+00
282  2.8100000000000D+00  0.0000000000000D+00  0.0000000000000D+00
283  2.8200000000000D+00  0.0000000000000D+00  0.0000000000000D+00
284  2.8300000000000D+00  0.0000000000000D+00  0.0000000000000D+00
285  2.8400000000000D+00  0.0000000000000D+00  0.0000000000000D+00
286  2.8500000000000D+00  0.0000000000000D+00  0.0000000000000D+00
287  2.8600000000000D+00  0.0000000000000D+00  0.0000000000000D+00
288  2.8700000000000D+00  0.0000000000000D+00  0.0000000000000D+00
289  2.8800000000000D+00  0.0000000000000D+00  0.0000000000000D+00
290  2.8900000000000D+00  0.0000000000000D+00  0.0000000000000D+00
291  2.9000000000000D+00  0.0000000000000D+00  0.0000000000000D+00
292  2.9100000000000D+00  0.0000000000000D+00  0.0000000000000D+00
293  2.9200000000000D+00  0.0000000000000D+00  0.0000000000000D+00
294  2.9300000000000D+00  0.0000000000000D+00  0.0000000000000D+00
295  2.9400000000000D+00  0.0000000000000D+00  0.0000000000000D+00
296  2.9500000000000D+00  0.0000000000000D+00  0.0000000000000D+00
297  2.9600000000000D+00  0.0000000000000D+00  0.0000000000000D+00
298  2.9700000000000D+00  0.0000000000000D+00  0.0000000000000D+00
299  2.9800000000000D+00  0.0000000000000D+00  0.0000000000000D+00
300  2.9900000000000D+00  0.0000000000000D+00  0.0000000000000D+00
301  3.0000000000000D+00  0.0000000000000D+00  0.0000000000000D+00
302  3.0100000000000D+00  0.0000000000000D+00  0.0000000000000D+00
303  3.0200000000000D+00  0.0000000000000D+00  0.0000000000000D+00
304  3.0300000000000D+00  0.0000000000000D+00  0.0000000000000D+00
305  3.0400000000000D+00  0.0000000000000D+00  0.0000000000000D+00
306  3.0500000000000D+00  0.0000000000000D+00  0.0000000000000D+00
307  3.0600000000000D+00  0.0000000000000D+00  0.0000000000000D+00
308  3.0700000000000D+00  0.0000000000000D+00  0.0000000000000D+00
309  3.0800000000000D+00  0.0000000000000D+00  0.0000000000000D+00
310  3.0900000000000D+00  0.0000000000000D+00  0.0000000000000D+00
311  3.1000000000000D+00  0.0000000000000D+00  0.0000000000000D+00
312  3.1100000000000D+00  0.0000000000000D+00  0.0000000000000D+00
313  3.1200000000000D+00  0.0000000000000D+00  0.0000000000000D+00
314  3.1300000000000D+00  0.0000000000000D+00  0.0000000000000D+00
315  3.1400000000000D+00  0.0000000000000D+00  0.0000000000000D+00
316  3.1500000000000D+00  0.0000000000000D+00  0.0000000000000D+00
317  3.1600000000000D+00  0.0000000000000D+00  0.0000000000000D+00
318  3.1700000000000D+00  0.0000000000000D+00  0.0000000000000D+00
319  3.1800000000000D+00  0.0000000000000D+00  0.0000000000000D+00
320  3.1900000000000D+00  0.0000000000000D+00  0.0000000000000D+00
321  3.2000000000000D+00  0.0000000000000D+00  0.0000000000000D+00
322  3.2100000000000D+00  0.0000000000000D+00  0.0000000000000D+00
323  3.2200000000000D+00  0.0000000000000D+00  0.0000000000000D+00
324  3.2300000000000D+00  0.0000000000000D+00  0.0000000000000D+00
325  3.2400000000000D+00  0.0000000000000D+00  0.0000000000000D+00
326  3.2500000000000D+00  0.0000000000000D+00  0.0000000000000D+00
327  3.2600000000000D+00  0.0000000000000D+00  0.0000000000000D+00
328  3.2700000000000D+00  0.0000000000000D+00  0.0000000000000D+00
329  3.2800000000000D+00  0.0000000000000D+00  0.0000000000000D+00
330  3.2900000000000D+00  0.0000000000000D+00  0.0000000000000D+00
331  3.3000000000000D+00  0.0000000000000D+00  0.0000000000000D+00
332  3.3100000000000D+00  0.0000000000000D+00  0.0000000000000D+00
333  3.3200000000000D+00  0.0000000000000D+00  0.0000000000000D+00
334  3.3300000000000D+00  0.0000000000000D+00  0.0000000000000D+00
335  3.3400000000000D+00  0.0000000000000D+00  0.0000000000000D+00
336  3.3500000000000D+00  0.0000000000000D+00  0.0000000000000D+00
337  3.3600000000000D+00  0.0000000000000D+00  0.0000000000000D+00
338  3.3700000000000D+00  0.0000000000000D+00  0.0000000000000D+00
339  3.3800000000000D+00  0.0000000000000D+00  0.0000000000000D+00
340  3.3900000000000D+00  0.0000000000000D+00  0.0000000000000D+00
341  3.4000000000000D+00  0.0000000000000D+00  0.0000000000000D+00
342  3.4100000000000D+00  0.0000000000000D+00  0.0000000000000D+00
343  3.4200000000000D+00  0.0000000000000D+00  0.0000000000000D+00
344  3.4300000000000D+00  0.0000000000000D+00  0.0000000000000D+00
345  3.4400000000000D+00  0.0000000000000D+00  0.0000000000000D+00
346  3.4500000000000D+00  0.0000000000000D+00  0.0000000000000D+00
347  3.4600000000000D+00  0.0000000000000D+00  0.0000000000000D+00
348  3.4700000000000D+00  0.0000000000000D+00  0.0000000000000D+00
349  3.4800000000000D+00  0.0000000000000D+00  0.0000000000000D+00
350  3.4900000000000D+00  0.0000000000000D+00  0.0000000000000D+00
351  3.5000000000000D+00  0.0000000000000D+00  0.0000000000000D+00
352  3.5100000000000D+00  0.0000000000000D+00  0.0000000000000D+00
353  3.5200000000000D+00  0.0000000000000D+00  0.0000000000000D+00
354  3.5300000000000D+00  0.0000000000000D+00  0.0000000000000D+00
355  3.5400000000000D+00  0.0000000000000D+00  0.0000000000000D+00
356  3.5500000000000D+00  0.0000000000000D+00  0.0000000000000D+00
357  3.5600000000000D+00  0.0000000000000D+00  0.0000000000000D+00
358  3.5700000000000D+00  0.0000000000000D+00  0.0000000000000D+00
359  3.5800000000000D+00  0.0000000000000D+00  0.0000000000000D+00
360  3.5900000000000D+00  0.0000000000000D+00  0.0000000000000D+00
361  3.6000000000000D+00  0.0000000000000D+00  0.0000000000000D+00
362  3.6100000000000D+00  0.0000000000000D+00  0.0000000000000D+00
363  3.6200000000000D+00  0.0000000000000D+00  0.0000000000000D+00
364  3.6300000000000D+00  0.0000000000000D+00  0.0000000000000D+00
365  3.6400000000000D+00  0.0000000000000D+00  0.0000000000000D+00
366  3.6500000000000D+00  0.0000000000000D+00  0.0000000000000D+00
367  3.6600000000000D+00  0.0000000000000D+00  0.0000000000000D+00
368  3.6700000000000D+00  0.0000000000000D+00  0.0000000000000D+00
369  3.6800000000000D+00  0.0000000000000D+00  0.0000000000000D+00
370  3.6900000000000D+00  0.0000000000000D+00  0.0000000000000D+00
371  3.7000000000000D+00  0.0000000000000D+00  0.0000000000000D+00
372  3.7100000000000D+00  0.0000000000000D+00  0.0000000000000D+00
373  3.7200000000000D+00  0.0000000000000D+00  0.0000000000000D+00
374  3.7300000000000D+00  0.0000000000000D+00  0.0000000000000D+00
375  3.7400000000000D+00  0.0000000000000D+00  0.0000000000000D+00
376  3.7500000000000D+00  0.0000000000000D+00  0.0000000000000D+00
377  3.7600000000000D+00  0.0000000000000D+00  0.0000000000000D+00
378  3.7700000000000D+00  0.0000000000000D+00  0.0000000000000D+00
379  3.7800000000000D+00  0.0000000000000D+00  0.0000000000000D+00
380  3.7900000000000D+00  0.0000000000000D+00  0.0000000000000D+00
381  3.8000000000000D+00  0.0000000000000D+00  0.0000000000000D+00
382  3.8100000000000D+00  0.0000000000000D+00  0.0000000000000D+00
383  3.8200000000000D+00  0.0000000000000D+00  0.0000000000000D+00
384  3.8300000000000D+00  0.0000000000000D+00  0.0000000000000D+00
385  3.8400000000000D+00  0.0000000000000D+00  0.0000000000000D+00
386  3.8500000000000D+00  0.0000000000000D+00  0.0000000000000D+00
387  3.8600000000000D+00  0.0000000000000D+00  0.0000000000000D+00
388  3.8700000000000D+00  0.0000000000000D+00  0.0000000000000D+00
389  3.8800000000000D+00  0.0000000000000D+00  0.0000000000000D+00
390  3.8900000000000D+00  0.0000000000000D+00  0.0000000000000D+00
391  3.9000000000000D+00  0.0000000000000D+00  0.0000000000000D+00
392  3.9100000000000D+00  0.0000000000000D+00  0.0000000000000D+00
393  3.9200000000000D+00  0.0000000000000D+00  0.0000000000000D+00
394  3.9300000000000D+00  0.0000000000000D+00  0.0000000000000D+00
395  3.9400000000000D+00  0.0000000000000D+00  0.0000000000000D+00
396  3.9500000000000D+00  0.0000000000000D+00  0.0000000000000D+00
397  3.9600000000000D+00  0.0000000000000D+00  0.0000000000000D+00
398  3.9700000000000D+00  0.0000000000000D+00  0.0000000000000D+00
399  3.9800000000000D+00  0.0000000000000D+00  0.0000000000000D+00
400  3.9900000000000D+00  0.0000000000000D+00  0.0000000000000D+00
401  4.0000000000000D+00  0.0000000000000D+00  0.0000000000000D+00
402  4.0100000000000D+00  0.0000000000000D+00  0.0000000000000D+00
403  4.0200000000000D+00  0.0000000000000D+00  0.0000000000000D+00
404  4.0300000000000D+00  0.0000000000000D+00  0.0000000000000D+00
405  4.0400000000000D+00  0.0000000000000D+00  0.0000000000000D+00
406  4.0500000000000D+00  0.0000000000000D+00  0.0000000000000D+00
407  4.0600000000000D+00  0.0000000000000D+00  0.0000000000000D+00
408  4.0700000000000D+00  0.0000000000000D+00  0.0000000000000D+00
409  4.0800000000000D+00  0.0000000000000D+00  0.0000000000000D+00
410  4.0900000000000D+00  0.0000000000000D+00  0.0000000000000D+00
411  4.1000000000000D+00  0.0000000000000D+00  0.0000000000000D+00
412  4.1100000000000D+00  0.0000000000000D+00  0.0000000000000D+00
413  4.1200000000000D+00  0.0000000000000D+00  0.0000000000000D+00
414  4.1300000000000D+00  0.0000000000000D+00  0.0000000000000D+00
415  4.1400000000000D+00  0.0000000000000D+00  0.0000000000000D+00
416  4.1500000000000D+00  0.0000000000000D+00  0.0000000000000D+00
417  4.1600000000000D+00  0.0000000000000D+00  0.0000000000000D+00
418  4.1700000000000D+00  0.0000000000000D+00  0.0000000000000D+00
419  4.1800000000000D+00  0.0000000000000D+00  0.0000000000000D+00
420  4.1900000000000D+00  0.0000000000000D+00  0.0000000000000D+00
421  4.2000000000000D+00  0.0000000000000D+00  0.0000000000000D+00
422  4.2100000000000D+00  0.0000000000000D+00  0.0000000000000D+00
423  4.2200000000000D+00  0.0000000000000D+00  0.0000000000000D+00
424  4.2300000000000D+00  0.0000000000000D+00  0.0000000000000D+00
425  4.2400000000000D+00  0.0000000000000D+00  0.0000000000000D+00
426  4.2500000000000D+00  0.0000000000000D+00  0.0000000000000D+00
427  4.2600000000000D+00  0.0000000000000D+00  0.0000000000000D+00
428  4.2700000000000D+00  0.0000000000000D+00  0.0000000000000D+00
429  4.2800000000000D+00  0.0000000000000D+00  0.0000000000000D+00
430  4.2900000000000D+00  0.0000000000000D+00  0.0000000000000D+00
431  4.3000000000000D+00  0.0000000000000D+00  0.0000000000000D+00
432  4.3100000000000D+00  0.0000000000000D+00  0.0000000000000D+00
433  4.3200000000000D+00  0.0000000000000D+00  0.0000000000000D+00
434  4.3300000000000D+00  0.0000000000000D+00  0.0000000000000D+00
435  4.3400000000000D+00  0.0000000000000D+00  0.0000000000000D+00
436  4.3500000000000D+00  0.0000000000000D+00  0.0000000000000D+00
437  4.3600000000000D+00  0.0000000000000D+00  0.0000000000000D+00
438  4.3700000000000D+00  0.0000000000000D+00  0.0000000000000D+00
439  4.3800000000000D+00  0.0000000000000D+00  0.0000000000000D+00
440  4.3900000000000D+00  0.0000000000000D+00  0.0000000000000D+00
441  4.4000000000000D+00  0.0000000000000D+00  0.0000000000000D+00
442  4.4100000000000D+00  0.0000000000000D+00  0.0000000000000D+00
443  4.4200000000000D+00  0.0000000000000D+00  0.0000000000000D+00