
.Version 10.3.6.6 of ABINIT, released Feb 2025.
.(MPI version, prepared for a x86_64_linux_gnu9.1 computer) 

.Copyright (C) 1998-2025 ABINIT group . 
 ABINIT comes with ABSOLUTELY NO WARRANTY.
 It is free software, and you are welcome to redistribute it
 under certain conditions (GNU General Public License,
 see ~abinit/COPYING or http://www.gnu.org/copyleft/gpl.txt).

 ABINIT is a project of the Universite Catholique de Louvain,
 Corning Inc. and other collaborators, see ~abinit/doc/developers/contributors.txt .
 Please read https://docs.abinit.org/theory/acknowledgments for suggested
 acknowledgments of the ABINIT effort.
 For more information, see https://www.abinit.org .

.Starting date : Wed 12 Mar 2025.
- ( at 17h40 )
  
- input  file    -> /tmp/abinit/opt/Test_suite/rttddft_t01/t01.abi
- output file    -> t01.abo
- root for input  files -> t01i
- root for output files -> t01o

- inpspheads : Reading pseudopotential header in XML form from 
-   /cea/home/abinit/abinit/REPOSITORY/BRIEUC/abinit/gitlab/tests/Pspdir/Psdj_paw_pbe_std/Ni.xml
 DATASET    1 : the unit cell is not primitive
================================================================================
 Values of the parameters that define the memory need for DATASET  1.
     intxc =       0    ionmov =       0      iscf =      17    lmnmax =      18
     lnmax =       6     mgfft =      27  mpssoang =       3    mqgrid =    3001
     natom =       4  nloc_mem =       2    nspden =       1   nspinor =       1
    nsppol =       1      nsym =     192    n1xccc =       1    ntypat =       1
    occopt =       3   xclevel =       2
-    mband =          48        mffmem =           1         mkmem =           1
       mpw =        1108          nfft =       19683          nkpt =           4
Pmy_natom=         1
 PAW method is used; the additional fine FFT grid is defined by:
   mgfftf=        32    nfftf =     32768
================================================================================
P This job should need less than                      14.650 Mbytes of memory.
  Rough estimation (10% accuracy) of disk space for files :
_ WF disk file :      3.248 Mbytes ; DEN or POT disk file :      0.252 Mbytes.
================================================================================

 DATASET    2 : the unit cell is not primitive
================================================================================
 Values of the parameters that define the memory need for DATASET  2.
     intxc =       0    ionmov =       0      iscf =      17    lmnmax =      18
     lnmax =       6     mgfft =      27  mpssoang =       3    mqgrid =    3001
     natom =       4  nloc_mem =       2    nspden =       1   nspinor =       1
    nsppol =       1      nsym =     192    n1xccc =       1    ntypat =       1
    occopt =       3   xclevel =       2
-    mband =          48        mffmem =           1         mkmem =           1
       mpw =        1108          nfft =       19683          nkpt =           4
 PAW method is used; the additional fine FFT grid is defined by:
   mgfftf=        32    nfftf =     32768
================================================================================
P This job should need less than                      16.021 Mbytes of memory.
  Rough estimation (10% accuracy) of disk space for files :
_ WF disk file :      3.248 Mbytes ; DEN or POT disk file :      0.252 Mbytes.
================================================================================

 DATASET    3 : the unit cell is not primitive
================================================================================
 Values of the parameters that define the memory need for DATASET  3.
     intxc =       0    ionmov =       0      iscf =      17    lmnmax =      18
     lnmax =       6     mgfft =      27  mpssoang =       3    mqgrid =    3001
     natom =       4  nloc_mem =       2    nspden =       1   nspinor =       1
    nsppol =       1      nsym =     192    n1xccc =       1    ntypat =       1
    occopt =       3   xclevel =       2
-    mband =          48        mffmem =           1         mkmem =           1
       mpw =        1108          nfft =       19683          nkpt =           4
 PAW method is used; the additional fine FFT grid is defined by:
   mgfftf=        32    nfftf =     32768
================================================================================
P This job should need less than                      16.021 Mbytes of memory.
  Rough estimation (10% accuracy) of disk space for files :
_ WF disk file :      3.248 Mbytes ; DEN or POT disk file :      0.252 Mbytes.
================================================================================

--------------------------------------------------------------------------------
------------- Echo of variables that govern the present computation ------------
--------------------------------------------------------------------------------
-
- outvars: echo of selected default values
-   iomode0 =  0 , fftalg0 =512 , wfoptalg0 = 10
-
- outvars: echo of global parameters not present in the input file
-  max_nthreads =    1
-
 -outvars: echo values of preprocessed input variables --------
            acell      6.3324722713E+00  6.3324722713E+00  6.3324722713E+00 Bohr
              amu      5.86900000E+01
           bandpp1          1
           bandpp2         48
           bandpp3         48
          chkprim           0
            dtele      1.00000000E-02
             ecut      2.00000000E+01 Hartree
-          fftalg         512
           getwfk1          0
           getwfk2          1
           getwfk3          1
           istwfk        1    1    1    1
              ixc     -101130
           jdtset        1    2    3
              kpt      0.00000000E+00  0.00000000E+00  0.00000000E+00
                       5.00000000E-01  0.00000000E+00  0.00000000E+00
                       5.00000000E-01  5.00000000E-01  0.00000000E+00
                       5.00000000E-01  5.00000000E-01  5.00000000E-01
         kptrlatt        2    0    0      0    2    0      0    0    2
          kptrlen      1.26649445E+01
P           mkmem           1
            natom           4
            nband          48
           ndtset           3
            ngfft          27      27      27
          ngfftdg          32      32      32
             nkpt           4
            nstep          50
             nsym         192
            ntime          10
           ntypat           1
              occ      2.000000  2.000000  2.000000  2.000000  2.000000  2.000000
                       2.000000  2.000000  2.000000  2.000000  2.000000  2.000000
                       2.000000  2.000000  2.000000  2.000000  2.000000  2.000000
                       2.000000  2.000000  2.000000  2.000000  2.000000  2.000000
                       2.000000  2.000000  2.000000  2.000000  2.000000  2.000000
                       2.000000  2.000000  2.000000  2.000000  2.000000  2.000000
                       0.000000  0.000000  0.000000  0.000000  0.000000  0.000000
                       0.000000  0.000000  0.000000  0.000000  0.000000  0.000000
                       2.000000  2.000000  2.000000  2.000000  2.000000  2.000000
                       2.000000  2.000000  2.000000  2.000000  2.000000  2.000000
                       2.000000  2.000000  2.000000  2.000000  2.000000  2.000000
                       2.000000  2.000000  2.000000  2.000000  2.000000  2.000000
                       2.000000  2.000000  2.000000  2.000000  2.000000  2.000000
                       2.000000  2.000000  2.000000  2.000000  2.000000  2.000000
                       0.000000  0.000000  0.000000  0.000000  0.000000  0.000000
                       0.000000  0.000000  0.000000  0.000000  0.000000  0.000000
                       2.000000  2.000000  2.000000  2.000000  2.000000  2.000000
                       2.000000  2.000000  2.000000  2.000000  2.000000  2.000000
                       2.000000  2.000000  2.000000  2.000000  2.000000  2.000000
                       2.000000  2.000000  2.000000  2.000000  2.000000  2.000000
                       2.000000  2.000000  2.000000  2.000000  2.000000  2.000000
                       2.000000  2.000000  2.000000  2.000000  2.000000  2.000000
                       0.000000  0.000000  0.000000  0.000000  0.000000  0.000000
                       0.000000  0.000000  0.000000  0.000000  0.000000  0.000000
                       2.000000  2.000000  2.000000  2.000000  2.000000  2.000000
                       2.000000  2.000000  2.000000  2.000000  2.000000  2.000000
                       2.000000  2.000000  2.000000  2.000000  2.000000  2.000000
                       2.000000  2.000000  2.000000  2.000000  2.000000  2.000000
                       2.000000  2.000000  2.000000  2.000000  2.000000  2.000000
                       2.000000  2.000000  2.000000  2.000000  2.000000  2.000000
                       0.000000  0.000000  0.000000  0.000000  0.000000  0.000000
                       0.000000  0.000000  0.000000  0.000000  0.000000  0.000000
           occopt           3
        optdriver1          0
        optdriver2          9
        optdriver3          9
-      paral_atom1          1
-      paral_atom2          0
-      paral_atom3          0
        pawecutdg      3.00000000E+01 Hartree
           prtden           0
        prtebands           0
           prteig           0
           prtgsr           0
            prtwf1          1
            prtwf2          0
            prtwf3          0
           symrel      1  0  0   0  1  0   0  0  1       1  0  0   0  1  0   0  0  1
                       1  0  0   0  1  0   0  0  1       1  0  0   0  1  0   0  0  1
                      -1  0  0   0 -1  0   0  0 -1      -1  0  0   0 -1  0   0  0 -1
                      -1  0  0   0 -1  0   0  0 -1      -1  0  0   0 -1  0   0  0 -1
                      -1  0  0   0  1  0   0  0 -1      -1  0  0   0  1  0   0  0 -1
                      -1  0  0   0  1  0   0  0 -1      -1  0  0   0  1  0   0  0 -1
                       1  0  0   0 -1  0   0  0  1       1  0  0   0 -1  0   0  0  1
                       1  0  0   0 -1  0   0  0  1       1  0  0   0 -1  0   0  0  1
                      -1  0  0   0 -1  0   0  0  1      -1  0  0   0 -1  0   0  0  1
                      -1  0  0   0 -1  0   0  0  1      -1  0  0   0 -1  0   0  0  1
                       1  0  0   0  1  0   0  0 -1       1  0  0   0  1  0   0  0 -1
                       1  0  0   0  1  0   0  0 -1       1  0  0   0  1  0   0  0 -1
                       1  0  0   0 -1  0   0  0 -1       1  0  0   0 -1  0   0  0 -1
                       1  0  0   0 -1  0   0  0 -1       1  0  0   0 -1  0   0  0 -1
                      -1  0  0   0  1  0   0  0  1      -1  0  0   0  1  0   0  0  1
                      -1  0  0   0  1  0   0  0  1      -1  0  0   0  1  0   0  0  1
                       0  1  0   1  0  0   0  0  1       0  1  0   1  0  0   0  0  1
                       0  1  0   1  0  0   0  0  1       0  1  0   1  0  0   0  0  1
                       0 -1  0  -1  0  0   0  0 -1       0 -1  0  -1  0  0   0  0 -1
                       0 -1  0  -1  0  0   0  0 -1       0 -1  0  -1  0  0   0  0 -1
                       0 -1  0   1  0  0   0  0 -1       0 -1  0   1  0  0   0  0 -1
                       0 -1  0   1  0  0   0  0 -1       0 -1  0   1  0  0   0  0 -1
                       0  1  0  -1  0  0   0  0  1       0  1  0  -1  0  0   0  0  1
                       0  1  0  -1  0  0   0  0  1       0  1  0  -1  0  0   0  0  1
                       0 -1  0  -1  0  0   0  0  1       0 -1  0  -1  0  0   0  0  1
                       0 -1  0  -1  0  0   0  0  1       0 -1  0  -1  0  0   0  0  1
                       0  1  0   1  0  0   0  0 -1       0  1  0   1  0  0   0  0 -1
                       0  1  0   1  0  0   0  0 -1       0  1  0   1  0  0   0  0 -1
                       0  1  0  -1  0  0   0  0 -1       0  1  0  -1  0  0   0  0 -1
                       0  1  0  -1  0  0   0  0 -1       0  1  0  -1  0  0   0  0 -1
                       0 -1  0   1  0  0   0  0  1       0 -1  0   1  0  0   0  0  1
                       0 -1  0   1  0  0   0  0  1       0 -1  0   1  0  0   0  0  1
                       0  0  1   1  0  0   0  1  0       0  0  1   1  0  0   0  1  0
                       0  0  1   1  0  0   0  1  0       0  0  1   1  0  0   0  1  0
                       0  0 -1  -1  0  0   0 -1  0       0  0 -1  -1  0  0   0 -1  0
                       0  0 -1  -1  0  0   0 -1  0       0  0 -1  -1  0  0   0 -1  0
                       0  0 -1   1  0  0   0 -1  0       0  0 -1   1  0  0   0 -1  0
                       0  0 -1   1  0  0   0 -1  0       0  0 -1   1  0  0   0 -1  0
                       0  0  1  -1  0  0   0  1  0       0  0  1  -1  0  0   0  1  0
                       0  0  1  -1  0  0   0  1  0       0  0  1  -1  0  0   0  1  0
                       0  0 -1  -1  0  0   0  1  0       0  0 -1  -1  0  0   0  1  0
                       0  0 -1  -1  0  0   0  1  0       0  0 -1  -1  0  0   0  1  0
                       0  0  1   1  0  0   0 -1  0       0  0  1   1  0  0   0 -1  0
                       0  0  1   1  0  0   0 -1  0       0  0  1   1  0  0   0 -1  0
                       0  0  1  -1  0  0   0 -1  0       0  0  1  -1  0  0   0 -1  0
                       0  0  1  -1  0  0   0 -1  0       0  0  1  -1  0  0   0 -1  0
                       0  0 -1   1  0  0   0  1  0       0  0 -1   1  0  0   0  1  0
                       0  0 -1   1  0  0   0  1  0       0  0 -1   1  0  0   0  1  0
                       1  0  0   0  0  1   0  1  0       1  0  0   0  0  1   0  1  0
                       1  0  0   0  0  1   0  1  0       1  0  0   0  0  1   0  1  0
                      -1  0  0   0  0 -1   0 -1  0      -1  0  0   0  0 -1   0 -1  0
                      -1  0  0   0  0 -1   0 -1  0      -1  0  0   0  0 -1   0 -1  0
                      -1  0  0   0  0  1   0 -1  0      -1  0  0   0  0  1   0 -1  0
                      -1  0  0   0  0  1   0 -1  0      -1  0  0   0  0  1   0 -1  0
                       1  0  0   0  0 -1   0  1  0       1  0  0   0  0 -1   0  1  0
                       1  0  0   0  0 -1   0  1  0       1  0  0   0  0 -1   0  1  0
                      -1  0  0   0  0 -1   0  1  0      -1  0  0   0  0 -1   0  1  0
                      -1  0  0   0  0 -1   0  1  0      -1  0  0   0  0 -1   0  1  0
                       1  0  0   0  0  1   0 -1  0       1  0  0   0  0  1   0 -1  0
                       1  0  0   0  0  1   0 -1  0       1  0  0   0  0  1   0 -1  0
                       1  0  0   0  0 -1   0 -1  0       1  0  0   0  0 -1   0 -1  0
                       1  0  0   0  0 -1   0 -1  0       1  0  0   0  0 -1   0 -1  0
                      -1  0  0   0  0  1   0  1  0      -1  0  0   0  0  1   0  1  0
                      -1  0  0   0  0  1   0  1  0      -1  0  0   0  0  1   0  1  0
                       0  1  0   0  0  1   1  0  0       0  1  0   0  0  1   1  0  0
                       0  1  0   0  0  1   1  0  0       0  1  0   0  0  1   1  0  0
                       0 -1  0   0  0 -1  -1  0  0       0 -1  0   0  0 -1  -1  0  0
                       0 -1  0   0  0 -1  -1  0  0       0 -1  0   0  0 -1  -1  0  0
                       0 -1  0   0  0  1  -1  0  0       0 -1  0   0  0  1  -1  0  0
                       0 -1  0   0  0  1  -1  0  0       0 -1  0   0  0  1  -1  0  0
                       0  1  0   0  0 -1   1  0  0       0  1  0   0  0 -1   1  0  0
                       0  1  0   0  0 -1   1  0  0       0  1  0   0  0 -1   1  0  0
                       0 -1  0   0  0 -1   1  0  0       0 -1  0   0  0 -1   1  0  0
                       0 -1  0   0  0 -1   1  0  0       0 -1  0   0  0 -1   1  0  0
                       0  1  0   0  0  1  -1  0  0       0  1  0   0  0  1  -1  0  0
                       0  1  0   0  0  1  -1  0  0       0  1  0   0  0  1  -1  0  0
                       0  1  0   0  0 -1  -1  0  0       0  1  0   0  0 -1  -1  0  0
                       0  1  0   0  0 -1  -1  0  0       0  1  0   0  0 -1  -1  0  0
                       0 -1  0   0  0  1   1  0  0       0 -1  0   0  0  1   1  0  0
                       0 -1  0   0  0  1   1  0  0       0 -1  0   0  0  1   1  0  0
                       0  0  1   0  1  0   1  0  0       0  0  1   0  1  0   1  0  0
                       0  0  1   0  1  0   1  0  0       0  0  1   0  1  0   1  0  0
                       0  0 -1   0 -1  0  -1  0  0       0  0 -1   0 -1  0  -1  0  0
                       0  0 -1   0 -1  0  -1  0  0       0  0 -1   0 -1  0  -1  0  0
                       0  0 -1   0  1  0  -1  0  0       0  0 -1   0  1  0  -1  0  0
                       0  0 -1   0  1  0  -1  0  0       0  0 -1   0  1  0  -1  0  0
                       0  0  1   0 -1  0   1  0  0       0  0  1   0 -1  0   1  0  0
                       0  0  1   0 -1  0   1  0  0       0  0  1   0 -1  0   1  0  0
                       0  0 -1   0 -1  0   1  0  0       0  0 -1   0 -1  0   1  0  0
                       0  0 -1   0 -1  0   1  0  0       0  0 -1   0 -1  0   1  0  0
                       0  0  1   0  1  0  -1  0  0       0  0  1   0  1  0  -1  0  0
                       0  0  1   0  1  0  -1  0  0       0  0  1   0  1  0  -1  0  0
                       0  0  1   0 -1  0  -1  0  0       0  0  1   0 -1  0  -1  0  0
                       0  0  1   0 -1  0  -1  0  0       0  0  1   0 -1  0  -1  0  0
                       0  0 -1   0  1  0   1  0  0       0  0 -1   0  1  0   1  0  0
                       0  0 -1   0  1  0   1  0  0       0  0 -1   0  1  0   1  0  0
            tnons      0.0000000  0.0000000  0.0000000     0.0000000  0.5000000  0.5000000
                       0.5000000  0.0000000  0.5000000     0.5000000  0.5000000  0.0000000
                       0.0000000  0.0000000  0.0000000     0.0000000  0.5000000  0.5000000
                       0.5000000  0.0000000  0.5000000     0.5000000  0.5000000  0.0000000
                       0.0000000  0.0000000  0.0000000     0.0000000  0.5000000  0.5000000
                       0.5000000  0.0000000  0.5000000     0.5000000  0.5000000  0.0000000
                       0.0000000  0.0000000  0.0000000     0.0000000  0.5000000  0.5000000
                       0.5000000  0.0000000  0.5000000     0.5000000  0.5000000  0.0000000
                       0.0000000  0.0000000  0.0000000     0.0000000  0.5000000  0.5000000
                       0.5000000  0.0000000  0.5000000     0.5000000  0.5000000  0.0000000
                       0.0000000  0.0000000  0.0000000     0.0000000  0.5000000  0.5000000
                       0.5000000  0.0000000  0.5000000     0.5000000  0.5000000  0.0000000
                       0.0000000  0.0000000  0.0000000     0.0000000  0.5000000  0.5000000
                       0.5000000  0.0000000  0.5000000     0.5000000  0.5000000  0.0000000
                       0.0000000  0.0000000  0.0000000     0.0000000  0.5000000  0.5000000
                       0.5000000  0.0000000  0.5000000     0.5000000  0.5000000  0.0000000
                       0.0000000  0.0000000  0.0000000     0.0000000  0.5000000  0.5000000
                       0.5000000  0.0000000  0.5000000     0.5000000  0.5000000  0.0000000
                       0.0000000  0.0000000  0.0000000     0.0000000  0.5000000  0.5000000
                       0.5000000  0.0000000  0.5000000     0.5000000  0.5000000  0.0000000
                       0.0000000  0.0000000  0.0000000     0.0000000  0.5000000  0.5000000
                       0.5000000  0.0000000  0.5000000     0.5000000  0.5000000  0.0000000
                       0.0000000  0.0000000  0.0000000     0.0000000  0.5000000  0.5000000
                       0.5000000  0.0000000  0.5000000     0.5000000  0.5000000  0.0000000
                       0.0000000  0.0000000  0.0000000     0.0000000  0.5000000  0.5000000
                       0.5000000  0.0000000  0.5000000     0.5000000  0.5000000  0.0000000
                       0.0000000  0.0000000  0.0000000     0.0000000  0.5000000  0.5000000
                       0.5000000  0.0000000  0.5000000     0.5000000  0.5000000  0.0000000
                       0.0000000  0.0000000  0.0000000     0.0000000  0.5000000  0.5000000
                       0.5000000  0.0000000  0.5000000     0.5000000  0.5000000  0.0000000
                       0.0000000  0.0000000  0.0000000     0.0000000  0.5000000  0.5000000
                       0.5000000  0.0000000  0.5000000     0.5000000  0.5000000  0.0000000
                       0.0000000  0.0000000  0.0000000     0.0000000  0.5000000  0.5000000
                       0.5000000  0.0000000  0.5000000     0.5000000  0.5000000  0.0000000
                       0.0000000  0.0000000  0.0000000     0.0000000  0.5000000  0.5000000
                       0.5000000  0.0000000  0.5000000     0.5000000  0.5000000  0.0000000
                       0.0000000  0.0000000  0.0000000     0.0000000  0.5000000  0.5000000
                       0.5000000  0.0000000  0.5000000     0.5000000  0.5000000  0.0000000
                       0.0000000  0.0000000  0.0000000     0.0000000  0.5000000  0.5000000
                       0.5000000  0.0000000  0.5000000     0.5000000  0.5000000  0.0000000
                       0.0000000  0.0000000  0.0000000     0.0000000  0.5000000  0.5000000
                       0.5000000  0.0000000  0.5000000     0.5000000  0.5000000  0.0000000
                       0.0000000  0.0000000  0.0000000     0.0000000  0.5000000  0.5000000
                       0.5000000  0.0000000  0.5000000     0.5000000  0.5000000  0.0000000
                       0.0000000  0.0000000  0.0000000     0.0000000  0.5000000  0.5000000
                       0.5000000  0.0000000  0.5000000     0.5000000  0.5000000  0.0000000
                       0.0000000  0.0000000  0.0000000     0.0000000  0.5000000  0.5000000
                       0.5000000  0.0000000  0.5000000     0.5000000  0.5000000  0.0000000
                       0.0000000  0.0000000  0.0000000     0.0000000  0.5000000  0.5000000
                       0.5000000  0.0000000  0.5000000     0.5000000  0.5000000  0.0000000
                       0.0000000  0.0000000  0.0000000     0.0000000  0.5000000  0.5000000
                       0.5000000  0.0000000  0.5000000     0.5000000  0.5000000  0.0000000
                       0.0000000  0.0000000  0.0000000     0.0000000  0.5000000  0.5000000
                       0.5000000  0.0000000  0.5000000     0.5000000  0.5000000  0.0000000
                       0.0000000  0.0000000  0.0000000     0.0000000  0.5000000  0.5000000
                       0.5000000  0.0000000  0.5000000     0.5000000  0.5000000  0.0000000
                       0.0000000  0.0000000  0.0000000     0.0000000  0.5000000  0.5000000
                       0.5000000  0.0000000  0.5000000     0.5000000  0.5000000  0.0000000
                       0.0000000  0.0000000  0.0000000     0.0000000  0.5000000  0.5000000
                       0.5000000  0.0000000  0.5000000     0.5000000  0.5000000  0.0000000
                       0.0000000  0.0000000  0.0000000     0.0000000  0.5000000  0.5000000
                       0.5000000  0.0000000  0.5000000     0.5000000  0.5000000  0.0000000
                       0.0000000  0.0000000  0.0000000     0.0000000  0.5000000  0.5000000
                       0.5000000  0.0000000  0.5000000     0.5000000  0.5000000  0.0000000
                       0.0000000  0.0000000  0.0000000     0.0000000  0.5000000  0.5000000
                       0.5000000  0.0000000  0.5000000     0.5000000  0.5000000  0.0000000
                       0.0000000  0.0000000  0.0000000     0.0000000  0.5000000  0.5000000
                       0.5000000  0.0000000  0.5000000     0.5000000  0.5000000  0.0000000
                       0.0000000  0.0000000  0.0000000     0.0000000  0.5000000  0.5000000
                       0.5000000  0.0000000  0.5000000     0.5000000  0.5000000  0.0000000
                       0.0000000  0.0000000  0.0000000     0.0000000  0.5000000  0.5000000
                       0.5000000  0.0000000  0.5000000     0.5000000  0.5000000  0.0000000
                       0.0000000  0.0000000  0.0000000     0.0000000  0.5000000  0.5000000
                       0.5000000  0.0000000  0.5000000     0.5000000  0.5000000  0.0000000
                       0.0000000  0.0000000  0.0000000     0.0000000  0.5000000  0.5000000
                       0.5000000  0.0000000  0.5000000     0.5000000  0.5000000  0.0000000
                       0.0000000  0.0000000  0.0000000     0.0000000  0.5000000  0.5000000
                       0.5000000  0.0000000  0.5000000     0.5000000  0.5000000  0.0000000
                       0.0000000  0.0000000  0.0000000     0.0000000  0.5000000  0.5000000
                       0.5000000  0.0000000  0.5000000     0.5000000  0.5000000  0.0000000
                       0.0000000  0.0000000  0.0000000     0.0000000  0.5000000  0.5000000
                       0.5000000  0.0000000  0.5000000     0.5000000  0.5000000  0.0000000
                       0.0000000  0.0000000  0.0000000     0.0000000  0.5000000  0.5000000
                       0.5000000  0.0000000  0.5000000     0.5000000  0.5000000  0.0000000
                       0.0000000  0.0000000  0.0000000     0.0000000  0.5000000  0.5000000
                       0.5000000  0.0000000  0.5000000     0.5000000  0.5000000  0.0000000
                       0.0000000  0.0000000  0.0000000     0.0000000  0.5000000  0.5000000
                       0.5000000  0.0000000  0.5000000     0.5000000  0.5000000  0.0000000
                       0.0000000  0.0000000  0.0000000     0.0000000  0.5000000  0.5000000
                       0.5000000  0.0000000  0.5000000     0.5000000  0.5000000  0.0000000
                       0.0000000  0.0000000  0.0000000     0.0000000  0.5000000  0.5000000
                       0.5000000  0.0000000  0.5000000     0.5000000  0.5000000  0.0000000
                       0.0000000  0.0000000  0.0000000     0.0000000  0.5000000  0.5000000
                       0.5000000  0.0000000  0.5000000     0.5000000  0.5000000  0.0000000
                       0.0000000  0.0000000  0.0000000     0.0000000  0.5000000  0.5000000
                       0.5000000  0.0000000  0.5000000     0.5000000  0.5000000  0.0000000
           tolvrs      1.00000000E-04
           tsmear      9.50044626E-04 Hartree
            typat      1  1  1  1
           useylm           1
              wtk        0.12500    0.37500    0.37500    0.12500
           xangst      0.0000000000E+00  0.0000000000E+00  0.0000000000E+00
                       0.0000000000E+00  1.6755000000E+00  1.6755000000E+00
                       1.6755000000E+00  0.0000000000E+00  1.6755000000E+00
                       1.6755000000E+00  1.6755000000E+00  0.0000000000E+00
            xcart      0.0000000000E+00  0.0000000000E+00  0.0000000000E+00
                       0.0000000000E+00  3.1662361356E+00  3.1662361356E+00
                       3.1662361356E+00  0.0000000000E+00  3.1662361356E+00
                       3.1662361356E+00  3.1662361356E+00  0.0000000000E+00
             xred      0.0000000000E+00  0.0000000000E+00  0.0000000000E+00
                       0.0000000000E+00  5.0000000000E-01  5.0000000000E-01
                       5.0000000000E-01  0.0000000000E+00  5.0000000000E-01
                       5.0000000000E-01  5.0000000000E-01  0.0000000000E+00
            znucl       28.00000

================================================================================

 chkinp: Checking input parameters for consistency, jdtset=   1.

 chkinp: Checking input parameters for consistency, jdtset=   2.

 chkinp: Checking input parameters for consistency, jdtset=   3.

================================================================================
== DATASET  1 ==================================================================
-   mpi_nproc: 4, omp_nthreads: 1 (-1 if OMP is not activated)


--- !DatasetInfo
iteration_state: {dtset: 1, }
dimensions: {natom: 4, nkpt: 4, mband: 48, nsppol: 1, nspinor: 1, nspden: 1, mpw: 1108, }
cutoff_energies: {ecut:  20.0, pawecutdg:  30.0, }
electrons: {nelect:   7.20000000E+01, charge:   0.00000000E+00, occopt:   3.00000000E+00, tsmear:   9.50044626E-04, }
meta: {optdriver: 0, ionmov: 0, optcell: 0, iscf: 17, paral_kgb: 0, }
...

 Real(R)+Recip(G) space primitive vectors, cartesian coordinates (Bohr,Bohr^-1):
 R(1)=  6.3324723  0.0000000  0.0000000  G(1)=  0.1579162  0.0000000  0.0000000
 R(2)=  0.0000000  6.3324723  0.0000000  G(2)=  0.0000000  0.1579162  0.0000000
 R(3)=  0.0000000  0.0000000  6.3324723  G(3)=  0.0000000  0.0000000  0.1579162
 Unit cell volume ucvol=  2.5393344E+02 bohr^3
 Angles (23,13,12)=  9.00000000E+01  9.00000000E+01  9.00000000E+01 degrees

 Coarse grid specifications (used for wave-functions):

 getcut: wavevector=  0.0000  0.0000  0.0000  ngfft=  27  27  27
         ecut(hartree)=     20.000   => boxcut(ratio)=   2.03948

 Fine grid specifications (used for densities):

 getcut: wavevector=  0.0000  0.0000  0.0000  ngfft=  32  32  32
         ecut(hartree)=     30.000   => boxcut(ratio)=   2.04951

--- Pseudopotential description ------------------------------------------------
- pspini: atom type   1  psp file is /cea/home/abinit/abinit/REPOSITORY/BRIEUC/abinit/gitlab/tests/Pspdir/Psdj_paw_pbe_std/Ni.xml
- pspatm: opening atomic psp file    /cea/home/abinit/abinit/REPOSITORY/BRIEUC/abinit/gitlab/tests/Pspdir/Psdj_paw_pbe_std/Ni.xml
- pspatm : Reading pseudopotential header in XML form from /cea/home/abinit/abinit/REPOSITORY/BRIEUC/abinit/gitlab/tests/Pspdir/Psdj_paw_pbe_std/Ni.xml
 Pseudopotential format is: paw10
 basis_size (lnmax)=  6 (lmn_size= 18), orbitals=   0   0   1   1   2   2
 Spheres core radius: rc_sph= 1.81432190
 1 radial meshes are used:
  - mesh 1: r(i)=AA*[exp(BB*(i-1))-1], size=1500 , AA= 0.29784E-03 BB= 0.83395E-02
 Shapefunction is SIN type: shapef(r)=[sin(pi*r/rshp)/(pi*r/rshp)]**2
 Radius for shape functions =  1.60094920
 mmax= 1500
 Radial grid used for partial waves is grid 1
 Radial grid used for projectors is grid 1
 Radial grid used for (t)core density is grid 1
 Radial grid used for Vloc is grid 1
 Radial grid used for pseudo valence density is grid 1
 Mesh size for Vloc has been set to 1333 to avoid numerical noise.
 Compensation charge density is not taken into account in XC energy/potential
 pspatm: atomic psp has been read  and splines computed

   6.33371995E+03                                ecore*ucvol(ha*bohr**3)
--------------------------------------------------------------------------------

_setup2: Arith. and geom. avg. npw (full set) are    1088.625    1088.412

================================================================================

--- !BeginCycle
iteration_state: {dtset: 1, }
solver: {iscf: 17, nstep: 50, nline: 4, wfoptalg: 10, }
tolerances: {tolvrs: 1.00E-04, }
...

     iter   Etot(hartree)      deltaE(h)  residm     nres2
 ETOT  1  -679.79361468623    -6.798E+02 7.343E+00 3.302E+00
 ETOT  2  -683.38638138951    -3.593E+00 1.812E-02 8.864E+00
 ETOT  3  -683.34507777375     4.130E-02 4.217E-03 8.365E-01
 ETOT  4  -683.34443091688     6.469E-04 3.777E-04 4.527E-01
 ETOT  5  -683.34250763125     1.923E-03 2.674E-04 3.269E-04
 ETOT  6  -683.34251197559    -4.344E-06 2.693E-04 2.054E-04
 ETOT  7  -683.34251133167     6.439E-07 1.782E-04 1.764E-07

 At SCF step    7       nres2   =  1.76E-07 < tolvrs=  1.00E-04 =>converged.

 Cartesian components of stress tensor (hartree/bohr^3)
  sigma(1 1)= -1.51071516E-05  sigma(3 2)=  0.00000000E+00
  sigma(2 2)= -1.51071516E-05  sigma(3 1)=  0.00000000E+00
  sigma(3 3)= -1.51071516E-05  sigma(2 1)=  0.00000000E+00


--- !ResultsGS
iteration_state: {dtset: 1, }
comment   : Summary of ground state results
lattice_vectors:
- [  6.3324723,   0.0000000,   0.0000000, ]
- [  0.0000000,   6.3324723,   0.0000000, ]
- [  0.0000000,   0.0000000,   6.3324723, ]
lattice_lengths: [   6.33247,    6.33247,    6.33247, ]
lattice_angles: [ 90.000,  90.000,  90.000, ] # degrees, (23, 13, 12)
lattice_volume:   2.5393344E+02
convergence: {deltae:  6.439E-07, res2:  1.764E-07, residm:  1.782E-04, diffor: null, }
etotal    :  -6.83342511E+02
entropy   :   0.00000000E+00
fermie    :   5.06234075E-01
cartesian_stress_tensor: # hartree/bohr^3
- [ -1.51071516E-05,   0.00000000E+00,   0.00000000E+00, ]
- [  0.00000000E+00,  -1.51071516E-05,   0.00000000E+00, ]
- [  0.00000000E+00,   0.00000000E+00,  -1.51071516E-05, ]
pressure_GPa:   4.4447E-01
xred      :
- [  0.0000E+00,   0.0000E+00,   0.0000E+00, Ni]
- [  0.0000E+00,   5.0000E-01,   5.0000E-01, Ni]
- [  5.0000E-01,   0.0000E+00,   5.0000E-01, Ni]
- [  5.0000E-01,   5.0000E-01,   0.0000E+00, Ni]
cartesian_forces: # hartree/bohr
- [ -0.00000000E+00,  -0.00000000E+00,  -0.00000000E+00, ]
- [ -0.00000000E+00,  -0.00000000E+00,  -0.00000000E+00, ]
- [ -0.00000000E+00,  -0.00000000E+00,  -0.00000000E+00, ]
- [ -0.00000000E+00,  -0.00000000E+00,  -0.00000000E+00, ]
force_length_stats: {min:   0.00000000E+00, max:   0.00000000E+00, mean:   0.00000000E+00, }
...

 Integrated electronic density in atomic spheres:
 ------------------------------------------------
 Atom  Sphere_radius  Integrated_density
    1        1.81432         15.89866795
    2        1.81432         15.89866795
    3        1.81432         15.89866795
    4        1.81432         15.89866795

 PAW TEST:
 ==== Compensation charge inside spheres ============
 The following values must be close to each other ...
 Compensation charge over spherical meshes =     28.892942412785292
 Compensation charge over fine fft grid    =     28.893791029304964

 ==== Results concerning PAW augmentation regions ====

 Total pseudopotential strength Dij (hartree):
 Atom #  1
  -1.80172   0.24656   0.00000   0.00000   0.00000   0.00000   0.00000   0.00000   0.00000   0.00000   0.00000   0.00000 ...
   0.24656   0.07164   0.00000   0.00000   0.00000   0.00000   0.00000   0.00000   0.00000   0.00000   0.00000   0.00000 ...
   0.00000   0.00000  -1.73140   0.00000   0.00000   0.45962   0.00000   0.00000   0.00000   0.00000   0.00000   0.00000 ...
   0.00000   0.00000   0.00000  -1.73140   0.00000   0.00000   0.45962   0.00000   0.00000   0.00000   0.00000   0.00000 ...
   0.00000   0.00000   0.00000   0.00000  -1.73140   0.00000   0.00000   0.45962   0.00000   0.00000   0.00000   0.00000 ...
   0.00000   0.00000   0.45962   0.00000   0.00000   0.62523   0.00000   0.00000   0.00000   0.00000   0.00000   0.00000 ...
   0.00000   0.00000   0.00000   0.45962   0.00000   0.00000   0.62523   0.00000   0.00000   0.00000   0.00000   0.00000 ...
   0.00000   0.00000   0.00000   0.00000   0.45962   0.00000   0.00000   0.62523   0.00000   0.00000   0.00000   0.00000 ...
   0.00000   0.00000   0.00000   0.00000   0.00000   0.00000   0.00000   0.00000  -0.39887   0.00000   0.00000   0.00000 ...
   0.00000   0.00000   0.00000   0.00000   0.00000   0.00000   0.00000   0.00000   0.00000  -0.39887   0.00000   0.00000 ...
   0.00000   0.00000   0.00000   0.00000   0.00000   0.00000   0.00000   0.00000   0.00000   0.00000  -0.39564   0.00000 ...
   0.00000   0.00000   0.00000   0.00000   0.00000   0.00000   0.00000   0.00000   0.00000   0.00000   0.00000  -0.39887 ...
   ...  only 12  components have been written...
 Atom #  4
  -1.80172   0.24656   0.00000   0.00000   0.00000   0.00000   0.00000   0.00000   0.00000   0.00000   0.00000   0.00000 ...
   0.24656   0.07164   0.00000   0.00000   0.00000   0.00000   0.00000   0.00000   0.00000   0.00000   0.00000   0.00000 ...
   0.00000   0.00000  -1.73140   0.00000   0.00000   0.45962   0.00000   0.00000   0.00000   0.00000   0.00000   0.00000 ...
   0.00000   0.00000   0.00000  -1.73140   0.00000   0.00000   0.45962   0.00000   0.00000   0.00000   0.00000   0.00000 ...
   0.00000   0.00000   0.00000   0.00000  -1.73140   0.00000   0.00000   0.45962   0.00000   0.00000   0.00000   0.00000 ...
   0.00000   0.00000   0.45962   0.00000   0.00000   0.62523   0.00000   0.00000   0.00000   0.00000   0.00000   0.00000 ...
   0.00000   0.00000   0.00000   0.45962   0.00000   0.00000   0.62523   0.00000   0.00000   0.00000   0.00000   0.00000 ...
   0.00000   0.00000   0.00000   0.00000   0.45962   0.00000   0.00000   0.62523   0.00000   0.00000   0.00000   0.00000 ...
   0.00000   0.00000   0.00000   0.00000   0.00000   0.00000   0.00000   0.00000  -0.39887   0.00000   0.00000   0.00000 ...
   0.00000   0.00000   0.00000   0.00000   0.00000   0.00000   0.00000   0.00000   0.00000  -0.39887   0.00000   0.00000 ...
   0.00000   0.00000   0.00000   0.00000   0.00000   0.00000   0.00000   0.00000   0.00000   0.00000  -0.39564   0.00000 ...
   0.00000   0.00000   0.00000   0.00000   0.00000   0.00000   0.00000   0.00000   0.00000   0.00000   0.00000  -0.39887 ...
   ...  only 12  components have been written...


 Augmentation waves occupancies Rhoij:
 Atom #  1
   2.00010  -0.00491   0.00000   0.00000   0.00000   0.00000   0.00000   0.00000   0.00000   0.00000   0.00000   0.00000 ...
  -0.00491   1.09077   0.00000   0.00000   0.00000   0.00000   0.00000   0.00000   0.00000   0.00000   0.00000   0.00000 ...
   0.00000   0.00000   2.00778   0.00000   0.00000   0.00759   0.00000   0.00000   0.00000   0.00000   0.00000   0.00000 ...
   0.00000   0.00000   0.00000   2.00778   0.00000   0.00000   0.00759   0.00000   0.00000   0.00000   0.00000   0.00000 ...
   0.00000   0.00000   0.00000   0.00000   2.00778   0.00000   0.00000   0.00759   0.00000   0.00000   0.00000   0.00000 ...
   0.00000   0.00000   0.00759   0.00000   0.00000   0.02725   0.00000   0.00000   0.00000   0.00000   0.00000   0.00000 ...
   0.00000   0.00000   0.00000   0.00759   0.00000   0.00000   0.02725   0.00000   0.00000   0.00000   0.00000   0.00000 ...
   0.00000   0.00000   0.00000   0.00000   0.00759   0.00000   0.00000   0.02725   0.00000   0.00000   0.00000   0.00000 ...
   0.00000   0.00000   0.00000   0.00000   0.00000   0.00000   0.00000   0.00000   1.55550   0.00000   0.00000   0.00000 ...
   0.00000   0.00000   0.00000   0.00000   0.00000   0.00000   0.00000   0.00000   0.00000   1.55550   0.00000   0.00000 ...
   0.00000   0.00000   0.00000   0.00000   0.00000   0.00000   0.00000   0.00000   0.00000   0.00000   1.82835   0.00000 ...
   0.00000   0.00000   0.00000   0.00000   0.00000   0.00000   0.00000   0.00000   0.00000   0.00000   0.00000   1.55550 ...
   ...  only 12  components have been written...
 Atom #  4
   2.00010  -0.00491   0.00000   0.00000   0.00000   0.00000   0.00000   0.00000   0.00000   0.00000   0.00000   0.00000 ...
  -0.00491   1.09077   0.00000   0.00000   0.00000   0.00000   0.00000   0.00000   0.00000   0.00000   0.00000   0.00000 ...
   0.00000   0.00000   2.00778   0.00000   0.00000   0.00759   0.00000   0.00000   0.00000   0.00000   0.00000   0.00000 ...
   0.00000   0.00000   0.00000   2.00778   0.00000   0.00000   0.00759   0.00000   0.00000   0.00000   0.00000   0.00000 ...
   0.00000   0.00000   0.00000   0.00000   2.00778   0.00000   0.00000   0.00759   0.00000   0.00000   0.00000   0.00000 ...
   0.00000   0.00000   0.00759   0.00000   0.00000   0.02725   0.00000   0.00000   0.00000   0.00000   0.00000   0.00000 ...
   0.00000   0.00000   0.00000   0.00759   0.00000   0.00000   0.02725   0.00000   0.00000   0.00000   0.00000   0.00000 ...
   0.00000   0.00000   0.00000   0.00000   0.00759   0.00000   0.00000   0.02725   0.00000   0.00000   0.00000   0.00000 ...
   0.00000   0.00000   0.00000   0.00000   0.00000   0.00000   0.00000   0.00000   1.55550   0.00000   0.00000   0.00000 ...
   0.00000   0.00000   0.00000   0.00000   0.00000   0.00000   0.00000   0.00000   0.00000   1.55550   0.00000   0.00000 ...
   0.00000   0.00000   0.00000   0.00000   0.00000   0.00000   0.00000   0.00000   0.00000   0.00000   1.82835   0.00000 ...
   0.00000   0.00000   0.00000   0.00000   0.00000   0.00000   0.00000   0.00000   0.00000   0.00000   0.00000   1.55550 ...
   ...  only 12  components have been written...


================================================================================

 ----iterations are completed or convergence reached----

 Mean square residual over all n,k,spin=   10.171E-07; max=  17.816E-05
 reduced coordinates (array xred) for    4 atoms
       0.000000000000      0.000000000000      0.000000000000
       0.000000000000      0.500000000000      0.500000000000
       0.500000000000      0.000000000000      0.500000000000
       0.500000000000      0.500000000000      0.000000000000
 rms dE/dt=  0.0000E+00; max dE/dt=  0.0000E+00; dE/dt below (all hartree)
    1       0.000000000000      0.000000000000      0.000000000000
    2       0.000000000000      0.000000000000      0.000000000000
    3       0.000000000000      0.000000000000      0.000000000000
    4       0.000000000000      0.000000000000      0.000000000000

 cartesian coordinates (angstrom) at end:
    1      0.00000000000000     0.00000000000000     0.00000000000000
    2      0.00000000000000     1.67550000000000     1.67550000000000
    3      1.67550000000000     0.00000000000000     1.67550000000000
    4      1.67550000000000     1.67550000000000     0.00000000000000

 cartesian forces (hartree/bohr) at end:
    1     -0.00000000000000    -0.00000000000000    -0.00000000000000
    2     -0.00000000000000    -0.00000000000000    -0.00000000000000
    3     -0.00000000000000    -0.00000000000000    -0.00000000000000
    4     -0.00000000000000    -0.00000000000000    -0.00000000000000
 frms,max,avg= 0.0000000E+00 0.0000000E+00   0.000E+00  0.000E+00  0.000E+00 h/b

 cartesian forces (eV/Angstrom) at end:
    1     -0.00000000000000    -0.00000000000000    -0.00000000000000
    2     -0.00000000000000    -0.00000000000000    -0.00000000000000
    3     -0.00000000000000    -0.00000000000000    -0.00000000000000
    4     -0.00000000000000    -0.00000000000000    -0.00000000000000
 frms,max,avg= 0.0000000E+00 0.0000000E+00   0.000E+00  0.000E+00  0.000E+00 e/A
 length scales=  6.332472271300  6.332472271300  6.332472271300 bohr
              =  3.351000000000  3.351000000000  3.351000000000 angstroms
 Fermi (or HOMO) energy (hartree) =   0.50623   Average Vxc (hartree)=  -0.52077
 Eigenvalues (hartree) for nkpt=   4  k points:
 kpt#   1, nband= 48, wtk=  0.12500, kpt=  0.0000  0.0000  0.0000 (reduced coord)
  -3.30082   -3.29764   -3.29764   -3.29764   -1.84934   -1.84934   -1.84934   -1.84131
  -1.84131   -1.84131   -1.84131   -1.84131   -1.84131   -1.83658   -1.83658   -1.83658
   0.14047    0.31011    0.31011    0.31011    0.33334    0.33334    0.33334    0.41566
   0.41566    0.41566    0.46801    0.46801    0.50242    0.50242    0.50242    0.50851
   0.50851    0.50851    0.50851    0.50851    0.50851    0.60628    0.60628    0.60628
   0.90447    0.90447    0.90447    1.10923    1.10923    1.10923    1.10923    1.10923
      occupation numbers for kpt#   1
   2.00000    2.00000    2.00000    2.00000    2.00000    2.00000    2.00000    2.00000
   2.00000    2.00000    2.00000    2.00000    2.00000    2.00000    2.00000    2.00000
   2.00000    2.00000    2.00000    2.00000    2.00000    2.00000    2.00000    2.00000
   2.00000    2.00000    2.00000    2.00000    1.96468    1.96468    1.96468    0.16709
   0.16709    0.16709    0.16709    0.16709    0.16709    0.00000    0.00000    0.00000
   0.00000    0.00000    0.00000    0.00000    0.00000    0.00000    0.00000    0.00000
 prteigrs : prtvol=0 or 1, do not print more k-points.


--- !EnergyTerms
iteration_state     : {dtset: 1, }
comment             : Components of total free energy in Hartree
kinetic             :  1.16429475809027E+02
hartree             :  1.46714055719834E+02
xc                  : -2.69194996617503E+01
Ewald energy        : -4.69167569432709E+02
psp_core            :  2.49424417536982E+01
local_psp           : -4.51929833036072E+02
spherical_terms     : -2.34111958743891E+01
internal            : -6.83342124722362E+02
'-kT*entropy'       : -9.61877319038513E-04
total_energy        : -6.83343086599681E+02
total_energy_eV     : -1.85947110375411E+04
...


--- !EnergyTermsDC
iteration_state     : {dtset: 1, }
comment             : '"Double-counting" decomposition of free energy'
band_energy         : -5.42567004406066E+01
Ewald energy        : -4.69167569432709E+02
psp_core            :  2.49424417536982E+01
xc_dc               : -1.38590557138590E+02
spherical_terms     : -4.62691641961436E+01
internal            : -6.83341549454351E+02
'-kT*entropy'       : -9.61877319038513E-04
total_energy_dc     : -6.83342511331670E+02
total_energy_dc_eV  : -1.85946953837025E+04
...


 Cartesian components of stress tensor (hartree/bohr^3)
  sigma(1 1)= -1.51071516E-05  sigma(3 2)=  0.00000000E+00
  sigma(2 2)= -1.51071516E-05  sigma(3 1)=  0.00000000E+00
  sigma(3 3)= -1.51071516E-05  sigma(2 1)=  0.00000000E+00

-Cartesian components of stress tensor (GPa)         [Pressure=  4.4447E-01 GPa]
- sigma(1 1)= -4.44467671E-01  sigma(3 2)=  0.00000000E+00
- sigma(2 2)= -4.44467671E-01  sigma(3 1)=  0.00000000E+00
- sigma(3 3)= -4.44467671E-01  sigma(2 1)=  0.00000000E+00

================================================================================
== DATASET  2 ==================================================================
-   mpi_nproc: 4, omp_nthreads: 1 (-1 if OMP is not activated)


--- !DatasetInfo
iteration_state: {dtset: 2, }
dimensions: {natom: 4, nkpt: 4, mband: 48, nsppol: 1, nspinor: 1, nspden: 1, mpw: 1108, }
cutoff_energies: {ecut:  20.0, pawecutdg:  30.0, }
electrons: {nelect:   7.20000000E+01, charge:   0.00000000E+00, occopt:   3.00000000E+00, tsmear:   9.50044626E-04, }
meta: {optdriver: 9, }
...

 mkfilename : getwfk/=0, take file _WFK from output of DATASET   1.


---------------------------------------------------------------------------
----------------   Starting real-time time dependent DFT   ----------------
---------------------------------------------------------------------------


---------------------------   Initialization   ----------------------------

 Real(R)+Recip(G) space primitive vectors, cartesian coordinates (Bohr,Bohr^-1):
 R(1)=  6.3324723  0.0000000  0.0000000  G(1)=  0.1579162  0.0000000  0.0000000
 R(2)=  0.0000000  6.3324723  0.0000000  G(2)=  0.0000000  0.1579162  0.0000000
 R(3)=  0.0000000  0.0000000  6.3324723  G(3)=  0.0000000  0.0000000  0.1579162
 Unit cell volume ucvol=  2.5393344E+02 bohr^3
 Angles (23,13,12)=  9.00000000E+01  9.00000000E+01  9.00000000E+01 degrees

 Coarse grid specifications (used for wave-functions):

 getcut: wavevector=  0.0000  0.0000  0.0000  ngfft=  27  27  27
         ecut(hartree)=     20.000   => boxcut(ratio)=   2.03948

 Fine grid specifications (used for densities):

 getcut: wavevector=  0.0000  0.0000  0.0000  ngfft=  32  32  32
         ecut(hartree)=     30.000   => boxcut(ratio)=   2.04951
--------------------------------------------------------------------------------


-------------------    Reading initial wavefunctions    -------------------

-inwffil : will read wavefunctions from disk file t01o_DS1_WFK

-------------------------   Starting propagation   ------------------------


--- Iteration 1

Total energy =    -683.341549 Ha
Integrated density (ie. total nb of electrons) =      72.0008394075

 Fermi (or HOMO) energy (hartree) =   0.00000   Average Vxc (hartree)=   0.00000
 Eigenvalues (hartree) for nkpt=   4  k points:
 kpt#   1, nband= 48, wtk=  0.12500, kpt=  0.0000  0.0000  0.0000 (reduced coord)
  -3.30082   -3.29764   -3.29764   -3.29764   -1.84934   -1.84934   -1.84934   -1.84131
  -1.84131   -1.84131   -1.84131   -1.84131   -1.84131   -1.83658   -1.83658   -1.83658
   0.14047    0.31011    0.31011    0.31011    0.33334    0.33334    0.33334    0.41566
   0.41566    0.41566    0.46801    0.46801    0.50242    0.50242    0.50242    0.50851
   0.50851    0.50851    0.50851    0.50851    0.50851    0.60628    0.60628    0.60628
   0.90447    0.90447    0.90447    1.10923    1.10923    1.10923    1.10923    1.10923
 prteigrs : prtvol=0 or 1, do not print more k-points.

- Time - cpu, wall (sec):    1.21    1.21


--- Iteration 2

Total energy =    -683.341549 Ha
Integrated density (ie. total nb of electrons) =      72.0008394073

 Fermi (or HOMO) energy (hartree) =   0.00000   Average Vxc (hartree)=   0.00000
 Eigenvalues (hartree) for nkpt=   4  k points:
 kpt#   1, nband= 48, wtk=  0.12500, kpt=  0.0000  0.0000  0.0000 (reduced coord)
  -3.30082   -3.29764   -3.29764   -3.29764   -1.84934   -1.84934   -1.84934   -1.84131
  -1.84131   -1.84131   -1.84131   -1.84131   -1.84131   -1.83658   -1.83658   -1.83658
   0.14047    0.31011    0.31011    0.31011    0.33334    0.33334    0.33334    0.41566
   0.41566    0.41566    0.46801    0.46801    0.50242    0.50242    0.50242    0.50851
   0.50851    0.50851    0.50851    0.50851    0.50851    0.60628    0.60628    0.60628
   0.90447    0.90447    0.90447    1.10923    1.10923    1.10923    1.10923    1.10923
 prteigrs : prtvol=0 or 1, do not print more k-points.

- Time - cpu, wall (sec):    0.30    0.30


--- Iteration 3

Total energy =    -683.341549 Ha
Integrated density (ie. total nb of electrons) =      72.0008394072

 Fermi (or HOMO) energy (hartree) =   0.00000   Average Vxc (hartree)=   0.00000
 Eigenvalues (hartree) for nkpt=   4  k points:
 kpt#   1, nband= 48, wtk=  0.12500, kpt=  0.0000  0.0000  0.0000 (reduced coord)
  -3.30082   -3.29764   -3.29764   -3.29764   -1.84934   -1.84934   -1.84934   -1.84131
  -1.84131   -1.84131   -1.84131   -1.84131   -1.84131   -1.83658   -1.83658   -1.83658
   0.14047    0.31011    0.31011    0.31011    0.33334    0.33334    0.33334    0.41566
   0.41566    0.41566    0.46801    0.46801    0.50242    0.50242    0.50242    0.50851
   0.50851    0.50851    0.50851    0.50851    0.50851    0.60628    0.60628    0.60628
   0.90447    0.90447    0.90447    1.10923    1.10923    1.10923    1.10923    1.10923
 prteigrs : prtvol=0 or 1, do not print more k-points.

- Time - cpu, wall (sec):    0.29    0.29


--- Iteration 4

Total energy =    -683.341549 Ha
Integrated density (ie. total nb of electrons) =      72.0008394070

 Fermi (or HOMO) energy (hartree) =   0.00000   Average Vxc (hartree)=   0.00000
 Eigenvalues (hartree) for nkpt=   4  k points:
 kpt#   1, nband= 48, wtk=  0.12500, kpt=  0.0000  0.0000  0.0000 (reduced coord)
  -3.30082   -3.29764   -3.29764   -3.29764   -1.84934   -1.84934   -1.84934   -1.84131
  -1.84131   -1.84131   -1.84131   -1.84131   -1.84131   -1.83658   -1.83658   -1.83658
   0.14047    0.31011    0.31011    0.31011    0.33334    0.33334    0.33334    0.41566
   0.41566    0.41566    0.46801    0.46801    0.50242    0.50242    0.50242    0.50851
   0.50851    0.50851    0.50851    0.50851    0.50851    0.60628    0.60628    0.60628
   0.90447    0.90447    0.90447    1.10923    1.10923    1.10923    1.10923    1.10923
 prteigrs : prtvol=0 or 1, do not print more k-points.

- Time - cpu, wall (sec):    0.30    0.30


--- Iteration 5

Total energy =    -683.341549 Ha
Integrated density (ie. total nb of electrons) =      72.0008394069

 Fermi (or HOMO) energy (hartree) =   0.00000   Average Vxc (hartree)=   0.00000
 Eigenvalues (hartree) for nkpt=   4  k points:
 kpt#   1, nband= 48, wtk=  0.12500, kpt=  0.0000  0.0000  0.0000 (reduced coord)
  -3.30082   -3.29764   -3.29764   -3.29764   -1.84934   -1.84934   -1.84934   -1.84131
  -1.84131   -1.84131   -1.84131   -1.84131   -1.84131   -1.83658   -1.83658   -1.83658
   0.14047    0.31011    0.31011    0.31011    0.33334    0.33334    0.33334    0.41566
   0.41566    0.41566    0.46801    0.46801    0.50242    0.50242    0.50242    0.50851
   0.50851    0.50851    0.50851    0.50851    0.50851    0.60628    0.60628    0.60628
   0.90447    0.90447    0.90447    1.10923    1.10923    1.10923    1.10923    1.10923
 prteigrs : prtvol=0 or 1, do not print more k-points.

- Time - cpu, wall (sec):    0.30    0.30


--- Iteration 6

Total energy =    -683.341549 Ha
Integrated density (ie. total nb of electrons) =      72.0008394068

 Fermi (or HOMO) energy (hartree) =   0.00000   Average Vxc (hartree)=   0.00000
 Eigenvalues (hartree) for nkpt=   4  k points:
 kpt#   1, nband= 48, wtk=  0.12500, kpt=  0.0000  0.0000  0.0000 (reduced coord)
  -3.30082   -3.29764   -3.29764   -3.29764   -1.84934   -1.84934   -1.84934   -1.84131
  -1.84131   -1.84131   -1.84131   -1.84131   -1.84131   -1.83658   -1.83658   -1.83658
   0.14047    0.31011    0.31011    0.31011    0.33334    0.33334    0.33334    0.41566
   0.41566    0.41566    0.46801    0.46801    0.50242    0.50242    0.50242    0.50851
   0.50851    0.50851    0.50851    0.50851    0.50851    0.60628    0.60628    0.60628
   0.90447    0.90447    0.90447    1.10923    1.10923    1.10923    1.10923    1.10923
 prteigrs : prtvol=0 or 1, do not print more k-points.

- Time - cpu, wall (sec):    0.29    0.29


--- Iteration 7

Total energy =    -683.341549 Ha
Integrated density (ie. total nb of electrons) =      72.0008394067

 Fermi (or HOMO) energy (hartree) =   0.00000   Average Vxc (hartree)=   0.00000
 Eigenvalues (hartree) for nkpt=   4  k points:
 kpt#   1, nband= 48, wtk=  0.12500, kpt=  0.0000  0.0000  0.0000 (reduced coord)
  -3.30082   -3.29764   -3.29764   -3.29764   -1.84934   -1.84934   -1.84934   -1.84131
  -1.84131   -1.84131   -1.84131   -1.84131   -1.84131   -1.83658   -1.83658   -1.83658
   0.14047    0.31011    0.31011    0.31011    0.33334    0.33334    0.33334    0.41566
   0.41566    0.41566    0.46801    0.46801    0.50242    0.50242    0.50242    0.50851
   0.50851    0.50851    0.50851    0.50851    0.50851    0.60628    0.60628    0.60628
   0.90447    0.90447    0.90447    1.10923    1.10923    1.10923    1.10923    1.10923
 prteigrs : prtvol=0 or 1, do not print more k-points.

- Time - cpu, wall (sec):    0.30    0.30


--- Iteration 8

Total energy =    -683.341549 Ha
Integrated density (ie. total nb of electrons) =      72.0008394066

 Fermi (or HOMO) energy (hartree) =   0.00000   Average Vxc (hartree)=   0.00000
 Eigenvalues (hartree) for nkpt=   4  k points:
 kpt#   1, nband= 48, wtk=  0.12500, kpt=  0.0000  0.0000  0.0000 (reduced coord)
  -3.30082   -3.29764   -3.29764   -3.29764   -1.84934   -1.84934   -1.84934   -1.84131
  -1.84131   -1.84131   -1.84131   -1.84131   -1.84131   -1.83658   -1.83658   -1.83658
   0.14047    0.31011    0.31011    0.31011    0.33334    0.33334    0.33334    0.41566
   0.41566    0.41566    0.46801    0.46801    0.50242    0.50242    0.50242    0.50851
   0.50851    0.50851    0.50851    0.50851    0.50851    0.60628    0.60628    0.60628
   0.90447    0.90447    0.90447    1.10923    1.10923    1.10923    1.10923    1.10923
 prteigrs : prtvol=0 or 1, do not print more k-points.

- Time - cpu, wall (sec):    0.30    0.30


--- Iteration 9

Total energy =    -683.341549 Ha
Integrated density (ie. total nb of electrons) =      72.0008394065

 Fermi (or HOMO) energy (hartree) =   0.00000   Average Vxc (hartree)=   0.00000
 Eigenvalues (hartree) for nkpt=   4  k points:
 kpt#   1, nband= 48, wtk=  0.12500, kpt=  0.0000  0.0000  0.0000 (reduced coord)
  -3.30082   -3.29764   -3.29764   -3.29764   -1.84934   -1.84934   -1.84934   -1.84131
  -1.84131   -1.84131   -1.84131   -1.84131   -1.84131   -1.83658   -1.83658   -1.83658
   0.14047    0.31011    0.31011    0.31011    0.33334    0.33334    0.33334    0.41566
   0.41566    0.41566    0.46801    0.46801    0.50242    0.50242    0.50242    0.50851
   0.50851    0.50851    0.50851    0.50851    0.50851    0.60628    0.60628    0.60628
   0.90447    0.90447    0.90447    1.10923    1.10923    1.10923    1.10923    1.10923
 prteigrs : prtvol=0 or 1, do not print more k-points.

- Time - cpu, wall (sec):    0.29    0.30


--- Iteration 10

Total energy =    -683.341549 Ha
Integrated density (ie. total nb of electrons) =      72.0008394064

 Fermi (or HOMO) energy (hartree) =   0.00000   Average Vxc (hartree)=   0.00000
 Eigenvalues (hartree) for nkpt=   4  k points:
 kpt#   1, nband= 48, wtk=  0.12500, kpt=  0.0000  0.0000  0.0000 (reduced coord)
  -3.30082   -3.29764   -3.29764   -3.29764   -1.84934   -1.84934   -1.84934   -1.84131
  -1.84131   -1.84131   -1.84131   -1.84131   -1.84131   -1.83658   -1.83658   -1.83658
   0.14047    0.31011    0.31011    0.31011    0.33334    0.33334    0.33334    0.41566
   0.41566    0.41566    0.46801    0.46801    0.50242    0.50242    0.50242    0.50851
   0.50851    0.50851    0.50851    0.50851    0.50851    0.60628    0.60628    0.60628
   0.90447    0.90447    0.90447    1.10923    1.10923    1.10923    1.10923    1.10923
 prteigrs : prtvol=0 or 1, do not print more k-points.

- Time - cpu, wall (sec):    0.30    0.30


---------------------------------------------------------------------------
----------------   Finished real-time time dependent DFT   ----------------
---------------------------------------------------------------------------


================================================================================
== DATASET  3 ==================================================================
-   mpi_nproc: 4, omp_nthreads: 1 (-1 if OMP is not activated)


--- !DatasetInfo
iteration_state: {dtset: 3, }
dimensions: {natom: 4, nkpt: 4, mband: 48, nsppol: 1, nspinor: 1, nspden: 1, mpw: 1108, }
cutoff_energies: {ecut:  20.0, pawecutdg:  30.0, }
electrons: {nelect:   7.20000000E+01, charge:   0.00000000E+00, occopt:   3.00000000E+00, tsmear:   9.50044626E-04, }
meta: {optdriver: 9, }
...

 mkfilename : getwfk/=0, take file _WFK from output of DATASET   1.


---------------------------------------------------------------------------
----------------   Starting real-time time dependent DFT   ----------------
---------------------------------------------------------------------------


---------------------------   Initialization   ----------------------------

 Real(R)+Recip(G) space primitive vectors, cartesian coordinates (Bohr,Bohr^-1):
 R(1)=  6.3324723  0.0000000  0.0000000  G(1)=  0.1579162  0.0000000  0.0000000
 R(2)=  0.0000000  6.3324723  0.0000000  G(2)=  0.0000000  0.1579162  0.0000000
 R(3)=  0.0000000  0.0000000  6.3324723  G(3)=  0.0000000  0.0000000  0.1579162
 Unit cell volume ucvol=  2.5393344E+02 bohr^3
 Angles (23,13,12)=  9.00000000E+01  9.00000000E+01  9.00000000E+01 degrees

 Coarse grid specifications (used for wave-functions):

 getcut: wavevector=  0.0000  0.0000  0.0000  ngfft=  27  27  27
         ecut(hartree)=     20.000   => boxcut(ratio)=   2.03948

 Fine grid specifications (used for densities):

 getcut: wavevector=  0.0000  0.0000  0.0000  ngfft=  32  32  32
         ecut(hartree)=     30.000   => boxcut(ratio)=   2.04951
--------------------------------------------------------------------------------


-------------------    Reading initial wavefunctions    -------------------

-inwffil : will read wavefunctions from disk file t01o_DS1_WFK

-------------------------   Starting propagation   ------------------------


--- Iteration 1
Converged after    0 self-consistent corrector steps

Total energy =    -683.341549 Ha
Integrated density (ie. total nb of electrons) =      72.0008394075

 Fermi (or HOMO) energy (hartree) =   0.00000   Average Vxc (hartree)=   0.00000
 Eigenvalues (hartree) for nkpt=   4  k points:
 kpt#   1, nband= 48, wtk=  0.12500, kpt=  0.0000  0.0000  0.0000 (reduced coord)
  -3.30082   -3.29764   -3.29764   -3.29764   -1.84934   -1.84934   -1.84934   -1.84131
  -1.84131   -1.84131   -1.84131   -1.84131   -1.84131   -1.83658   -1.83658   -1.83658
   0.14047    0.31011    0.31011    0.31011    0.33334    0.33334    0.33334    0.41566
   0.41566    0.41566    0.46801    0.46801    0.50242    0.50242    0.50242    0.50851
   0.50851    0.50851    0.50851    0.50851    0.50851    0.60628    0.60628    0.60628
   0.90447    0.90447    0.90447    1.10923    1.10923    1.10923    1.10923    1.10923
 prteigrs : prtvol=0 or 1, do not print more k-points.

- Time - cpu, wall (sec):    2.39    2.40


--- Iteration 2
Converged after    0 self-consistent corrector steps

Total energy =    -683.341549 Ha
Integrated density (ie. total nb of electrons) =      72.0008394077

 Fermi (or HOMO) energy (hartree) =   0.00000   Average Vxc (hartree)=   0.00000
 Eigenvalues (hartree) for nkpt=   4  k points:
 kpt#   1, nband= 48, wtk=  0.12500, kpt=  0.0000  0.0000  0.0000 (reduced coord)
  -3.30082   -3.29764   -3.29764   -3.29764   -1.84934   -1.84934   -1.84934   -1.84131
  -1.84131   -1.84131   -1.84131   -1.84131   -1.84131   -1.83658   -1.83658   -1.83658
   0.14047    0.31011    0.31011    0.31011    0.33334    0.33334    0.33334    0.41566
   0.41566    0.41566    0.46801    0.46801    0.50242    0.50242    0.50242    0.50851
   0.50851    0.50851    0.50851    0.50851    0.50851    0.60628    0.60628    0.60628
   0.90447    0.90447    0.90447    1.10923    1.10923    1.10923    1.10923    1.10923
 prteigrs : prtvol=0 or 1, do not print more k-points.

- Time - cpu, wall (sec):    0.59    0.59


--- Iteration 3
Converged after    0 self-consistent corrector steps

Total energy =    -683.341549 Ha
Integrated density (ie. total nb of electrons) =      72.0008394079

 Fermi (or HOMO) energy (hartree) =   0.00000   Average Vxc (hartree)=   0.00000
 Eigenvalues (hartree) for nkpt=   4  k points:
 kpt#   1, nband= 48, wtk=  0.12500, kpt=  0.0000  0.0000  0.0000 (reduced coord)
  -3.30082   -3.29764   -3.29764   -3.29764   -1.84934   -1.84934   -1.84934   -1.84131
  -1.84131   -1.84131   -1.84131   -1.84131   -1.84131   -1.83658   -1.83658   -1.83658
   0.14047    0.31011    0.31011    0.31011    0.33334    0.33334    0.33334    0.41566
   0.41566    0.41566    0.46801    0.46801    0.50242    0.50242    0.50242    0.50851
   0.50851    0.50851    0.50851    0.50851    0.50851    0.60628    0.60628    0.60628
   0.90447    0.90447    0.90447    1.10923    1.10923    1.10923    1.10923    1.10923
 prteigrs : prtvol=0 or 1, do not print more k-points.

- Time - cpu, wall (sec):    0.58    0.58


--- Iteration 4
Converged after    0 self-consistent corrector steps

Total energy =    -683.341549 Ha
Integrated density (ie. total nb of electrons) =      72.0008394084

 Fermi (or HOMO) energy (hartree) =   0.00000   Average Vxc (hartree)=   0.00000
 Eigenvalues (hartree) for nkpt=   4  k points:
 kpt#   1, nband= 48, wtk=  0.12500, kpt=  0.0000  0.0000  0.0000 (reduced coord)
  -3.30082   -3.29764   -3.29764   -3.29764   -1.84934   -1.84934   -1.84934   -1.84131
  -1.84131   -1.84131   -1.84131   -1.84131   -1.84131   -1.83658   -1.83658   -1.83658
   0.14047    0.31011    0.31011    0.31011    0.33334    0.33334    0.33334    0.41566
   0.41566    0.41566    0.46801    0.46801    0.50242    0.50242    0.50242    0.50851
   0.50851    0.50851    0.50851    0.50851    0.50851    0.60628    0.60628    0.60628
   0.90447    0.90447    0.90447    1.10923    1.10923    1.10923    1.10923    1.10923
 prteigrs : prtvol=0 or 1, do not print more k-points.

- Time - cpu, wall (sec):    0.59    0.59


--- Iteration 5
Converged after    0 self-consistent corrector steps

Total energy =    -683.341549 Ha
Integrated density (ie. total nb of electrons) =      72.0008394090

 Fermi (or HOMO) energy (hartree) =   0.00000   Average Vxc (hartree)=   0.00000
 Eigenvalues (hartree) for nkpt=   4  k points:
 kpt#   1, nband= 48, wtk=  0.12500, kpt=  0.0000  0.0000  0.0000 (reduced coord)
  -3.30082   -3.29764   -3.29764   -3.29764   -1.84934   -1.84934   -1.84934   -1.84131
  -1.84131   -1.84131   -1.84131   -1.84131   -1.84131   -1.83658   -1.83658   -1.83658
   0.14047    0.31011    0.31011    0.31011    0.33334    0.33334    0.33334    0.41566
   0.41566    0.41566    0.46801    0.46801    0.50242    0.50242    0.50242    0.50851
   0.50851    0.50851    0.50851    0.50851    0.50851    0.60628    0.60628    0.60628
   0.90447    0.90447    0.90447    1.10923    1.10923    1.10923    1.10923    1.10923
 prteigrs : prtvol=0 or 1, do not print more k-points.

- Time - cpu, wall (sec):    0.61    0.61


--- Iteration 6
Converged after    0 self-consistent corrector steps

Total energy =    -683.341549 Ha
Integrated density (ie. total nb of electrons) =      72.0008394097

 Fermi (or HOMO) energy (hartree) =   0.00000   Average Vxc (hartree)=   0.00000
 Eigenvalues (hartree) for nkpt=   4  k points:
 kpt#   1, nband= 48, wtk=  0.12500, kpt=  0.0000  0.0000  0.0000 (reduced coord)
  -3.30082   -3.29764   -3.29764   -3.29764   -1.84934   -1.84934   -1.84934   -1.84131
  -1.84131   -1.84131   -1.84131   -1.84131   -1.84131   -1.83658   -1.83658   -1.83658
   0.14047    0.31011    0.31011    0.31011    0.33334    0.33334    0.33334    0.41566
   0.41566    0.41566    0.46801    0.46801    0.50242    0.50242    0.50242    0.50851
   0.50851    0.50851    0.50851    0.50851    0.50851    0.60628    0.60628    0.60628
   0.90447    0.90447    0.90447    1.10923    1.10923    1.10923    1.10923    1.10923
 prteigrs : prtvol=0 or 1, do not print more k-points.

- Time - cpu, wall (sec):    0.58    0.58


--- Iteration 7
Converged after    0 self-consistent corrector steps

Total energy =    -683.341549 Ha
Integrated density (ie. total nb of electrons) =      72.0008394107

 Fermi (or HOMO) energy (hartree) =   0.00000   Average Vxc (hartree)=   0.00000
 Eigenvalues (hartree) for nkpt=   4  k points:
 kpt#   1, nband= 48, wtk=  0.12500, kpt=  0.0000  0.0000  0.0000 (reduced coord)
  -3.30082   -3.29764   -3.29764   -3.29764   -1.84934   -1.84934   -1.84934   -1.84131
  -1.84131   -1.84131   -1.84131   -1.84131   -1.84131   -1.83658   -1.83658   -1.83658
   0.14047    0.31011    0.31011    0.31011    0.33334    0.33334    0.33334    0.41566
   0.41566    0.41566    0.46801    0.46801    0.50242    0.50242    0.50242    0.50851
   0.50851    0.50851    0.50851    0.50851    0.50851    0.60628    0.60628    0.60628
   0.90447    0.90447    0.90447    1.10923    1.10923    1.10923    1.10923    1.10923
 prteigrs : prtvol=0 or 1, do not print more k-points.

- Time - cpu, wall (sec):    0.58    0.58


--- Iteration 8
Converged after    0 self-consistent corrector steps

Total energy =    -683.341549 Ha
Integrated density (ie. total nb of electrons) =      72.0008394117

 Fermi (or HOMO) energy (hartree) =   0.00000   Average Vxc (hartree)=   0.00000
 Eigenvalues (hartree) for nkpt=   4  k points:
 kpt#   1, nband= 48, wtk=  0.12500, kpt=  0.0000  0.0000  0.0000 (reduced coord)
  -3.30082   -3.29764   -3.29764   -3.29764   -1.84934   -1.84934   -1.84934   -1.84131
  -1.84131   -1.84131   -1.84131   -1.84131   -1.84131   -1.83658   -1.83658   -1.83658
   0.14047    0.31011    0.31011    0.31011    0.33334    0.33334    0.33334    0.41566
   0.41566    0.41566    0.46801    0.46801    0.50242    0.50242    0.50242    0.50851
   0.50851    0.50851    0.50851    0.50851    0.50851    0.60628    0.60628    0.60628
   0.90447    0.90447    0.90447    1.10923    1.10923    1.10923    1.10923    1.10923
 prteigrs : prtvol=0 or 1, do not print more k-points.

- Time - cpu, wall (sec):    0.59    0.59


--- Iteration 9
Converged after    0 self-consistent corrector steps

Total energy =    -683.341549 Ha
Integrated density (ie. total nb of electrons) =      72.0008394129

 Fermi (or HOMO) energy (hartree) =   0.00000   Average Vxc (hartree)=   0.00000
 Eigenvalues (hartree) for nkpt=   4  k points:
 kpt#   1, nband= 48, wtk=  0.12500, kpt=  0.0000  0.0000  0.0000 (reduced coord)
  -3.30082   -3.29764   -3.29764   -3.29764   -1.84934   -1.84934   -1.84934   -1.84131
  -1.84131   -1.84131   -1.84131   -1.84131   -1.84131   -1.83658   -1.83658   -1.83658
   0.14047    0.31011    0.31011    0.31011    0.33334    0.33334    0.33334    0.41566
   0.41566    0.41566    0.46801    0.46801    0.50242    0.50242    0.50242    0.50851
   0.50851    0.50851    0.50851    0.50851    0.50851    0.60628    0.60628    0.60628
   0.90447    0.90447    0.90447    1.10923    1.10923    1.10923    1.10923    1.10923
 prteigrs : prtvol=0 or 1, do not print more k-points.

- Time - cpu, wall (sec):    0.58    0.59


--- Iteration 10
Converged after    0 self-consistent corrector steps

Total energy =    -683.341549 Ha
Integrated density (ie. total nb of electrons) =      72.0008394142

 Fermi (or HOMO) energy (hartree) =   0.00000   Average Vxc (hartree)=   0.00000
 Eigenvalues (hartree) for nkpt=   4  k points:
 kpt#   1, nband= 48, wtk=  0.12500, kpt=  0.0000  0.0000  0.0000 (reduced coord)
  -3.30082   -3.29764   -3.29764   -3.29764   -1.84934   -1.84934   -1.84934   -1.84131
  -1.84131   -1.84131   -1.84131   -1.84131   -1.84131   -1.83658   -1.83658   -1.83658
   0.14047    0.31011    0.31011    0.31011    0.33334    0.33334    0.33334    0.41566
   0.41566    0.41566    0.46801    0.46801    0.50242    0.50242    0.50242    0.50851
   0.50851    0.50851    0.50851    0.50851    0.50851    0.60628    0.60628    0.60628
   0.90447    0.90447    0.90447    1.10923    1.10923    1.10923    1.10923    1.10923
 prteigrs : prtvol=0 or 1, do not print more k-points.

- Time - cpu, wall (sec):    0.59    0.60


---------------------------------------------------------------------------
----------------   Finished real-time time dependent DFT   ----------------
---------------------------------------------------------------------------


== END DATASET(S) ==============================================================
================================================================================
  
 -outvars: echo values of variables after computation  --------
            acell      6.3324722713E+00  6.3324722713E+00  6.3324722713E+00 Bohr
              amu      5.86900000E+01
           bandpp1          1
           bandpp2         48
           bandpp3         48
          chkprim           0
            dtele      1.00000000E-02
             ecut      2.00000000E+01 Hartree
           etotal1    -6.8334251133E+02
           etotal2     0.0000000000E+00
           etotal3     0.0000000000E+00
            fcart1    -0.0000000000E+00 -0.0000000000E+00 -0.0000000000E+00
                      -0.0000000000E+00 -0.0000000000E+00 -0.0000000000E+00
                      -0.0000000000E+00 -0.0000000000E+00 -0.0000000000E+00
                      -0.0000000000E+00 -0.0000000000E+00 -0.0000000000E+00
            fcart2     0.0000000000E+00  0.0000000000E+00  0.0000000000E+00
                       0.0000000000E+00  0.0000000000E+00  0.0000000000E+00
                       0.0000000000E+00  0.0000000000E+00  0.0000000000E+00
                       0.0000000000E+00  0.0000000000E+00  0.0000000000E+00
            fcart3     0.0000000000E+00  0.0000000000E+00  0.0000000000E+00
                       0.0000000000E+00  0.0000000000E+00  0.0000000000E+00
                       0.0000000000E+00  0.0000000000E+00  0.0000000000E+00
                       0.0000000000E+00  0.0000000000E+00  0.0000000000E+00
-          fftalg         512
           getwfk1          0
           getwfk2          1
           getwfk3          1
           istwfk        1    1    1    1
              ixc     -101130
           jdtset        1    2    3
              kpt      0.00000000E+00  0.00000000E+00  0.00000000E+00
                       5.00000000E-01  0.00000000E+00  0.00000000E+00
                       5.00000000E-01  5.00000000E-01  0.00000000E+00
                       5.00000000E-01  5.00000000E-01  5.00000000E-01
         kptrlatt        2    0    0      0    2    0      0    0    2
          kptrlen      1.26649445E+01
P           mkmem           1
            natom           4
            nband          48
           ndtset           3
            ngfft          27      27      27
          ngfftdg          32      32      32
             nkpt           4
            nstep          50
             nsym         192
            ntime          10
           ntypat           1
              occ1     2.000000  2.000000  2.000000  2.000000  2.000000  2.000000
                       2.000000  2.000000  2.000000  2.000000  2.000000  2.000000
                       2.000000  2.000000  2.000000  2.000000  2.000000  2.000000
                       2.000000  2.000000  2.000000  2.000000  2.000000  2.000000
                       2.000000  2.000000  2.000000  2.000000  1.964677  1.964677
                       1.964677  0.167087  0.167087  0.167087  0.167087  0.167087
                       0.167087  0.000000  0.000000  0.000000  0.000000  0.000000
                       0.000000  0.000000  0.000000  0.000000  0.000000  0.000000
                       2.000000  2.000000  2.000000  2.000000  2.000000  2.000000
                       2.000000  2.000000  2.000000  2.000000  2.000000  2.000000
                       2.000000  2.000000  2.000000  2.000000  2.000000  2.000000
                       2.000000  2.000000  2.000000  2.000000  2.000000  2.000000
                       2.000000  2.000000  2.000000  2.000000  2.000000  2.000000
                       2.000000  2.000000  2.000000  2.000000  2.000000  2.000000
                       0.191883  0.191883  0.000000  0.000000  0.000000  0.000000
                       0.000000  0.000000  0.000000  0.000000  0.000000  0.000000
                       2.000000  2.000000  2.000000  2.000000  2.000000  2.000000
                       2.000000  2.000000  2.000000  2.000000  2.000000  2.000000
                       2.000000  2.000000  2.000000  2.000000  2.000000  2.000000
                       2.000000  2.000000  2.000000  2.000000  2.000000  2.000000
                       2.000000  2.000000  2.000000  2.000000  2.000000  2.000000
                       2.000000  2.000000  2.000000  2.000000  2.000000  2.000000
                       0.000000  0.000000  0.000000  0.000000  0.000000  0.000000
                       0.000000  0.000000  0.000000  0.000000  0.000000  0.000000
                       2.000000  2.000000  2.000000  2.000000  2.000000  2.000000
                       2.000000  2.000000  2.000000  2.000000  2.000000  2.000000
                       2.000000  2.000000  2.000000  2.000000  2.000000  2.000000
                       2.000000  2.000000  2.000000  2.000000  2.000000  2.000000
                       2.000000  2.000000  2.000000  2.000000  1.999999  1.999999
                       1.999999  1.999999  1.994019  1.994019  1.994019  1.994019
                       1.994019  1.994019  1.994019  1.994019  0.000000  0.000000
                       0.000000  0.000000  0.000000  0.000000  0.000000  0.000000
              occ2     2.000000  2.000000  2.000000  2.000000  2.000000  2.000000
                       2.000000  2.000000  2.000000  2.000000  2.000000  2.000000
                       2.000000  2.000000  2.000000  2.000000  2.000000  2.000000
                       2.000000  2.000000  2.000000  2.000000  2.000000  2.000000
                       2.000000  2.000000  2.000000  2.000000  2.000000  2.000000
                       2.000000  2.000000  2.000000  2.000000  2.000000  2.000000
                       0.000000  0.000000  0.000000  0.000000  0.000000  0.000000
                       0.000000  0.000000  0.000000  0.000000  0.000000  0.000000
                       2.000000  2.000000  2.000000  2.000000  2.000000  2.000000
                       2.000000  2.000000  2.000000  2.000000  2.000000  2.000000
                       2.000000  2.000000  2.000000  2.000000  2.000000  2.000000
                       2.000000  2.000000  2.000000  2.000000  2.000000  2.000000
                       2.000000  2.000000  2.000000  2.000000  2.000000  2.000000
                       2.000000  2.000000  2.000000  2.000000  2.000000  2.000000
                       0.000000  0.000000  0.000000  0.000000  0.000000  0.000000
                       0.000000  0.000000  0.000000  0.000000  0.000000  0.000000
                       2.000000  2.000000  2.000000  2.000000  2.000000  2.000000
                       2.000000  2.000000  2.000000  2.000000  2.000000  2.000000
                       2.000000  2.000000  2.000000  2.000000  2.000000  2.000000
                       2.000000  2.000000  2.000000  2.000000  2.000000  2.000000
                       2.000000  2.000000  2.000000  2.000000  2.000000  2.000000
                       2.000000  2.000000  2.000000  2.000000  2.000000  2.000000
                       0.000000  0.000000  0.000000  0.000000  0.000000  0.000000
                       0.000000  0.000000  0.000000  0.000000  0.000000  0.000000
                       2.000000  2.000000  2.000000  2.000000  2.000000  2.000000
                       2.000000  2.000000  2.000000  2.000000  2.000000  2.000000
                       2.000000  2.000000  2.000000  2.000000  2.000000  2.000000
                       2.000000  2.000000  2.000000  2.000000  2.000000  2.000000
                       2.000000  2.000000  2.000000  2.000000  2.000000  2.000000
                       2.000000  2.000000  2.000000  2.000000  2.000000  2.000000
                       0.000000  0.000000  0.000000  0.000000  0.000000  0.000000
                       0.000000  0.000000  0.000000  0.000000  0.000000  0.000000
              occ3     2.000000  2.000000  2.000000  2.000000  2.000000  2.000000
                       2.000000  2.000000  2.000000  2.000000  2.000000  2.000000
                       2.000000  2.000000  2.000000  2.000000  2.000000  2.000000
                       2.000000  2.000000  2.000000  2.000000  2.000000  2.000000
                       2.000000  2.000000  2.000000  2.000000  2.000000  2.000000
                       2.000000  2.000000  2.000000  2.000000  2.000000  2.000000
                       0.000000  0.000000  0.000000  0.000000  0.000000  0.000000
                       0.000000  0.000000  0.000000  0.000000  0.000000  0.000000
                       2.000000  2.000000  2.000000  2.000000  2.000000  2.000000
                       2.000000  2.000000  2.000000  2.000000  2.000000  2.000000
                       2.000000  2.000000  2.000000  2.000000  2.000000  2.000000
                       2.000000  2.000000  2.000000  2.000000  2.000000  2.000000
                       2.000000  2.000000  2.000000  2.000000  2.000000  2.000000
                       2.000000  2.000000  2.000000  2.000000  2.000000  2.000000
                       0.000000  0.000000  0.000000  0.000000  0.000000  0.000000
                       0.000000  0.000000  0.000000  0.000000  0.000000  0.000000
                       2.000000  2.000000  2.000000  2.000000  2.000000  2.000000
                       2.000000  2.000000  2.000000  2.000000  2.000000  2.000000
                       2.000000  2.000000  2.000000  2.000000  2.000000  2.000000
                       2.000000  2.000000  2.000000  2.000000  2.000000  2.000000
                       2.000000  2.000000  2.000000  2.000000  2.000000  2.000000
                       2.000000  2.000000  2.000000  2.000000  2.000000  2.000000
                       0.000000  0.000000  0.000000  0.000000  0.000000  0.000000
                       0.000000  0.000000  0.000000  0.000000  0.000000  0.000000
                       2.000000  2.000000  2.000000  2.000000  2.000000  2.000000
                       2.000000  2.000000  2.000000  2.000000  2.000000  2.000000
                       2.000000  2.000000  2.000000  2.000000  2.000000  2.000000
                       2.000000  2.000000  2.000000  2.000000  2.000000  2.000000
                       2.000000  2.000000  2.000000  2.000000  2.000000  2.000000
                       2.000000  2.000000  2.000000  2.000000  2.000000  2.000000
                       0.000000  0.000000  0.000000  0.000000  0.000000  0.000000
[...]
                       0  0 -1  -1  0  0   0  1  0       0  0 -1  -1  0  0   0  1  0
                       0  0 -1  -1  0  0   0  1  0       0  0 -1  -1  0  0   0  1  0
                       0  0  1   1  0  0   0 -1  0       0  0  1   1  0  0   0 -1  0
                       0  0  1   1  0  0   0 -1  0       0  0  1   1  0  0   0 -1  0
                       0  0  1  -1  0  0   0 -1  0       0  0  1  -1  0  0   0 -1  0
                       0  0  1  -1  0  0   0 -1  0       0  0  1  -1  0  0   0 -1  0
                       0  0 -1   1  0  0   0  1  0       0  0 -1   1  0  0   0  1  0
                       0  0 -1   1  0  0   0  1  0       0  0 -1   1  0  0   0  1  0
                       1  0  0   0  0  1   0  1  0       1  0  0   0  0  1   0  1  0
                       1  0  0   0  0  1   0  1  0       1  0  0   0  0  1   0  1  0
                      -1  0  0   0  0 -1   0 -1  0      -1  0  0   0  0 -1   0 -1  0
                      -1  0  0   0  0 -1   0 -1  0      -1  0  0   0  0 -1   0 -1  0
                      -1  0  0   0  0  1   0 -1  0      -1  0  0   0  0  1   0 -1  0
                      -1  0  0   0  0  1   0 -1  0      -1  0  0   0  0  1   0 -1  0
                       1  0  0   0  0 -1   0  1  0       1  0  0   0  0 -1   0  1  0
                       1  0  0   0  0 -1   0  1  0       1  0  0   0  0 -1   0  1  0
                      -1  0  0   0  0 -1   0  1  0      -1  0  0   0  0 -1   0  1  0
                      -1  0  0   0  0 -1   0  1  0      -1  0  0   0  0 -1   0  1  0
                       1  0  0   0  0  1   0 -1  0       1  0  0   0  0  1   0 -1  0
                       1  0  0   0  0  1   0 -1  0       1  0  0   0  0  1   0 -1  0
                       1  0  0   0  0 -1   0 -1  0       1  0  0   0  0 -1   0 -1  0
                       1  0  0   0  0 -1   0 -1  0       1  0  0   0  0 -1   0 -1  0
                      -1  0  0   0  0  1   0  1  0      -1  0  0   0  0  1   0  1  0
                      -1  0  0   0  0  1   0  1  0      -1  0  0   0  0  1   0  1  0
                       0  1  0   0  0  1   1  0  0       0  1  0   0  0  1   1  0  0
                       0  1  0   0  0  1   1  0  0       0  1  0   0  0  1   1  0  0
                       0 -1  0   0  0 -1  -1  0  0       0 -1  0   0  0 -1  -1  0  0
                       0 -1  0   0  0 -1  -1  0  0       0 -1  0   0  0 -1  -1  0  0
                       0 -1  0   0  0  1  -1  0  0       0 -1  0   0  0  1  -1  0  0
                       0 -1  0   0  0  1  -1  0  0       0 -1  0   0  0  1  -1  0  0
                       0  1  0   0  0 -1   1  0  0       0  1  0   0  0 -1   1  0  0
                       0  1  0   0  0 -1   1  0  0       0  1  0   0  0 -1   1  0  0
                       0 -1  0   0  0 -1   1  0  0       0 -1  0   0  0 -1   1  0  0
                       0 -1  0   0  0 -1   1  0  0       0 -1  0   0  0 -1   1  0  0
                       0  1  0   0  0  1  -1  0  0       0  1  0   0  0  1  -1  0  0
                       0  1  0   0  0  1  -1  0  0       0  1  0   0  0  1  -1  0  0
                       0  1  0   0  0 -1  -1  0  0       0  1  0   0  0 -1  -1  0  0
                       0  1  0   0  0 -1  -1  0  0       0  1  0   0  0 -1  -1  0  0
                       0 -1  0   0  0  1   1  0  0       0 -1  0   0  0  1   1  0  0
                       0 -1  0   0  0  1   1  0  0       0 -1  0   0  0  1   1  0  0
                       0  0  1   0  1  0   1  0  0       0  0  1   0  1  0   1  0  0
                       0  0  1   0  1  0   1  0  0       0  0  1   0  1  0   1  0  0
                       0  0 -1   0 -1  0  -1  0  0       0  0 -1   0 -1  0  -1  0  0
                       0  0 -1   0 -1  0  -1  0  0       0  0 -1   0 -1  0  -1  0  0
                       0  0 -1   0  1  0  -1  0  0       0  0 -1   0  1  0  -1  0  0
                       0  0 -1   0  1  0  -1  0  0       0  0 -1   0  1  0  -1  0  0
                       0  0  1   0 -1  0   1  0  0       0  0  1   0 -1  0   1  0  0
                       0  0  1   0 -1  0   1  0  0       0  0  1   0 -1  0   1  0  0
                       0  0 -1   0 -1  0   1  0  0       0  0 -1   0 -1  0   1  0  0
                       0  0 -1   0 -1  0   1  0  0       0  0 -1   0 -1  0   1  0  0
                       0  0  1   0  1  0  -1  0  0       0  0  1   0  1  0  -1  0  0
                       0  0  1   0  1  0  -1  0  0       0  0  1   0  1  0  -1  0  0
                       0  0  1   0 -1  0  -1  0  0       0  0  1   0 -1  0  -1  0  0
                       0  0  1   0 -1  0  -1  0  0       0  0  1   0 -1  0  -1  0  0
                       0  0 -1   0  1  0   1  0  0       0  0 -1   0  1  0   1  0  0
                       0  0 -1   0  1  0   1  0  0       0  0 -1   0  1  0   1  0  0
            tnons      0.0000000  0.0000000  0.0000000     0.0000000  0.5000000  0.5000000
                       0.5000000  0.0000000  0.5000000     0.5000000  0.5000000  0.0000000
                       0.0000000  0.0000000  0.0000000     0.0000000  0.5000000  0.5000000
                       0.5000000  0.0000000  0.5000000     0.5000000  0.5000000  0.0000000
                       0.0000000  0.0000000  0.0000000     0.0000000  0.5000000  0.5000000
                       0.5000000  0.0000000  0.5000000     0.5000000  0.5000000  0.0000000
                       0.0000000  0.0000000  0.0000000     0.0000000  0.5000000  0.5000000
                       0.5000000  0.0000000  0.5000000     0.5000000  0.5000000  0.0000000
                       0.0000000  0.0000000  0.0000000     0.0000000  0.5000000  0.5000000
                       0.5000000  0.0000000  0.5000000     0.5000000  0.5000000  0.0000000
                       0.0000000  0.0000000  0.0000000     0.0000000  0.5000000  0.5000000
                       0.5000000  0.0000000  0.5000000     0.5000000  0.5000000  0.0000000
                       0.0000000  0.0000000  0.0000000     0.0000000  0.5000000  0.5000000
                       0.5000000  0.0000000  0.5000000     0.5000000  0.5000000  0.0000000
                       0.0000000  0.0000000  0.0000000     0.0000000  0.5000000  0.5000000
                       0.5000000  0.0000000  0.5000000     0.5000000  0.5000000  0.0000000
                       0.0000000  0.0000000  0.0000000     0.0000000  0.5000000  0.5000000
                       0.5000000  0.0000000  0.5000000     0.5000000  0.5000000  0.0000000
                       0.0000000  0.0000000  0.0000000     0.0000000  0.5000000  0.5000000
                       0.5000000  0.0000000  0.5000000     0.5000000  0.5000000  0.0000000
                       0.0000000  0.0000000  0.0000000     0.0000000  0.5000000  0.5000000
                       0.5000000  0.0000000  0.5000000     0.5000000  0.5000000  0.0000000
                       0.0000000  0.0000000  0.0000000     0.0000000  0.5000000  0.5000000
                       0.5000000  0.0000000  0.5000000     0.5000000  0.5000000  0.0000000
                       0.0000000  0.0000000  0.0000000     0.0000000  0.5000000  0.5000000
                       0.5000000  0.0000000  0.5000000     0.5000000  0.5000000  0.0000000
                       0.0000000  0.0000000  0.0000000     0.0000000  0.5000000  0.5000000
                       0.5000000  0.0000000  0.5000000     0.5000000  0.5000000  0.0000000
                       0.0000000  0.0000000  0.0000000     0.0000000  0.5000000  0.5000000
                       0.5000000  0.0000000  0.5000000     0.5000000  0.5000000  0.0000000
                       0.0000000  0.0000000  0.0000000     0.0000000  0.5000000  0.5000000
                       0.5000000  0.0000000  0.5000000     0.5000000  0.5000000  0.0000000
                       0.0000000  0.0000000  0.0000000     0.0000000  0.5000000  0.5000000
                       0.5000000  0.0000000  0.5000000     0.5000000  0.5000000  0.0000000
                       0.0000000  0.0000000  0.0000000     0.0000000  0.5000000  0.5000000
                       0.5000000  0.0000000  0.5000000     0.5000000  0.5000000  0.0000000
                       0.0000000  0.0000000  0.0000000     0.0000000  0.5000000  0.5000000
                       0.5000000  0.0000000  0.5000000     0.5000000  0.5000000  0.0000000
                       0.0000000  0.0000000  0.0000000     0.0000000  0.5000000  0.5000000
                       0.5000000  0.0000000  0.5000000     0.5000000  0.5000000  0.0000000
                       0.0000000  0.0000000  0.0000000     0.0000000  0.5000000  0.5000000
                       0.5000000  0.0000000  0.5000000     0.5000000  0.5000000  0.0000000
                       0.0000000  0.0000000  0.0000000     0.0000000  0.5000000  0.5000000
                       0.5000000  0.0000000  0.5000000     0.5000000  0.5000000  0.0000000
                       0.0000000  0.0000000  0.0000000     0.0000000  0.5000000  0.5000000
                       0.5000000  0.0000000  0.5000000     0.5000000  0.5000000  0.0000000
                       0.0000000  0.0000000  0.0000000     0.0000000  0.5000000  0.5000000
                       0.5000000  0.0000000  0.5000000     0.5000000  0.5000000  0.0000000
                       0.0000000  0.0000000  0.0000000     0.0000000  0.5000000  0.5000000
                       0.5000000  0.0000000  0.5000000     0.5000000  0.5000000  0.0000000
                       0.0000000  0.0000000  0.0000000     0.0000000  0.5000000  0.5000000
                       0.5000000  0.0000000  0.5000000     0.5000000  0.5000000  0.0000000
                       0.0000000  0.0000000  0.0000000     0.0000000  0.5000000  0.5000000
                       0.5000000  0.0000000  0.5000000     0.5000000  0.5000000  0.0000000
                       0.0000000  0.0000000  0.0000000     0.0000000  0.5000000  0.5000000
                       0.5000000  0.0000000  0.5000000     0.5000000  0.5000000  0.0000000
                       0.0000000  0.0000000  0.0000000     0.0000000  0.5000000  0.5000000
                       0.5000000  0.0000000  0.5000000     0.5000000  0.5000000  0.0000000
                       0.0000000  0.0000000  0.0000000     0.0000000  0.5000000  0.5000000
                       0.5000000  0.0000000  0.5000000     0.5000000  0.5000000  0.0000000
                       0.0000000  0.0000000  0.0000000     0.0000000  0.5000000  0.5000000
                       0.5000000  0.0000000  0.5000000     0.5000000  0.5000000  0.0000000
                       0.0000000  0.0000000  0.0000000     0.0000000  0.5000000  0.5000000
                       0.5000000  0.0000000  0.5000000     0.5000000  0.5000000  0.0000000
                       0.0000000  0.0000000  0.0000000     0.0000000  0.5000000  0.5000000
                       0.5000000  0.0000000  0.5000000     0.5000000  0.5000000  0.0000000
                       0.0000000  0.0000000  0.0000000     0.0000000  0.5000000  0.5000000
                       0.5000000  0.0000000  0.5000000     0.5000000  0.5000000  0.0000000
                       0.0000000  0.0000000  0.0000000     0.0000000  0.5000000  0.5000000
                       0.5000000  0.0000000  0.5000000     0.5000000  0.5000000  0.0000000
                       0.0000000  0.0000000  0.0000000     0.0000000  0.5000000  0.5000000
                       0.5000000  0.0000000  0.5000000     0.5000000  0.5000000  0.0000000
                       0.0000000  0.0000000  0.0000000     0.0000000  0.5000000  0.5000000
                       0.5000000  0.0000000  0.5000000     0.5000000  0.5000000  0.0000000
                       0.0000000  0.0000000  0.0000000     0.0000000  0.5000000  0.5000000
                       0.5000000  0.0000000  0.5000000     0.5000000  0.5000000  0.0000000
                       0.0000000  0.0000000  0.0000000     0.0000000  0.5000000  0.5000000
                       0.5000000  0.0000000  0.5000000     0.5000000  0.5000000  0.0000000
                       0.0000000  0.0000000  0.0000000     0.0000000  0.5000000  0.5000000
                       0.5000000  0.0000000  0.5000000     0.5000000  0.5000000  0.0000000
                       0.0000000  0.0000000  0.0000000     0.0000000  0.5000000  0.5000000
                       0.5000000  0.0000000  0.5000000     0.5000000  0.5000000  0.0000000
                       0.0000000  0.0000000  0.0000000     0.0000000  0.5000000  0.5000000
                       0.5000000  0.0000000  0.5000000     0.5000000  0.5000000  0.0000000
                       0.0000000  0.0000000  0.0000000     0.0000000  0.5000000  0.5000000
                       0.5000000  0.0000000  0.5000000     0.5000000  0.5000000  0.0000000
                       0.0000000  0.0000000  0.0000000     0.0000000  0.5000000  0.5000000
                       0.5000000  0.0000000  0.5000000     0.5000000  0.5000000  0.0000000
                       0.0000000  0.0000000  0.0000000     0.0000000  0.5000000  0.5000000
                       0.5000000  0.0000000  0.5000000     0.5000000  0.5000000  0.0000000
                       0.0000000  0.0000000  0.0000000     0.0000000  0.5000000  0.5000000
                       0.5000000  0.0000000  0.5000000     0.5000000  0.5000000  0.0000000
                       0.0000000  0.0000000  0.0000000     0.0000000  0.5000000  0.5000000
                       0.5000000  0.0000000  0.5000000     0.5000000  0.5000000  0.0000000
                       0.0000000  0.0000000  0.0000000     0.0000000  0.5000000  0.5000000
                       0.5000000  0.0000000  0.5000000     0.5000000  0.5000000  0.0000000
           tolvrs      1.00000000E-04
           tsmear      9.50044626E-04 Hartree
            typat      1  1  1  1
           useylm           1
              wtk        0.12500    0.37500    0.37500    0.12500
           xangst      0.0000000000E+00  0.0000000000E+00  0.0000000000E+00
                       0.0000000000E+00  1.6755000000E+00  1.6755000000E+00
                       1.6755000000E+00  0.0000000000E+00  1.6755000000E+00
                       1.6755000000E+00  1.6755000000E+00  0.0000000000E+00
            xcart      0.0000000000E+00  0.0000000000E+00  0.0000000000E+00
                       0.0000000000E+00  3.1662361356E+00  3.1662361356E+00
                       3.1662361356E+00  0.0000000000E+00  3.1662361356E+00
                       3.1662361356E+00  3.1662361356E+00  0.0000000000E+00
             xred      0.0000000000E+00  0.0000000000E+00  0.0000000000E+00
                       0.0000000000E+00  5.0000000000E-01  5.0000000000E-01
                       5.0000000000E-01  0.0000000000E+00  5.0000000000E-01
                       5.0000000000E-01  5.0000000000E-01  0.0000000000E+00
            znucl       28.00000

================================================================================


- Timing analysis has been suppressed with timopt=0



================================================================================

 Suggested references for the acknowledgment of ABINIT usage.

 The users of ABINIT have little formal obligations with respect to the ABINIT group
 (those specified in the GNU General Public License, http://www.gnu.org/copyleft/gpl.txt).
 However, it is common practice in the scientific literature,
 to acknowledge the efforts of people that have made the research possible.
 In this spirit, please find below suggested citations of work written by ABINIT developers,
 corresponding to implementations inside of ABINIT that you have used in the present run.
 Note also that it will be of great value to readers of publications presenting these results,
 to read papers enabling them to understand the theoretical formalism and details
 of the ABINIT implementation.
 For information on why they are suggested, see also https://docs.abinit.org/theory/acknowledgments.
-
- [1] Implementation of the Projector Augmented-Wave Method in the ABINIT code.
- M. Torrent, F. Jollet, F. Bottin, G. Zerah, and X. Gonze Comput. Mat. Science 42, 337, (2008).
- Comment: PAW calculations. Strong suggestion to cite this paper.
- DOI and bibtex: see https://docs.abinit.org/theory/bibliography/#torrent2008
-
- [2] Libxc: A library of exchange and correlation functionals for density functional theory.
- M.A.L. Marques, M.J.T. Oliveira, T. Burnus, Computer Physics Communications 183, 2227 (2012).
- Comment: to be cited when LibXC is used (negative value of ixc)
- Strong suggestion to cite this paper.
- DOI and bibtex: see https://docs.abinit.org/theory/bibliography/#marques2012
-
- [3] The Abinit project: Impact, environment and recent developments.
- Computer Phys. Comm. 248, 107042 (2020).
- X.Gonze, B. Amadon, G. Antonius, F.Arnardi, L.Baguet, J.-M.Beuken,
- J.Bieder, F.Bottin, J.Bouchet, E.Bousquet, N.Brouwer, F.Bruneval,
- G.Brunin, T.Cavignac, J.-B. Charraud, Wei Chen, M.Cote, S.Cottenier,
- J.Denier, G.Geneste, Ph.Ghosez, M.Giantomassi, Y.Gillet, O.Gingras,
- D.R.Hamann, G.Hautier, Xu He, N.Helbig, N.Holzwarth, Y.Jia, F.Jollet,
- W.Lafargue-Dit-Hauret, K.Lejaeghere, M.A.L.Marques, A.Martin, C.Martins,
- H.P.C. Miranda, F.Naccarato, K. Persson, G.Petretto, V.Planes, Y.Pouillon,
- S.Prokhorenko, F.Ricci, G.-M.Rignanese, A.H.Romero, M.M.Schmitt, M.Torrent,
- M.J.van Setten, B.Van Troeye, M.J.Verstraete, G.Zerah and J.W.Zwanzig
- Comment: the fifth generic paper describing the ABINIT project.
- Note that a version of this paper, that is not formatted for Computer Phys. Comm. 
- is available at https://www.abinit.org/sites/default/files/ABINIT20.pdf .
- The licence allows the authors to put it on the Web.
- DOI and bibtex: see https://docs.abinit.org/theory/bibliography/#gonze2020
-
- [4] ABINIT: Overview, and focus on selected capabilities
- J. Chem. Phys. 152, 124102 (2020).
- A. Romero, D.C. Allan, B. Amadon, G. Antonius, T. Applencourt, L.Baguet,
- J.Bieder, F.Bottin, J.Bouchet, E.Bousquet, F.Bruneval,
- G.Brunin, D.Caliste, M.Cote,
- J.Denier, C. Dreyer, Ph.Ghosez, M.Giantomassi, Y.Gillet, O.Gingras,
- D.R.Hamann, G.Hautier, F.Jollet, G. Jomard,
- A.Martin, 
- H.P.C. Miranda, F.Naccarato, G.Petretto, N.A. Pike, V.Planes,
- S.Prokhorenko, T. Rangel, F.Ricci, G.-M.Rignanese, M.Royo, M.Stengel, M.Torrent,
- M.J.van Setten, B.Van Troeye, M.J.Verstraete, J.Wiktor, J.W.Zwanziger, and X.Gonze.
- Comment: a global overview of ABINIT, with focus on selected capabilities .
- Note that a version of this paper, that is not formatted for J. Chem. Phys 
- is available at https://www.abinit.org/sites/default/files/ABINIT20_JPC.pdf .
- The licence allows the authors to put it on the Web.
- DOI and bibtex: see https://docs.abinit.org/theory/bibliography/#romero2020
-
- [5] Recent developments in the ABINIT software package.
- Computer Phys. Comm. 205, 106 (2016).
- X.Gonze, F.Jollet, F.Abreu Araujo, D.Adams, B.Amadon, T.Applencourt,
- C.Audouze, J.-M.Beuken, J.Bieder, A.Bokhanchuk, E.Bousquet, F.Bruneval
- D.Caliste, M.Cote, F.Dahm, F.Da Pieve, M.Delaveau, M.Di Gennaro,
- B.Dorado, C.Espejo, G.Geneste, L.Genovese, A.Gerossier, M.Giantomassi,
- Y.Gillet, D.R.Hamann, L.He, G.Jomard, J.Laflamme Janssen, S.Le Roux,
- A.Levitt, A.Lherbier, F.Liu, I.Lukacevic, A.Martin, C.Martins,
- M.J.T.Oliveira, S.Ponce, Y.Pouillon, T.Rangel, G.-M.Rignanese,
- A.H.Romero, B.Rousseau, O.Rubel, A.A.Shukri, M.Stankovski, M.Torrent,
- M.J.Van Setten, B.Van Troeye, M.J.Verstraete, D.Waroquier, J.Wiktor,
- B.Xu, A.Zhou, J.W.Zwanziger.
- Comment: the fourth generic paper describing the ABINIT project.
- Note that a version of this paper, that is not formatted for Computer Phys. Comm. 
- is available at https://www.abinit.org/sites/default/files/ABINIT16.pdf .
- The licence allows the authors to put it on the Web.
- DOI and bibtex: see https://docs.abinit.org/theory/bibliography/#gonze2016
-
- Proc.   0 individual time (sec): cpu=         17.8  wall=         17.9

================================================================================

 Calculation completed.
.Delivered   0 WARNINGs and   0 COMMENTs to log file.
+Overall time at end (sec) : cpu=         71.1  wall=         71.4
