
.Version 10.5.0 of ABINIT, released Apr 2025.
.(MPI version, prepared for a x86_64_linux_gnu13.2 computer) 

.Copyright (C) 1998-2025 ABINIT group . 
 ABINIT comes with ABSOLUTELY NO WARRANTY.
 It is free software, and you are welcome to redistribute it
 under certain conditions (GNU General Public License,
 see ~abinit/COPYING or http://www.gnu.org/copyleft/gpl.txt).

 ABINIT is a project of the Universite Catholique de Louvain,
 Corning Inc. and other collaborators, see ~abinit/doc/developers/contributors.txt .
 Please read https://docs.abinit.org/theory/acknowledgments for suggested
 acknowledgments of the ABINIT effort.
 For more information, see https://www.abinit.org .

.Starting date : Mon 14 Apr 2025.
- ( at 01h39 )
  
- input  file    -> /home/buildbot/ABINIT3/eos_gnu_13.2_mpich/rgupta_develop/tests/TestBot_MPI1/v10_t104-t105-t106-t107/t104.abi
- output file    -> t104.abo
- root for input  files -> t104i
- root for output files -> t104o

 DATASET    1 : space group Fd -3 m (#227); Bravais cF (face-center cubic)
================================================================================
 Values of the parameters that define the memory need for DATASET  1.
     intxc =       0    ionmov =       0      iscf =       7    lmnmax =       6
     lnmax =       6     mgfft =      40  mpssoang =       3    mqgrid =    3001
     natom =       2  nloc_mem =       1    nspden =       1   nspinor =       1
    nsppol =       1      nsym =      48    n1xccc =    2501    ntypat =       1
    occopt =       1   xclevel =       2
-    mband =          20        mffmem =           1         mkmem =           8
       mpw =        2740          nfft =       64000          nkpt =           8
================================================================================
P This job should need less than                      28.228 Mbytes of memory.
  Rough estimation (10% accuracy) of disk space for files :
_ WF disk file :      6.691 Mbytes ; DEN or POT disk file :      0.490 Mbytes.
================================================================================

 DATASET    2 : space group Fd -3 m (#227); Bravais cF (face-center cubic)
================================================================================
 Values of the parameters that define the memory need for DATASET  2.
     intxc =       0    ionmov =       0      iscf =      -2    lmnmax =       6
     lnmax =       6     mgfft =      40  mpssoang =       3    mqgrid =    3001
     natom =       2  nloc_mem =       1    nspden =       1   nspinor =       1
    nsppol =       1      nsym =      48    n1xccc =    2501    ntypat =       1
    occopt =       1   xclevel =       2
-    mband =          20        mffmem =           1         mkmem =           8
       mpw =        2740          nfft =       64000          nkpt =           8
================================================================================
P This job should need less than                      20.076 Mbytes of memory.
  Rough estimation (10% accuracy) of disk space for files :
_ WF disk file :      6.691 Mbytes ; DEN or POT disk file :      0.490 Mbytes.
================================================================================

 DATASET    3 : space group Fd -3 m (#227); Bravais cF (face-center cubic)
================================================================================
 Values of the parameters that define the memory need for DATASET  3 (RF).
     intxc =       0      iscf =       7    lmnmax =       6     lnmax =       6
     mgfft =      40  mpssoang =       3    mqgrid =    3001     natom =       2
  nloc_mem =       1    nspden =       1   nspinor =       1    nsppol =       1
      nsym =      48    n1xccc =    2501    ntypat =       1    occopt =       1
   xclevel =       2
-    mband =          20        mffmem =           1         mkmem =          64
-   mkqmem =          64        mk1mem =          64           mpw =        2764
      nfft =       64000          nkpt =          64
================================================================================
P This job should need less than                     181.491 Mbytes of memory.
  Rough estimation (10% accuracy) of disk space for files :
_ WF disk file :     53.986 Mbytes ; DEN or POT disk file :      0.490 Mbytes.
================================================================================

 DATASET    4 : space group Fd -3 m (#227); Bravais cF (face-center cubic)
================================================================================
 Values of the parameters that define the memory need for DATASET  4 (RF).
     intxc =       0      iscf =       7    lmnmax =       6     lnmax =       6
     mgfft =      40  mpssoang =       3    mqgrid =    3001     natom =       2
  nloc_mem =       1    nspden =       1   nspinor =       1    nsppol =       1
      nsym =      48    n1xccc =    2501    ntypat =       1    occopt =       1
   xclevel =       2
-    mband =          20        mffmem =           1         mkmem =          64
-   mkqmem =          64        mk1mem =          64           mpw =        2764
      nfft =       64000          nkpt =          64
================================================================================
P This job should need less than                     184.958 Mbytes of memory.
  Rough estimation (10% accuracy) of disk space for files :
_ WF disk file :     53.986 Mbytes ; DEN or POT disk file :      0.490 Mbytes.
================================================================================

 DATASET    5 : space group Fd -3 m (#227); Bravais cF (face-center cubic)
================================================================================
 Values of the parameters that define the memory need for DATASET  5 (RF).
     intxc =       0      iscf =       7    lmnmax =       6     lnmax =       6
     mgfft =      40  mpssoang =       3    mqgrid =    3001     natom =       2
  nloc_mem =       1    nspden =       1   nspinor =       1    nsppol =       1
      nsym =      48    n1xccc =    2501    ntypat =       1    occopt =       1
   xclevel =       2
-    mband =          20        mffmem =           1         mkmem =          64
-   mkqmem =          64        mk1mem =          64           mpw =        2764
      nfft =       64000          nkpt =          64
================================================================================
P This job should need less than                     184.958 Mbytes of memory.
  Rough estimation (10% accuracy) of disk space for files :
_ WF disk file :     53.986 Mbytes ; DEN or POT disk file :      0.490 Mbytes.
================================================================================

--------------------------------------------------------------------------------
------------- Echo of variables that govern the present computation ------------
--------------------------------------------------------------------------------
-
- outvars: echo of selected default values
-   iomode0 =  0 , fftalg0 =512 , wfoptalg0 =  0
-
- outvars: echo of global parameters not present in the input file
-  max_nthreads =    0
-
 -outvars: echo values of preprocessed input variables --------
            acell      1.0000000000E+00  1.0000000000E+00  1.0000000000E+00 Bohr
              amu      2.80855000E+01
      chksymbreak           0
           diemac      6.00000000E+00
             ecut      3.50000000E+01 Hartree
-          fftalg         512
           getwfk1          0
           getwfk2          0
           getwfk3          1
           getwfk4          1
           getwfk5          1
             iscf1          7
             iscf2         -2
             iscf3          7
             iscf4          7
             iscf5          7
           istwfk1       2    0    3    0    0    0    7    0
           istwfk2       2    0    3    0    0    0    7    0
           istwfk3       1    0    1    0    0    0    0    0    1    0
                         1    0    0    0    0    0    0    0    0    0
                         0    0    0    0    0    0    0    0    0    0
                         0    0    1    0    1    0    0    0    0    0
                         1    0    1    0    0    0    0    0    0    0
           istwfk4       1    0    1    0    0    0    0    0    1    0
                         1    0    0    0    0    0    0    0    0    0
                         0    0    0    0    0    0    0    0    0    0
                         0    0    1    0    1    0    0    0    0    0
                         1    0    1    0    0    0    0    0    0    0
           istwfk5       1    0    1    0    0    0    0    0    1    0
                         1    0    0    0    0    0    0    0    0    0
                         0    0    0    0    0    0    0    0    0    0
                         0    0    1    0    1    0    0    0    0    0
                         1    0    1    0    0    0    0    0    0    0
                       outvar_i_n : Printing only first  50 k-points.
              ixc          11
           jdtset        1    2    3    4    5
              kpt1     0.00000000E+00  0.00000000E+00  0.00000000E+00
                       2.50000000E-01  0.00000000E+00  0.00000000E+00
                       5.00000000E-01  0.00000000E+00  0.00000000E+00
                       2.50000000E-01  2.50000000E-01  0.00000000E+00
                       5.00000000E-01  2.50000000E-01  0.00000000E+00
                      -2.50000000E-01  2.50000000E-01  0.00000000E+00
                       5.00000000E-01  5.00000000E-01  0.00000000E+00
                      -2.50000000E-01  5.00000000E-01  2.50000000E-01
              kpt2     0.00000000E+00  0.00000000E+00  0.00000000E+00
                       2.50000000E-01  0.00000000E+00  0.00000000E+00
                       5.00000000E-01  0.00000000E+00  0.00000000E+00
                       2.50000000E-01  2.50000000E-01  0.00000000E+00
                       5.00000000E-01  2.50000000E-01  0.00000000E+00
                      -2.50000000E-01  2.50000000E-01  0.00000000E+00
                       5.00000000E-01  5.00000000E-01  0.00000000E+00
                      -2.50000000E-01  5.00000000E-01  2.50000000E-01
              kpt3     0.00000000E+00  0.00000000E+00  0.00000000E+00
                       2.50000000E-01  0.00000000E+00  0.00000000E+00
                       5.00000000E-01  0.00000000E+00  0.00000000E+00
                      -2.50000000E-01  0.00000000E+00  0.00000000E+00
                       0.00000000E+00  2.50000000E-01  0.00000000E+00
                       2.50000000E-01  2.50000000E-01  0.00000000E+00
                       5.00000000E-01  2.50000000E-01  0.00000000E+00
                      -2.50000000E-01  2.50000000E-01  0.00000000E+00
                       0.00000000E+00  5.00000000E-01  0.00000000E+00
                       2.50000000E-01  5.00000000E-01  0.00000000E+00
                       5.00000000E-01  5.00000000E-01  0.00000000E+00
                      -2.50000000E-01  5.00000000E-01  0.00000000E+00
                       0.00000000E+00 -2.50000000E-01  0.00000000E+00
                       2.50000000E-01 -2.50000000E-01  0.00000000E+00
                       5.00000000E-01 -2.50000000E-01  0.00000000E+00
                      -2.50000000E-01 -2.50000000E-01  0.00000000E+00
                       0.00000000E+00  0.00000000E+00  2.50000000E-01
                       2.50000000E-01  0.00000000E+00  2.50000000E-01
                       5.00000000E-01  0.00000000E+00  2.50000000E-01
                      -2.50000000E-01  0.00000000E+00  2.50000000E-01
                       0.00000000E+00  2.50000000E-01  2.50000000E-01
                       2.50000000E-01  2.50000000E-01  2.50000000E-01
                       5.00000000E-01  2.50000000E-01  2.50000000E-01
                      -2.50000000E-01  2.50000000E-01  2.50000000E-01
                       0.00000000E+00  5.00000000E-01  2.50000000E-01
                       2.50000000E-01  5.00000000E-01  2.50000000E-01
                       5.00000000E-01  5.00000000E-01  2.50000000E-01
                      -2.50000000E-01  5.00000000E-01  2.50000000E-01
                       0.00000000E+00 -2.50000000E-01  2.50000000E-01
                       2.50000000E-01 -2.50000000E-01  2.50000000E-01
                       5.00000000E-01 -2.50000000E-01  2.50000000E-01
                      -2.50000000E-01 -2.50000000E-01  2.50000000E-01
                       0.00000000E+00  0.00000000E+00  5.00000000E-01
                       2.50000000E-01  0.00000000E+00  5.00000000E-01
                       5.00000000E-01  0.00000000E+00  5.00000000E-01
                      -2.50000000E-01  0.00000000E+00  5.00000000E-01
                       0.00000000E+00  2.50000000E-01  5.00000000E-01
                       2.50000000E-01  2.50000000E-01  5.00000000E-01
                       5.00000000E-01  2.50000000E-01  5.00000000E-01
                      -2.50000000E-01  2.50000000E-01  5.00000000E-01
                       0.00000000E+00  5.00000000E-01  5.00000000E-01
                       2.50000000E-01  5.00000000E-01  5.00000000E-01
                       5.00000000E-01  5.00000000E-01  5.00000000E-01
                      -2.50000000E-01  5.00000000E-01  5.00000000E-01
                       0.00000000E+00 -2.50000000E-01  5.00000000E-01
                       2.50000000E-01 -2.50000000E-01  5.00000000E-01
                       5.00000000E-01 -2.50000000E-01  5.00000000E-01
                      -2.50000000E-01 -2.50000000E-01  5.00000000E-01
                       0.00000000E+00  0.00000000E+00 -2.50000000E-01
                       2.50000000E-01  0.00000000E+00 -2.50000000E-01
              kpt4     0.00000000E+00  0.00000000E+00  0.00000000E+00
                       2.50000000E-01  0.00000000E+00  0.00000000E+00
                       5.00000000E-01  0.00000000E+00  0.00000000E+00
                      -2.50000000E-01  0.00000000E+00  0.00000000E+00
                       0.00000000E+00  2.50000000E-01  0.00000000E+00
                       2.50000000E-01  2.50000000E-01  0.00000000E+00
                       5.00000000E-01  2.50000000E-01  0.00000000E+00
                      -2.50000000E-01  2.50000000E-01  0.00000000E+00
                       0.00000000E+00  5.00000000E-01  0.00000000E+00
                       2.50000000E-01  5.00000000E-01  0.00000000E+00
                       5.00000000E-01  5.00000000E-01  0.00000000E+00
                      -2.50000000E-01  5.00000000E-01  0.00000000E+00
                       0.00000000E+00 -2.50000000E-01  0.00000000E+00
                       2.50000000E-01 -2.50000000E-01  0.00000000E+00
                       5.00000000E-01 -2.50000000E-01  0.00000000E+00
                      -2.50000000E-01 -2.50000000E-01  0.00000000E+00
                       0.00000000E+00  0.00000000E+00  2.50000000E-01
                       2.50000000E-01  0.00000000E+00  2.50000000E-01
                       5.00000000E-01  0.00000000E+00  2.50000000E-01
                      -2.50000000E-01  0.00000000E+00  2.50000000E-01
                       0.00000000E+00  2.50000000E-01  2.50000000E-01
                       2.50000000E-01  2.50000000E-01  2.50000000E-01
                       5.00000000E-01  2.50000000E-01  2.50000000E-01
                      -2.50000000E-01  2.50000000E-01  2.50000000E-01
                       0.00000000E+00  5.00000000E-01  2.50000000E-01
                       2.50000000E-01  5.00000000E-01  2.50000000E-01
                       5.00000000E-01  5.00000000E-01  2.50000000E-01
                      -2.50000000E-01  5.00000000E-01  2.50000000E-01
                       0.00000000E+00 -2.50000000E-01  2.50000000E-01
                       2.50000000E-01 -2.50000000E-01  2.50000000E-01
                       5.00000000E-01 -2.50000000E-01  2.50000000E-01
                      -2.50000000E-01 -2.50000000E-01  2.50000000E-01
                       0.00000000E+00  0.00000000E+00  5.00000000E-01
                       2.50000000E-01  0.00000000E+00  5.00000000E-01
                       5.00000000E-01  0.00000000E+00  5.00000000E-01
                      -2.50000000E-01  0.00000000E+00  5.00000000E-01
                       0.00000000E+00  2.50000000E-01  5.00000000E-01
                       2.50000000E-01  2.50000000E-01  5.00000000E-01
                       5.00000000E-01  2.50000000E-01  5.00000000E-01
                      -2.50000000E-01  2.50000000E-01  5.00000000E-01
                       0.00000000E+00  5.00000000E-01  5.00000000E-01
                       2.50000000E-01  5.00000000E-01  5.00000000E-01
                       5.00000000E-01  5.00000000E-01  5.00000000E-01
                      -2.50000000E-01  5.00000000E-01  5.00000000E-01
                       0.00000000E+00 -2.50000000E-01  5.00000000E-01
                       2.50000000E-01 -2.50000000E-01  5.00000000E-01
                       5.00000000E-01 -2.50000000E-01  5.00000000E-01
                      -2.50000000E-01 -2.50000000E-01  5.00000000E-01
                       0.00000000E+00  0.00000000E+00 -2.50000000E-01
                       2.50000000E-01  0.00000000E+00 -2.50000000E-01
              kpt5     0.00000000E+00  0.00000000E+00  0.00000000E+00
                       2.50000000E-01  0.00000000E+00  0.00000000E+00
                       5.00000000E-01  0.00000000E+00  0.00000000E+00
                      -2.50000000E-01  0.00000000E+00  0.00000000E+00
                       0.00000000E+00  2.50000000E-01  0.00000000E+00
                       2.50000000E-01  2.50000000E-01  0.00000000E+00
                       5.00000000E-01  2.50000000E-01  0.00000000E+00
                      -2.50000000E-01  2.50000000E-01  0.00000000E+00
                       0.00000000E+00  5.00000000E-01  0.00000000E+00
                       2.50000000E-01  5.00000000E-01  0.00000000E+00
                       5.00000000E-01  5.00000000E-01  0.00000000E+00
                      -2.50000000E-01  5.00000000E-01  0.00000000E+00
                       0.00000000E+00 -2.50000000E-01  0.00000000E+00
                       2.50000000E-01 -2.50000000E-01  0.00000000E+00
                       5.00000000E-01 -2.50000000E-01  0.00000000E+00
                      -2.50000000E-01 -2.50000000E-01  0.00000000E+00
                       0.00000000E+00  0.00000000E+00  2.50000000E-01
                       2.50000000E-01  0.00000000E+00  2.50000000E-01
                       5.00000000E-01  0.00000000E+00  2.50000000E-01
                      -2.50000000E-01  0.00000000E+00  2.50000000E-01
                       0.00000000E+00  2.50000000E-01  2.50000000E-01
                       2.50000000E-01  2.50000000E-01  2.50000000E-01
                       5.00000000E-01  2.50000000E-01  2.50000000E-01
                      -2.50000000E-01  2.50000000E-01  2.50000000E-01
                       0.00000000E+00  5.00000000E-01  2.50000000E-01
                       2.50000000E-01  5.00000000E-01  2.50000000E-01
                       5.00000000E-01  5.00000000E-01  2.50000000E-01
                      -2.50000000E-01  5.00000000E-01  2.50000000E-01
                       0.00000000E+00 -2.50000000E-01  2.50000000E-01
                       2.50000000E-01 -2.50000000E-01  2.50000000E-01
                       5.00000000E-01 -2.50000000E-01  2.50000000E-01
                      -2.50000000E-01 -2.50000000E-01  2.50000000E-01
                       0.00000000E+00  0.00000000E+00  5.00000000E-01
                       2.50000000E-01  0.00000000E+00  5.00000000E-01
                       5.00000000E-01  0.00000000E+00  5.00000000E-01
                      -2.50000000E-01  0.00000000E+00  5.00000000E-01
                       0.00000000E+00  2.50000000E-01  5.00000000E-01
                       2.50000000E-01  2.50000000E-01  5.00000000E-01
                       5.00000000E-01  2.50000000E-01  5.00000000E-01
                      -2.50000000E-01  2.50000000E-01  5.00000000E-01
                       0.00000000E+00  5.00000000E-01  5.00000000E-01
                       2.50000000E-01  5.00000000E-01  5.00000000E-01
                       5.00000000E-01  5.00000000E-01  5.00000000E-01
                      -2.50000000E-01  5.00000000E-01  5.00000000E-01
                       0.00000000E+00 -2.50000000E-01  5.00000000E-01
                       2.50000000E-01 -2.50000000E-01  5.00000000E-01
                       5.00000000E-01 -2.50000000E-01  5.00000000E-01
                      -2.50000000E-01 -2.50000000E-01  5.00000000E-01
                       0.00000000E+00  0.00000000E+00 -2.50000000E-01
                       2.50000000E-01  0.00000000E+00 -2.50000000E-01
                       outvar_i_n : Printing only first  50 k-points.
           kptopt1          1
           kptopt2          1
           kptopt3          3
           kptopt4          3
           kptopt5          3
         kptrlatt        4    0    0      0    4    0      0    0    4
          kptrlen      2.92300919E+01
P           mkmem1          8
P           mkmem2          8
P           mkmem3         64
P           mkmem4         64
P           mkmem5         64
P          mkqmem1          8
P          mkqmem2          8
P          mkqmem3         64
P          mkqmem4         64
P          mkqmem5         64
P          mk1mem1          8
P          mk1mem2          8
P          mk1mem3         64
P          mk1mem4         64
P          mk1mem5         64
            natom           2
            nband1         20
            nband2         20
            nband3         20
            nband4         20
            nband5         20
           nbdbuf1          0
           nbdbuf2          4
           nbdbuf3          0
           nbdbuf4          0
           nbdbuf5          0
           ndtset           5
            ngfft          40      40      40
             nkpt1          8
             nkpt2          8
             nkpt3         64
             nkpt4         64
             nkpt5         64
             nqpt1          0
             nqpt2          0
             nqpt3          1
             nqpt4          1
             nqpt5          1
             nsym          48
           ntypat           1
              occ1     2.000000  2.000000  2.000000  2.000000  0.000000  0.000000
                       0.000000  0.000000  0.000000  0.000000  0.000000  0.000000
                       0.000000  0.000000  0.000000  0.000000  0.000000  0.000000
                       0.000000  0.000000
              occ3     2.000000  2.000000  2.000000  2.000000  0.000000  0.000000
                       0.000000  0.000000  0.000000  0.000000  0.000000  0.000000
                       0.000000  0.000000  0.000000  0.000000  0.000000  0.000000
                       0.000000  0.000000
              occ4     2.000000  2.000000  2.000000  2.000000  0.000000  0.000000
                       0.000000  0.000000  0.000000  0.000000  0.000000  0.000000
                       0.000000  0.000000  0.000000  0.000000  0.000000  0.000000
                       0.000000  0.000000
              occ5     2.000000  2.000000  2.000000  2.000000  0.000000  0.000000
                       0.000000  0.000000  0.000000  0.000000  0.000000  0.000000
                       0.000000  0.000000  0.000000  0.000000  0.000000  0.000000
                       0.000000  0.000000
        optdriver1          0
        optdriver2          0
        optdriver3          1
        optdriver4          1
        optdriver5          1
           prtpot           1
              qpt1     0.00000000E+00  0.00000000E+00  0.00000000E+00
              qpt2     0.00000000E+00  0.00000000E+00  0.00000000E+00
              qpt3     0.00000000E+00  0.00000000E+00  0.00000000E+00
              qpt4     5.00000000E-01  0.00000000E+00  0.00000000E+00
              qpt5     5.00000000E-01  5.00000000E-01  0.00000000E+00
           rfphon1          0
           rfphon2          0
           rfphon3          1
           rfphon4          1
           rfphon5          1
            rprim      6.3285005244E+00  0.0000000000E+00  3.6537614813E+00
                       2.1095001748E+00  5.9665675141E+00  3.6537614813E+00
                       0.0000000000E+00  0.0000000000E+00  7.3075229627E+00
          spgroup         227
           symrel      1  0  0   0  1  0   0  0  1      -1  0  0   0 -1  0   0  0 -1
                       0 -1  1   0 -1  0   1 -1  0       0  1 -1   0  1  0  -1  1  0
                      -1  0  0  -1  0  1  -1  1  0       1  0  0   1  0 -1   1 -1  0
                       0  1 -1   1  0 -1   0  0 -1       0 -1  1  -1  0  1   0  0  1
                      -1  0  0  -1  1  0  -1  0  1       1  0  0   1 -1  0   1  0 -1
                       0 -1  1   1 -1  0   0 -1  0       0  1 -1  -1  1  0   0  1  0
                       1  0  0   0  0  1   0  1  0      -1  0  0   0  0 -1   0 -1  0
                       0  1 -1   0  0 -1   1  0 -1       0 -1  1   0  0  1  -1  0  1
                      -1  0  1  -1  1  0  -1  0  0       1  0 -1   1 -1  0   1  0  0
                       0 -1  0   1 -1  0   0 -1  1       0  1  0  -1  1  0   0  1 -1
                       1  0 -1   0  0 -1   0  1 -1      -1  0  1   0  0  1   0 -1  1
                       0  1  0   0  0  1   1  0  0       0 -1  0   0  0 -1  -1  0  0
                       1  0 -1   0  1 -1   0  0 -1      -1  0  1   0 -1  1   0  0  1
                       0 -1  0   0 -1  1   1 -1  0       0  1  0   0  1 -1  -1  1  0
                      -1  0  1  -1  0  0  -1  1  0       1  0 -1   1  0  0   1 -1  0
                       0  1  0   1  0  0   0  0  1       0 -1  0  -1  0  0   0  0 -1
                       0  0 -1   0  1 -1   1  0 -1       0  0  1   0 -1  1  -1  0  1
                       1 -1  0   0 -1  1   0 -1  0      -1  1  0   0  1 -1   0  1  0
                       0  0  1   1  0  0   0  1  0       0  0 -1  -1  0  0   0 -1  0
                      -1  1  0  -1  0  0  -1  0  1       1 -1  0   1  0  0   1  0 -1
                       0  0  1   0  1  0   1  0  0       0  0 -1   0 -1  0  -1  0  0
                       1 -1  0   0 -1  0   0 -1  1      -1  1  0   0  1  0   0  1 -1
                       0  0 -1   1  0 -1   0  1 -1       0  0  1  -1  0  1   0 -1  1
                      -1  1  0  -1  0  1  -1  0  0       1 -1  0   1  0 -1   1  0  0
            tnons      0.0000000  0.0000000  0.0000000     0.2500000  0.2500000  0.2500000
                       0.0000000  0.0000000  0.0000000     0.2500000  0.2500000  0.2500000
                       0.0000000  0.0000000  0.0000000     0.2500000  0.2500000  0.2500000
                       0.0000000  0.0000000  0.0000000     0.2500000  0.2500000  0.2500000
                       0.0000000  0.0000000  0.0000000     0.2500000  0.2500000  0.2500000
                       0.0000000  0.0000000  0.0000000     0.2500000  0.2500000  0.2500000
                       0.0000000  0.0000000  0.0000000     0.2500000  0.2500000  0.2500000
                       0.0000000  0.0000000  0.0000000     0.2500000  0.2500000  0.2500000
                       0.0000000  0.0000000  0.0000000     0.2500000  0.2500000  0.2500000
                       0.0000000  0.0000000  0.0000000     0.2500000  0.2500000  0.2500000
                       0.0000000  0.0000000  0.0000000     0.2500000  0.2500000  0.2500000
                       0.0000000  0.0000000  0.0000000     0.2500000  0.2500000  0.2500000
                       0.0000000  0.0000000  0.0000000     0.2500000  0.2500000  0.2500000
                       0.0000000  0.0000000  0.0000000     0.2500000  0.2500000  0.2500000
                       0.0000000  0.0000000  0.0000000     0.2500000  0.2500000  0.2500000
                       0.0000000  0.0000000  0.0000000     0.2500000  0.2500000  0.2500000
                       0.0000000  0.0000000  0.0000000     0.2500000  0.2500000  0.2500000
                       0.0000000  0.0000000  0.0000000     0.2500000  0.2500000  0.2500000
                       0.0000000  0.0000000  0.0000000     0.2500000  0.2500000  0.2500000
                       0.0000000  0.0000000  0.0000000     0.2500000  0.2500000  0.2500000
                       0.0000000  0.0000000  0.0000000     0.2500000  0.2500000  0.2500000
                       0.0000000  0.0000000  0.0000000     0.2500000  0.2500000  0.2500000
                       0.0000000  0.0000000  0.0000000     0.2500000  0.2500000  0.2500000
                       0.0000000  0.0000000  0.0000000     0.2500000  0.2500000  0.2500000
           tolvrs1     0.00000000E+00
           tolvrs2     0.00000000E+00
           tolvrs3     1.00000000E-10
           tolvrs4     1.00000000E-10
           tolvrs5     1.00000000E-10
           tolwfr1     1.00000000E-20
           tolwfr2     1.00000000E-16
           tolwfr3     0.00000000E+00
           tolwfr4     0.00000000E+00
           tolwfr5     0.00000000E+00
            typat      1  1
              wtk1       0.01563    0.12500    0.06250    0.09375    0.37500    0.18750
                         0.04688    0.09375
              wtk2       0.01563    0.12500    0.06250    0.09375    0.37500    0.18750
                         0.04688    0.09375
              wtk3       0.01563    0.01563    0.01563    0.01563    0.01563    0.01563
                         0.01563    0.01563    0.01563    0.01563    0.01563    0.01563
                         0.01563    0.01563    0.01563    0.01563    0.01563    0.01563
                         0.01563    0.01563    0.01563    0.01563    0.01563    0.01563
                         0.01563    0.01563    0.01563    0.01563    0.01563    0.01563
                         0.01563    0.01563    0.01563    0.01563    0.01563    0.01563
                         0.01563    0.01563    0.01563    0.01563    0.01563    0.01563
                         0.01563    0.01563    0.01563    0.01563    0.01563    0.01563
                         0.01563    0.01563
              wtk4       0.01563    0.01563    0.01563    0.01563    0.01563    0.01563
                         0.01563    0.01563    0.01563    0.01563    0.01563    0.01563
                         0.01563    0.01563    0.01563    0.01563    0.01563    0.01563
                         0.01563    0.01563    0.01563    0.01563    0.01563    0.01563
                         0.01563    0.01563    0.01563    0.01563    0.01563    0.01563
                         0.01563    0.01563    0.01563    0.01563    0.01563    0.01563
                         0.01563    0.01563    0.01563    0.01563    0.01563    0.01563
                         0.01563    0.01563    0.01563    0.01563    0.01563    0.01563
                         0.01563    0.01563
              wtk5       0.01563    0.01563    0.01563    0.01563    0.01563    0.01563
                         0.01563    0.01563    0.01563    0.01563    0.01563    0.01563
                         0.01563    0.01563    0.01563    0.01563    0.01563    0.01563
                         0.01563    0.01563    0.01563    0.01563    0.01563    0.01563
                         0.01563    0.01563    0.01563    0.01563    0.01563    0.01563
                         0.01563    0.01563    0.01563    0.01563    0.01563    0.01563
                         0.01563    0.01563    0.01563    0.01563    0.01563    0.01563
                         0.01563    0.01563    0.01563    0.01563    0.01563    0.01563
                         0.01563    0.01563
                       outvars : Printing only first  50 k-points.
           xangst      0.0000000000E+00  0.0000000000E+00  0.0000000000E+00
                       1.1162994140E+00  7.8934288549E-01  1.9334873015E+00
            xcart      0.0000000000E+00  0.0000000000E+00  0.0000000000E+00
                       2.1095001748E+00  1.4916418785E+00  3.6537614813E+00
             xred      0.0000000000E+00  0.0000000000E+00  0.0000000000E+00
                       2.5000000000E-01  2.5000000000E-01  2.5000000000E-01
            znucl       14.00000

================================================================================

 chkinp: Checking input parameters for consistency, jdtset=   1.

 chkinp: Checking input parameters for consistency, jdtset=   2.

 chkinp: Checking input parameters for consistency, jdtset=   3.

 chkinp: Checking input parameters for consistency, jdtset=   4.

 chkinp: Checking input parameters for consistency, jdtset=   5.

================================================================================
== DATASET  1 ==================================================================
-   mpi_nproc: 1, omp_nthreads: -1 (-1 if OMP is not activated)


--- !DatasetInfo
iteration_state: {dtset: 1, }
dimensions: {natom: 2, nkpt: 8, mband: 20, nsppol: 1, nspinor: 1, nspden: 1, mpw: 2740, }
cutoff_energies: {ecut:  35.0, pawecutdg:  -1.0, }
electrons: {nelect:   8.00000000E+00, charge:   0.00000000E+00, occopt:   1.00000000E+00, tsmear:   1.00000000E-02, }
meta: {optdriver: 0, ionmov: 0, optcell: 0, iscf: 7, paral_kgb: 0, }
...

 Exchange-correlation functional for the present dataset will be:
  GGA: Perdew-Burke-Ernzerhof functional - ixc=11
 Citation for XC functional:
  J.P.Perdew, K.Burke, M.Ernzerhof, PRL 77, 3865 (1996)

 Real(R)+Recip(G) space primitive vectors, cartesian coordinates (Bohr,Bohr^-1):
 R(1)=  6.3285005  0.0000000  3.6537615  G(1)=  0.1580153 -0.0558669  0.0000000
 R(2)=  2.1095002  5.9665675  3.6537615  G(2)=  0.0000000  0.1676006  0.0000000
 R(3)=  0.0000000  0.0000000  7.3075230  G(3)= -0.0790077 -0.0558669  0.1368453
 Unit cell volume ucvol=  2.7592787E+02 bohr^3
 Angles (23,13,12)=  6.00000000E+01  6.00000000E+01  6.00000000E+01 degrees

 getcut: wavevector=  0.0000  0.0000  0.0000  ngfft=  40  40  40
         ecut(hartree)=     35.000   => boxcut(ratio)=   2.05537

--- Pseudopotential description ------------------------------------------------
- pspini: atom type   1  psp file is /home/buildbot/ABINIT3/eos_gnu_13.2_mpich/rgupta_develop/tests/Pspdir/Si-GGA.psp8
- pspatm: opening atomic psp file    /home/buildbot/ABINIT3/eos_gnu_13.2_mpich/rgupta_develop/tests/Pspdir/Si-GGA.psp8
- Si    ONCVPSP  r_core=  1.60  1.72  1.92
- 14.00000   4.00000    150713                znucl, zion, pspdat
    8   11    2    4       600   0.00000      pspcod,pspxc,lmax,lloc,mmax,r2well
    5.99000000000000    4.00000000000000    0.00000000000000   rchrg,fchrg,qchrg
     nproj     2     2     2
     extension_switch     1
  pspatm : epsatm=    9.35284323
         --- l  ekb(1:nproj) -->
             0    5.077596    0.840525
             1    2.714235    0.601251
             2  -10.098774   -0.937313
 pspatm: atomic psp has been read  and splines computed

   1.49645492E+02                                ecore*ucvol(ha*bohr**3)
--------------------------------------------------------------------------------

_setup2: Arith. and geom. avg. npw (full set) are    2726.859    2726.817

================================================================================

--- !BeginCycle
iteration_state: {dtset: 1, }
solver: {iscf: 7, nstep: 30, nline: 4, wfoptalg: 0, }
tolerances: {tolwfr: 1.00E-20, }
...

     iter   Etot(hartree)      deltaE(h)  residm     vres2
 ETOT  1  -8.4443716206751    -8.444E+00 3.569E-02 1.553E+01
 ETOT  2  -8.4568853744469    -1.251E-02 7.524E-03 1.779E-01
 ETOT  3  -8.4569030811716    -1.771E-05 1.426E-03 9.061E-04
 ETOT  4  -8.4569031338598    -5.269E-08 4.009E-04 1.675E-05
 ETOT  5  -8.4569031349593    -1.099E-09 7.127E-05 3.491E-07
 ETOT  6  -8.4569031349705    -1.126E-11 2.333E-05 9.459E-09
 ETOT  7  -8.4569031349710    -4.547E-13 4.344E-06 1.346E-10
 ETOT  8  -8.4569031349711    -1.013E-13 1.466E-06 7.035E-13
 ETOT  9  -8.4569031349711    -2.665E-14 6.460E-07 1.881E-15
 ETOT 10  -8.4569031349711     4.086E-14 2.596E-07 5.564E-18
 ETOT 11  -8.4569031349710     4.441E-14 1.063E-07 2.514E-20
 ETOT 12  -8.4569031349710     1.776E-14 4.371E-08 1.712E-22
 ETOT 13  -8.4569031349710    -1.066E-14 1.724E-08 5.476E-24
 ETOT 14  -8.4569031349710     0.000E+00 7.193E-09 1.125E-24
 ETOT 15  -8.4569031349710     1.776E-15 2.797E-09 8.039E-25
 ETOT 16  -8.4569031349710     0.000E+00 1.175E-09 8.137E-25
 ETOT 17  -8.4569031349710    -1.776E-15 4.531E-10 7.685E-25
 ETOT 18  -8.4569031349710     1.776E-15 1.918E-10 7.026E-25
 ETOT 19  -8.4569031349710     0.000E+00 7.360E-11 6.982E-25
 ETOT 20  -8.4569031349710     0.000E+00 3.132E-11 6.590E-25
 ETOT 21  -8.4569031349710    -1.776E-15 1.196E-11 6.300E-25
 ETOT 22  -8.4569031349710     0.000E+00 5.118E-12 7.046E-25
 ETOT 23  -8.4569031349710    -1.776E-15 1.949E-12 6.665E-25
 ETOT 24  -8.4569031349710     1.776E-15 8.372E-13 6.614E-25
 ETOT 25  -8.4569031349710     1.776E-15 3.178E-13 6.676E-25
 ETOT 26  -8.4569031349710    -1.776E-15 1.371E-13 6.040E-25
 ETOT 27  -8.4569031349710     1.776E-15 5.190E-14 6.792E-25
 ETOT 28  -8.4569031349710    -1.776E-15 2.246E-14 6.351E-25
 ETOT 29  -8.4569031349710     0.000E+00 8.482E-15 6.116E-25
 ETOT 30  -8.4569031349710     0.000E+00 3.684E-15 6.412E-25

 Cartesian components of stress tensor (hartree/bohr^3)
  sigma(1 1)= -1.99848899E-05  sigma(3 2)=  1.08690720E-14
  sigma(2 2)= -1.99848899E-05  sigma(3 1)=  1.53707319E-14
  sigma(3 3)= -1.99848899E-05  sigma(2 1)=  0.00000000E+00


 scprqt:  WARNING -
  nstep=   30 was not enough SCF cycles to converge;
  maximum residual=  3.684E-15 exceeds tolwfr=  1.000E-20


--- !ResultsGS
iteration_state: {dtset: 1, }
comment   : Summary of ground state results
lattice_vectors:
- [  6.3285005,   0.0000000,   3.6537615, ]
- [  2.1095002,   5.9665675,   3.6537615, ]
- [  0.0000000,   0.0000000,   7.3075230, ]
lattice_lengths: [   7.30752,    7.30752,    7.30752, ]
lattice_angles: [ 60.000,  60.000,  60.000, ] # degrees, (23, 13, 12)
lattice_volume:   2.7592787E+02
convergence: {deltae:  0.000E+00, res2:  6.412E-25, residm:  3.684E-15, diffor: null, }
etotal    :  -8.45690313E+00
entropy   :   0.00000000E+00
fermie    :   1.54763252E-01
cartesian_stress_tensor: # hartree/bohr^3
- [ -1.99848899E-05,   0.00000000E+00,   1.53707319E-14, ]
- [  0.00000000E+00,  -1.99848899E-05,   1.08690720E-14, ]
- [  1.53707319E-14,   1.08690720E-14,  -1.99848899E-05, ]
pressure_GPa:   5.8798E-01
xred      :
- [  0.0000E+00,   0.0000E+00,   0.0000E+00, Si]
- [  2.5000E-01,   2.5000E-01,   2.5000E-01, Si]
cartesian_forces: # hartree/bohr
- [ -5.44613352E-27,  -3.85099795E-26,  -9.43297997E-27, ]
- [  5.44613352E-27,   3.85099795E-26,   9.43297997E-27, ]
force_length_stats: {min:   4.00207446E-26, max:   4.00207446E-26, mean:   4.00207446E-26, }
...

 Integrated electronic density in atomic spheres:
 ------------------------------------------------
 Atom  Sphere_radius  Integrated_density
    1        2.00000          1.77182211
    2        2.00000          1.77182211
================================================================================

 ----iterations are completed or convergence reached----

 Mean square residual over all n,k,spin=   23.032E-18; max=  36.840E-16
 reduced coordinates (array xred) for    2 atoms
       0.000000000000      0.000000000000      0.000000000000
       0.250000000000      0.250000000000      0.250000000000
 rms dE/dt=  2.3545E-25; max dE/dt=  2.0680E-25; dE/dt below (all hartree)
    1      -0.000000000000      0.000000000000      0.000000000000
    2      -0.000000000000     -0.000000000000      0.000000000000

 cartesian coordinates (angstrom) at end:
    1      0.00000000000000     0.00000000000000     0.00000000000000
    2      1.11629941402078     0.78934288549380     1.93348730154123

 cartesian forces (hartree/bohr) at end:
    1     -0.00000000000000    -0.00000000000000    -0.00000000000000
    2      0.00000000000000     0.00000000000000     0.00000000000000
 frms,max,avg= 2.3105988E-26 3.8509979E-26   0.000E+00  0.000E+00  0.000E+00 h/b

 cartesian forces (eV/Angstrom) at end:
    1     -0.00000000000000    -0.00000000000000    -0.00000000000000
    2      0.00000000000000     0.00000000000000     0.00000000000000
 frms,max,avg= 1.1881576E-24 1.9802626E-24   0.000E+00  0.000E+00  0.000E+00 e/A
 length scales=  1.000000000000  1.000000000000  1.000000000000 bohr
              =  0.529177208590  0.529177208590  0.529177208590 angstroms
 prteigrs : about to open file t104o_DS1_EIG
 Fermi (or HOMO) energy (hartree) =   0.15476   Average Vxc (hartree)=  -0.33757
 Eigenvalues (hartree) for nkpt=   8  k points:
 kpt#   1, nband= 20, wtk=  0.01563, kpt=  0.0000  0.0000  0.0000 (reduced coord)
  -0.27996    0.15476    0.15476    0.15476    0.24770    0.24770    0.24770    0.26882
   0.43751    0.43751    0.44429    0.56484    0.56484    0.56484    0.71621    0.99127
   0.99127    0.99127    1.02889    1.02889
 prteigrs : prtvol=0 or 1, do not print more k-points.


--- !EnergyTerms
iteration_state     : {dtset: 1, }
comment             : Components of total free energy in Hartree
kinetic             :  3.07019502917983E+00
hartree             :  5.68748133888102E-01
xc                  : -3.08751904402879E+00
Ewald energy        : -8.33998923103006E+00
psp_core            :  5.42335545111056E-01
local_psp           : -2.34840962923440E+00
non_local_psp       :  1.13773606114323E+00
total_energy        : -8.45690313497103E+00
total_energy_eV     : -2.30124037472534E+02
band_energy         : -2.29304134169935E-01
...


 Cartesian components of stress tensor (hartree/bohr^3)
  sigma(1 1)= -1.99848899E-05  sigma(3 2)=  1.08690720E-14
  sigma(2 2)= -1.99848899E-05  sigma(3 1)=  1.53707319E-14
  sigma(3 3)= -1.99848899E-05  sigma(2 1)=  0.00000000E+00

-Cartesian components of stress tensor (GPa)         [Pressure=  5.8798E-01 GPa]
- sigma(1 1)= -5.87975662E-01  sigma(3 2)=  3.19779086E-10
- sigma(2 2)= -5.87975662E-01  sigma(3 1)=  4.52222469E-10
- sigma(3 3)= -5.87975662E-01  sigma(2 1)=  0.00000000E+00

================================================================================
== DATASET  2 ==================================================================
-   mpi_nproc: 1, omp_nthreads: -1 (-1 if OMP is not activated)


--- !DatasetInfo
iteration_state: {dtset: 2, }
dimensions: {natom: 2, nkpt: 8, mband: 20, nsppol: 1, nspinor: 1, nspden: 1, mpw: 2740, }
cutoff_energies: {ecut:  35.0, pawecutdg:  -1.0, }
electrons: {nelect:   8.00000000E+00, charge:   0.00000000E+00, occopt:   1.00000000E+00, tsmear:   1.00000000E-02, }
meta: {optdriver: 0, ionmov: 0, optcell: 0, iscf: -2, paral_kgb: 0, }
...

 mkfilename: getden from: t104o_DS1_DEN

 Exchange-correlation functional for the present dataset will be:
  GGA: Perdew-Burke-Ernzerhof functional - ixc=11
 Citation for XC functional:
  J.P.Perdew, K.Burke, M.Ernzerhof, PRL 77, 3865 (1996)

 Real(R)+Recip(G) space primitive vectors, cartesian coordinates (Bohr,Bohr^-1):
 R(1)=  6.3285005  0.0000000  3.6537615  G(1)=  0.1580153 -0.0558669  0.0000000
 R(2)=  2.1095002  5.9665675  3.6537615  G(2)=  0.0000000  0.1676006  0.0000000
 R(3)=  0.0000000  0.0000000  7.3075230  G(3)= -0.0790077 -0.0558669  0.1368453
 Unit cell volume ucvol=  2.7592787E+02 bohr^3
 Angles (23,13,12)=  6.00000000E+01  6.00000000E+01  6.00000000E+01 degrees

 getcut: wavevector=  0.0000  0.0000  0.0000  ngfft=  40  40  40
         ecut(hartree)=     35.000   => boxcut(ratio)=   2.05537
--------------------------------------------------------------------------------


================================================================================
 prteigrs : about to open file t104o_DS2_EIG
 Non-SCF case, kpt    1 (  0.00000  0.00000  0.00000), residuals and eigenvalues=
  5.81E-17  7.92E-17  7.58E-17  3.84E-17  1.55E-17  7.27E-17  2.88E-17  8.82E-17
  3.53E-17  8.64E-17  5.86E-17  5.38E-17  3.00E-17  8.63E-17  2.52E-17  9.56E-17
  3.66E-17  4.53E-17  1.77E-12  7.62E-11
 -2.7996E-01  1.5476E-01  1.5476E-01  1.5476E-01  2.4770E-01  2.4770E-01
  2.4770E-01  2.6882E-01  4.3751E-01  4.3751E-01  4.4429E-01  5.6484E-01
  5.6484E-01  5.6484E-01  7.1621E-01  9.9127E-01  9.9127E-01  9.9127E-01
  1.0289E+00  1.0289E+00
 prteigrs : prtvol=0 or 1, do not print more k-points.



--- !ResultsGS
iteration_state: {dtset: 2, }
comment   : Summary of ground state results
lattice_vectors:
- [  6.3285005,   0.0000000,   3.6537615, ]
- [  2.1095002,   5.9665675,   3.6537615, ]
- [  0.0000000,   0.0000000,   7.3075230, ]
lattice_lengths: [   7.30752,    7.30752,    7.30752, ]
lattice_angles: [ 60.000,  60.000,  60.000, ] # degrees, (23, 13, 12)
lattice_volume:   2.7592787E+02
convergence: {deltae:  0.000E+00, res2:  0.000E+00, residm:  9.958E-17, diffor:  0.000E+00, }
etotal    :  -8.45690313E+00
entropy   :   0.00000000E+00
fermie    :   1.54763252E-01
cartesian_stress_tensor: null
pressure_GPa: null
xred      :
- [  0.0000E+00,   0.0000E+00,   0.0000E+00, Si]
- [  2.5000E-01,   2.5000E-01,   2.5000E-01, Si]
cartesian_forces: null
force_length_stats: {min: null, max: null, mean: null, }
...

 Integrated electronic density in atomic spheres:
 ------------------------------------------------
 Atom  Sphere_radius  Integrated_density
    1        2.00000          1.77182211
    2        2.00000          1.77182211
================================================================================

 ----iterations are completed or convergence reached----

 Mean square residual over all n,k,spin=   46.985E-18; max=  99.581E-18
 reduced coordinates (array xred) for    2 atoms
       0.000000000000      0.000000000000      0.000000000000
       0.250000000000      0.250000000000      0.250000000000

 cartesian coordinates (angstrom) at end:
    1      0.00000000000000     0.00000000000000     0.00000000000000
    2      1.11629941402078     0.78934288549380     1.93348730154123
 length scales=  1.000000000000  1.000000000000  1.000000000000 bohr
              =  0.529177208590  0.529177208590  0.529177208590 angstroms
 prteigrs : about to open file t104o_DS2_EIG
 Eigenvalues (hartree) for nkpt=   8  k points:
 kpt#   1, nband= 20, wtk=  0.01563, kpt=  0.0000  0.0000  0.0000 (reduced coord)
  -0.27996    0.15476    0.15476    0.15476    0.24770    0.24770    0.24770    0.26882
   0.43751    0.43751    0.44429    0.56484    0.56484    0.56484    0.71621    0.99127
   0.99127    0.99127    1.02889    1.02889
 prteigrs : prtvol=0 or 1, do not print more k-points.


================================================================================
== DATASET  3 ==================================================================
-   mpi_nproc: 1, omp_nthreads: -1 (-1 if OMP is not activated)


--- !DatasetInfo
iteration_state: {dtset: 3, }
dimensions: {natom: 2, nkpt: 64, mband: 20, nsppol: 1, nspinor: 1, nspden: 1, mpw: 2764, }
cutoff_energies: {ecut:  35.0, pawecutdg:  -1.0, }
electrons: {nelect:   8.00000000E+00, charge:   0.00000000E+00, occopt:   1.00000000E+00, tsmear:   1.00000000E-02, }
meta: {optdriver: 1, rfphon: 1, }
...

 mkfilename : getwfk/=0, take file _WFK from output of DATASET   1.

 Exchange-correlation functional for the present dataset will be:
  GGA: Perdew-Burke-Ernzerhof functional - ixc=11
 Citation for XC functional:
  J.P.Perdew, K.Burke, M.Ernzerhof, PRL 77, 3865 (1996)

 Real(R)+Recip(G) space primitive vectors, cartesian coordinates (Bohr,Bohr^-1):
 R(1)=  6.3285005  0.0000000  3.6537615  G(1)=  0.1580153 -0.0558669  0.0000000
 R(2)=  2.1095002  5.9665675  3.6537615  G(2)=  0.0000000  0.1676006  0.0000000
 R(3)=  0.0000000  0.0000000  7.3075230  G(3)= -0.0790077 -0.0558669  0.1368453
 Unit cell volume ucvol=  2.7592787E+02 bohr^3
 Angles (23,13,12)=  6.00000000E+01  6.00000000E+01  6.00000000E+01 degrees
 setup1 : take into account q-point for computing boxcut.

 getcut: wavevector=  0.0000  0.0000  0.0000  ngfft=  40  40  40
         ecut(hartree)=     35.000   => boxcut(ratio)=   2.05537
--------------------------------------------------------------------------------


 ==>  initialize data related to q vector <== 

 The list of irreducible perturbations for this q vector is:
    1)    idir= 1    ipert=   1

================================================================================

 The perturbation idir=   2  ipert=   1 is
 symmetric of a previously calculated perturbation.
 So, its SCF calculation is not needed.


 The perturbation idir=   3  ipert=   1 is
 symmetric of a previously calculated perturbation.
 So, its SCF calculation is not needed.


 The perturbation idir=   1  ipert=   2 is
 symmetric of a previously calculated perturbation.
 So, its SCF calculation is not needed.


 The perturbation idir=   2  ipert=   2 is
 symmetric of a previously calculated perturbation.
 So, its SCF calculation is not needed.


 The perturbation idir=   3  ipert=   2 is
 symmetric of a previously calculated perturbation.
 So, its SCF calculation is not needed.


--------------------------------------------------------------------------------
 Perturbation wavevector (in red.coord.)   0.000000  0.000000  0.000000
 Perturbation : displacement of atom   1   along direction   1
 Found     2 symmetries that leave the perturbation invariant.
 symkpt : the number of k-points, thanks to the symmetries,
 is reduced to    40 .

--------------------------------------------------------------------------------

--------------------------------------------------------------------------------

 Initialisation of the first-order wave-functions :
  ireadwf=   0

--- !BeginCycle
iteration_state: {dtset: 3, }
solver: {iscf: 7, nstep: 30, nline: 4, wfoptalg: 0, }
tolerances: {tolvrs: 1.00E-10, }
...

     iter   2DEtotal(Ha)        deltaE(Ha) residm    vres2
-ETOT  1   7.5623758302798     -7.638E+01 5.741E+00 4.653E+02
 ETOT  2   7.4594824545110     -1.029E-01 1.039E+00 6.712E+00
 ETOT  3   7.4581903311170     -1.292E-03 3.721E-01 6.072E-01
 ETOT  4   7.4581046975541     -8.563E-05 1.242E-01 9.261E-03
 ETOT  5   7.4581039320543     -7.655E-07 5.241E-02 1.462E-04
 ETOT  6   7.4581039162812     -1.577E-08 1.691E-02 4.356E-06
 ETOT  7   7.4581039158872     -3.940E-10 7.785E-03 6.478E-08
 ETOT  8   7.4581039158810     -6.182E-12 2.479E-03 1.883E-09
 ETOT  9   7.4581039158809     -9.948E-14 1.184E-03 3.167E-11

 At SCF step    9       vres2   =  3.17E-11 < tolvrs=  1.00E-10 =>converged.
================================================================================

 ----iterations are completed or convergence reached----

 Mean square residual over all n,k,spin=   10.745E-06; max=  11.837E-04

 Thirteen components of 2nd-order total energy (hartree) are
 1,2,3: 0th-order hamiltonian combined with 1st-order wavefunctions
     kin0=   4.96189648E+01 eigvalue=   5.26576354E-01  local=  -2.76004381E+01
 4,5,6: 1st-order hamiltonian combined with 1st and 0th-order wfs
 loc psp =  -3.87041235E+01  Hartree=   1.43830328E+01     xc=  -6.67124343E+00
 note that "loc psp" includes a xc core correction that could be resolved
 7,8,9: eventually, occupation + non-local contributions
    edocc=   1.56887943E+01     enl0=   3.05404245E+01   enl1=  -1.14268099E+02
 1-9 gives the relaxation energy (to be shifted if some occ is /=2.0)
   erelax=  -7.64861112E+01
 10,11,12 Non-relaxation  contributions : frozen-wavefunctions and Ewald
 fr.local=   1.11801112E+01 fr.nonlo=   6.22908572E+01  Ewald=   1.29704009E+01
 13,14 Frozen wf xc core corrections (1) and (2)
 frxc 1  =  -7.99229990E+00  frxc 2 =   5.49514564E+00
 Resulting in :
 2DEtotal=    0.7458103916E+01 Ha. Also 2DEtotal=    0.202945328523E+03 eV
    (2DErelax=   -7.6486111231E+01 Ha. 2DEnonrelax=    8.3944215147E+01 Ha)
    (  non-var. 2DEtotal :    7.4581039202E+00 Ha)

================================================================================

 ---- first-order wavefunction calculations are completed ----


 ==> Compute Derivative Database <==
  
  2nd-order matrix (non-cartesian coordinates, masses not included,
   asr not included )
     j1       j2             matrix element
  dir pert dir pert     real part     imaginary part
  
   1    1   1    1         7.4581236562         0.0000000000
   1    1   2    1         3.7290618281         0.0000000000
   1    1   3    1         3.7290618282         0.0000000000
   1    1   1    2        -7.4578924684        -0.0000000000
   1    1   2    2        -3.7289462342        -0.0000000000
   1    1   3    2        -3.7289462343        -0.0000000000
   1    1   2    4         0.0000000000         0.0000000000
   1    1   3    4         0.0000000000         0.0000000000
  
   2    1   1    1         3.7290618281         0.0000000000
   2    1   2    1         7.4581236560         0.0000000000
   2    1   3    1         3.7290618282         0.0000000000
   2    1   1    2        -3.7289462342        -0.0000000000
   2    1   2    2        -7.4578924683         0.0000000000
   2    1   3    2        -3.7289462343        -0.0000000000
   2    1   1    4         0.0000000000         0.0000000000
   2    1   3    4         0.0000000000         0.0000000000
  
   3    1   1    1         3.7290618282         0.0000000000
   3    1   2    1         3.7290618282         0.0000000000
   3    1   3    1         7.4581236561         0.0000000000
   3    1   1    2        -3.7289462343        -0.0000000000
   3    1   2    2        -3.7289462343        -0.0000000000
   3    1   3    2        -7.4578924683         0.0000000000
   3    1   1    4         0.0000000000         0.0000000000
   3    1   2    4         0.0000000000         0.0000000000
  
   1    2   1    1        -7.4578924684         0.0000000000
   1    2   2    1        -3.7289462342         0.0000000000
   1    2   3    1        -3.7289462343         0.0000000000
   1    2   1    2         7.4581236562         0.0000000000
   1    2   2    2         3.7290618281         0.0000000000
   1    2   3    2         3.7290618282         0.0000000000
   1    2   2    4         0.0000000000         0.0000000000
   1    2   3    4         0.0000000000         0.0000000000
  
   2    2   1    1        -3.7289462342         0.0000000000
   2    2   2    1        -7.4578924683        -0.0000000000
   2    2   3    1        -3.7289462343         0.0000000000
   2    2   1    2         3.7290618281         0.0000000000
   2    2   2    2         7.4581236560         0.0000000000
   2    2   3    2         3.7290618282         0.0000000000
   2    2   1    4         0.0000000000         0.0000000000
   2    2   3    4         0.0000000000         0.0000000000
  
   3    2   1    1        -3.7289462343         0.0000000000
   3    2   2    1        -3.7289462343         0.0000000000
   3    2   3    1        -7.4578924683        -0.0000000000
   3    2   1    2         3.7290618282         0.0000000000
   3    2   2    2         3.7290618282         0.0000000000
   3    2   3    2         7.4581236561         0.0000000000
   3    2   1    4         0.0000000000         0.0000000000
   3    2   2    4         0.0000000000         0.0000000000
  
   1    4   2    1         0.0000000000         0.0000000000
   1    4   3    1         0.0000000000         0.0000000000
   1    4   2    2         0.0000000000         0.0000000000
   1    4   3    2         0.0000000000         0.0000000000
  
   2    4   1    1         0.0000000000         0.0000000000
   2    4   3    1         0.0000000000         0.0000000000
   2    4   1    2         0.0000000000         0.0000000000
   2    4   3    2         0.0000000000         0.0000000000
  
   3    4   1    1         0.0000000000         0.0000000000
   3    4   2    1         0.0000000000         0.0000000000
   3    4   1    2         0.0000000000         0.0000000000
   3    4   2    2         0.0000000000         0.0000000000
  
  
  Dynamical matrix, in cartesian coordinates,
   if specified in the inputs, asr has been imposed
     j1       j2             matrix element
  dir pert dir pert     real part    imaginary part
  
   1    1   1    1         0.1396611905         0.0000000000
   1    1   2    1        -0.0000000000         0.0000000000
   1    1   3    1         0.0000000000         0.0000000000
   1    1   1    2        -0.1396611905        -0.0000000000
   1    1   2    2         0.0000000000        -0.0000000000
   1    1   3    2        -0.0000000000        -0.0000000000
  
   2    1   1    1        -0.0000000000         0.0000000000
   2    1   2    1         0.1396611905        -0.0000000000
   2    1   3    1         0.0000000000         0.0000000000
   2    1   1    2         0.0000000000        -0.0000000000
   2    1   2    2        -0.1396611905         0.0000000000
   2    1   3    2        -0.0000000000        -0.0000000000
  
   3    1   1    1         0.0000000000         0.0000000000
   3    1   2    1         0.0000000000         0.0000000000
   3    1   3    1         0.1396611905        -0.0000000000
   3    1   1    2        -0.0000000000        -0.0000000000
   3    1   2    2        -0.0000000000        -0.0000000000
   3    1   3    2        -0.1396611905         0.0000000000
  
   1    2   1    1        -0.1396611905         0.0000000000
   1    2   2    1         0.0000000000         0.0000000000
   1    2   3    1        -0.0000000000         0.0000000000
   1    2   1    2         0.1396611905        -0.0000000000
   1    2   2    2        -0.0000000000        -0.0000000000
   1    2   3    2         0.0000000000        -0.0000000000
  
   2    2   1    1         0.0000000000         0.0000000000
   2    2   2    1        -0.1396611905        -0.0000000000
   2    2   3    1        -0.0000000000         0.0000000000
   2    2   1    2        -0.0000000000        -0.0000000000
   2    2   2    2         0.1396611905         0.0000000000
   2    2   3    2         0.0000000000        -0.0000000000
  
   3    2   1    1        -0.0000000000         0.0000000000
   3    2   2    1        -0.0000000000         0.0000000000
   3    2   3    1        -0.1396611905        -0.0000000000
   3    2   1    2         0.0000000000        -0.0000000000
   3    2   2    2         0.0000000000        -0.0000000000
   3    2   3    2         0.1396611905         0.0000000000

  Phonon wavevector (reduced coordinates) :  0.00000  0.00000  0.00000
 Phonon energies in Hartree :
   0.000000E+00  0.000000E+00  0.000000E+00  2.335779E-03  2.335779E-03
   2.335779E-03
 Phonon frequencies in cm-1    :
-  0.000000E+00  0.000000E+00  0.000000E+00  5.126442E+02  5.126442E+02
-  5.126442E+02

================================================================================
== DATASET  4 ==================================================================
-   mpi_nproc: 1, omp_nthreads: -1 (-1 if OMP is not activated)


--- !DatasetInfo
iteration_state: {dtset: 4, }
dimensions: {natom: 2, nkpt: 64, mband: 20, nsppol: 1, nspinor: 1, nspden: 1, mpw: 2764, }
cutoff_energies: {ecut:  35.0, pawecutdg:  -1.0, }
electrons: {nelect:   8.00000000E+00, charge:   0.00000000E+00, occopt:   1.00000000E+00, tsmear:   1.00000000E-02, }
meta: {optdriver: 1, rfphon: 1, }
...

 mkfilename : getwfk/=0, take file _WFK from output of DATASET   1.

 Exchange-correlation functional for the present dataset will be:
  GGA: Perdew-Burke-Ernzerhof functional - ixc=11
 Citation for XC functional:
  J.P.Perdew, K.Burke, M.Ernzerhof, PRL 77, 3865 (1996)

 Real(R)+Recip(G) space primitive vectors, cartesian coordinates (Bohr,Bohr^-1):
 R(1)=  6.3285005  0.0000000  3.6537615  G(1)=  0.1580153 -0.0558669  0.0000000
 R(2)=  2.1095002  5.9665675  3.6537615  G(2)=  0.0000000  0.1676006  0.0000000
 R(3)=  0.0000000  0.0000000  7.3075230  G(3)= -0.0790077 -0.0558669  0.1368453
 Unit cell volume ucvol=  2.7592787E+02 bohr^3
 Angles (23,13,12)=  6.00000000E+01  6.00000000E+01  6.00000000E+01 degrees
 setup1 : take into account q-point for computing boxcut.

 getcut: wavevector=  0.5000  0.0000  0.0000  ngfft=  40  40  40
         ecut(hartree)=     35.000   => boxcut(ratio)=   2.00432
--------------------------------------------------------------------------------


 ==>  initialize data related to q vector <== 

 The list of irreducible perturbations for this q vector is:
    1)    idir= 1    ipert=   1
    2)    idir= 2    ipert=   1

================================================================================

 The perturbation idir=   3  ipert=   1 is
 symmetric of a previously calculated perturbation.
 So, its SCF calculation is not needed.


 The perturbation idir=   1  ipert=   2 is
 symmetric of a previously calculated perturbation.
 So, its SCF calculation is not needed.


 The perturbation idir=   2  ipert=   2 is
 symmetric of a previously calculated perturbation.
 So, its SCF calculation is not needed.


 The perturbation idir=   3  ipert=   2 is
 symmetric of a previously calculated perturbation.
 So, its SCF calculation is not needed.


--------------------------------------------------------------------------------
 Perturbation wavevector (in red.coord.)   0.500000  0.000000  0.000000
 Perturbation : displacement of atom   1   along direction   1
 Found     2 symmetries that leave the perturbation invariant.
 symkpt : the number of k-points, thanks to the symmetries,
 is reduced to    40 .

--------------------------------------------------------------------------------

--------------------------------------------------------------------------------

 Initialisation of the first-order wave-functions :
  ireadwf=   0

--- !BeginCycle
iteration_state: {dtset: 4, }
solver: {iscf: 7, nstep: 30, nline: 4, wfoptalg: 0, }
tolerances: {tolvrs: 1.00E-10, }
...

     iter   2DEtotal(Ha)        deltaE(Ha) residm    vres2
-ETOT  1   9.9164727929080     -9.819E+01 1.024E+01 2.240E+04
 ETOT  2   8.6375292507319     -1.279E+00 1.155E+01 6.933E+03
 ETOT  3   7.9813087144228     -6.562E-01 1.060E+01 9.274E+01
 ETOT  4   7.9744150358855     -6.894E-03 8.322E+00 2.622E+00
 ETOT  5   7.9742512601655     -1.638E-04 1.324E+01 1.144E-01
 ETOT  6   7.9742432409377     -8.019E-06 3.609E+01 1.632E-03
 ETOT  7   7.9742431303318     -1.106E-07 7.371E+00 1.110E-05
 ETOT  8   7.9742431286310     -1.701E-09 1.312E+01 6.389E-07
 ETOT  9   7.9742431285544     -7.661E-11 3.610E+01 3.419E-08
 ETOT 10   7.9742431285490     -5.372E-12 7.393E+00 1.801E-09
 ETOT 11   7.9742431285518      2.771E-12 1.312E+01 3.054E-10
 ETOT 12   7.9742431285518      0.000E+00 3.610E+01 2.198E-11

 At SCF step   12       vres2   =  2.20E-11 < tolvrs=  1.00E-10 =>converged.
================================================================================

 ----iterations are completed or convergence reached----

 Mean square residual over all n,k,spin=   84.809E-03; max=  36.095E+00

 Thirteen components of 2nd-order total energy (hartree) are
 1,2,3: 0th-order hamiltonian combined with 1st-order wavefunctions
     kin0=   4.90955612E+01 eigvalue=   5.88767294E-01  local=  -2.72593132E+01
 4,5,6: 1st-order hamiltonian combined with 1st and 0th-order wfs
 loc psp =  -8.95499178E+01  Hartree=   3.74641309E+01     xc=  -7.20349333E+00
 note that "loc psp" includes a xc core correction that could be resolved
 7,8,9: eventually, occupation + non-local contributions
    edocc=   1.72733684E+01     enl0=   3.01754036E+01   enl1=  -1.10718932E+02
 1-9 gives the relaxation energy (to be shifted if some occ is /=2.0)
   erelax=  -1.00134425E+02
 10,11,12 Non-relaxation  contributions : frozen-wavefunctions and Ewald
 fr.local=   1.11801112E+01 fr.nonlo=   6.22908572E+01  Ewald=   3.71349432E+01
 13,14 Frozen wf xc core corrections (1) and (2)
 frxc 1  =  -7.99238955E+00  frxc 2 =   5.49514564E+00
 Resulting in :
 2DEtotal=    0.7974243129E+01 Ha. Also 2DEtotal=    0.216990190764E+03 eV
    (2DErelax=   -1.0013442462E+02 Ha. 2DEnonrelax=    1.0810866775E+02 Ha)
    (  non-var. 2DEtotal :    7.9742430447E+00 Ha)


--------------------------------------------------------------------------------
 Perturbation wavevector (in red.coord.)   0.500000  0.000000  0.000000
 Perturbation : displacement of atom   1   along direction   2
 The set of symmetries contains only one element for this perturbation.
 symkpt : not enough symmetry to change the number of k points.

--------------------------------------------------------------------------------

--------------------------------------------------------------------------------

 Initialisation of the first-order wave-functions :
  ireadwf=   0

--- !BeginCycle
iteration_state: {dtset: 4, }
solver: {iscf: 7, nstep: 30, nline: 4, wfoptalg: 0, }
tolerances: {tolvrs: 1.00E-10, }
...

     iter   2DEtotal(Ha)        deltaE(Ha) residm    vres2
-ETOT  1   7.0966814216905     -7.862E+01 1.305E+01 1.109E+03
 ETOT  2   6.8681878061145     -2.285E-01 2.184E+01 2.429E+01
 ETOT  3   6.8624964135908     -5.691E-03 2.564E+01 1.162E+00
 ETOT  4   6.8623525953827     -1.438E-04 3.615E+01 1.510E-02
 ETOT  5   6.8623512018912     -1.393E-06 2.198E+01 1.912E-04
 ETOT  6   6.8623511837149     -1.818E-08 1.219E+01 1.005E-05
 ETOT  7   6.8623511827669     -9.480E-10 3.617E+01 7.044E-07
 ETOT  8   6.8623511827237     -4.322E-11 2.200E+01 2.377E-07
 ETOT  9   6.8623511827025     -2.113E-11 1.219E+01 1.399E-09
 ETOT 10   6.8623511827030      4.547E-13 3.617E+01 5.813E-12

 At SCF step   10       vres2   =  5.81E-12 < tolvrs=  1.00E-10 =>converged.
================================================================================

 ----iterations are completed or convergence reached----

 Mean square residual over all n,k,spin=   64.554E-03; max=  36.170E+00

 Thirteen components of 2nd-order total energy (hartree) are
 1,2,3: 0th-order hamiltonian combined with 1st-order wavefunctions
     kin0=   4.93769602E+01 eigvalue=   5.42135878E-01  local=  -2.74868440E+01
 4,5,6: 1st-order hamiltonian combined with 1st and 0th-order wfs
 loc psp =  -4.63495346E+01  Hartree=   1.68512853E+01     xc=  -7.03371880E+00
 note that "loc psp" includes a xc core correction that could be resolved
 7,8,9: eventually, occupation + non-local contributions
    edocc=   1.62104420E+01     enl0=   3.03977688E+01   enl1=  -1.11366524E+02
 1-9 gives the relaxation energy (to be shifted if some occ is /=2.0)
   erelax=  -7.88580294E+01
 10,11,12 Non-relaxation  contributions : frozen-wavefunctions and Ewald
 fr.local=   1.11801112E+01 fr.nonlo=   6.22908572E+01  Ewald=   1.47466606E+01
 13,14 Frozen wf xc core corrections (1) and (2)
 frxc 1  =  -7.99239411E+00  frxc 2 =   5.49514564E+00
 Resulting in :
 2DEtotal=    0.6862351183E+01 Ha. Also 2DEtotal=    0.186734072215E+03 eV
    (2DErelax=   -7.8858029367E+01 Ha. 2DEnonrelax=    8.5720380550E+01 Ha)
    (  non-var. 2DEtotal :    6.8623511901E+00 Ha)

================================================================================

 ---- first-order wavefunction calculations are completed ----


 ==> Compute Derivative Database <==
  
  2nd-order matrix (non-cartesian coordinates, masses not included,
   asr not included )
     j1       j2             matrix element
  dir pert dir pert     real part     imaginary part
  
   1    1   1    1         7.9743006103        -0.0000000005
   1    1   2    1         3.4311904456         0.0000000000
   1    1   3    1         3.4311904457         0.0000000000
   1    1   1    2        -1.8302347747         0.0000001115
   1    1   2    2        -3.1001042085         0.0000001115
   1    1   3    2        -3.1001042087         0.0000001115
  
   2    1   1    1         3.4311904456         0.0000000000
   2    1   2    1         6.8623808909         0.0000000000
   2    1   3    1         3.4311904457         0.0000000000
   2    1   1    2        -3.1001042085         0.0000001115
   2    1   2    2        -6.2002084167         0.0000002230
   2    1   3    2        -3.1001042085         0.0000001115
  
   3    1   1    1         3.4311904457         0.0000000000
   3    1   2    1         3.4311904457         0.0000000000
   3    1   3    1         6.8623808910         0.0000000000
   3    1   1    2        -3.1001042087         0.0000001115
   3    1   2    2        -3.1001042085         0.0000001115
   3    1   3    2        -6.2002084168         0.0000002230
  
   1    2   1    1        -1.8302347747         0.0000001115
   1    2   2    1        -3.1001042085         0.0000001115
   1    2   3    1        -3.1001042087         0.0000001115
   1    2   1    2         7.9743006103        -0.0000000005
   1    2   2    2         3.4311904456         0.0000000000
   1    2   3    2         3.4311904457         0.0000000000
  
   2    2   1    1        -3.1001042085         0.0000001115
   2    2   2    1        -6.2002084167         0.0000002230
   2    2   3    1        -3.1001042085         0.0000001115
   2    2   1    2         3.4311904456         0.0000000000
   2    2   2    2         6.8623808909         0.0000000000
   2    2   3    2         3.4311904457         0.0000000000
  
   3    2   1    1        -3.1001042087         0.0000001115
   3    2   2    1        -3.1001042085         0.0000001115
   3    2   3    1        -6.2002084168         0.0000002230
   3    2   1    2         3.4311904457         0.0000000000
   3    2   2    2         3.4311904457         0.0000000000
   3    2   3    2         6.8623808910         0.0000000000
  
  
  Dynamical matrix, in cartesian coordinates,
   if specified in the inputs, asr has been imposed
     j1       j2             matrix element
  dir pert dir pert     real part    imaginary part
  
   1    1   1    1         0.1562726108        -0.0000000000
   1    1   2    1        -0.0098158248         0.0000000000
   1    1   3    1         0.0000000000         0.0000000000
   1    1   1    2        -0.0069958361         0.0000000014
   1    1   2    2        -0.0385773315         0.0000000010
   1    1   3    2        -0.0000000000        -0.0000000000
  
   2    1   1    1        -0.0098158248         0.0000000000
   2    1   2    1         0.1319796838        -0.0000000000
   2    1   3    1         0.0000000000         0.0000000000
   2    1   1    2        -0.0385773315         0.0000000010
   2    1   2    2        -0.1024698606         0.0000000038
   2    1   3    2         0.0000000000         0.0000000000
  
   3    1   1    1         0.0000000000         0.0000000000
   3    1   2    1         0.0000000000         0.0000000000
   3    1   3    1         0.1285092657         0.0000000000
   3    1   1    2        -0.0000000000        -0.0000000000
   3    1   2    2         0.0000000000         0.0000000000
   3    1   3    2        -0.1161090070         0.0000000042
  
   1    2   1    1        -0.0069958361         0.0000000014
   1    2   2    1        -0.0385773315         0.0000000010
   1    2   3    1        -0.0000000000         0.0000000000
   1    2   1    2         0.1562726108        -0.0000000000
   1    2   2    2        -0.0098158248         0.0000000000
   1    2   3    2         0.0000000000         0.0000000000
  
   2    2   1    1        -0.0385773315         0.0000000010
   2    2   2    1        -0.1024698606         0.0000000038
   2    2   3    1         0.0000000000        -0.0000000000
   2    2   1    2        -0.0098158248         0.0000000000
   2    2   2    2         0.1319796838        -0.0000000000
   2    2   3    2         0.0000000000         0.0000000000
  
   3    2   1    1        -0.0000000000         0.0000000000
   3    2   2    1         0.0000000000        -0.0000000000
   3    2   3    1        -0.1161090070         0.0000000042
   3    2   1    2         0.0000000000         0.0000000000
   3    2   2    2         0.0000000000         0.0000000000
   3    2   3    2         0.1285092657         0.0000000000

  Phonon wavevector (reduced coordinates) :  0.50000  0.00000  0.00000
 Phonon energies in Hartree :
   4.921463E-04  4.921463E-04  1.729283E-03  1.802759E-03  2.185865E-03
   2.185865E-03
 Phonon frequencies in cm-1    :
-  1.080136E+02  1.080136E+02  3.795337E+02  3.956599E+02  4.797419E+02
-  4.797419E+02

================================================================================
== DATASET  5 ==================================================================
-   mpi_nproc: 1, omp_nthreads: -1 (-1 if OMP is not activated)


--- !DatasetInfo
iteration_state: {dtset: 5, }
dimensions: {natom: 2, nkpt: 64, mband: 20, nsppol: 1, nspinor: 1, nspden: 1, mpw: 2764, }
cutoff_energies: {ecut:  35.0, pawecutdg:  -1.0, }
electrons: {nelect:   8.00000000E+00, charge:   0.00000000E+00, occopt:   1.00000000E+00, tsmear:   1.00000000E-02, }
meta: {optdriver: 1, rfphon: 1, }
...

 mkfilename : getwfk/=0, take file _WFK from output of DATASET   1.

 Exchange-correlation functional for the present dataset will be:
  GGA: Perdew-Burke-Ernzerhof functional - ixc=11
 Citation for XC functional:
  J.P.Perdew, K.Burke, M.Ernzerhof, PRL 77, 3865 (1996)

 Real(R)+Recip(G) space primitive vectors, cartesian coordinates (Bohr,Bohr^-1):
 R(1)=  6.3285005  0.0000000  3.6537615  G(1)=  0.1580153 -0.0558669  0.0000000
 R(2)=  2.1095002  5.9665675  3.6537615  G(2)=  0.0000000  0.1676006  0.0000000
 R(3)=  0.0000000  0.0000000  7.3075230  G(3)= -0.0790077 -0.0558669  0.1368453
 Unit cell volume ucvol=  2.7592787E+02 bohr^3
 Angles (23,13,12)=  6.00000000E+01  6.00000000E+01  6.00000000E+01 degrees
 setup1 : take into account q-point for computing boxcut.

 getcut: wavevector=  0.5000  0.5000  0.0000  ngfft=  40  40  40
         ecut(hartree)=     35.000   => boxcut(ratio)=   2.00465
--------------------------------------------------------------------------------


 ==>  initialize data related to q vector <== 

 The list of irreducible perturbations for this q vector is:
    1)    idir= 1    ipert=   1

================================================================================

 The perturbation idir=   2  ipert=   1 is
 symmetric of a previously calculated perturbation.
 So, its SCF calculation is not needed.


 The perturbation idir=   3  ipert=   1 is
 symmetric of a previously calculated perturbation.
 So, its SCF calculation is not needed.


 The perturbation idir=   1  ipert=   2 is
 symmetric of a previously calculated perturbation.
 So, its SCF calculation is not needed.


 The perturbation idir=   2  ipert=   2 is
 symmetric of a previously calculated perturbation.
 So, its SCF calculation is not needed.


 The perturbation idir=   3  ipert=   2 is
 symmetric of a previously calculated perturbation.
 So, its SCF calculation is not needed.


--------------------------------------------------------------------------------
 Perturbation wavevector (in red.coord.)   0.500000  0.500000  0.000000
 Perturbation : displacement of atom   1   along direction   1
 The set of symmetries contains only one element for this perturbation.
 symkpt : not enough symmetry to change the number of k points.

--------------------------------------------------------------------------------

--------------------------------------------------------------------------------

 Initialisation of the first-order wave-functions :
  ireadwf=   0

--- !BeginCycle
iteration_state: {dtset: 5, }
solver: {iscf: 7, nstep: 30, nline: 4, wfoptalg: 0, }
tolerances: {tolvrs: 1.00E-10, }
...

     iter   2DEtotal(Ha)        deltaE(Ha) residm    vres2
-ETOT  1   8.2617282489483     -9.201E+01 3.065E+00 4.088E+03
 ETOT  2   7.7124096465564     -5.493E-01 2.882E+00 3.686E+02
 ETOT  3   7.6559395505349     -5.647E-02 4.602E+00 1.007E+01
 ETOT  4   7.6551680288022     -7.715E-04 4.171E+00 3.650E-01
 ETOT  5   7.6551257592621     -4.227E-05 8.003E+00 4.252E-02
 ETOT  6   7.6551222673437     -3.492E-06 9.046E+00 3.063E-04
 ETOT  7   7.6551222447621     -2.258E-08 3.632E+00 9.558E-06
 ETOT  8   7.6551222438859     -8.761E-10 2.370E+00 1.524E-07
 ETOT  9   7.6551222438665     -1.943E-11 3.920E+00 1.143E-08
 ETOT 10   7.6551222438661     -4.263E-13 6.732E+00 1.543E-10
 ETOT 11   7.6551222438646     -1.506E-12 5.102E+00 5.548E-12

 At SCF step   11       vres2   =  5.55E-12 < tolvrs=  1.00E-10 =>converged.
================================================================================

 ----iterations are completed or convergence reached----

 Mean square residual over all n,k,spin=   16.973E-03; max=  51.019E-01

 Thirteen components of 2nd-order total energy (hartree) are
 1,2,3: 0th-order hamiltonian combined with 1st-order wavefunctions
     kin0=   4.90628246E+01 eigvalue=   5.85266350E-01  local=  -2.72947413E+01
 4,5,6: 1st-order hamiltonian combined with 1st and 0th-order wfs
 loc psp =  -7.56673818E+01  Hartree=   2.99935229E+01     xc=  -7.28847911E+00
 note that "loc psp" includes a xc core correction that could be resolved
 7,8,9: eventually, occupation + non-local contributions
    edocc=   1.73456473E+01     enl0=   3.02102696E+01   enl1=  -1.09561239E+02
 1-9 gives the relaxation energy (to be shifted if some occ is /=2.0)
   erelax=  -9.26143101E+01
 10,11,12 Non-relaxation  contributions : frozen-wavefunctions and Ewald
 fr.local=   1.11801112E+01 fr.nonlo=   6.22908572E+01  Ewald=   2.92957070E+01
 13,14 Frozen wf xc core corrections (1) and (2)
 frxc 1  =  -7.99238881E+00  frxc 2 =   5.49514564E+00
 Resulting in :
 2DEtotal=    0.7655122244E+01 Ha. Also 2DEtotal=    0.208306469873E+03 eV
    (2DErelax=   -9.2614310074E+01 Ha. 2DEnonrelax=    1.0026943232E+02 Ha)
    (  non-var. 2DEtotal :    7.6551221362E+00 Ha)

================================================================================

 ---- first-order wavefunction calculations are completed ----


 ==> Compute Derivative Database <==
  
  2nd-order matrix (non-cartesian coordinates, masses not included,
   asr not included )
     j1       j2             matrix element
  dir pert dir pert     real part     imaginary part
  
   1    1   1    1         7.6551644787         0.0000000000
   1    1   2    1         4.5422793974         0.0000000000
   1    1   3    1         3.1128850814         0.0000000000
   1    1   1    2        -0.0000000001         0.0000000000
   1    1   2    2        -2.5100126094         0.0000000134
   1    1   3    2        -2.5100126095         0.0000000134
  
   2    1   1    1         4.5422793974         0.0000000000
   2    1   2    1         7.6551644784         0.0000000000
   2    1   3    1         3.1128850814         0.0000000000
   2    1   1    2        -2.5100126094         0.0000000134
   2    1   2    2        -0.0000000004         0.0000000000
   2    1   3    2        -2.5100126095         0.0000000134
  
   3    1   1    1         3.1128850814         0.0000000000
   3    1   2    1         3.1128850814         0.0000000000
   3    1   3    1         6.2257701623         0.0000000000
   3    1   1    2        -2.5100126095         0.0000000134
   3    1   2    2        -2.5100126095         0.0000000134
   3    1   3    2        -5.0200252185         0.0000000268
  
   1    2   1    1        -0.0000000001        -0.0000000000
   1    2   2    1        -2.5100126094         0.0000000134
   1    2   3    1        -2.5100126095         0.0000000134
   1    2   1    2         7.6551644787         0.0000000000
   1    2   2    2         4.5422793974         0.0000000000
   1    2   3    2         3.1128850814         0.0000000000
  
   2    2   1    1        -2.5100126094         0.0000000134
   2    2   2    1        -0.0000000004        -0.0000000000
   2    2   3    1        -2.5100126095         0.0000000134
   2    2   1    2         4.5422793974         0.0000000000
   2    2   2    2         7.6551644784         0.0000000000
   2    2   3    2         3.1128850814         0.0000000000
  
   3    2   1    1        -2.5100126095         0.0000000134
   3    2   2    1        -2.5100126095         0.0000000134
   3    2   3    1        -5.0200252185         0.0000000268
   3    2   1    2         3.1128850814         0.0000000000
   3    2   2    2         3.1128850814         0.0000000000
   3    2   3    2         6.2257701623         0.0000000000
  
  
  Dynamical matrix, in cartesian coordinates,
   if specified in the inputs, asr has been imposed
     j1       j2             matrix element
[...]
                       0.00000000E+00  0.00000000E+00  2.50000000E-01
                       2.50000000E-01  0.00000000E+00  2.50000000E-01
                       5.00000000E-01  0.00000000E+00  2.50000000E-01
                      -2.50000000E-01  0.00000000E+00  2.50000000E-01
                       0.00000000E+00  2.50000000E-01  2.50000000E-01
                       2.50000000E-01  2.50000000E-01  2.50000000E-01
                       5.00000000E-01  2.50000000E-01  2.50000000E-01
                      -2.50000000E-01  2.50000000E-01  2.50000000E-01
                       0.00000000E+00  5.00000000E-01  2.50000000E-01
                       2.50000000E-01  5.00000000E-01  2.50000000E-01
                       5.00000000E-01  5.00000000E-01  2.50000000E-01
                      -2.50000000E-01  5.00000000E-01  2.50000000E-01
                       0.00000000E+00 -2.50000000E-01  2.50000000E-01
                       2.50000000E-01 -2.50000000E-01  2.50000000E-01
                       5.00000000E-01 -2.50000000E-01  2.50000000E-01
                      -2.50000000E-01 -2.50000000E-01  2.50000000E-01
                       0.00000000E+00  0.00000000E+00  5.00000000E-01
                       2.50000000E-01  0.00000000E+00  5.00000000E-01
                       5.00000000E-01  0.00000000E+00  5.00000000E-01
                      -2.50000000E-01  0.00000000E+00  5.00000000E-01
                       0.00000000E+00  2.50000000E-01  5.00000000E-01
                       2.50000000E-01  2.50000000E-01  5.00000000E-01
                       5.00000000E-01  2.50000000E-01  5.00000000E-01
                      -2.50000000E-01  2.50000000E-01  5.00000000E-01
                       0.00000000E+00  5.00000000E-01  5.00000000E-01
                       2.50000000E-01  5.00000000E-01  5.00000000E-01
                       5.00000000E-01  5.00000000E-01  5.00000000E-01
                      -2.50000000E-01  5.00000000E-01  5.00000000E-01
                       0.00000000E+00 -2.50000000E-01  5.00000000E-01
                       2.50000000E-01 -2.50000000E-01  5.00000000E-01
                       5.00000000E-01 -2.50000000E-01  5.00000000E-01
                      -2.50000000E-01 -2.50000000E-01  5.00000000E-01
                       0.00000000E+00  0.00000000E+00 -2.50000000E-01
                       2.50000000E-01  0.00000000E+00 -2.50000000E-01
                       outvar_i_n : Printing only first  50 k-points.
           kptopt1          1
           kptopt2          1
           kptopt3          3
           kptopt4          3
           kptopt5          3
         kptrlatt        4    0    0      0    4    0      0    0    4
          kptrlen      2.92300919E+01
P           mkmem1          8
P           mkmem2          8
P           mkmem3         64
P           mkmem4         64
P           mkmem5         64
P          mkqmem1          8
P          mkqmem2          8
P          mkqmem3         64
P          mkqmem4         64
P          mkqmem5         64
P          mk1mem1          8
P          mk1mem2          8
P          mk1mem3         64
P          mk1mem4         64
P          mk1mem5         64
            natom           2
            nband1         20
            nband2         20
            nband3         20
            nband4         20
            nband5         20
           nbdbuf1          0
           nbdbuf2          4
           nbdbuf3          0
           nbdbuf4          0
           nbdbuf5          0
           ndtset           5
            ngfft          40      40      40
             nkpt1          8
             nkpt2          8
             nkpt3         64
             nkpt4         64
             nkpt5         64
             nqpt1          0
             nqpt2          0
             nqpt3          1
             nqpt4          1
             nqpt5          1
             nsym          48
           ntypat           1
              occ1     2.000000  2.000000  2.000000  2.000000  0.000000  0.000000
                       0.000000  0.000000  0.000000  0.000000  0.000000  0.000000
                       0.000000  0.000000  0.000000  0.000000  0.000000  0.000000
                       0.000000  0.000000
              occ3     2.000000  2.000000  2.000000  2.000000  0.000000  0.000000
                       0.000000  0.000000  0.000000  0.000000  0.000000  0.000000
                       0.000000  0.000000  0.000000  0.000000  0.000000  0.000000
                       0.000000  0.000000
              occ4     2.000000  2.000000  2.000000  2.000000  0.000000  0.000000
                       0.000000  0.000000  0.000000  0.000000  0.000000  0.000000
                       0.000000  0.000000  0.000000  0.000000  0.000000  0.000000
                       0.000000  0.000000
              occ5     2.000000  2.000000  2.000000  2.000000  0.000000  0.000000
                       0.000000  0.000000  0.000000  0.000000  0.000000  0.000000
                       0.000000  0.000000  0.000000  0.000000  0.000000  0.000000
                       0.000000  0.000000
        optdriver1          0
        optdriver2          0
        optdriver3          1
        optdriver4          1
        optdriver5          1
           prtpot           1
              qpt1     0.00000000E+00  0.00000000E+00  0.00000000E+00
              qpt2     0.00000000E+00  0.00000000E+00  0.00000000E+00
              qpt3     0.00000000E+00  0.00000000E+00  0.00000000E+00
              qpt4     5.00000000E-01  0.00000000E+00  0.00000000E+00
              qpt5     5.00000000E-01  5.00000000E-01  0.00000000E+00
           rfphon1          0
           rfphon2          0
           rfphon3          1
           rfphon4          1
           rfphon5          1
            rprim      6.3285005244E+00  0.0000000000E+00  3.6537614813E+00
                       2.1095001748E+00  5.9665675141E+00  3.6537614813E+00
                       0.0000000000E+00  0.0000000000E+00  7.3075229627E+00
          spgroup         227
           strten1    -1.9984889899E-05 -1.9984889924E-05 -1.9984889921E-05
                       1.0869072032E-14  1.5370731903E-14  0.0000000000E+00
           strten3     0.0000000000E+00  0.0000000000E+00  0.0000000000E+00
                       0.0000000000E+00  0.0000000000E+00  0.0000000000E+00
           strten4     0.0000000000E+00  0.0000000000E+00  0.0000000000E+00
                       0.0000000000E+00  0.0000000000E+00  0.0000000000E+00
           strten5     0.0000000000E+00  0.0000000000E+00  0.0000000000E+00
                       0.0000000000E+00  0.0000000000E+00  0.0000000000E+00
           symrel      1  0  0   0  1  0   0  0  1      -1  0  0   0 -1  0   0  0 -1
                       0 -1  1   0 -1  0   1 -1  0       0  1 -1   0  1  0  -1  1  0
                      -1  0  0  -1  0  1  -1  1  0       1  0  0   1  0 -1   1 -1  0
                       0  1 -1   1  0 -1   0  0 -1       0 -1  1  -1  0  1   0  0  1
                      -1  0  0  -1  1  0  -1  0  1       1  0  0   1 -1  0   1  0 -1
                       0 -1  1   1 -1  0   0 -1  0       0  1 -1  -1  1  0   0  1  0
                       1  0  0   0  0  1   0  1  0      -1  0  0   0  0 -1   0 -1  0
                       0  1 -1   0  0 -1   1  0 -1       0 -1  1   0  0  1  -1  0  1
                      -1  0  1  -1  1  0  -1  0  0       1  0 -1   1 -1  0   1  0  0
                       0 -1  0   1 -1  0   0 -1  1       0  1  0  -1  1  0   0  1 -1
                       1  0 -1   0  0 -1   0  1 -1      -1  0  1   0  0  1   0 -1  1
                       0  1  0   0  0  1   1  0  0       0 -1  0   0  0 -1  -1  0  0
                       1  0 -1   0  1 -1   0  0 -1      -1  0  1   0 -1  1   0  0  1
                       0 -1  0   0 -1  1   1 -1  0       0  1  0   0  1 -1  -1  1  0
                      -1  0  1  -1  0  0  -1  1  0       1  0 -1   1  0  0   1 -1  0
                       0  1  0   1  0  0   0  0  1       0 -1  0  -1  0  0   0  0 -1
                       0  0 -1   0  1 -1   1  0 -1       0  0  1   0 -1  1  -1  0  1
                       1 -1  0   0 -1  1   0 -1  0      -1  1  0   0  1 -1   0  1  0
                       0  0  1   1  0  0   0  1  0       0  0 -1  -1  0  0   0 -1  0
                      -1  1  0  -1  0  0  -1  0  1       1 -1  0   1  0  0   1  0 -1
                       0  0  1   0  1  0   1  0  0       0  0 -1   0 -1  0  -1  0  0
                       1 -1  0   0 -1  0   0 -1  1      -1  1  0   0  1  0   0  1 -1
                       0  0 -1   1  0 -1   0  1 -1       0  0  1  -1  0  1   0 -1  1
                      -1  1  0  -1  0  1  -1  0  0       1 -1  0   1  0 -1   1  0  0
            tnons      0.0000000  0.0000000  0.0000000     0.2500000  0.2500000  0.2500000
                       0.0000000  0.0000000  0.0000000     0.2500000  0.2500000  0.2500000
                       0.0000000  0.0000000  0.0000000     0.2500000  0.2500000  0.2500000
                       0.0000000  0.0000000  0.0000000     0.2500000  0.2500000  0.2500000
                       0.0000000  0.0000000  0.0000000     0.2500000  0.2500000  0.2500000
                       0.0000000  0.0000000  0.0000000     0.2500000  0.2500000  0.2500000
                       0.0000000  0.0000000  0.0000000     0.2500000  0.2500000  0.2500000
                       0.0000000  0.0000000  0.0000000     0.2500000  0.2500000  0.2500000
                       0.0000000  0.0000000  0.0000000     0.2500000  0.2500000  0.2500000
                       0.0000000  0.0000000  0.0000000     0.2500000  0.2500000  0.2500000
                       0.0000000  0.0000000  0.0000000     0.2500000  0.2500000  0.2500000
                       0.0000000  0.0000000  0.0000000     0.2500000  0.2500000  0.2500000
                       0.0000000  0.0000000  0.0000000     0.2500000  0.2500000  0.2500000
                       0.0000000  0.0000000  0.0000000     0.2500000  0.2500000  0.2500000
                       0.0000000  0.0000000  0.0000000     0.2500000  0.2500000  0.2500000
                       0.0000000  0.0000000  0.0000000     0.2500000  0.2500000  0.2500000
                       0.0000000  0.0000000  0.0000000     0.2500000  0.2500000  0.2500000
                       0.0000000  0.0000000  0.0000000     0.2500000  0.2500000  0.2500000
                       0.0000000  0.0000000  0.0000000     0.2500000  0.2500000  0.2500000
                       0.0000000  0.0000000  0.0000000     0.2500000  0.2500000  0.2500000
                       0.0000000  0.0000000  0.0000000     0.2500000  0.2500000  0.2500000
                       0.0000000  0.0000000  0.0000000     0.2500000  0.2500000  0.2500000
                       0.0000000  0.0000000  0.0000000     0.2500000  0.2500000  0.2500000
                       0.0000000  0.0000000  0.0000000     0.2500000  0.2500000  0.2500000
           tolvrs1     0.00000000E+00
           tolvrs2     0.00000000E+00
           tolvrs3     1.00000000E-10
           tolvrs4     1.00000000E-10
           tolvrs5     1.00000000E-10
           tolwfr1     1.00000000E-20
           tolwfr2     1.00000000E-16
           tolwfr3     0.00000000E+00
           tolwfr4     0.00000000E+00
           tolwfr5     0.00000000E+00
            typat      1  1
              wtk1       0.01563    0.12500    0.06250    0.09375    0.37500    0.18750
                         0.04688    0.09375
              wtk2       0.01563    0.12500    0.06250    0.09375    0.37500    0.18750
                         0.04688    0.09375
              wtk3       0.01563    0.01563    0.01563    0.01563    0.01563    0.01563
                         0.01563    0.01563    0.01563    0.01563    0.01563    0.01563
                         0.01563    0.01563    0.01563    0.01563    0.01563    0.01563
                         0.01563    0.01563    0.01563    0.01563    0.01563    0.01563
                         0.01563    0.01563    0.01563    0.01563    0.01563    0.01563
                         0.01563    0.01563    0.01563    0.01563    0.01563    0.01563
                         0.01563    0.01563    0.01563    0.01563    0.01563    0.01563
                         0.01563    0.01563    0.01563    0.01563    0.01563    0.01563
                         0.01563    0.01563
              wtk4       0.01563    0.01563    0.01563    0.01563    0.01563    0.01563
                         0.01563    0.01563    0.01563    0.01563    0.01563    0.01563
                         0.01563    0.01563    0.01563    0.01563    0.01563    0.01563
                         0.01563    0.01563    0.01563    0.01563    0.01563    0.01563
                         0.01563    0.01563    0.01563    0.01563    0.01563    0.01563
                         0.01563    0.01563    0.01563    0.01563    0.01563    0.01563
                         0.01563    0.01563    0.01563    0.01563    0.01563    0.01563
                         0.01563    0.01563    0.01563    0.01563    0.01563    0.01563
                         0.01563    0.01563
              wtk5       0.01563    0.01563    0.01563    0.01563    0.01563    0.01563
                         0.01563    0.01563    0.01563    0.01563    0.01563    0.01563
                         0.01563    0.01563    0.01563    0.01563    0.01563    0.01563
                         0.01563    0.01563    0.01563    0.01563    0.01563    0.01563
                         0.01563    0.01563    0.01563    0.01563    0.01563    0.01563
                         0.01563    0.01563    0.01563    0.01563    0.01563    0.01563
                         0.01563    0.01563    0.01563    0.01563    0.01563    0.01563
                         0.01563    0.01563    0.01563    0.01563    0.01563    0.01563
                         0.01563    0.01563
                       outvars : Printing only first  50 k-points.
           xangst      0.0000000000E+00  0.0000000000E+00  0.0000000000E+00
                       1.1162994140E+00  7.8934288549E-01  1.9334873015E+00
            xcart      0.0000000000E+00  0.0000000000E+00  0.0000000000E+00
                       2.1095001748E+00  1.4916418785E+00  3.6537614813E+00
             xred      0.0000000000E+00  0.0000000000E+00  0.0000000000E+00
                       2.5000000000E-01  2.5000000000E-01  2.5000000000E-01
            znucl       14.00000

================================================================================


- Timing analysis has been suppressed with timopt=0



================================================================================

 Suggested references for the acknowledgment of ABINIT usage.

 The users of ABINIT have little formal obligations with respect to the ABINIT group
 (those specified in the GNU General Public License, http://www.gnu.org/copyleft/gpl.txt).
 However, it is common practice in the scientific literature,
 to acknowledge the efforts of people that have made the research possible.
 In this spirit, please find below suggested citations of work written by ABINIT developers,
 corresponding to implementations inside of ABINIT that you have used in the present run.
 Note also that it will be of great value to readers of publications presenting these results,
 to read papers enabling them to understand the theoretical formalism and details
 of the ABINIT implementation.
 For information on why they are suggested, see also https://docs.abinit.org/theory/acknowledgments.
-
- [1] The Abinit project: Impact, environment and recent developments.
- Computer Phys. Comm. 248, 107042 (2020).
- X.Gonze, B. Amadon, G. Antonius, F.Arnardi, L.Baguet, J.-M.Beuken,
- J.Bieder, F.Bottin, J.Bouchet, E.Bousquet, N.Brouwer, F.Bruneval,
- G.Brunin, T.Cavignac, J.-B. Charraud, Wei Chen, M.Cote, S.Cottenier,
- J.Denier, G.Geneste, Ph.Ghosez, M.Giantomassi, Y.Gillet, O.Gingras,
- D.R.Hamann, G.Hautier, Xu He, N.Helbig, N.Holzwarth, Y.Jia, F.Jollet,
- W.Lafargue-Dit-Hauret, K.Lejaeghere, M.A.L.Marques, A.Martin, C.Martins,
- H.P.C. Miranda, F.Naccarato, K. Persson, G.Petretto, V.Planes, Y.Pouillon,
- S.Prokhorenko, F.Ricci, G.-M.Rignanese, A.H.Romero, M.M.Schmitt, M.Torrent,
- M.J.van Setten, B.Van Troeye, M.J.Verstraete, G.Zerah and J.W.Zwanzig
- Comment: the fifth generic paper describing the ABINIT project.
- Note that a version of this paper, that is not formatted for Computer Phys. Comm. 
- is available at https://www.abinit.org/sites/default/files/ABINIT20.pdf .
- The licence allows the authors to put it on the Web.
- DOI and bibtex: see https://docs.abinit.org/theory/bibliography/#gonze2020
-
- [2] First-principles responses of solids to atomic displacements and homogeneous electric fields:,
- implementation of a conjugate-gradient algorithm. X. Gonze, Phys. Rev. B55, 10337 (1997).
- Comment: Non-vanishing rfphon and/or rfelfd, in the norm-conserving case.
- DOI and bibtex: see https://docs.abinit.org/theory/bibliography/#gonze1997
-
- [3] Dynamical matrices, Born effective charges, dielectric permittivity tensors, and ,
- interatomic force constants from density-functional perturbation theory,
- X. Gonze and C. Lee, Phys. Rev. B55, 10355 (1997).
- Comment: Non-vanishing rfphon and/or rfelfd, in the norm-conserving case.
- DOI and bibtex: see https://docs.abinit.org/theory/bibliography/#gonze1997a
-
- [4] Optimized norm-conserving Vanderbilt pseudopotentials.
- D.R. Hamann, Phys. Rev. B 88, 085117 (2013).
- Comment: Some pseudopotential generated using the ONCVPSP code were used.
- DOI and bibtex: see https://docs.abinit.org/theory/bibliography/#hamann2013
-
- [5] ABINIT: Overview, and focus on selected capabilities
- J. Chem. Phys. 152, 124102 (2020).
- A. Romero, D.C. Allan, B. Amadon, G. Antonius, T. Applencourt, L.Baguet,
- J.Bieder, F.Bottin, J.Bouchet, E.Bousquet, F.Bruneval,
- G.Brunin, D.Caliste, M.Cote,
- J.Denier, C. Dreyer, Ph.Ghosez, M.Giantomassi, Y.Gillet, O.Gingras,
- D.R.Hamann, G.Hautier, F.Jollet, G. Jomard,
- A.Martin, 
- H.P.C. Miranda, F.Naccarato, G.Petretto, N.A. Pike, V.Planes,
- S.Prokhorenko, T. Rangel, F.Ricci, G.-M.Rignanese, M.Royo, M.Stengel, M.Torrent,
- M.J.van Setten, B.Van Troeye, M.J.Verstraete, J.Wiktor, J.W.Zwanziger, and X.Gonze.
- Comment: a global overview of ABINIT, with focus on selected capabilities .
- Note that a version of this paper, that is not formatted for J. Chem. Phys 
- is available at https://www.abinit.org/sites/default/files/ABINIT20_JPC.pdf .
- The licence allows the authors to put it on the Web.
- DOI and bibtex: see https://docs.abinit.org/theory/bibliography/#romero2020
-
- [6] Recent developments in the ABINIT software package.
- Computer Phys. Comm. 205, 106 (2016).
- X.Gonze, F.Jollet, F.Abreu Araujo, D.Adams, B.Amadon, T.Applencourt,
- C.Audouze, J.-M.Beuken, J.Bieder, A.Bokhanchuk, E.Bousquet, F.Bruneval
- D.Caliste, M.Cote, F.Dahm, F.Da Pieve, M.Delaveau, M.Di Gennaro,
- B.Dorado, C.Espejo, G.Geneste, L.Genovese, A.Gerossier, M.Giantomassi,
- Y.Gillet, D.R.Hamann, L.He, G.Jomard, J.Laflamme Janssen, S.Le Roux,
- A.Levitt, A.Lherbier, F.Liu, I.Lukacevic, A.Martin, C.Martins,
- M.J.T.Oliveira, S.Ponce, Y.Pouillon, T.Rangel, G.-M.Rignanese,
- A.H.Romero, B.Rousseau, O.Rubel, A.A.Shukri, M.Stankovski, M.Torrent,
- M.J.Van Setten, B.Van Troeye, M.J.Verstraete, D.Waroquier, J.Wiktor,
- B.Xu, A.Zhou, J.W.Zwanziger.
- Comment: the fourth generic paper describing the ABINIT project.
- Note that a version of this paper, that is not formatted for Computer Phys. Comm. 
- is available at https://www.abinit.org/sites/default/files/ABINIT16.pdf .
- The licence allows the authors to put it on the Web.
- DOI and bibtex: see https://docs.abinit.org/theory/bibliography/#gonze2016
-
- Proc.   0 individual time (sec): cpu=        301.9  wall=        302.0

================================================================================

 Calculation completed.
.Delivered   6 WARNINGs and   6 COMMENTs to log file.
+Overall time at end (sec) : cpu=        301.9  wall=        302.0
