
.Version 10.1.1.2 of ABINIT, released Feb 2025.
.(sequential version, prepared for a x86_64_linux_gnu13.2 computer)

.Copyright (C) 1998-2025 ABINIT group .
 ABINIT comes with ABSOLUTELY NO WARRANTY.
 It is free software, and you are welcome to redistribute it
 under certain conditions (GNU General Public License,
 see ~abinit/COPYING or http://www.gnu.org/copyleft/gpl.txt).

 ABINIT is a project of the Universite Catholique de Louvain,
 Corning Inc. and other collaborators, see ~abinit/doc/developers/contributors.txt .
 Please read https://docs.abinit.org/theory/acknowledgments for suggested
 acknowledgments of the ABINIT effort.
 For more information, see https://www.abinit.org .

.Starting date : Tue 25 Mar 2025.
- ( at 17h45 )

- input  file    -> /home/buildbot/ABINIT3/eos_gnu_13.2_serial/blanchet_ftxc/tests/TestBot_MPI1/v10_t22/t22.abi
- output file    -> t22.abo
- root for input  files -> t22i
- root for output files -> t22o

 DATASET    1 : space group Pm -3 m (#221); Bravais cP (primitive cubic)
================================================================================
 Values of the parameters that define the memory need for DATASET  1.
     intxc =       0    ionmov =       0      iscf =       7    lmnmax =       3
     lnmax =       3     mgfft =      10  mpssoang =       2    mqgrid =    3001
     natom =       1  nloc_mem =       1    nspden =       1   nspinor =       1
    nsppol =       1      nsym =      48    n1xccc =       0    ntypat =       1
    occopt =       3   xclevel =       1
-    mband =          30        mffmem =           1         mkmem =           1
       mpw =          38          nfft =        1000          nkpt =           1
================================================================================
P This job should need less than                       1.583 Mbytes of memory.
  Rough estimation (10% accuracy) of disk space for files :
_ WF disk file :      0.019 Mbytes ; DEN or POT disk file :      0.010 Mbytes.
================================================================================

 DATASET    2 : space group Pm -3 m (#221); Bravais cP (primitive cubic)
================================================================================
 Values of the parameters that define the memory need for DATASET  2.
     intxc =       0    ionmov =       0      iscf =       7    lmnmax =       3
     lnmax =       3     mgfft =      10  mpssoang =       2    mqgrid =    3001
     natom =       1  nloc_mem =       1    nspden =       1   nspinor =       1
    nsppol =       1      nsym =      48    n1xccc =       0    ntypat =       1
    occopt =       3   xclevel =       2
-    mband =          30        mffmem =           1         mkmem =           1
       mpw =          38          nfft =        1000          nkpt =           1
================================================================================
P This job should need less than                       1.583 Mbytes of memory.
  Rough estimation (10% accuracy) of disk space for files :
_ WF disk file :      0.019 Mbytes ; DEN or POT disk file :      0.010 Mbytes.
================================================================================

--------------------------------------------------------------------------------
------------- Echo of variables that govern the present computation ------------
--------------------------------------------------------------------------------
-
- outvars: echo of selected default values
-   iomode0 =  0 , fftalg0 =512 , wfoptalg0 =  0
-
- outvars: echo of global parameters not present in the input file
-  max_nthreads =    0
-
 -outvars: echo values of preprocessed input variables --------
            acell      3.0000000000E+00  3.0000000000E+00  3.0000000000E+00 Bohr
              amu      1.00794000E+00
      chksymbreak           0
           dipdip           0
             ecut      1.00000000E+01 Hartree
-          fftalg         512
              ixc1         51
              ixc2         60
           jdtset        1    2
              kpt      2.50000000E-01  2.50000000E-01  2.50000000E-01
         kptrlatt        2    0    0      0    2    0      0    0    2
          kptrlen      6.00000000E+00
P           mkmem           1
            natom           1
            nband          30
           ndtset           2
            ngfft          10      10      10
             nkpt           1
            nstep          20
             nsym          48
           ntypat           1
              occ      1.000000  0.000000  0.000000  0.000000  0.000000  0.000000
                       0.000000  0.000000  0.000000  0.000000  0.000000  0.000000
                       0.000000  0.000000  0.000000  0.000000  0.000000  0.000000
                       0.000000  0.000000  0.000000  0.000000  0.000000  0.000000
                       0.000000  0.000000  0.000000  0.000000  0.000000  0.000000
           occopt           3
        pawecutdg      1.00000000E+01 Hartree
           shiftk      5.00000000E-01  5.00000000E-01  5.00000000E-01
          spgroup         221
           symrel      1  0  0   0  1  0   0  0  1      -1  0  0   0 -1  0   0  0 -1
                      -1  0  0   0  1  0   0  0 -1       1  0  0   0 -1  0   0  0  1
                      -1  0  0   0 -1  0   0  0  1       1  0  0   0  1  0   0  0 -1
                       1  0  0   0 -1  0   0  0 -1      -1  0  0   0  1  0   0  0  1
                       0  1  0   1  0  0   0  0  1       0 -1  0  -1  0  0   0  0 -1
                       0 -1  0   1  0  0   0  0 -1       0  1  0  -1  0  0   0  0  1
                       0 -1  0  -1  0  0   0  0  1       0  1  0   1  0  0   0  0 -1
                       0  1  0  -1  0  0   0  0 -1       0 -1  0   1  0  0   0  0  1
                       0  0  1   1  0  0   0  1  0       0  0 -1  -1  0  0   0 -1  0
                       0  0 -1   1  0  0   0 -1  0       0  0  1  -1  0  0   0  1  0
                       0  0 -1  -1  0  0   0  1  0       0  0  1   1  0  0   0 -1  0
                       0  0  1  -1  0  0   0 -1  0       0  0 -1   1  0  0   0  1  0
                       1  0  0   0  0  1   0  1  0      -1  0  0   0  0 -1   0 -1  0
                      -1  0  0   0  0  1   0 -1  0       1  0  0   0  0 -1   0  1  0
                      -1  0  0   0  0 -1   0  1  0       1  0  0   0  0  1   0 -1  0
                       1  0  0   0  0 -1   0 -1  0      -1  0  0   0  0  1   0  1  0
                       0  1  0   0  0  1   1  0  0       0 -1  0   0  0 -1  -1  0  0
                       0 -1  0   0  0  1  -1  0  0       0  1  0   0  0 -1   1  0  0
                       0 -1  0   0  0 -1   1  0  0       0  1  0   0  0  1  -1  0  0
                       0  1  0   0  0 -1  -1  0  0       0 -1  0   0  0  1   1  0  0
                       0  0  1   0  1  0   1  0  0       0  0 -1   0 -1  0  -1  0  0
                       0  0 -1   0  1  0  -1  0  0       0  0  1   0 -1  0   1  0  0
                       0  0 -1   0 -1  0   1  0  0       0  0  1   0  1  0  -1  0  0
                       0  0  1   0 -1  0  -1  0  0       0  0 -1   0  1  0   1  0  0
           toldfe      1.00000000E-10 Hartree
           tolsym      1.00000000E-08
           tsmear      3.16681542E-01 Hartree
            typat      1
            znucl        1.00000

================================================================================

 chkinp: Checking input parameters for consistency, jdtset=   1.

 chkinp: Checking input parameters for consistency, jdtset=   2.

================================================================================
== DATASET  1 ==================================================================
-   mpi_nproc: 1, omp_nthreads: -1 (-1 if OMP is not activated)


--- !DatasetInfo
iteration_state: {dtset: 1, }
dimensions: {natom: 1, nkpt: 1, mband: 30, nsppol: 1, nspinor: 1, nspden: 1, mpw: 38, }
cutoff_energies: {ecut:  10.0, pawecutdg:  10.0, }
electrons: {nelect:   1.00000000E+00, charge:   0.00000000E+00, occopt:   3.00000000E+00, tsmear:   3.16681542E-01, }
meta: {optdriver: 0, ionmov: 0, optcell: 0, iscf: 7, paral_kgb: 0, }
...

 Exchange-correlation functional for the present dataset will be:
  TLDA: corrKSDT Karasiev-Sjostrom-Dufty-Trickey - ixc=51
 Citation for XC functional:
  V.V. Karasiev, T. Sjostrom, J. Dufty, and S.B. Trickey, PRL 112, 076403 (2014)

 Real(R)+Recip(G) space primitive vectors, cartesian coordinates (Bohr,Bohr^-1):
 R(1)=  3.0000000  0.0000000  0.0000000  G(1)=  0.3333333  0.0000000  0.0000000
 R(2)=  0.0000000  3.0000000  0.0000000  G(2)=  0.0000000  0.3333333  0.0000000
 R(3)=  0.0000000  0.0000000  3.0000000  G(3)=  0.0000000  0.0000000  0.3333333
 Unit cell volume ucvol=  2.7000000E+01 bohr^3
 Angles (23,13,12)=  9.00000000E+01  9.00000000E+01  9.00000000E+01 degrees

 getcut: wavevector=  0.0000  0.0000  0.0000  ngfft=  10  10  10
         ecut(hartree)=     10.000   => boxcut(ratio)=   2.34160

 getcut : COMMENT -
  Note that boxcut > 2.2 ; recall that boxcut=Gcut(box)/Gcut(sphere) = 2
  is sufficient for exact treatment of convolution.
  Such a large boxcut is a waste : you could raise ecut
  e.g. ecut=   13.707784 Hartrees makes boxcut=2


--- Pseudopotential description ------------------------------------------------
- pspini: atom type   1  psp file is /home/buildbot/ABINIT3/eos_gnu_13.2_serial/blanchet_ftxc/tests/Pspdir/H.psp8
- pspatm: opening atomic psp file    /home/buildbot/ABINIT3/eos_gnu_13.2_serial/blanchet_ftxc/tests/Pspdir/H.psp8
- H     ONCVPSP  r_core=  1.01  0.71
-  1.00000   1.00000    161003                znucl, zion, pspdat
    8   11    1    4       300   0.00000      pspcod,pspxc,lmax,lloc,mmax,r2well
    2.99000000000000    0.00000000000000    0.00000000000000   rchrg,fchrg,qchrg
     nproj     2     1
     extension_switch     1
  pspatm : epsatm=    0.36200384
         --- l  ekb(1:nproj) -->
             0   -7.905942   -0.865230
             1   -6.853045
 pspatm: atomic psp has been read  and splines computed

   3.62003841E-01                                ecore*ucvol(ha*bohr**3)
--------------------------------------------------------------------------------

_setup2: Arith. and geom. avg. npw (full set) are      38.000      38.000

================================================================================

--- !BeginCycle
iteration_state: {dtset: 1, }
solver: {iscf: 7, nstep: 20, nline: 4, wfoptalg: 0, }
tolerances: {toldfe: 1.00E-10, }
...

     iter   Etot(hartree)      deltaE(h)  residm     vres2
 ETOT  1 -0.89987825579869    -8.999E-01 7.220E-04 1.117E-02
 ETOT  2 -0.89987927760319    -1.022E-06 1.235E-06 4.384E-05
 ETOT  3 -0.89987929327819    -1.567E-08 9.531E-08 1.625E-07
 ETOT  4 -0.89987929337385    -9.566E-11 6.359E-10 3.845E-11
 ETOT  5 -0.89987929337385    -6.439E-15 1.053E-11 1.164E-13

 At SCF step    5, etot is converged :
  for the second time, diff in etot=  6.439E-15 < toldfe=  1.000E-10

 Cartesian components of stress tensor (hartree/bohr^3)
  sigma(1 1)= -4.45969344E-03  sigma(3 2)=  0.00000000E+00
  sigma(2 2)= -4.45969344E-03  sigma(3 1)=  0.00000000E+00
  sigma(3 3)= -4.45969344E-03  sigma(2 1)=  0.00000000E+00


--- !ResultsGS
iteration_state: {dtset: 1, }
comment   : Summary of ground state results
lattice_vectors:
- [  3.0000000,   0.0000000,   0.0000000, ]
- [  0.0000000,   3.0000000,   0.0000000, ]
- [  0.0000000,   0.0000000,   3.0000000, ]
lattice_lengths: [   3.00000,    3.00000,    3.00000, ]
lattice_angles: [ 90.000,  90.000,  90.000, ] # degrees, (23, 13, 12)
lattice_volume:   2.7000000E+01
convergence: {deltae: -6.439E-15, res2:  1.164E-13, residm:  1.053E-11, diffor: null, }
etotal    :  -8.99879293E-01
entropy   :   0.00000000E+00
fermie    :  -1.31284232E-01
cartesian_stress_tensor: # hartree/bohr^3
- [ -4.45969344E-03,   0.00000000E+00,   0.00000000E+00, ]
- [  0.00000000E+00,  -4.45969344E-03,   0.00000000E+00, ]
- [  0.00000000E+00,   0.00000000E+00,  -4.45969344E-03, ]
pressure_GPa:   1.3121E+02
xred      :
- [  0.0000E+00,   0.0000E+00,   0.0000E+00,  H]
cartesian_forces: # hartree/bohr
- [ -0.00000000E+00,  -0.00000000E+00,  -0.00000000E+00, ]
force_length_stats: {min:   0.00000000E+00, max:   0.00000000E+00, mean:   0.00000000E+00, }
...

 Integrated electronic density in atomic spheres:
 ------------------------------------------------
 Atom  Sphere_radius  Integrated_density
    1        2.00000          1.21568637
================================================================================

 ----iterations are completed or convergence reached----

 Mean square residual over all n,k,spin=   36.481E-14; max=  10.528E-12
 reduced coordinates (array xred) for    1 atoms
       0.000000000000      0.000000000000      0.000000000000
 rms dE/dt=  0.0000E+00; max dE/dt=  0.0000E+00; dE/dt below (all hartree)
    1       0.000000000000      0.000000000000      0.000000000000

 cartesian coordinates (angstrom) at end:
    1      0.00000000000000     0.00000000000000     0.00000000000000

 cartesian forces (hartree/bohr) at end:
    1     -0.00000000000000    -0.00000000000000    -0.00000000000000
 frms,max,avg= 0.0000000E+00 0.0000000E+00   0.000E+00  0.000E+00  0.000E+00 h/b

 cartesian forces (eV/Angstrom) at end:
    1     -0.00000000000000    -0.00000000000000    -0.00000000000000
 frms,max,avg= 0.0000000E+00 0.0000000E+00   0.000E+00  0.000E+00  0.000E+00 e/A
 length scales=  3.000000000000  3.000000000000  3.000000000000 bohr
              =  1.587531625770  1.587531625770  1.587531625770 angstroms
 prteigrs : about to open file t22o_DS1_EIG
 Fermi (or HOMO) energy (hartree) =  -0.13128   Average Vxc (hartree)=  -0.36112
 Eigenvalues (hartree) for nkpt=   1  k points:
 kpt#   1, nband= 30, wtk=  1.00000, kpt=  0.2500  0.2500  0.2500 (reduced coord)
  -0.04819    0.95150    1.17665    1.17665    2.12266    2.28380    2.28380    3.15977
   3.35024    3.36753    3.36753    4.28877    4.39786    4.39786    4.48117    4.48117
   4.51159    5.52132    5.54897    5.54897    6.50103    6.58711    6.61730    6.61730
   6.66925    6.66925    7.57050    7.69642    7.69642    7.72522
      occupation numbers for kpt#   1
   0.86955    0.06341    0.03165    0.03165    0.00162    0.00097    0.00097    0.00006
   0.00003    0.00003    0.00003    0.00000    0.00000    0.00000    0.00000    0.00000
   0.00000    0.00000    0.00000    0.00000    0.00000    0.00000    0.00000    0.00000
   0.00000    0.00000    0.00000    0.00000    0.00000    0.00000

--- !EnergyTerms
iteration_state     : {dtset: 1, }
comment             : Components of total free energy in Hartree
kinetic             :  6.65703767204574E-01
hartree             :  1.19379087174084E-02
xc                  : -3.21507621763504E-01
Ewald energy        : -4.72882913246778E-01
psp_core            :  1.34075496566468E-02
local_psp           : -1.48072893307898E-01
non_local_psp       : -5.16696111290512E-02
internal            : -3.03083813868601E-01
'-kT*entropy'       : -5.96795479505253E-01
total_energy        : -8.99879293373854E-01
total_energy_eV     : -2.44869608796615E+01
band_energy         :  1.01354909819663E-01
...


--- !EntropyTerms
iteration_state     : {dtset: 1, }
comment             : Components of total entropy
noninteracting      :  2.00766641196275E+00
xc                  : -1.23137633343843E-01
total_entropy       :  1.88452877861891E+00
...


 Cartesian components of stress tensor (hartree/bohr^3)
  sigma(1 1)= -4.45969344E-03  sigma(3 2)=  0.00000000E+00
  sigma(2 2)= -4.45969344E-03  sigma(3 1)=  0.00000000E+00
  sigma(3 3)= -4.45969344E-03  sigma(2 1)=  0.00000000E+00

-Cartesian components of stress tensor (GPa)         [Pressure=  1.3121E+02 GPa]
- sigma(1 1)= -1.31208689E+02  sigma(3 2)=  0.00000000E+00
- sigma(2 2)= -1.31208689E+02  sigma(3 1)=  0.00000000E+00
- sigma(3 3)= -1.31208689E+02  sigma(2 1)=  0.00000000E+00

================================================================================
== DATASET  2 ==================================================================
-   mpi_nproc: 1, omp_nthreads: -1 (-1 if OMP is not activated)


--- !DatasetInfo
iteration_state: {dtset: 2, }
dimensions: {natom: 1, nkpt: 1, mband: 30, nsppol: 1, nspinor: 1, nspden: 1, mpw: 38, }
cutoff_energies: {ecut:  10.0, pawecutdg:  10.0, }
electrons: {nelect:   1.00000000E+00, charge:   0.00000000E+00, occopt:   3.00000000E+00, tsmear:   3.16681542E-01, }
meta: {optdriver: 0, ionmov: 0, optcell: 0, iscf: 7, paral_kgb: 0, }
...

 Exchange-correlation functional for the present dataset will be:
  TGGA: KDT16 Karasiev-Dufty-Trickey - ixc=60
 Citation for XC functional:
  V.V. Karasiev, J.W. Dufty, and S.B. Trickey, PRL 120(7), 076401 (2018)

 Real(R)+Recip(G) space primitive vectors, cartesian coordinates (Bohr,Bohr^-1):
 R(1)=  3.0000000  0.0000000  0.0000000  G(1)=  0.3333333  0.0000000  0.0000000
 R(2)=  0.0000000  3.0000000  0.0000000  G(2)=  0.0000000  0.3333333  0.0000000
 R(3)=  0.0000000  0.0000000  3.0000000  G(3)=  0.0000000  0.0000000  0.3333333
 Unit cell volume ucvol=  2.7000000E+01 bohr^3
 Angles (23,13,12)=  9.00000000E+01  9.00000000E+01  9.00000000E+01 degrees

 getcut: wavevector=  0.0000  0.0000  0.0000  ngfft=  10  10  10
         ecut(hartree)=     10.000   => boxcut(ratio)=   2.34160

 getcut : COMMENT -
  Note that boxcut > 2.2 ; recall that boxcut=Gcut(box)/Gcut(sphere) = 2
  is sufficient for exact treatment of convolution.
  Such a large boxcut is a waste : you could raise ecut
  e.g. ecut=   13.707784 Hartrees makes boxcut=2


--- Pseudopotential description ------------------------------------------------
- pspini: atom type   1  psp file is /home/buildbot/ABINIT3/eos_gnu_13.2_serial/blanchet_ftxc/tests/Pspdir/H.psp8
- pspatm: opening atomic psp file    /home/buildbot/ABINIT3/eos_gnu_13.2_serial/blanchet_ftxc/tests/Pspdir/H.psp8
- H     ONCVPSP  r_core=  1.01  0.71
-  1.00000   1.00000    161003                znucl, zion, pspdat
    8   11    1    4       300   0.00000      pspcod,pspxc,lmax,lloc,mmax,r2well
    2.99000000000000    0.00000000000000    0.00000000000000   rchrg,fchrg,qchrg
     nproj     2     1
     extension_switch     1
  pspatm : epsatm=    0.36200384
         --- l  ekb(1:nproj) -->
             0   -7.905942   -0.865230
             1   -6.853045
 pspatm: atomic psp has been read  and splines computed

--------------------------------------------------------------------------------

_setup2: Arith. and geom. avg. npw (full set) are      38.000      38.000

================================================================================

--- !BeginCycle
iteration_state: {dtset: 2, }
solver: {iscf: 7, nstep: 20, nline: 4, wfoptalg: 0, }
tolerances: {toldfe: 1.00E-10, }
...

     iter   Etot(hartree)      deltaE(h)  residm     vres2
 ETOT  1 -0.89812213198567    -8.981E-01 1.000E-03 1.698E-01
 ETOT  2 -0.89813833950578    -1.621E-05 1.710E-06 7.149E-04
 ETOT  3 -0.89813859166851    -2.522E-07 3.115E-06 6.990E-06
 ETOT  4 -0.89813859625619    -4.588E-09 1.521E-08 3.653E-08
 ETOT  5 -0.89813859628265    -2.646E-11 3.710E-09 1.121E-11
 ETOT  6 -0.89813859628266    -2.331E-15 1.652E-11 8.752E-16

 At SCF step    6, etot is converged :
  for the second time, diff in etot=  2.331E-15 < toldfe=  1.000E-10

 Cartesian components of stress tensor (hartree/bohr^3)
  sigma(1 1)= -4.26292475E-03  sigma(3 2)=  0.00000000E+00
  sigma(2 2)= -4.26292475E-03  sigma(3 1)=  0.00000000E+00
  sigma(3 3)= -4.26292475E-03  sigma(2 1)=  0.00000000E+00


--- !ResultsGS
iteration_state: {dtset: 2, }
comment   : Summary of ground state results
lattice_vectors:
- [  3.0000000,   0.0000000,   0.0000000, ]
- [  0.0000000,   3.0000000,   0.0000000, ]
- [  0.0000000,   0.0000000,   3.0000000, ]
lattice_lengths: [   3.00000,    3.00000,    3.00000, ]
lattice_angles: [ 90.000,  90.000,  90.000, ] # degrees, (23, 13, 12)
lattice_volume:   2.7000000E+01
convergence: {deltae: -2.331E-15, res2:  8.752E-16, residm:  1.652E-11, diffor: null, }
etotal    :  -8.98138596E-01
entropy   :   0.00000000E+00
fermie    :  -1.36033834E-01
cartesian_stress_tensor: # hartree/bohr^3
- [ -4.26292475E-03,   0.00000000E+00,   0.00000000E+00, ]
- [  0.00000000E+00,  -4.26292475E-03,   0.00000000E+00, ]
- [  0.00000000E+00,   0.00000000E+00,  -4.26292475E-03, ]
pressure_GPa:   1.2542E+02
xred      :
- [  0.0000E+00,   0.0000E+00,   0.0000E+00,  H]
cartesian_forces: # hartree/bohr
- [ -0.00000000E+00,  -0.00000000E+00,  -0.00000000E+00, ]
force_length_stats: {min:   0.00000000E+00, max:   0.00000000E+00, mean:   0.00000000E+00, }
...

 Integrated electronic density in atomic spheres:
 ------------------------------------------------
 Atom  Sphere_radius  Integrated_density
    1        2.00000          1.21372378
================================================================================

 ----iterations are completed or convergence reached----

 Mean square residual over all n,k,spin=   55.472E-14; max=  16.517E-12
 reduced coordinates (array xred) for    1 atoms
       0.000000000000      0.000000000000      0.000000000000
 rms dE/dt=  0.0000E+00; max dE/dt=  0.0000E+00; dE/dt below (all hartree)
    1       0.000000000000      0.000000000000      0.000000000000

 cartesian coordinates (angstrom) at end:
    1      0.00000000000000     0.00000000000000     0.00000000000000

 cartesian forces (hartree/bohr) at end:
    1     -0.00000000000000    -0.00000000000000    -0.00000000000000
 frms,max,avg= 0.0000000E+00 0.0000000E+00   0.000E+00  0.000E+00  0.000E+00 h/b

 cartesian forces (eV/Angstrom) at end:
    1     -0.00000000000000    -0.00000000000000    -0.00000000000000
 frms,max,avg= 0.0000000E+00 0.0000000E+00   0.000E+00  0.000E+00  0.000E+00 e/A
 length scales=  3.000000000000  3.000000000000  3.000000000000 bohr
              =  1.587531625770  1.587531625770  1.587531625770 angstroms
 prteigrs : about to open file t22o_DS2_EIG
 Fermi (or HOMO) energy (hartree) =  -0.13603   Average Vxc (hartree)=  -0.36654
 Eigenvalues (hartree) for nkpt=   1  k points:
 kpt#   1, nband= 30, wtk=  1.00000, kpt=  0.2500  0.2500  0.2500 (reduced coord)
  -0.05240    0.94033    1.17416    1.17416    2.11227    2.27971    2.27971    3.15300
   3.34328    3.36525    3.36525    4.28141    4.39019    4.39019    4.47862    4.47862
   4.50749    5.51509    5.54151    5.54151    6.49678    6.58113    6.61241    6.61241
   6.66635    6.66635    7.56116    7.68991    7.68991    7.71995
      occupation numbers for kpt#   1
   0.86872    0.06466    0.03143    0.03143    0.00165    0.00097    0.00097    0.00006
   0.00003    0.00003    0.00003    0.00000    0.00000    0.00000    0.00000    0.00000
   0.00000    0.00000    0.00000    0.00000    0.00000    0.00000    0.00000    0.00000
   0.00000    0.00000    0.00000    0.00000    0.00000    0.00000

--- !EnergyTerms
iteration_state     : {dtset: 2, }
comment             : Components of total free energy in Hartree
kinetic             :  6.66905337419503E-01
hartree             :  1.18060966154486E-02
xc                  : -3.28895238539581E-01
Ewald energy        : -4.72882913246778E-01
psp_core            :  1.34075496566468E-02
local_psp           : -1.48056305147138E-01
non_local_psp       : -5.20469306324282E-02
internal            : -3.09762403874326E-01
'-kT*entropy'       : -5.88376192408331E-01
total_energy        : -8.98138596282657E-01
total_energy_eV     : -2.44395941029289E+01
band_energy         :  9.75596757027417E-02
...


--- !EntropyTerms
iteration_state     : {dtset: 2, }
comment             : Components of total entropy
noninteracting      :  2.01007096295980E+00
xc                  : -1.52128157885391E-01
total_entropy       :  1.85794280507441E+00
...


 Cartesian components of stress tensor (hartree/bohr^3)
  sigma(1 1)= -4.26292475E-03  sigma(3 2)=  0.00000000E+00
  sigma(2 2)= -4.26292475E-03  sigma(3 1)=  0.00000000E+00
  sigma(3 3)= -4.26292475E-03  sigma(2 1)=  0.00000000E+00

-Cartesian components of stress tensor (GPa)         [Pressure=  1.2542E+02 GPa]
- sigma(1 1)= -1.25419555E+02  sigma(3 2)=  0.00000000E+00
- sigma(2 2)= -1.25419555E+02  sigma(3 1)=  0.00000000E+00
- sigma(3 3)= -1.25419555E+02  sigma(2 1)=  0.00000000E+00

== END DATASET(S) ==============================================================
================================================================================

 -outvars: echo values of variables after computation  --------
            acell      3.0000000000E+00  3.0000000000E+00  3.0000000000E+00 Bohr
              amu      1.00794000E+00
      chksymbreak           0
           dipdip           0
             ecut      1.00000000E+01 Hartree
           etotal1    -8.9987929337E-01
           etotal2    -8.9813859628E-01
            fcart1    -0.0000000000E+00 -0.0000000000E+00 -0.0000000000E+00
            fcart2    -0.0000000000E+00 -0.0000000000E+00 -0.0000000000E+00
-          fftalg         512
              ixc1         51
              ixc2         60
           jdtset        1    2
              kpt      2.50000000E-01  2.50000000E-01  2.50000000E-01
         kptrlatt        2    0    0      0    2    0      0    0    2
          kptrlen      6.00000000E+00
P           mkmem           1
            natom           1
            nband          30
           ndtset           2
            ngfft          10      10      10
             nkpt           1
            nstep          20
             nsym          48
           ntypat           1
              occ1     0.869555  0.063405  0.031652  0.031652  0.001620  0.000975
                       0.000975  0.000061  0.000034  0.000032  0.000032  0.000002
                       0.000001  0.000001  0.000001  0.000001  0.000001  0.000000
                       0.000000  0.000000  0.000000  0.000000  0.000000  0.000000
                       0.000000  0.000000  0.000000  0.000000  0.000000  0.000000
              occ2     0.868718  0.064660  0.031431  0.031431  0.001650  0.000972
                       0.000972  0.000062  0.000034  0.000032  0.000032  0.000002
                       0.000001  0.000001  0.000001  0.000001  0.000001  0.000000
                       0.000000  0.000000  0.000000  0.000000  0.000000  0.000000
                       0.000000  0.000000  0.000000  0.000000  0.000000  0.000000
           occopt           3
        pawecutdg      1.00000000E+01 Hartree
           shiftk      5.00000000E-01  5.00000000E-01  5.00000000E-01
          spgroup         221
           strten1    -4.4596934418E-03 -4.4596934418E-03 -4.4596934418E-03
                       0.0000000000E+00  0.0000000000E+00  0.0000000000E+00
           strten2    -4.2629247529E-03 -4.2629247529E-03 -4.2629247529E-03
                       0.0000000000E+00  0.0000000000E+00  0.0000000000E+00
           symrel      1  0  0   0  1  0   0  0  1      -1  0  0   0 -1  0   0  0 -1
                      -1  0  0   0  1  0   0  0 -1       1  0  0   0 -1  0   0  0  1
                      -1  0  0   0 -1  0   0  0  1       1  0  0   0  1  0   0  0 -1
                       1  0  0   0 -1  0   0  0 -1      -1  0  0   0  1  0   0  0  1
                       0  1  0   1  0  0   0  0  1       0 -1  0  -1  0  0   0  0 -1
                       0 -1  0   1  0  0   0  0 -1       0  1  0  -1  0  0   0  0  1
                       0 -1  0  -1  0  0   0  0  1       0  1  0   1  0  0   0  0 -1
                       0  1  0  -1  0  0   0  0 -1       0 -1  0   1  0  0   0  0  1
                       0  0  1   1  0  0   0  1  0       0  0 -1  -1  0  0   0 -1  0
                       0  0 -1   1  0  0   0 -1  0       0  0  1  -1  0  0   0  1  0
                       0  0 -1  -1  0  0   0  1  0       0  0  1   1  0  0   0 -1  0
                       0  0  1  -1  0  0   0 -1  0       0  0 -1   1  0  0   0  1  0
                       1  0  0   0  0  1   0  1  0      -1  0  0   0  0 -1   0 -1  0
                      -1  0  0   0  0  1   0 -1  0       1  0  0   0  0 -1   0  1  0
                      -1  0  0   0  0 -1   0  1  0       1  0  0   0  0  1   0 -1  0
                       1  0  0   0  0 -1   0 -1  0      -1  0  0   0  0  1   0  1  0
                       0  1  0   0  0  1   1  0  0       0 -1  0   0  0 -1  -1  0  0
                       0 -1  0   0  0  1  -1  0  0       0  1  0   0  0 -1   1  0  0
                       0 -1  0   0  0 -1   1  0  0       0  1  0   0  0  1  -1  0  0
                       0  1  0   0  0 -1  -1  0  0       0 -1  0   0  0  1   1  0  0
                       0  0  1   0  1  0   1  0  0       0  0 -1   0 -1  0  -1  0  0
                       0  0 -1   0  1  0  -1  0  0       0  0  1   0 -1  0   1  0  0
                       0  0 -1   0 -1  0   1  0  0       0  0  1   0  1  0  -1  0  0
                       0  0  1   0 -1  0  -1  0  0       0  0 -1   0  1  0   1  0  0
           toldfe      1.00000000E-10 Hartree
           tolsym      1.00000000E-08
           tsmear      3.16681542E-01 Hartree
            typat      1
            znucl        1.00000

================================================================================

- Total cpu        time (s,m,h):          0.6        0.01      0.000
- Total wall clock time (s,m,h):          0.6        0.01      0.000
-
- For major independent code sections, cpu and wall times (sec),
-  as well as % of the time and number of calls for node 0
-
-<BEGIN_TIMER mpi_nprocs = 1, omp_nthreads = 1, mpi_rank = 0>
- cpu_time =            0.6, wall_time =            0.6
-
- routine                                    cpu     %          wall   %        number of calls Gflops    Speedup Efficacity
-                                                                                (-1=no count)
- timing timab                              0.113  19.1         0.113  18.0             10      -1.00        1.00       1.00
- pspini                                    0.094  15.9         0.093  14.8              2      -1.00        1.01       1.01
- ewald                                     0.049   8.3         0.048   7.6              2      -1.00        1.02       1.02
- get_dtsets_pspheads                       0.043   7.3         0.043   6.8              1      -1.00        1.00       1.00
- fourwf%(pot)                              0.043   7.3         0.088  14.0           1534      -1.00        0.49       0.49
- stress                                    0.038   6.5         0.038   6.1              2      -1.00        1.01       1.01
- ewald2 (+vdw_dftd)                        0.038   6.5         0.038   6.1              2      -1.00        1.01       1.01
- vtowfk(ssdiag)                            0.025   4.3         0.027   4.3             -1      -1.00        0.93       0.93
- abinit(after driver)                      0.015   2.6         0.015   2.4              1      -1.00        1.01       1.01
- abinit(chkinp,chkvars)                    0.015   2.5         0.015   2.4              1      -1.00        1.00       1.00
- abinit(outvars)                           0.014   2.4         0.015   2.4              1      -1.00        0.94       0.94
- projbd                                    0.009   1.5         0.007   1.1           2168      -1.00        1.30       1.30
- getghc(/=fourXX,nonlop,fock_XX)           0.009   1.5         0.008   1.3             -1      -1.00        1.13       1.13
- xc:pot/=fourdp                            0.009   1.5         0.010   1.6             13      -1.00        0.88       0.88
- nonlop(apply)                             0.009   1.5         0.008   1.3           1534      -1.00        1.08       1.08
- abinit(init,iofn1,herald)                 0.005   0.8         0.004   0.6              1      -1.00        1.15       1.15
- others (143)                              0.015   2.5         0.016   2.5             -1      -1.00        0.91       0.91
-<END_TIMER>
-
- subtotal                                  0.542  91.9         0.586  93.3                                  0.93       0.93

- For major independent code sections, cpu and wall times (sec),
- as well as % of the total time and number of calls

-<BEGIN_TIMER mpi_nprocs = 1, omp_nthreads = 1, mpi_rank = world>
- cpu_time =           0.6, wall_time =           0.6
-
- routine                                    cpu     %          wall   %        number of calls Gflops    Speedup Efficacity
-                                                                                (-1=no count)
- timing timab                              0.113  19.1         0.113  18.0             10      -1.00        1.00       1.00
- pspini                                    0.094  15.9         0.093  14.8              2      -1.00        1.01       1.01
- ewald                                     0.049   8.3         0.048   7.6              2      -1.00        1.02       1.02
- get_dtsets_pspheads                       0.043   7.3         0.043   6.8              1      -1.00        1.00       1.00
- fourwf%(pot)                              0.043   7.3         0.088  14.0           1534      -1.00        0.49       0.49
- stress                                    0.038   6.5         0.038   6.1              2      -1.00        1.01       1.01
- ewald2 (+vdw_dftd)                        0.038   6.5         0.038   6.1              2      -1.00        1.01       1.01
- vtowfk(ssdiag)                            0.025   4.3         0.027   4.3             -1      -1.00        0.93       0.93
- abinit(after driver)                      0.015   2.6         0.015   2.4              1      -1.00        1.01       1.01
- abinit(chkinp,chkvars)                    0.015   2.5         0.015   2.4              1      -1.00        1.00       1.00
- abinit(outvars)                           0.014   2.4         0.015   2.4              1      -1.00        0.94       0.94
- projbd                                    0.009   1.5         0.007   1.1           2168      -1.00        1.30       1.30
- getghc(/=fourXX,nonlop,fock_XX)           0.009   1.5         0.008   1.3             -1      -1.00        1.13       1.13
- xc:pot/=fourdp                            0.009   1.5         0.010   1.6             13      -1.00        0.88       0.88
- nonlop(apply)                             0.009   1.5         0.008   1.3           1534      -1.00        1.08       1.08
- abinit(init,iofn1,herald)                 0.005   0.8         0.004   0.6              1      -1.00        1.15       1.15
- others (143)                              0.015   2.5         0.016   2.5             -1      -1.00        0.91       0.91
-<END_TIMER>

- subtotal                                  0.542  91.9         0.586  93.3                                  0.93       0.93

================================================================================

 Suggested references for the acknowledgment of ABINIT usage.

 The users of ABINIT have little formal obligations with respect to the ABINIT group
 (those specified in the GNU General Public License, http://www.gnu.org/copyleft/gpl.txt).
 However, it is common practice in the scientific literature,
 to acknowledge the efforts of people that have made the research possible.
 In this spirit, please find below suggested citations of work written by ABINIT developers,
 corresponding to implementations inside of ABINIT that you have used in the present run.
 Note also that it will be of great value to readers of publications presenting these results,
 to read papers enabling them to understand the theoretical formalism and details
 of the ABINIT implementation.
 For information on why they are suggested, see also https://docs.abinit.org/theory/acknowledgments.
-
- [1] The Abinit project: Impact, environment and recent developments.
- Computer Phys. Comm. 248, 107042 (2020).
- X.Gonze, B. Amadon, G. Antonius, F.Arnardi, L.Baguet, J.-M.Beuken,
- J.Bieder, F.Bottin, J.Bouchet, E.Bousquet, N.Brouwer, F.Bruneval,
- G.Brunin, T.Cavignac, J.-B. Charraud, Wei Chen, M.Cote, S.Cottenier,
- J.Denier, G.Geneste, Ph.Ghosez, M.Giantomassi, Y.Gillet, O.Gingras,
- D.R.Hamann, G.Hautier, Xu He, N.Helbig, N.Holzwarth, Y.Jia, F.Jollet,
- W.Lafargue-Dit-Hauret, K.Lejaeghere, M.A.L.Marques, A.Martin, C.Martins,
- H.P.C. Miranda, F.Naccarato, K. Persson, G.Petretto, V.Planes, Y.Pouillon,
- S.Prokhorenko, F.Ricci, G.-M.Rignanese, A.H.Romero, M.M.Schmitt, M.Torrent,
- M.J.van Setten, B.Van Troeye, M.J.Verstraete, G.Zerah and J.W.Zwanzig
- Comment: the fifth generic paper describing the ABINIT project.
- Note that a version of this paper, that is not formatted for Computer Phys. Comm.
- is available at https://www.abinit.org/sites/default/files/ABINIT20.pdf .
- The licence allows the authors to put it on the Web.
- DOI and bibtex: see https://docs.abinit.org/theory/bibliography/#gonze2020
-
- [2] Optimized norm-conserving Vanderbilt pseudopotentials.
- D.R. Hamann, Phys. Rev. B 88, 085117 (2013).
- Comment: Some pseudopotential generated using the ONCVPSP code were used.
- DOI and bibtex: see https://docs.abinit.org/theory/bibliography/#hamann2013
-
- [3] ABINIT: Overview, and focus on selected capabilities
- J. Chem. Phys. 152, 124102 (2020).
- A. Romero, D.C. Allan, B. Amadon, G. Antonius, T. Applencourt, L.Baguet,
- J.Bieder, F.Bottin, J.Bouchet, E.Bousquet, F.Bruneval,
- G.Brunin, D.Caliste, M.Cote,
- J.Denier, C. Dreyer, Ph.Ghosez, M.Giantomassi, Y.Gillet, O.Gingras,
- D.R.Hamann, G.Hautier, F.Jollet, G. Jomard,
- A.Martin,
- H.P.C. Miranda, F.Naccarato, G.Petretto, N.A. Pike, V.Planes,
- S.Prokhorenko, T. Rangel, F.Ricci, G.-M.Rignanese, M.Royo, M.Stengel, M.Torrent,
- M.J.van Setten, B.Van Troeye, M.J.Verstraete, J.Wiktor, J.W.Zwanziger, and X.Gonze.
- Comment: a global overview of ABINIT, with focus on selected capabilities .
- Note that a version of this paper, that is not formatted for J. Chem. Phys
- is available at https://www.abinit.org/sites/default/files/ABINIT20_JPC.pdf .
- The licence allows the authors to put it on the Web.
- DOI and bibtex: see https://docs.abinit.org/theory/bibliography/#romero2020
-
- [4] Recent developments in the ABINIT software package.
- Computer Phys. Comm. 205, 106 (2016).
- X.Gonze, F.Jollet, F.Abreu Araujo, D.Adams, B.Amadon, T.Applencourt,
- C.Audouze, J.-M.Beuken, J.Bieder, A.Bokhanchuk, E.Bousquet, F.Bruneval
- D.Caliste, M.Cote, F.Dahm, F.Da Pieve, M.Delaveau, M.Di Gennaro,
- B.Dorado, C.Espejo, G.Geneste, L.Genovese, A.Gerossier, M.Giantomassi,
- Y.Gillet, D.R.Hamann, L.He, G.Jomard, J.Laflamme Janssen, S.Le Roux,
- A.Levitt, A.Lherbier, F.Liu, I.Lukacevic, A.Martin, C.Martins,
- M.J.T.Oliveira, S.Ponce, Y.Pouillon, T.Rangel, G.-M.Rignanese,
- A.H.Romero, B.Rousseau, O.Rubel, A.A.Shukri, M.Stankovski, M.Torrent,
- M.J.Van Setten, B.Van Troeye, M.J.Verstraete, D.Waroquier, J.Wiktor,
- B.Xu, A.Zhou, J.W.Zwanziger.
- Comment: the fourth generic paper describing the ABINIT project.
- Note that a version of this paper, that is not formatted for Computer Phys. Comm.
- is available at https://www.abinit.org/sites/default/files/ABINIT16.pdf .
- The licence allows the authors to put it on the Web.
- DOI and bibtex: see https://docs.abinit.org/theory/bibliography/#gonze2016
-
- And optionally:
-
- [5] ABINIT: First-principles approach of materials and nanosystem properties.
- Computer Phys. Comm. 180, 2582-2615 (2009).
- X. Gonze, B. Amadon, P.-M. Anglade, J.-M. Beuken, F. Bottin, P. Boulanger, F. Bruneval,
- D. Caliste, R. Caracas, M. Cote, T. Deutsch, L. Genovese, Ph. Ghosez, M. Giantomassi
- S. Goedecker, D.R. Hamann, P. Hermet, F. Jollet, G. Jomard, S. Leroux, M. Mancini, S. Mazevet,
- M.J.T. Oliveira, G. Onida, Y. Pouillon, T. Rangel, G.-M. Rignanese, D. Sangalli, R. Shaltaf,
- M. Torrent, M.J. Verstraete, G. Zerah, J.W. Zwanziger
- Comment: the third generic paper describing the ABINIT project.
- Note that a version of this paper, that is not formatted for Computer Phys. Comm.
- is available at https://www.abinit.org/sites/default/files/ABINIT_CPC_v10.pdf .
- The licence allows the authors to put it on the Web.
- DOI and bibtex: see https://docs.abinit.org/theory/bibliography/#gonze2009
-
- Proc.   0 individual time (sec): cpu=          0.6  wall=          0.6

================================================================================

 Calculation completed.
.Delivered   5 WARNINGs and   6 COMMENTs to log file.
+Overall time at end (sec) : cpu=          0.6  wall=          0.6
