
.Version 10.1.1.2 of ABINIT, released Feb 2025.
.(sequential version, prepared for a x86_64_linux_gnu13.2 computer)

.Copyright (C) 1998-2025 ABINIT group .
 ABINIT comes with ABSOLUTELY NO WARRANTY.
 It is free software, and you are welcome to redistribute it
 under certain conditions (GNU General Public License,
 see ~abinit/COPYING or http://www.gnu.org/copyleft/gpl.txt).

 ABINIT is a project of the Universite Catholique de Louvain,
 Corning Inc. and other collaborators, see ~abinit/doc/developers/contributors.txt .
 Please read https://docs.abinit.org/theory/acknowledgments for suggested
 acknowledgments of the ABINIT effort.
 For more information, see https://www.abinit.org .

.Starting date : Tue 25 Mar 2025.
- ( at 17h45 )

- input  file    -> /home/buildbot/ABINIT3/eos_gnu_13.2_serial/blanchet_ftxc/tests/TestBot_MPI1/v10_t23/t23.abi
- output file    -> t23.abo
- root for input  files -> t23i
- root for output files -> t23o

 DATASET    1 : space group Pm -3 m (#221); Bravais cP (primitive cubic)
================================================================================
 Values of the parameters that define the memory need for DATASET  1.
     intxc =       0    ionmov =       0      iscf =      17    lmnmax =       1
     lnmax =       1     mgfft =      10  mpssoang =       1    mqgrid =    3001
     natom =       1  nloc_mem =       2    nspden =       1   nspinor =       1
    nsppol =       1      nsym =      48    n1xccc =       1    ntypat =       1
    occopt =       3   xclevel =       1
-    mband =          30        mffmem =           1         mkmem =           1
       mpw =          38          nfft =        1000          nkpt =           1
 PAW method is used; the additional fine FFT grid is defined by:
   mgfftf=        10    nfftf =      1000
================================================================================
P This job should need less than                       1.638 Mbytes of memory.
  Rough estimation (10% accuracy) of disk space for files :
_ WF disk file :      0.019 Mbytes ; DEN or POT disk file :      0.010 Mbytes.
================================================================================

 DATASET    2 : space group Pm -3 m (#221); Bravais cP (primitive cubic)
================================================================================
 Values of the parameters that define the memory need for DATASET  2.
     intxc =       0    ionmov =       0      iscf =      17    lmnmax =       1
     lnmax =       1     mgfft =      10  mpssoang =       1    mqgrid =    3001
     natom =       1  nloc_mem =       2    nspden =       1   nspinor =       1
    nsppol =       1      nsym =      48    n1xccc =       1    ntypat =       1
    occopt =       3   xclevel =       2
-    mband =          30        mffmem =           1         mkmem =           1
       mpw =          38          nfft =        1000          nkpt =           1
 PAW method is used; the additional fine FFT grid is defined by:
   mgfftf=        10    nfftf =      1000
================================================================================
P This job should need less than                       1.661 Mbytes of memory.
  Rough estimation (10% accuracy) of disk space for files :
_ WF disk file :      0.019 Mbytes ; DEN or POT disk file :      0.010 Mbytes.
================================================================================

--------------------------------------------------------------------------------
------------- Echo of variables that govern the present computation ------------
--------------------------------------------------------------------------------
-
- outvars: echo of selected default values
-   iomode0 =  0 , fftalg0 =512 , wfoptalg0 = 10
-
- outvars: echo of global parameters not present in the input file
-  max_nthreads =    0
-
 -outvars: echo values of preprocessed input variables --------
            acell      3.0000000000E+00  3.0000000000E+00  3.0000000000E+00 Bohr
              amu      1.00794000E+00
      chksymbreak           0
           dipdip           0
             ecut      1.00000000E+01 Hartree
-          fftalg         512
              ixc1         51
              ixc2         60
           jdtset        1    2
              kpt      2.50000000E-01  2.50000000E-01  2.50000000E-01
         kptrlatt        2    0    0      0    2    0      0    0    2
          kptrlen      6.00000000E+00
P           mkmem           1
            natom           1
            nband          30
           ndtset           2
            ngfft          10      10      10
          ngfftdg          10      10      10
             nkpt           1
            nstep          20
             nsym          48
           ntypat           1
              occ      1.000000  0.000000  0.000000  0.000000  0.000000  0.000000
                       0.000000  0.000000  0.000000  0.000000  0.000000  0.000000
                       0.000000  0.000000  0.000000  0.000000  0.000000  0.000000
                       0.000000  0.000000  0.000000  0.000000  0.000000  0.000000
                       0.000000  0.000000  0.000000  0.000000  0.000000  0.000000
           occopt           3
        pawecutdg      1.00000000E+01 Hartree
           shiftk      5.00000000E-01  5.00000000E-01  5.00000000E-01
          spgroup         221
           symrel      1  0  0   0  1  0   0  0  1      -1  0  0   0 -1  0   0  0 -1
                      -1  0  0   0  1  0   0  0 -1       1  0  0   0 -1  0   0  0  1
                      -1  0  0   0 -1  0   0  0  1       1  0  0   0  1  0   0  0 -1
                       1  0  0   0 -1  0   0  0 -1      -1  0  0   0  1  0   0  0  1
                       0  1  0   1  0  0   0  0  1       0 -1  0  -1  0  0   0  0 -1
                       0 -1  0   1  0  0   0  0 -1       0  1  0  -1  0  0   0  0  1
                       0 -1  0  -1  0  0   0  0  1       0  1  0   1  0  0   0  0 -1
                       0  1  0  -1  0  0   0  0 -1       0 -1  0   1  0  0   0  0  1
                       0  0  1   1  0  0   0  1  0       0  0 -1  -1  0  0   0 -1  0
                       0  0 -1   1  0  0   0 -1  0       0  0  1  -1  0  0   0  1  0
                       0  0 -1  -1  0  0   0  1  0       0  0  1   1  0  0   0 -1  0
                       0  0  1  -1  0  0   0 -1  0       0  0 -1   1  0  0   0  1  0
                       1  0  0   0  0  1   0  1  0      -1  0  0   0  0 -1   0 -1  0
                      -1  0  0   0  0  1   0 -1  0       1  0  0   0  0 -1   0  1  0
                      -1  0  0   0  0 -1   0  1  0       1  0  0   0  0  1   0 -1  0
                       1  0  0   0  0 -1   0 -1  0      -1  0  0   0  0  1   0  1  0
                       0  1  0   0  0  1   1  0  0       0 -1  0   0  0 -1  -1  0  0
                       0 -1  0   0  0  1  -1  0  0       0  1  0   0  0 -1   1  0  0
                       0 -1  0   0  0 -1   1  0  0       0  1  0   0  0  1  -1  0  0
                       0  1  0   0  0 -1  -1  0  0       0 -1  0   0  0  1   1  0  0
                       0  0  1   0  1  0   1  0  0       0  0 -1   0 -1  0  -1  0  0
                       0  0 -1   0  1  0  -1  0  0       0  0  1   0 -1  0   1  0  0
                       0  0 -1   0 -1  0   1  0  0       0  0  1   0  1  0  -1  0  0
                       0  0  1   0 -1  0  -1  0  0       0  0 -1   0  1  0   1  0  0
           toldfe      1.00000000E-10 Hartree
           tolsym      1.00000000E-08
           tsmear      3.16681542E-01 Hartree
            typat      1
           useylm           1
            znucl        1.00000

================================================================================

 chkinp: Checking input parameters for consistency, jdtset=   1.

 chkinp: Checking input parameters for consistency, jdtset=   2.

================================================================================
== DATASET  1 ==================================================================
-   mpi_nproc: 1, omp_nthreads: -1 (-1 if OMP is not activated)


--- !DatasetInfo
iteration_state: {dtset: 1, }
dimensions: {natom: 1, nkpt: 1, mband: 30, nsppol: 1, nspinor: 1, nspden: 1, mpw: 38, }
cutoff_energies: {ecut:  10.0, pawecutdg:  10.0, }
electrons: {nelect:   1.00000000E+00, charge:   0.00000000E+00, occopt:   3.00000000E+00, tsmear:   3.16681542E-01, }
meta: {optdriver: 0, ionmov: 0, optcell: 0, iscf: 17, paral_kgb: 0, }
...

 Exchange-correlation functional for the present dataset will be:
  TLDA: corrKSDT Karasiev-Sjostrom-Dufty-Trickey - ixc=51
 Citation for XC functional:
  V.V. Karasiev, T. Sjostrom, J. Dufty, and S.B. Trickey, PRL 112, 076403 (2014)

 Real(R)+Recip(G) space primitive vectors, cartesian coordinates (Bohr,Bohr^-1):
 R(1)=  3.0000000  0.0000000  0.0000000  G(1)=  0.3333333  0.0000000  0.0000000
 R(2)=  0.0000000  3.0000000  0.0000000  G(2)=  0.0000000  0.3333333  0.0000000
 R(3)=  0.0000000  0.0000000  3.0000000  G(3)=  0.0000000  0.0000000  0.3333333
 Unit cell volume ucvol=  2.7000000E+01 bohr^3
 Angles (23,13,12)=  9.00000000E+01  9.00000000E+01  9.00000000E+01 degrees

 Coarse grid specifications (used for wave-functions):

 getcut: wavevector=  0.0000  0.0000  0.0000  ngfft=  10  10  10
         ecut(hartree)=     10.000   => boxcut(ratio)=   2.34160

 getcut : COMMENT -
  Note that boxcut > 2.2 ; recall that boxcut=Gcut(box)/Gcut(sphere) = 2
  is sufficient for exact treatment of convolution.
  Such a large boxcut is a waste : you could raise ecut
  e.g. ecut=   13.707784 Hartrees makes boxcut=2


 Fine grid specifications (used for densities):

 getcut: wavevector=  0.0000  0.0000  0.0000  ngfft=  10  10  10
         ecut(hartree)=     10.000   => boxcut(ratio)=   2.34160

 getcut : COMMENT -
  Note that boxcut > 2.2 ; recall that boxcut=Gcut(box)/Gcut(sphere) = 2
  is sufficient for exact treatment of convolution.
  Such a large boxcut is a waste : you could raise ecut
  e.g. ecut=   13.707784 Hartrees makes boxcut=2


--- Pseudopotential description ------------------------------------------------
- pspini: atom type   1  psp file is /home/buildbot/ABINIT3/eos_gnu_13.2_serial/blanchet_ftxc/tests/Pspdir/H.LDA-PW-paw.abinit
- pspatm: opening atomic psp file    /home/buildbot/ABINIT3/eos_gnu_13.2_serial/blanchet_ftxc/tests/Pspdir/H.LDA-PW-paw.abinit
- Paw atomic data for element H - Generated by atompaw v3.0.1.9 & AtomPAW2Abinit v3.3.1
-  1.00000   1.00000  20130717                znucl, zion, pspdat
    7    7    0    0       366   0.00000      pspcod,pspxc,lmax,lloc,mmax,r2well
 Pseudopotential format is: paw5
 basis_size (lnmax)=  1 (lmn_size=  1), orbitals=   0
 Spheres core radius: rc_sph= 0.90000000
 5 radial meshes are used:
  - mesh 1: r(i)=step*(i-1), size= 366 , step= 0.25000E-02
  - mesh 2: r(i)=step*(i-1), size= 361 , step= 0.25000E-02
  - mesh 3: r(i)=step*(i-1), size= 386 , step= 0.25000E-02
  - mesh 4: r(i)=step*(i-1), size=4001 , step= 0.25000E-02
  - mesh 5: r(i)=step*(i-1), size=5572 , step= 0.25000E-02
 Shapefunction is SIN type: shapef(r)=[sin(pi*r/rshp)/(pi*r/rshp)]**2
 Radius for shape functions = sphere core radius
 Radial grid used for partial waves is grid 1
 Radial grid used for projectors is grid  2
 Radial grid used for (t)core density is grid 3
 Radial grid used for Vloc is grid 4
 Radial grid used for pseudo valence density is grid 5
 Compensation charge density is not taken into account in XC energy/potential
 pspatm: atomic psp has been read  and splines computed

   1.93198893E-01                                ecore*ucvol(ha*bohr**3)
--------------------------------------------------------------------------------

_setup2: Arith. and geom. avg. npw (full set) are      38.000      38.000

================================================================================

--- !BeginCycle
iteration_state: {dtset: 1, }
solver: {iscf: 17, nstep: 20, nline: 4, wfoptalg: 10, }
tolerances: {toldfe: 1.00E-10, }
...

     iter   Etot(hartree)      deltaE(h)  residm     nres2
 ETOT  1 -0.90165384516825    -9.017E-01 7.906E+00 7.286E-03
 ETOT  2 -0.90189167678178    -2.378E-04 1.260E-04 8.539E-04
 ETOT  3 -0.90189854828370    -6.872E-06 8.274E-06 2.553E-06
 ETOT  4 -0.90189858567915    -3.740E-08 4.215E-08 3.899E-08
 ETOT  5 -0.90189858631576    -6.366E-10 1.459E-10 6.338E-10
 ETOT  6 -0.90189858633658    -2.082E-11 3.235E-12 9.410E-13
 ETOT  7 -0.90189858633662    -3.841E-14 7.389E-15 1.556E-15

 At SCF step    7, etot is converged :
  for the second time, diff in etot=  3.841E-14 < toldfe=  1.000E-10

 Cartesian components of stress tensor (hartree/bohr^3)
  sigma(1 1)= -4.49408954E-03  sigma(3 2)=  0.00000000E+00
  sigma(2 2)= -4.49408954E-03  sigma(3 1)=  0.00000000E+00
  sigma(3 3)= -4.49408954E-03  sigma(2 1)=  0.00000000E+00


--- !ResultsGS
iteration_state: {dtset: 1, }
comment   : Summary of ground state results
lattice_vectors:
- [  3.0000000,   0.0000000,   0.0000000, ]
- [  0.0000000,   3.0000000,   0.0000000, ]
- [  0.0000000,   0.0000000,   3.0000000, ]
lattice_lengths: [   3.00000,    3.00000,    3.00000, ]
lattice_angles: [ 90.000,  90.000,  90.000, ] # degrees, (23, 13, 12)
lattice_volume:   2.7000000E+01
convergence: {deltae: -3.841E-14, res2:  1.556E-15, residm:  7.389E-15, diffor: null, }
etotal    :  -9.01898586E-01
entropy   :   0.00000000E+00
fermie    :  -1.26653495E-01
cartesian_stress_tensor: # hartree/bohr^3
- [ -4.49408954E-03,   0.00000000E+00,   0.00000000E+00, ]
- [  0.00000000E+00,  -4.49408954E-03,   0.00000000E+00, ]
- [  0.00000000E+00,   0.00000000E+00,  -4.49408954E-03, ]
pressure_GPa:   1.3222E+02
xred      :
- [  0.0000E+00,   0.0000E+00,   0.0000E+00,  H]
cartesian_forces: # hartree/bohr
- [ -0.00000000E+00,  -0.00000000E+00,  -0.00000000E+00, ]
force_length_stats: {min:   0.00000000E+00, max:   0.00000000E+00, mean:   0.00000000E+00, }
...

 Integrated electronic density in atomic spheres:
 ------------------------------------------------
 Atom  Sphere_radius  Integrated_density
    1        0.90000          0.26845271

 PAW TEST:
 ==== Compensation charge inside spheres ============
 The following values must be close to each other ...
 Compensation charge over spherical meshes =      0.004740543284751
 Compensation charge over fft grid         =      0.004751218442663

 ==== Results concerning PAW augmentation regions ====

 Total pseudopotential strength Dij (hartree):
  -0.03648


 Augmentation waves occupancies Rhoij:
   0.93450


================================================================================

 ----iterations are completed or convergence reached----

 Mean square residual over all n,k,spin=   27.981E-16; max=  73.887E-16
 reduced coordinates (array xred) for    1 atoms
       0.000000000000      0.000000000000      0.000000000000
 rms dE/dt=  0.0000E+00; max dE/dt=  0.0000E+00; dE/dt below (all hartree)
    1       0.000000000000      0.000000000000      0.000000000000

 cartesian coordinates (angstrom) at end:
    1      0.00000000000000     0.00000000000000     0.00000000000000

 cartesian forces (hartree/bohr) at end:
    1     -0.00000000000000    -0.00000000000000    -0.00000000000000
 frms,max,avg= 0.0000000E+00 0.0000000E+00   0.000E+00  0.000E+00  0.000E+00 h/b

 cartesian forces (eV/Angstrom) at end:
    1     -0.00000000000000    -0.00000000000000    -0.00000000000000
 frms,max,avg= 0.0000000E+00 0.0000000E+00   0.000E+00  0.000E+00  0.000E+00 e/A
 length scales=  3.000000000000  3.000000000000  3.000000000000 bohr
              =  1.587531625770  1.587531625770  1.587531625770 angstroms
 prteigrs : about to open file t23o_DS1_EIG
 Fermi (or HOMO) energy (hartree) =  -0.12665   Average Vxc (hartree)=  -0.36063
 Eigenvalues (hartree) for nkpt=   1  k points:
 kpt#   1, nband= 30, wtk=  1.00000, kpt=  0.2500  0.2500  0.2500 (reduced coord)
  -0.04360    0.95474    1.18294    1.18294    2.12735    2.29004    2.29004    3.16388
   3.35629    3.37365    3.37365    4.29420    4.40346    4.40346    4.48728    4.48728
   4.51808    5.52800    5.55483    5.55483    6.50934    6.59338    6.62275    6.62275
   6.67526    6.67526    7.58056    7.70173    7.70173    7.73211
      occupation numbers for kpt#   1
   0.86962    0.06367    0.03149    0.03149    0.00162    0.00097    0.00097    0.00006
   0.00003    0.00003    0.00003    0.00000    0.00000    0.00000    0.00000    0.00000
   0.00000    0.00000    0.00000    0.00000    0.00000    0.00000    0.00000    0.00000
   0.00000    0.00000    0.00000    0.00000    0.00000    0.00000

--- !EnergyTerms
iteration_state     : {dtset: 1, }
comment             : Components of total free energy in Hartree
kinetic             :  6.60277910518830E-01
hartree             :  1.22925635033500E-02
xc                  : -3.19314751473634E-01
Ewald energy        : -4.72882913246778E-01
psp_core            :  7.15551457195553E-03
local_psp           : -1.65055137936198E-01
spherical_terms     : -2.76486892840126E-02
internal            : -3.05175503346486E-01
'-kT*entropy'       : -5.96723096726079E-01
total_energy        : -9.01898600072566E-01
total_energy_eV     : -2.45419090093712E+01
...


--- !EnergyTermsDC
iteration_state     : {dtset: 1, }
comment             : '"Double-counting" decomposition of free energy'
band_energy         :  1.05812212628434E-01
Ewald energy        : -4.72882913246778E-01
psp_core            :  7.15551457195553E-03
xc_dc               :  5.40954874940070E-02
spherical_terms     :  6.44208941841862E-04
internal            : -3.05175489610539E-01
'-kT*entropy'       : -5.96723096726079E-01
total_energy_dc     : -9.01898586336619E-01
total_energy_dc_eV  : -2.45419086355971E+01
...


--- !EntropyTerms
iteration_state     : {dtset: 1, }
comment             : Components of total entropy
noninteracting      :  2.00717437377838E+00
xc                  : -1.22791045286478E-01
spherical_terms     : -8.31163335589420E-05
total_entropy       :  1.88430021215835E+00
...


 Cartesian components of stress tensor (hartree/bohr^3)
  sigma(1 1)= -4.49408954E-03  sigma(3 2)=  0.00000000E+00
  sigma(2 2)= -4.49408954E-03  sigma(3 1)=  0.00000000E+00
  sigma(3 3)= -4.49408954E-03  sigma(2 1)=  0.00000000E+00

-Cartesian components of stress tensor (GPa)         [Pressure=  1.3222E+02 GPa]
- sigma(1 1)= -1.32220657E+02  sigma(3 2)=  0.00000000E+00
- sigma(2 2)= -1.32220657E+02  sigma(3 1)=  0.00000000E+00
- sigma(3 3)= -1.32220657E+02  sigma(2 1)=  0.00000000E+00

================================================================================
== DATASET  2 ==================================================================
-   mpi_nproc: 1, omp_nthreads: -1 (-1 if OMP is not activated)


--- !DatasetInfo
iteration_state: {dtset: 2, }
dimensions: {natom: 1, nkpt: 1, mband: 30, nsppol: 1, nspinor: 1, nspden: 1, mpw: 38, }
cutoff_energies: {ecut:  10.0, pawecutdg:  10.0, }
electrons: {nelect:   1.00000000E+00, charge:   0.00000000E+00, occopt:   3.00000000E+00, tsmear:   3.16681542E-01, }
meta: {optdriver: 0, ionmov: 0, optcell: 0, iscf: 17, paral_kgb: 0, }
...

 Exchange-correlation functional for the present dataset will be:
  TGGA: KDT16 Karasiev-Dufty-Trickey - ixc=60
 Citation for XC functional:
  V.V. Karasiev, J.W. Dufty, and S.B. Trickey, PRL 120(7), 076401 (2018)

 Real(R)+Recip(G) space primitive vectors, cartesian coordinates (Bohr,Bohr^-1):
 R(1)=  3.0000000  0.0000000  0.0000000  G(1)=  0.3333333  0.0000000  0.0000000
 R(2)=  0.0000000  3.0000000  0.0000000  G(2)=  0.0000000  0.3333333  0.0000000
 R(3)=  0.0000000  0.0000000  3.0000000  G(3)=  0.0000000  0.0000000  0.3333333
 Unit cell volume ucvol=  2.7000000E+01 bohr^3
 Angles (23,13,12)=  9.00000000E+01  9.00000000E+01  9.00000000E+01 degrees

 Coarse grid specifications (used for wave-functions):

 getcut: wavevector=  0.0000  0.0000  0.0000  ngfft=  10  10  10
         ecut(hartree)=     10.000   => boxcut(ratio)=   2.34160

 getcut : COMMENT -
  Note that boxcut > 2.2 ; recall that boxcut=Gcut(box)/Gcut(sphere) = 2
  is sufficient for exact treatment of convolution.
  Such a large boxcut is a waste : you could raise ecut
  e.g. ecut=   13.707784 Hartrees makes boxcut=2


 Fine grid specifications (used for densities):

 getcut: wavevector=  0.0000  0.0000  0.0000  ngfft=  10  10  10
         ecut(hartree)=     10.000   => boxcut(ratio)=   2.34160

 getcut : COMMENT -
  Note that boxcut > 2.2 ; recall that boxcut=Gcut(box)/Gcut(sphere) = 2
  is sufficient for exact treatment of convolution.
  Such a large boxcut is a waste : you could raise ecut
  e.g. ecut=   13.707784 Hartrees makes boxcut=2


--- Pseudopotential description ------------------------------------------------
- pspini: atom type   1  psp file is /home/buildbot/ABINIT3/eos_gnu_13.2_serial/blanchet_ftxc/tests/Pspdir/H.LDA-PW-paw.abinit
- pspatm: opening atomic psp file    /home/buildbot/ABINIT3/eos_gnu_13.2_serial/blanchet_ftxc/tests/Pspdir/H.LDA-PW-paw.abinit
- Paw atomic data for element H - Generated by atompaw v3.0.1.9 & AtomPAW2Abinit v3.3.1
-  1.00000   1.00000  20130717                znucl, zion, pspdat
    7    7    0    0       366   0.00000      pspcod,pspxc,lmax,lloc,mmax,r2well
 Pseudopotential format is: paw5
 basis_size (lnmax)=  1 (lmn_size=  1), orbitals=   0
 Spheres core radius: rc_sph= 0.90000000
 5 radial meshes are used:
  - mesh 1: r(i)=step*(i-1), size= 366 , step= 0.25000E-02
  - mesh 2: r(i)=step*(i-1), size= 361 , step= 0.25000E-02
  - mesh 3: r(i)=step*(i-1), size= 386 , step= 0.25000E-02
  - mesh 4: r(i)=step*(i-1), size=4001 , step= 0.25000E-02
  - mesh 5: r(i)=step*(i-1), size=5572 , step= 0.25000E-02
 Shapefunction is SIN type: shapef(r)=[sin(pi*r/rshp)/(pi*r/rshp)]**2
 Radius for shape functions = sphere core radius
 Radial grid used for partial waves is grid 1
 Radial grid used for projectors is grid  2
 Radial grid used for (t)core density is grid 3
 Radial grid used for Vloc is grid 4
 Radial grid used for pseudo valence density is grid 5
 Compensation charge density is not taken into account in XC energy/potential
 pspatm: atomic psp has been read  and splines computed

--------------------------------------------------------------------------------

_setup2: Arith. and geom. avg. npw (full set) are      38.000      38.000

================================================================================

--- !BeginCycle
iteration_state: {dtset: 2, }
solver: {iscf: 17, nstep: 20, nline: 4, wfoptalg: 10, }
tolerances: {toldfe: 1.00E-10, }
...

     iter   Etot(hartree)      deltaE(h)  residm     nres2
 ETOT  1 -0.89987462746178    -8.999E-01 7.845E+00 7.044E-03
 ETOT  2 -0.90052136903196    -6.467E-04 9.611E-05 8.160E-04
 ETOT  3 -0.90053432704349    -1.296E-05 9.038E-05 1.088E-06
 ETOT  4 -0.90053434313166    -1.609E-08 2.148E-05 1.382E-07
 ETOT  5 -0.90053434577695    -2.645E-09 1.662E-06 2.575E-10
 ETOT  6 -0.90053434578170    -4.753E-12 2.096E-07 9.636E-13
 ETOT  7 -0.90053434578169     1.643E-14 6.161E-08 3.551E-14

 At SCF step    7, etot is converged :
  for the second time, diff in etot=  1.643E-14 < toldfe=  1.000E-10

 Cartesian components of stress tensor (hartree/bohr^3)
  sigma(1 1)= -4.29271862E-03  sigma(3 2)=  0.00000000E+00
  sigma(2 2)= -4.29271862E-03  sigma(3 1)=  0.00000000E+00
  sigma(3 3)= -4.29271862E-03  sigma(2 1)=  0.00000000E+00


--- !ResultsGS
iteration_state: {dtset: 2, }
comment   : Summary of ground state results
lattice_vectors:
- [  3.0000000,   0.0000000,   0.0000000, ]
- [  0.0000000,   3.0000000,   0.0000000, ]
- [  0.0000000,   0.0000000,   3.0000000, ]
lattice_lengths: [   3.00000,    3.00000,    3.00000, ]
lattice_angles: [ 90.000,  90.000,  90.000, ] # degrees, (23, 13, 12)
lattice_volume:   2.7000000E+01
convergence: {deltae:  1.643E-14, res2:  3.551E-14, residm:  6.161E-08, diffor: null, }
etotal    :  -9.00534346E-01
entropy   :   0.00000000E+00
fermie    :  -1.31721269E-01
cartesian_stress_tensor: # hartree/bohr^3
- [ -4.29271862E-03,   0.00000000E+00,   0.00000000E+00, ]
- [  0.00000000E+00,  -4.29271862E-03,   0.00000000E+00, ]
- [  0.00000000E+00,   0.00000000E+00,  -4.29271862E-03, ]
pressure_GPa:   1.2630E+02
xred      :
- [  0.0000E+00,   0.0000E+00,   0.0000E+00,  H]
cartesian_forces: # hartree/bohr
- [ -0.00000000E+00,  -0.00000000E+00,  -0.00000000E+00, ]
force_length_stats: {min:   0.00000000E+00, max:   0.00000000E+00, mean:   0.00000000E+00, }
...

 Integrated electronic density in atomic spheres:
 ------------------------------------------------
 Atom  Sphere_radius  Integrated_density
    1        0.90000          0.26876260

 PAW TEST:
 ==== Compensation charge inside spheres ============
 The following values must be close to each other ...
 Compensation charge over spherical meshes =      0.004772574504865
 Compensation charge over fft grid         =      0.004783325397520

 ==== Results concerning PAW augmentation regions ====

 Total pseudopotential strength Dij (hartree):
  -0.03698


 Augmentation waves occupancies Rhoij:
   0.94081


================================================================================

 ----iterations are completed or convergence reached----

 Mean square residual over all n,k,spin=   20.537E-10; max=  61.611E-09
 reduced coordinates (array xred) for    1 atoms
       0.000000000000      0.000000000000      0.000000000000
 rms dE/dt=  0.0000E+00; max dE/dt=  0.0000E+00; dE/dt below (all hartree)
    1       0.000000000000      0.000000000000      0.000000000000

 cartesian coordinates (angstrom) at end:
    1      0.00000000000000     0.00000000000000     0.00000000000000

 cartesian forces (hartree/bohr) at end:
    1     -0.00000000000000    -0.00000000000000    -0.00000000000000
 frms,max,avg= 0.0000000E+00 0.0000000E+00   0.000E+00  0.000E+00  0.000E+00 h/b

 cartesian forces (eV/Angstrom) at end:
    1     -0.00000000000000    -0.00000000000000    -0.00000000000000
 frms,max,avg= 0.0000000E+00 0.0000000E+00   0.000E+00  0.000E+00  0.000E+00 e/A
 length scales=  3.000000000000  3.000000000000  3.000000000000 bohr
              =  1.587531625770  1.587531625770  1.587531625770 angstroms
 prteigrs : about to open file t23o_DS2_EIG
 Fermi (or HOMO) energy (hartree) =  -0.13172   Average Vxc (hartree)=  -0.36612
 Eigenvalues (hartree) for nkpt=   1  k points:
 kpt#   1, nband= 30, wtk=  1.00000, kpt=  0.2500  0.2500  0.2500 (reduced coord)
  -0.04814    0.94313    1.18037    1.18037    2.11669    2.28585    2.28585    3.15691
   3.34919    3.37130    3.37130    4.28665    4.39569    4.39569    4.48460    4.48460
   4.51390    5.52162    5.54725    5.54725    6.50471    6.58754    6.61782    6.61782
   6.67225    6.67225    7.57109    7.69514    7.69514    7.72679
      occupation numbers for kpt#   1
   0.86880    0.06496    0.03125    0.03125    0.00165    0.00097    0.00097    0.00006
   0.00003    0.00003    0.00003    0.00000    0.00000    0.00000    0.00000    0.00000
   0.00000    0.00000    0.00000    0.00000    0.00000    0.00000    0.00000    0.00000
   0.00000    0.00000    0.00000    0.00000    0.00000    0.00000

--- !EnergyTerms
iteration_state     : {dtset: 2, }
comment             : Components of total free energy in Hartree
kinetic             :  6.61565996089073E-01
hartree             :  1.21865500850159E-02
xc                  : -3.26532125510097E-01
Ewald energy        : -4.72882913246778E-01
psp_core            :  7.15551457195553E-03
local_psp           : -1.65353857409612E-01
spherical_terms     : -2.84512512871557E-02
internal            : -3.12312086707599E-01
'-kT*entropy'       : -5.88222223738659E-01
total_energy        : -9.00534310446257E-01
total_energy_eV     : -2.45047848006535E+01
...


--- !EnergyTermsDC
iteration_state     : {dtset: 2, }
comment             : '"Double-counting" decomposition of free energy'
band_energy         :  1.01664635004554E-01
Ewald energy        : -4.72882913246778E-01
psp_core            :  7.15551457195553E-03
xc_dc               :  5.12474774829859E-02
spherical_terms     :  5.03164144254321E-04
internal            : -3.12312122043028E-01
'-kT*entropy'       : -5.88222223738659E-01
total_energy_dc     : -9.00534345781687E-01
total_energy_dc_eV  : -2.45047857621795E+01
...


--- !EntropyTerms
iteration_state     : {dtset: 2, }
comment             : Components of total entropy
noninteracting      :  2.00948313557228E+00
xc                  : -1.51435584913747E-01
spherical_terms     : -5.90939596931253E-04
total_entropy       :  1.85745661106160E+00
...


 Cartesian components of stress tensor (hartree/bohr^3)
  sigma(1 1)= -4.29271862E-03  sigma(3 2)=  0.00000000E+00
  sigma(2 2)= -4.29271862E-03  sigma(3 1)=  0.00000000E+00
  sigma(3 3)= -4.29271862E-03  sigma(2 1)=  0.00000000E+00

-Cartesian components of stress tensor (GPa)         [Pressure=  1.2630E+02 GPa]
- sigma(1 1)= -1.26296121E+02  sigma(3 2)=  0.00000000E+00
- sigma(2 2)= -1.26296121E+02  sigma(3 1)=  0.00000000E+00
- sigma(3 3)= -1.26296121E+02  sigma(2 1)=  0.00000000E+00

== END DATASET(S) ==============================================================
================================================================================

 -outvars: echo values of variables after computation  --------
            acell      3.0000000000E+00  3.0000000000E+00  3.0000000000E+00 Bohr
              amu      1.00794000E+00
      chksymbreak           0
           dipdip           0
             ecut      1.00000000E+01 Hartree
           etotal1    -9.0189858634E-01
           etotal2    -9.0053434578E-01
            fcart1    -0.0000000000E+00 -0.0000000000E+00 -0.0000000000E+00
            fcart2    -0.0000000000E+00 -0.0000000000E+00 -0.0000000000E+00
-          fftalg         512
              ixc1         51
              ixc2         60
           jdtset        1    2
              kpt      2.50000000E-01  2.50000000E-01  2.50000000E-01
         kptrlatt        2    0    0      0    2    0      0    0    2
          kptrlen      6.00000000E+00
P           mkmem           1
            natom           1
            nband          30
           ndtset           2
            ngfft          10      10      10
          ngfftdg          10      10      10
             nkpt           1
            nstep          20
             nsym          48
           ntypat           1
              occ1     0.869623  0.063673  0.031490  0.031490  0.001620  0.000970
                       0.000970  0.000061  0.000033  0.000032  0.000032  0.000002
                       0.000001  0.000001  0.000001  0.000001  0.000001  0.000000
                       0.000000  0.000000  0.000000  0.000000  0.000000  0.000000
                       0.000000  0.000000  0.000000  0.000000  0.000000  0.000000
              occ2     0.868800  0.064959  0.031246  0.031246  0.001649  0.000967
                       0.000967  0.000062  0.000034  0.000031  0.000031  0.000002
                       0.000001  0.000001  0.000001  0.000001  0.000001  0.000000
                       0.000000  0.000000  0.000000  0.000000  0.000000  0.000000
                       0.000000  0.000000  0.000000  0.000000  0.000000  0.000000
           occopt           3
        pawecutdg      1.00000000E+01 Hartree
           shiftk      5.00000000E-01  5.00000000E-01  5.00000000E-01
          spgroup         221
           strten1    -4.4940895385E-03 -4.4940895385E-03 -4.4940895385E-03
                       0.0000000000E+00  0.0000000000E+00  0.0000000000E+00
           strten2    -4.2927186225E-03 -4.2927186225E-03 -4.2927186225E-03
                       0.0000000000E+00  0.0000000000E+00  0.0000000000E+00
           symrel      1  0  0   0  1  0   0  0  1      -1  0  0   0 -1  0   0  0 -1
                      -1  0  0   0  1  0   0  0 -1       1  0  0   0 -1  0   0  0  1
                      -1  0  0   0 -1  0   0  0  1       1  0  0   0  1  0   0  0 -1
                       1  0  0   0 -1  0   0  0 -1      -1  0  0   0  1  0   0  0  1
                       0  1  0   1  0  0   0  0  1       0 -1  0  -1  0  0   0  0 -1
                       0 -1  0   1  0  0   0  0 -1       0  1  0  -1  0  0   0  0  1
                       0 -1  0  -1  0  0   0  0  1       0  1  0   1  0  0   0  0 -1
                       0  1  0  -1  0  0   0  0 -1       0 -1  0   1  0  0   0  0  1
                       0  0  1   1  0  0   0  1  0       0  0 -1  -1  0  0   0 -1  0
                       0  0 -1   1  0  0   0 -1  0       0  0  1  -1  0  0   0  1  0
                       0  0 -1  -1  0  0   0  1  0       0  0  1   1  0  0   0 -1  0
                       0  0  1  -1  0  0   0 -1  0       0  0 -1   1  0  0   0  1  0
                       1  0  0   0  0  1   0  1  0      -1  0  0   0  0 -1   0 -1  0
                      -1  0  0   0  0  1   0 -1  0       1  0  0   0  0 -1   0  1  0
                      -1  0  0   0  0 -1   0  1  0       1  0  0   0  0  1   0 -1  0
                       1  0  0   0  0 -1   0 -1  0      -1  0  0   0  0  1   0  1  0
                       0  1  0   0  0  1   1  0  0       0 -1  0   0  0 -1  -1  0  0
                       0 -1  0   0  0  1  -1  0  0       0  1  0   0  0 -1   1  0  0
                       0 -1  0   0  0 -1   1  0  0       0  1  0   0  0  1  -1  0  0
                       0  1  0   0  0 -1  -1  0  0       0 -1  0   0  0  1   1  0  0
                       0  0  1   0  1  0   1  0  0       0  0 -1   0 -1  0  -1  0  0
                       0  0 -1   0  1  0  -1  0  0       0  0  1   0 -1  0   1  0  0
                       0  0 -1   0 -1  0   1  0  0       0  0  1   0  1  0  -1  0  0
                       0  0  1   0 -1  0  -1  0  0       0  0 -1   0  1  0   1  0  0
           toldfe      1.00000000E-10 Hartree
           tolsym      1.00000000E-08
           tsmear      3.16681542E-01 Hartree
            typat      1
           useylm           1
            znucl        1.00000

================================================================================

- Total cpu        time (s,m,h):          1.0        0.02      0.000
- Total wall clock time (s,m,h):          1.0        0.02      0.000
-
- For major independent code sections, cpu and wall times (sec),
-  as well as % of the time and number of calls for node 0
-
-<BEGIN_TIMER mpi_nprocs = 1, omp_nthreads = 1, mpi_rank = 0>
- cpu_time =            1.0, wall_time =            1.0
-
- routine                                    cpu     %          wall   %        number of calls Gflops    Speedup Efficacity
-                                                                                (-1=no count)
- pspini                                    0.374  39.3         0.374  38.0              2      -1.00        1.00       1.00
- timing timab                              0.112  11.7         0.111  11.3             10      -1.00        1.00       1.00
- fourwf%(pot)                              0.054   5.7         0.096   9.7           2000      -1.00        0.56       0.56
- ewald                                     0.045   4.8         0.045   4.6              2      -1.00        1.01       1.01
- xc:pot/=fourdp                            0.045   4.7         0.044   4.5             16      -1.00        1.01       1.01
- get_dtsets_pspheads                       0.044   4.6         0.044   4.5              1      -1.00        1.00       1.00
- stress                                    0.039   4.1         0.039   4.0              2      -1.00        0.99       0.99
- ewald2 (+vdw_dftd)                        0.038   4.0         0.039   4.0              2      -1.00        0.98       0.98
- vtowfk(ssdiag)                            0.031   3.2         0.029   2.9             -1      -1.00        1.06       1.06
- pawdenpot                                 0.019   2.0         0.021   2.1             14      -1.00        0.89       0.89
- abinit(chkinp,chkvars)                    0.016   1.6         0.015   1.5              1      -1.00        1.04       1.04
- abinit(outvars)                           0.015   1.6         0.016   1.6              1      -1.00        0.96       0.96
- abinit(after driver)                      0.014   1.5         0.015   1.5              1      -1.00        0.96       0.96
- getghc(/=fourXX,nonlop,fock_XX)           0.012   1.3         0.009   0.9             -1      -1.00        1.33       1.33
- nonlop(apply)                             0.008   0.8         0.008   0.8           2000      -1.00        0.96       0.96
- projbd                                    0.007   0.7         0.007   0.7           1460      -1.00        0.96       0.96
- others (143)                              0.025   2.6         0.029   2.9             -1      -1.00        0.87       0.87
-<END_TIMER>
-
- subtotal                                  0.897  94.3         0.941  95.5                                  0.95       0.95

- For major independent code sections, cpu and wall times (sec),
- as well as % of the total time and number of calls

-<BEGIN_TIMER mpi_nprocs = 1, omp_nthreads = 1, mpi_rank = world>
- cpu_time =           1.0, wall_time =           1.0
-
- routine                                    cpu     %          wall   %        number of calls Gflops    Speedup Efficacity
-                                                                                (-1=no count)
- pspini                                    0.374  39.3         0.374  38.0              2      -1.00        1.00       1.00
- timing timab                              0.112  11.7         0.111  11.3             10      -1.00        1.00       1.00
- fourwf%(pot)                              0.054   5.7         0.096   9.7           2000      -1.00        0.56       0.56
- ewald                                     0.045   4.8         0.045   4.6              2      -1.00        1.01       1.01
- xc:pot/=fourdp                            0.045   4.7         0.044   4.5             16      -1.00        1.01       1.01
- get_dtsets_pspheads                       0.044   4.6         0.044   4.5              1      -1.00        1.00       1.00
- stress                                    0.039   4.1         0.039   4.0              2      -1.00        0.99       0.99
- ewald2 (+vdw_dftd)                        0.038   4.0         0.039   4.0              2      -1.00        0.98       0.98
- vtowfk(ssdiag)                            0.031   3.2         0.029   2.9             -1      -1.00        1.06       1.06
- pawdenpot                                 0.019   2.0         0.021   2.1             14      -1.00        0.89       0.89
- abinit(chkinp,chkvars)                    0.016   1.6         0.015   1.5              1      -1.00        1.04       1.04
- abinit(outvars)                           0.015   1.6         0.016   1.6              1      -1.00        0.96       0.96
- abinit(after driver)                      0.014   1.5         0.015   1.5              1      -1.00        0.96       0.96
- getghc(/=fourXX,nonlop,fock_XX)           0.012   1.3         0.009   0.9             -1      -1.00        1.33       1.33
- nonlop(apply)                             0.008   0.8         0.008   0.8           2000      -1.00        0.96       0.96
- projbd                                    0.007   0.7         0.007   0.7           1460      -1.00        0.96       0.96
- others (143)                              0.025   2.6         0.029   2.9             -1      -1.00        0.87       0.87
-<END_TIMER>

- subtotal                                  0.897  94.3         0.941  95.5                                  0.95       0.95

================================================================================

 Suggested references for the acknowledgment of ABINIT usage.

 The users of ABINIT have little formal obligations with respect to the ABINIT group
 (those specified in the GNU General Public License, http://www.gnu.org/copyleft/gpl.txt).
 However, it is common practice in the scientific literature,
 to acknowledge the efforts of people that have made the research possible.
 In this spirit, please find below suggested citations of work written by ABINIT developers,
 corresponding to implementations inside of ABINIT that you have used in the present run.
 Note also that it will be of great value to readers of publications presenting these results,
 to read papers enabling them to understand the theoretical formalism and details
 of the ABINIT implementation.
 For information on why they are suggested, see also https://docs.abinit.org/theory/acknowledgments.
-
- [1] Implementation of the Projector Augmented-Wave Method in the ABINIT code.
- M. Torrent, F. Jollet, F. Bottin, G. Zerah, and X. Gonze Comput. Mat. Science 42, 337, (2008).
- Comment: PAW calculations. Strong suggestion to cite this paper.
- DOI and bibtex: see https://docs.abinit.org/theory/bibliography/#torrent2008
-
- [2] The Abinit project: Impact, environment and recent developments.
- Computer Phys. Comm. 248, 107042 (2020).
- X.Gonze, B. Amadon, G. Antonius, F.Arnardi, L.Baguet, J.-M.Beuken,
- J.Bieder, F.Bottin, J.Bouchet, E.Bousquet, N.Brouwer, F.Bruneval,
- G.Brunin, T.Cavignac, J.-B. Charraud, Wei Chen, M.Cote, S.Cottenier,
- J.Denier, G.Geneste, Ph.Ghosez, M.Giantomassi, Y.Gillet, O.Gingras,
- D.R.Hamann, G.Hautier, Xu He, N.Helbig, N.Holzwarth, Y.Jia, F.Jollet,
- W.Lafargue-Dit-Hauret, K.Lejaeghere, M.A.L.Marques, A.Martin, C.Martins,
- H.P.C. Miranda, F.Naccarato, K. Persson, G.Petretto, V.Planes, Y.Pouillon,
- S.Prokhorenko, F.Ricci, G.-M.Rignanese, A.H.Romero, M.M.Schmitt, M.Torrent,
- M.J.van Setten, B.Van Troeye, M.J.Verstraete, G.Zerah and J.W.Zwanzig
- Comment: the fifth generic paper describing the ABINIT project.
- Note that a version of this paper, that is not formatted for Computer Phys. Comm.
- is available at https://www.abinit.org/sites/default/files/ABINIT20.pdf .
- The licence allows the authors to put it on the Web.
- DOI and bibtex: see https://docs.abinit.org/theory/bibliography/#gonze2020
-
- [3] ABINIT: Overview, and focus on selected capabilities
- J. Chem. Phys. 152, 124102 (2020).
- A. Romero, D.C. Allan, B. Amadon, G. Antonius, T. Applencourt, L.Baguet,
- J.Bieder, F.Bottin, J.Bouchet, E.Bousquet, F.Bruneval,
- G.Brunin, D.Caliste, M.Cote,
- J.Denier, C. Dreyer, Ph.Ghosez, M.Giantomassi, Y.Gillet, O.Gingras,
- D.R.Hamann, G.Hautier, F.Jollet, G. Jomard,
- A.Martin,
- H.P.C. Miranda, F.Naccarato, G.Petretto, N.A. Pike, V.Planes,
- S.Prokhorenko, T. Rangel, F.Ricci, G.-M.Rignanese, M.Royo, M.Stengel, M.Torrent,
- M.J.van Setten, B.Van Troeye, M.J.Verstraete, J.Wiktor, J.W.Zwanziger, and X.Gonze.
- Comment: a global overview of ABINIT, with focus on selected capabilities .
- Note that a version of this paper, that is not formatted for J. Chem. Phys
- is available at https://www.abinit.org/sites/default/files/ABINIT20_JPC.pdf .
- The licence allows the authors to put it on the Web.
- DOI and bibtex: see https://docs.abinit.org/theory/bibliography/#romero2020
-
- [4] Recent developments in the ABINIT software package.
- Computer Phys. Comm. 205, 106 (2016).
- X.Gonze, F.Jollet, F.Abreu Araujo, D.Adams, B.Amadon, T.Applencourt,
- C.Audouze, J.-M.Beuken, J.Bieder, A.Bokhanchuk, E.Bousquet, F.Bruneval
- D.Caliste, M.Cote, F.Dahm, F.Da Pieve, M.Delaveau, M.Di Gennaro,
- B.Dorado, C.Espejo, G.Geneste, L.Genovese, A.Gerossier, M.Giantomassi,
- Y.Gillet, D.R.Hamann, L.He, G.Jomard, J.Laflamme Janssen, S.Le Roux,
- A.Levitt, A.Lherbier, F.Liu, I.Lukacevic, A.Martin, C.Martins,
- M.J.T.Oliveira, S.Ponce, Y.Pouillon, T.Rangel, G.-M.Rignanese,
- A.H.Romero, B.Rousseau, O.Rubel, A.A.Shukri, M.Stankovski, M.Torrent,
- M.J.Van Setten, B.Van Troeye, M.J.Verstraete, D.Waroquier, J.Wiktor,
- B.Xu, A.Zhou, J.W.Zwanziger.
- Comment: the fourth generic paper describing the ABINIT project.
- Note that a version of this paper, that is not formatted for Computer Phys. Comm.
- is available at https://www.abinit.org/sites/default/files/ABINIT16.pdf .
- The licence allows the authors to put it on the Web.
- DOI and bibtex: see https://docs.abinit.org/theory/bibliography/#gonze2016
-
- And optionally:
-
- [5] ABINIT: First-principles approach of materials and nanosystem properties.
- Computer Phys. Comm. 180, 2582-2615 (2009).
- X. Gonze, B. Amadon, P.-M. Anglade, J.-M. Beuken, F. Bottin, P. Boulanger, F. Bruneval,
- D. Caliste, R. Caracas, M. Cote, T. Deutsch, L. Genovese, Ph. Ghosez, M. Giantomassi
- S. Goedecker, D.R. Hamann, P. Hermet, F. Jollet, G. Jomard, S. Leroux, M. Mancini, S. Mazevet,
- M.J.T. Oliveira, G. Onida, Y. Pouillon, T. Rangel, G.-M. Rignanese, D. Sangalli, R. Shaltaf,
- M. Torrent, M.J. Verstraete, G. Zerah, J.W. Zwanziger
- Comment: the third generic paper describing the ABINIT project.
- Note that a version of this paper, that is not formatted for Computer Phys. Comm.
- is available at https://www.abinit.org/sites/default/files/ABINIT_CPC_v10.pdf .
- The licence allows the authors to put it on the Web.
- DOI and bibtex: see https://docs.abinit.org/theory/bibliography/#gonze2009
-
- Proc.   0 individual time (sec): cpu=          1.0  wall=          1.0

================================================================================

 Calculation completed.
.Delivered   5 WARNINGs and   8 COMMENTs to log file.
+Overall time at end (sec) : cpu=          1.0  wall=          1.0
