
.Version 10.5.8.4 of ABINIT, released Oct 2025.
.(MPI version, prepared for a x86_64_linux_gnu13.2 computer) 

.Copyright (C) 1998-2025 ABINIT group . 
 ABINIT comes with ABSOLUTELY NO WARRANTY.
 It is free software, and you are welcome to redistribute it
 under certain conditions (GNU General Public License,
 see ~abinit/COPYING or http://www.gnu.org/copyleft/gpl.txt).

 ABINIT is a project of the Universite Catholique de Louvain,
 Corning Inc. and other collaborators, see ~abinit/doc/developers/contributors.txt .
 Please read https://docs.abinit.org/theory/acknowledgments for suggested
 acknowledgments of the ABINIT effort.
 For more information, see https://www.abinit.org .

.Starting date : Fri 14 Nov 2025.
- ( at 21h14 )
  
- input  file    -> /home/buildbot/ABINIT3/eos_gnu_13.2_mpichT/trunk_develop/tests/TestBot_MPI1/v10_t42/t42.abi
- output file    -> t42.abo
- root for input  files -> t42i
- root for output files -> t42o

- inpspheads : Reading pseudopotential header in XML form from 
-   /home/buildbot/ABINIT3/eos_gnu_13.2_mpichT/trunk_develop/tests/Pspdir/P.GGA_X_PBE+GGA_C_PBE.xml
- inpspheads : Reading pseudopotential header in XML form from 
-   /home/buildbot/ABINIT3/eos_gnu_13.2_mpichT/trunk_develop/tests/Pspdir/Al.GGA_X_PBE+GGA_C_PBE.xml

 invars1: COMMENT -
  With nspinor=2 and usepaw=1, pawspnorb=1 has been switched on by default.

 invars1: COMMENT -
  With nspinor=2 and usepaw=1, pawspnorb=1 has been switched on by default.
 DATASET    1 : space group P1 (#  1); Bravais aP (primitive triclinic)
================================================================================
 Values of the parameters that define the memory need for DATASET  1.
     intxc =       0    ionmov =       0      iscf =      17    lmnmax =       8
     lnmax =       4     mgfft =      16  mpssoang =       2    mqgrid =    3001
     natom =       2  nloc_mem =       2    nspden =       1   nspinor =       2
    nsppol =       1      nsym =       1    n1xccc =       1    ntypat =       2
    occopt =       1   xclevel =       2
-    mband =           8        mffmem =           1         mkmem =          32
       mpw =         150          nfft =        4096          nkpt =          32
 PAW method is used; the additional fine FFT grid is defined by:
   mgfftf=        24    nfftf =     13824
================================================================================
P This job should need less than                       7.526 Mbytes of memory.
  Rough estimation (10% accuracy) of disk space for files :
_ WF disk file :      0.588 Mbytes ; DEN or POT disk file :      0.107 Mbytes.
================================================================================

 DATASET    2 : space group P1 (#  1); Bravais aP (primitive triclinic)
================================================================================
 Values of the parameters that define the memory need for DATASET  2 (RF).
     intxc =       0      iscf =      -3    lmnmax =       8     lnmax =       4
     mgfft =      16  mpssoang =       2    mqgrid =    3001     natom =       2
  nloc_mem =       2    nspden =       1   nspinor =       2    nsppol =       1
      nsym =       1    n1xccc =       1    ntypat =       2    occopt =       1
   xclevel =       2
-    mband =           8        mffmem =           1         mkmem =          32
-   mkqmem =          32        mk1mem =          32           mpw =         150
      nfft =        4096          nkpt =          32
- my_mband =           8
================================================================================
P This job should need less than                       5.506 Mbytes of memory.
  Rough estimation (10% accuracy) of disk space for files :
_ WF disk file :      0.588 Mbytes ; DEN or POT disk file :      0.033 Mbytes.
================================================================================

--------------------------------------------------------------------------------
------------- Echo of variables that govern the present computation ------------
--------------------------------------------------------------------------------
-
- outvars: echo of selected default values
-   iomode0 =  0 , fftalg0 =512 , wfoptalg0 = 10
-
- outvars: echo of global parameters not present in the input file
-  max_nthreads =    0
-
 -outvars: echo values of preprocessed input variables --------
            acell      1.0300896971E+01  1.0300896971E+01  1.0300896971E+01 Bohr
              amu      3.09737620E+01  2.69815390E+01
             ecut      5.00000000E+00 Hartree
-          fftalg         512
           getwfk1          0
           getwfk2         -1
             iscf1         17
             iscf2         -3
              ixc     -497498
           jdtset        1    2
              kpt     -2.50000000E-01  5.00000000E-01  0.00000000E+00
                       5.00000000E-01 -2.50000000E-01  0.00000000E+00
                      -2.50000000E-01 -2.50000000E-01  2.50000000E-01
                      -2.50000000E-01  0.00000000E+00  0.00000000E+00
                       5.00000000E-01  2.50000000E-01  0.00000000E+00
                      -2.50000000E-01  2.50000000E-01  2.50000000E-01
                       2.50000000E-01  5.00000000E-01  0.00000000E+00
                       5.00000000E-01  5.00000000E-01  2.50000000E-01
                      -2.50000000E-01  5.00000000E-01  5.00000000E-01
                       0.00000000E+00 -2.50000000E-01  0.00000000E+00
                       2.50000000E-01 -2.50000000E-01  2.50000000E-01
                       5.00000000E-01 -2.50000000E-01  5.00000000E-01
                      -2.50000000E-01 -2.50000000E-01 -2.50000000E-01
                       2.50000000E-01  0.00000000E+00  0.00000000E+00
                       5.00000000E-01  0.00000000E+00  2.50000000E-01
                      -2.50000000E-01  0.00000000E+00  5.00000000E-01
                       0.00000000E+00  2.50000000E-01  0.00000000E+00
                       2.50000000E-01  2.50000000E-01  2.50000000E-01
                       5.00000000E-01  2.50000000E-01  5.00000000E-01
                      -2.50000000E-01  2.50000000E-01 -2.50000000E-01
                       0.00000000E+00  5.00000000E-01  2.50000000E-01
                       2.50000000E-01  5.00000000E-01  5.00000000E-01
                       5.00000000E-01  5.00000000E-01 -2.50000000E-01
                       0.00000000E+00 -2.50000000E-01  5.00000000E-01
                       2.50000000E-01 -2.50000000E-01 -2.50000000E-01
                       0.00000000E+00  0.00000000E+00  2.50000000E-01
                       2.50000000E-01  0.00000000E+00  5.00000000E-01
                       5.00000000E-01  0.00000000E+00 -2.50000000E-01
                       0.00000000E+00  2.50000000E-01  5.00000000E-01
                       2.50000000E-01  2.50000000E-01 -2.50000000E-01
                       0.00000000E+00  5.00000000E-01 -2.50000000E-01
                       0.00000000E+00  0.00000000E+00 -2.50000000E-01
           kptopt           3
         kptrlatt        2   -2    2     -2    2    2     -2   -2    2
          kptrlen      2.06017939E+01
P           mkmem          32
P          mkqmem          32
P          mk1mem          32
            natom           2
            nband           8
           ndtset           2
            ngfft          16      16      16
          ngfftdg          24      24      24
             nkpt          32
          nspinor           2
            nstep          10
             nsym           1
           ntypat           2
        nucdipmom      0.0000000000E+00  0.0000000000E+00  0.0000000000E+00
                       1.0000000000E+00  0.0000000000E+00  0.0000000000E+00
              occ      1.000000  1.000000  1.000000  1.000000  1.000000  1.000000
                       1.000000  1.000000
        optdriver1          0
        optdriver2          1
        optforces           0
        optstress           0
           orbmag1          0
           orbmag2          2
        pawcpxocc           2
        pawecutdg      1.00000000E+01 Hartree
        pawspnorb           1
         pawxcdev           0
           prtden           0
           prteig           0
          prtkden           1
           prtpot1          0
           prtpot2          1
            prtwf1          1
            prtwf2          0
            rfddk1          0
            rfddk2          1
            rprim      0.0000000000E+00  5.0000000000E-01  5.0000000000E-01
                       5.0000000000E-01  0.0000000000E+00  5.0000000000E-01
                       5.0000000000E-01  5.0000000000E-01  0.0000000000E+00
           shiftk      5.00000000E-01  5.00000000E-01  5.00000000E-01
          spgroup           1
        symmorphi           0
           tolvrs1     1.00000000E-18
           tolvrs2     0.00000000E+00
           tolwfr1     0.00000000E+00
           tolwfr2     1.00000000E-20
            typat      1  2
          usekden           1
        usexcnhat           0
           useylm           1
              wtk        0.03125    0.03125    0.03125    0.03125    0.03125    0.03125
                         0.03125    0.03125    0.03125    0.03125    0.03125    0.03125
                         0.03125    0.03125    0.03125    0.03125    0.03125    0.03125
                         0.03125    0.03125    0.03125    0.03125    0.03125    0.03125
                         0.03125    0.03125    0.03125    0.03125    0.03125    0.03125
                         0.03125    0.03125
           xangst      1.3627499763E+00  1.3627499763E+00  1.3627499763E+00
                       0.0000000000E+00  0.0000000000E+00  0.0000000000E+00
            xcart      2.5752242428E+00  2.5752242428E+00  2.5752242428E+00
                       0.0000000000E+00  0.0000000000E+00  0.0000000000E+00
             xred      2.5000000000E-01  2.5000000000E-01  2.5000000000E-01
                       0.0000000000E+00  0.0000000000E+00  0.0000000000E+00
            znucl       15.00000   13.00000
             zora           2

================================================================================

 chkinp: Checking input parameters for consistency, jdtset=   1.

 chkinp: Checking input parameters for consistency, jdtset=   2.

================================================================================
== DATASET  1 ==================================================================
-   mpi_nproc: 1, omp_nthreads: -1 (-1 if OMP is not activated)


--- !DatasetInfo
iteration_state: {dtset: 1, }
dimensions: {natom: 2, nkpt: 32, mband: 8, nsppol: 1, nspinor: 2, nspden: 1, mpw: 150, }
cutoff_energies: {ecut:   5.0, pawecutdg:  10.0, }
electrons: {nelect:   8.00000000E+00, charge:   0.00000000E+00, occopt:   1.00000000E+00, tsmear:   1.00000000E-02, }
meta: {optdriver: 0, ionmov: 0, optcell: 0, iscf: 17, paral_kgb: 0, }
...

 Real(R)+Recip(G) space primitive vectors, cartesian coordinates (Bohr,Bohr^-1):
 R(1)=  0.0000000  5.1504485  5.1504485  G(1)= -0.0970789  0.0970789  0.0970789
 R(2)=  5.1504485  0.0000000  5.1504485  G(2)=  0.0970789 -0.0970789  0.0970789
 R(3)=  5.1504485  5.1504485  0.0000000  G(3)=  0.0970789  0.0970789 -0.0970789
 Unit cell volume ucvol=  2.7325313E+02 bohr^3
 Angles (23,13,12)=  6.00000000E+01  6.00000000E+01  6.00000000E+01 degrees

 Coarse grid specifications (used for wave-functions):

 getcut: wavevector=  0.0000  0.0000  0.0000  ngfft=  16  16  16
         ecut(hartree)=      5.000   => boxcut(ratio)=   2.18228

 Fine grid specifications (used for densities):

 getcut: wavevector=  0.0000  0.0000  0.0000  ngfft=  24  24  24
         ecut(hartree)=     10.000   => boxcut(ratio)=   2.31465

 getcut : COMMENT -
  Note that boxcut > 2.2 ; recall that boxcut=Gcut(box)/Gcut(sphere) = 2
  is sufficient for exact treatment of convolution.
  Such a large boxcut is a waste : you could raise ecut
  e.g. ecut=   13.394057 Hartrees makes boxcut=2


--- Pseudopotential description ------------------------------------------------
- pspini: atom type   1  psp file is /home/buildbot/ABINIT3/eos_gnu_13.2_mpichT/trunk_develop/tests/Pspdir/P.GGA_X_PBE+GGA_C_PBE.xml
- pspatm: opening atomic psp file    /home/buildbot/ABINIT3/eos_gnu_13.2_mpichT/trunk_develop/tests/Pspdir/P.GGA_X_PBE+GGA_C_PBE.xml
- pspatm : Reading pseudopotential header in XML form from /home/buildbot/ABINIT3/eos_gnu_13.2_mpichT/trunk_develop/tests/Pspdir/P.GGA_X_PBE+GGA_C_PBE.xml
 Pseudopotential format is: paw10
 basis_size (lnmax)=  4 (lmn_size=  8), orbitals=   0   0   1   1
 Spheres core radius: rc_sph= 1.90690075
 1 radial meshes are used:
  - mesh 1: r(i)=AA*[exp(BB*(i-1))-1], size=2001 , AA= 0.40634E-03 BB= 0.60952E-02
 Shapefunction is SIN type: shapef(r)=[sin(pi*r/rshp)/(pi*r/rshp)]**2
 Radius for shape functions =  1.60765221
 mmax= 2001
 Radial grid used for partial waves is grid 1
 Radial grid used for projectors is grid 1
 Radial grid used for (t)core density is grid 1
 Radial grid used for (t)coretau kinetic density is grid 1
 Radial grid used for Vloc is grid 1
 Radial grid used for pseudo valence density is grid 1
 Mesh size for Vloc has been set to 1773 to avoid numerical noise.
 Compensation charge density is not taken into account in XC energy/potential
 pspatm: atomic psp has been read  and splines computed

- pspini: atom type   2  psp file is /home/buildbot/ABINIT3/eos_gnu_13.2_mpichT/trunk_develop/tests/Pspdir/Al.GGA_X_PBE+GGA_C_PBE.xml
- pspatm: opening atomic psp file    /home/buildbot/ABINIT3/eos_gnu_13.2_mpichT/trunk_develop/tests/Pspdir/Al.GGA_X_PBE+GGA_C_PBE.xml
- pspatm : Reading pseudopotential header in XML form from /home/buildbot/ABINIT3/eos_gnu_13.2_mpichT/trunk_develop/tests/Pspdir/Al.GGA_X_PBE+GGA_C_PBE.xml
 Pseudopotential format is: paw10
 basis_size (lnmax)=  4 (lmn_size=  8), orbitals=   0   0   1   1
 Spheres core radius: rc_sph= 1.90363307
 1 radial meshes are used:
  - mesh 1: r(i)=AA*[exp(BB*(i-1))-1], size=2001 , AA= 0.46377E-03 BB= 0.60291E-02
 Shapefunction is SIN type: shapef(r)=[sin(pi*r/rshp)/(pi*r/rshp)]**2
 Radius for shape functions =  1.60786206
 mmax= 2001
 Radial grid used for partial waves is grid 1
 Radial grid used for projectors is grid 1
 Radial grid used for (t)core density is grid 1
 Radial grid used for (t)coretau kinetic density is grid 1
 Radial grid used for Vloc is grid 1
 Radial grid used for pseudo valence density is grid 1
 Mesh size for Vloc has been set to 1771 to avoid numerical noise.
 Compensation charge density is not taken into account in XC energy/potential
 pspatm: atomic psp has been read  and splines computed

  -1.67993637E+01                                ecore*ucvol(ha*bohr**3)
--------------------------------------------------------------------------------

_setup2: Arith. and geom. avg. npw (full set) are     146.250     146.234

================================================================================

--- !BeginCycle
iteration_state: {dtset: 1, }
solver: {iscf: 17, nstep: 10, nline: 4, wfoptalg: 10, }
tolerances: {tolvrs: 1.00E-18, }
...

     iter   Etot(hartree)      deltaE(h)  residm     nres2
 ETOT  1  -5.1561111461591    -5.156E+00 1.643E-02 7.572E-01
 ETOT  2  -5.1652776986634    -9.167E-03 1.237E-07 1.373E-01
 ETOT  3  -5.1648082493490     4.694E-04 9.322E-06 5.448E-03
 ETOT  4  -5.1648572580545    -4.901E-05 2.052E-07 3.876E-04
 ETOT  5  -5.1648579554339    -6.974E-07 5.479E-08 4.619E-05
 ETOT  6  -5.1648604731349    -2.518E-06 4.730E-09 1.402E-06
 ETOT  7  -5.1648602565796     2.166E-07 2.081E-10 2.051E-08
 ETOT  8  -5.1648603554044    -9.882E-08 1.699E-12 2.680E-09
 ETOT  9  -5.1648603487553     6.649E-09 5.213E-13 1.526E-10
 ETOT 10  -5.1648603480402     7.151E-10 1.639E-14 9.024E-12

Result for kinetic energy density :

--------------------------------------------------------------------------------
 Total kinetic energy density [Ha/Bohr^3]
)     Maximum=    1.8289E-01  at reduced coord.    0.2500    0.2500    0.2500
)     Minimum=    1.2828E-03  at reduced coord.    0.7500    0.7500    0.7500
   Integrated=    3.5911E+00
--------------------------------------------------------------------------------

 scprqt:  WARNING -
  nstep=   10 was not enough SCF cycles to converge;
  density residual=  9.024E-12 exceeds tolvrs=  1.000E-18


--- !ResultsGS
iteration_state: {dtset: 1, }
comment   : Summary of ground state results
lattice_vectors:
- [  0.0000000,   5.1504485,   5.1504485, ]
- [  5.1504485,   0.0000000,   5.1504485, ]
- [  5.1504485,   5.1504485,   0.0000000, ]
lattice_lengths: [   7.28383,    7.28383,    7.28383, ]
lattice_angles: [ 60.000,  60.000,  60.000, ] # degrees, (23, 13, 12)
lattice_volume:   2.7325313E+02
convergence: {deltae:  7.151E-10, res2:  9.024E-12, residm:  1.639E-14, diffor:  0.000E+00, }
etotal    :  -5.16486035E+00
entropy   :   0.00000000E+00
fermie    :   1.74677990E-01
cartesian_stress_tensor: null
pressure_GPa: null
xred      :
- [  2.5000E-01,   2.5000E-01,   2.5000E-01,  P]
- [  0.0000E+00,   0.0000E+00,   0.0000E+00, Al]
cartesian_forces: null
force_length_stats: {min: null, max: null, mean: null, }
...

 Integrated electronic density in atomic spheres:
 ------------------------------------------------
 Atom  Sphere_radius  Integrated_density
    1        1.90690          2.59284561
    2        1.90363          0.75654135

 PAW TEST:
 ==== Compensation charge inside spheres ============
 The following values must be close to each other ...
 Compensation charge over spherical meshes =     -0.530725997751652
 Compensation charge over fine fft grid    =     -0.530616287811356

 ==== Results concerning PAW augmentation regions ====

 Total pseudopotential strength Dij (hartree):
 Atom #  1 - Component up-up
   === REAL PART:
   1.40118   0.02373   0.00000   0.00000   0.00000   0.00000   0.00000   0.00000
   0.02373  28.56332  -0.00000  -0.00000   0.00000   0.00000   0.00000   0.00000
   0.00000  -0.00000   0.27608   0.00000   0.00000  -0.00683   0.00000   0.00000
   0.00000  -0.00000   0.00000   0.27608   0.00000   0.00000  -0.00683   0.00000
   0.00000   0.00000   0.00000   0.00000   0.27608   0.00000   0.00000  -0.00683
   0.00000   0.00000  -0.00683   0.00000   0.00000  16.64918  -0.00000   0.00000
   0.00000   0.00000   0.00000  -0.00683   0.00000  -0.00000  16.64918  -0.00000
   0.00000   0.00000   0.00000   0.00000  -0.00683   0.00000  -0.00000  16.64918
   === IMAGINARY PART:
  -0.00000  -0.00000  -0.00000  -0.00000  -0.00000  -0.00000  -0.00000  -0.00000
   0.00000  -0.00000  -0.00000  -0.00000  -0.00000  -0.00000  -0.00000  -0.00000
   0.00000   0.00000  -0.00000  -0.00000  -0.00065  -0.00000  -0.00000  -0.00040
   0.00000   0.00000   0.00000  -0.00000  -0.00000  -0.00000  -0.00000  -0.00000
   0.00000   0.00000   0.00065   0.00000  -0.00000   0.00040  -0.00000  -0.00000
   0.00000   0.00000   0.00000   0.00000  -0.00040  -0.00000  -0.00000  -0.00330
   0.00000   0.00000   0.00000   0.00000   0.00000   0.00000  -0.00000  -0.00000
   0.00000   0.00000   0.00040   0.00000   0.00000   0.00330   0.00000  -0.00000
 Atom #  1 - Component dwn-dwn
   === REAL PART:
   1.40118   0.02373   0.00000   0.00000   0.00000   0.00000   0.00000   0.00000
   0.02373  28.56332  -0.00000  -0.00000   0.00000   0.00000   0.00000   0.00000
   0.00000  -0.00000   0.27608   0.00000   0.00000  -0.00683   0.00000   0.00000
   0.00000  -0.00000   0.00000   0.27608   0.00000   0.00000  -0.00683   0.00000
   0.00000   0.00000   0.00000   0.00000   0.27608   0.00000   0.00000  -0.00683
   0.00000   0.00000  -0.00683   0.00000   0.00000  16.64918  -0.00000   0.00000
   0.00000   0.00000   0.00000  -0.00683   0.00000  -0.00000  16.64918  -0.00000
   0.00000   0.00000   0.00000   0.00000  -0.00683   0.00000  -0.00000  16.64918
   === IMAGINARY PART:
  -0.00000  -0.00000  -0.00000  -0.00000  -0.00000  -0.00000  -0.00000  -0.00000
   0.00000  -0.00000  -0.00000  -0.00000  -0.00000  -0.00000  -0.00000  -0.00000
   0.00000   0.00000  -0.00000  -0.00000   0.00065  -0.00000  -0.00000   0.00040
   0.00000   0.00000   0.00000  -0.00000  -0.00000  -0.00000  -0.00000  -0.00000
   0.00000   0.00000  -0.00065   0.00000  -0.00000  -0.00040  -0.00000  -0.00000
   0.00000   0.00000   0.00000   0.00000   0.00040  -0.00000  -0.00000   0.00330
   0.00000   0.00000   0.00000   0.00000   0.00000   0.00000  -0.00000  -0.00000
   0.00000   0.00000  -0.00040   0.00000   0.00000  -0.00330   0.00000  -0.00000
 Atom #  1 - Component up-dwn
   === REAL PART:
   0.00000   0.00000   0.00000   0.00000   0.00000   0.00000   0.00000   0.00000
   0.00000   0.00000   0.00000   0.00000   0.00000   0.00000   0.00000   0.00000
   0.00000   0.00000   0.00000   0.00000   0.00000   0.00000   0.00000   0.00000
   0.00000   0.00000   0.00000   0.00000   0.00065   0.00000   0.00000   0.00040
   0.00000   0.00000   0.00000  -0.00065   0.00000   0.00000  -0.00040   0.00000
   0.00000   0.00000   0.00000   0.00000   0.00000   0.00000   0.00000   0.00000
   0.00000   0.00000   0.00000   0.00000   0.00040   0.00000   0.00000   0.00330
   0.00000   0.00000   0.00000  -0.00040   0.00000   0.00000  -0.00330   0.00000
   === IMAGINARY PART:
  -0.00000  -0.00000  -0.00000  -0.00000  -0.00000  -0.00000  -0.00000  -0.00000
   0.00000  -0.00000  -0.00000  -0.00000  -0.00000  -0.00000  -0.00000  -0.00000
   0.00000   0.00000  -0.00000   0.00065  -0.00000  -0.00000   0.00040  -0.00000
   0.00000   0.00000  -0.00065  -0.00000  -0.00000  -0.00040  -0.00000  -0.00000
   0.00000   0.00000   0.00000   0.00000  -0.00000  -0.00000  -0.00000  -0.00000
   0.00000   0.00000   0.00000   0.00040   0.00000  -0.00000   0.00330  -0.00000
   0.00000   0.00000  -0.00040   0.00000   0.00000  -0.00330  -0.00000  -0.00000
   0.00000   0.00000   0.00000   0.00000   0.00000   0.00000   0.00000  -0.00000
 Atom #  1 - Component dwn-up
   === REAL PART:
   0.00000   0.00000   0.00000   0.00000   0.00000   0.00000   0.00000   0.00000
   0.00000   0.00000   0.00000   0.00000   0.00000   0.00000   0.00000   0.00000
   0.00000   0.00000   0.00000   0.00000   0.00000   0.00000   0.00000   0.00000
   0.00000   0.00000   0.00000   0.00000  -0.00065   0.00000   0.00000  -0.00040
   0.00000   0.00000   0.00000   0.00065   0.00000   0.00000   0.00040   0.00000
   0.00000   0.00000   0.00000   0.00000   0.00000   0.00000   0.00000   0.00000
   0.00000   0.00000   0.00000   0.00000  -0.00040   0.00000   0.00000  -0.00330
   0.00000   0.00000   0.00000   0.00040   0.00000   0.00000   0.00330   0.00000
   === IMAGINARY PART:
  -0.00000  -0.00000  -0.00000  -0.00000  -0.00000  -0.00000  -0.00000  -0.00000
   0.00000  -0.00000  -0.00000  -0.00000  -0.00000  -0.00000  -0.00000  -0.00000
   0.00000   0.00000  -0.00000   0.00065  -0.00000  -0.00000   0.00040  -0.00000
   0.00000   0.00000  -0.00065  -0.00000  -0.00000  -0.00040  -0.00000  -0.00000
   0.00000   0.00000   0.00000   0.00000  -0.00000  -0.00000  -0.00000  -0.00000
   0.00000   0.00000   0.00000   0.00040   0.00000  -0.00000   0.00330  -0.00000
   0.00000   0.00000  -0.00040   0.00000   0.00000  -0.00330  -0.00000  -0.00000
   0.00000   0.00000   0.00000   0.00000   0.00000   0.00000   0.00000  -0.00000
 Atom #  2 - Component up-up
   === REAL PART:
   0.32323   0.13952   0.00000   0.00000   0.00000   0.00000   0.00000   0.00000
   0.13952  35.89471   0.00000   0.00000   0.00000  -0.00000  -0.00000  -0.00000
   0.00000   0.00000   0.07142   0.00000   0.00000  -0.02878   0.00000   0.00000
   0.00000   0.00000   0.00000   0.07142   0.00002   0.00000  -0.02878  -0.00032
   0.00000   0.00000   0.00000   0.00002   0.07142   0.00000  -0.00032  -0.02878
   0.00000  -0.00000  -0.02878   0.00000   0.00000  19.03330  -0.00000  -0.00000
   0.00000  -0.00000   0.00000  -0.02878  -0.00032  -0.00000  19.03330   0.00608
   0.00000  -0.00000   0.00000  -0.00032  -0.02878  -0.00000   0.00608  19.03330
   === IMAGINARY PART:
  -0.00000  -0.00000  -0.00000  -0.00000  -0.00000  -0.00000  -0.00000  -0.00000
   0.00000  -0.00000  -0.00000  -0.00000  -0.00000  -0.00000  -0.00000  -0.00000
   0.00000   0.00000  -0.00000   0.00007  -0.00020  -0.00000  -0.00106   0.00295
   0.00000   0.00000  -0.00007  -0.00000  -0.00000   0.00106  -0.00000  -0.00000
   0.00000   0.00000   0.00020   0.00000  -0.00000  -0.00295  -0.00000  -0.00000
   0.00000   0.00000   0.00000  -0.00106   0.00295  -0.00000   0.01610  -0.04871
   0.00000   0.00000   0.00106   0.00000   0.00000  -0.01610  -0.00000  -0.00000
   0.00000   0.00000  -0.00295   0.00000   0.00000   0.04871   0.00000  -0.00000
 Atom #  2 - Component dwn-dwn
   === REAL PART:
   0.32323   0.13952   0.00000   0.00000   0.00000   0.00000   0.00000   0.00000
   0.13952  35.89471   0.00000   0.00000   0.00000  -0.00000  -0.00000  -0.00000
   0.00000   0.00000   0.07142   0.00000   0.00000  -0.02878   0.00000   0.00000
   0.00000   0.00000   0.00000   0.07142  -0.00002   0.00000  -0.02878   0.00032
   0.00000   0.00000   0.00000  -0.00002   0.07142   0.00000   0.00032  -0.02878
   0.00000  -0.00000  -0.02878   0.00000   0.00000  19.03330  -0.00000  -0.00000
   0.00000  -0.00000   0.00000  -0.02878   0.00032  -0.00000  19.03330  -0.00608
   0.00000  -0.00000   0.00000   0.00032  -0.02878  -0.00000  -0.00608  19.03330
   === IMAGINARY PART:
  -0.00000  -0.00000  -0.00000  -0.00000  -0.00000  -0.00000  -0.00000  -0.00000
   0.00000  -0.00000  -0.00000  -0.00000  -0.00000  -0.00000  -0.00000  -0.00000
   0.00000   0.00000  -0.00000   0.00007   0.00020  -0.00000  -0.00106  -0.00295
   0.00000   0.00000  -0.00007  -0.00000  -0.00000   0.00106  -0.00000  -0.00000
   0.00000   0.00000  -0.00020   0.00000  -0.00000   0.00295  -0.00000  -0.00000
   0.00000   0.00000   0.00000  -0.00106  -0.00295  -0.00000   0.01610   0.04871
   0.00000   0.00000   0.00106   0.00000   0.00000  -0.01610  -0.00000  -0.00000
   0.00000   0.00000   0.00295   0.00000   0.00000  -0.04871   0.00000  -0.00000
 Atom #  2 - Component up-dwn
   === REAL PART:
   0.00066  -0.00415   0.00000   0.00000   0.00000   0.00000   0.00000   0.00000
  -0.00415   0.02616   0.00000   0.00000   0.00000   0.00000   0.00000   0.00000
   0.00000   0.00000  -0.00001   0.00000   0.00000   0.00021   0.00000   0.00000
   0.00000   0.00000   0.00000  -0.00001   0.00020   0.00000   0.00021  -0.00295
   0.00000   0.00000   0.00000  -0.00020   0.00003   0.00000   0.00295  -0.00043
   0.00000   0.00000   0.00021   0.00000   0.00000  -0.00404   0.00000   0.00000
   0.00000   0.00000   0.00000   0.00021  -0.00295   0.00000  -0.00404   0.04871
   0.00000   0.00000   0.00000   0.00295  -0.00043   0.00000  -0.04871   0.00812
   === IMAGINARY PART:
  -0.00000  -0.00000  -0.00000  -0.00000  -0.00000  -0.00000  -0.00000  -0.00000
   0.00000  -0.00000  -0.00000  -0.00000  -0.00000  -0.00000  -0.00000  -0.00000
   0.00000   0.00000  -0.00000   0.00020  -0.00002  -0.00000  -0.00295   0.00032
   0.00000   0.00000  -0.00020  -0.00000  -0.00000   0.00295  -0.00000  -0.00000
   0.00000   0.00000  -0.00002   0.00000  -0.00000   0.00032  -0.00000  -0.00000
   0.00000   0.00000   0.00000  -0.00295   0.00032  -0.00000   0.04871  -0.00608
   0.00000   0.00000   0.00295   0.00000   0.00000  -0.04871  -0.00000  -0.00000
   0.00000   0.00000   0.00032   0.00000   0.00000  -0.00608   0.00000  -0.00000
 Atom #  2 - Component dwn-up
   === REAL PART:
   0.00066  -0.00415   0.00000   0.00000   0.00000   0.00000   0.00000   0.00000
  -0.00415   0.02616   0.00000   0.00000   0.00000   0.00000   0.00000   0.00000
   0.00000   0.00000  -0.00001   0.00000   0.00000   0.00021   0.00000   0.00000
   0.00000   0.00000   0.00000  -0.00001  -0.00020   0.00000   0.00021   0.00295
   0.00000   0.00000   0.00000   0.00020   0.00003   0.00000  -0.00295  -0.00043
   0.00000   0.00000   0.00021   0.00000   0.00000  -0.00404   0.00000   0.00000
   0.00000   0.00000   0.00000   0.00021   0.00295   0.00000  -0.00404  -0.04871
   0.00000   0.00000   0.00000  -0.00295  -0.00043   0.00000   0.04871   0.00812
   === IMAGINARY PART:
  -0.00000  -0.00000  -0.00000  -0.00000  -0.00000  -0.00000  -0.00000  -0.00000
   0.00000  -0.00000  -0.00000  -0.00000  -0.00000  -0.00000  -0.00000  -0.00000
   0.00000   0.00000  -0.00000   0.00020   0.00002  -0.00000  -0.00295  -0.00032
   0.00000   0.00000  -0.00020  -0.00000  -0.00000   0.00295  -0.00000  -0.00000
   0.00000   0.00000   0.00002   0.00000  -0.00000  -0.00032  -0.00000  -0.00000
   0.00000   0.00000   0.00000  -0.00295  -0.00032  -0.00000   0.04871   0.00608
   0.00000   0.00000   0.00295   0.00000   0.00000  -0.04871  -0.00000  -0.00000
   0.00000   0.00000  -0.00032   0.00000   0.00000   0.00608   0.00000  -0.00000


 Augmentation waves occupancies Rhoij:
 Atom #  1 - Component dens (n)
   === REAL PART:
   1.61232   0.00771  -0.00000  -0.00000  -0.00000   0.00000   0.00000   0.00000
   0.00771   0.00004   0.00000   0.00000   0.00000   0.00000   0.00000   0.00000
  -0.00000   0.00000   1.15761  -0.00000  -0.00000   0.00670  -0.00000  -0.00000
  -0.00000   0.00000  -0.00000   1.15761  -0.00000  -0.00000   0.00670  -0.00000
  -0.00000   0.00000  -0.00000  -0.00000   1.15761  -0.00000  -0.00000   0.00670
   0.00000   0.00000   0.00670  -0.00000  -0.00000   0.00004  -0.00000  -0.00000
   0.00000   0.00000  -0.00000   0.00670  -0.00000  -0.00000   0.00004  -0.00000
   0.00000   0.00000  -0.00000  -0.00000   0.00670  -0.00000  -0.00000   0.00004
   === IMAGINARY PART:
   0.00000  -0.00000   0.00000  -0.00000   0.00000   0.00000   0.00000  -0.00000
   0.00000   0.00000  -0.00000   0.00000  -0.00000  -0.00000  -0.00000  -0.00000
  -0.00000   0.00000  -0.00000   0.00003   0.00000   0.00000   0.00000   0.00000
   0.00000  -0.00000  -0.00003  -0.00000  -0.00000  -0.00000  -0.00000  -0.00000
  -0.00000   0.00000  -0.00000   0.00000   0.00000   0.00000  -0.00000  -0.00000
  -0.00000   0.00000  -0.00000   0.00000  -0.00000   0.00000  -0.00000  -0.00000
  -0.00000   0.00000  -0.00000   0.00000   0.00000   0.00000   0.00000   0.00000
   0.00000   0.00000  -0.00000   0.00000   0.00000   0.00000  -0.00000  -0.00000
 Atom #  1 - Component magn (x)
   === REAL PART:
   0.00000   0.00000   0.00000   0.00000   0.00000   0.00000   0.00000   0.00000
   0.00000   0.00000   0.00000   0.00000   0.00000   0.00000   0.00000   0.00000
   0.00000   0.00000   0.00000   0.00000   0.00000   0.00000   0.00000   0.00000
   0.00000   0.00000   0.00000   0.00000   0.00000   0.00000   0.00000   0.00000
   0.00000   0.00000   0.00000   0.00000   0.00000   0.00000   0.00000   0.00000
   0.00000   0.00000   0.00000   0.00000   0.00000   0.00000   0.00000   0.00000
   0.00000   0.00000   0.00000   0.00000   0.00000   0.00000   0.00000   0.00000
   0.00000   0.00000   0.00000   0.00000   0.00000   0.00000   0.00000   0.00000
   === IMAGINARY PART:
  -0.00000  -0.00000   0.00000  -0.00000  -0.00000  -0.00000   0.00000  -0.00000
   0.00000  -0.00000  -0.00000   0.00000   0.00000  -0.00000  -0.00000  -0.00000
  -0.00000   0.00000   0.00000   0.00543  -0.00000  -0.00000  -0.00002  -0.00000
   0.00000  -0.00000  -0.00543   0.00000   0.00000   0.00002  -0.00000   0.00000
   0.00000  -0.00000   0.00000  -0.00000   0.00000  -0.00000   0.00000   0.00000
   0.00000   0.00000   0.00000  -0.00002   0.00000  -0.00000  -0.00000   0.00000
  -0.00000   0.00000   0.00002   0.00000  -0.00000   0.00000   0.00000  -0.00000
   0.00000   0.00000   0.00000  -0.00000  -0.00000  -0.00000   0.00000   0.00000
 Atom #  1 - Component magn (y)
   === REAL PART:
   0.00000   0.00000   0.00000   0.00000   0.00000   0.00000   0.00000   0.00000
   0.00000   0.00000   0.00000   0.00000   0.00000   0.00000   0.00000   0.00000
   0.00000   0.00000   0.00000   0.00000   0.00000   0.00000   0.00000   0.00000
   0.00000   0.00000   0.00000   0.00000   0.00000   0.00000   0.00000   0.00000
   0.00000   0.00000   0.00000   0.00000   0.00000   0.00000   0.00000   0.00000
   0.00000   0.00000   0.00000   0.00000   0.00000   0.00000   0.00000   0.00000
   0.00000   0.00000   0.00000   0.00000   0.00000   0.00000   0.00000   0.00000
   0.00000   0.00000   0.00000   0.00000   0.00000   0.00000   0.00000   0.00000
   === IMAGINARY PART:
  -0.00000  -0.00000  -0.00000   0.00000  -0.00000  -0.00000  -0.00000   0.00000
   0.00000  -0.00000   0.00000  -0.00000   0.00000  -0.00000  -0.00000  -0.00000
   0.00000  -0.00000  -0.00000   0.00000  -0.00000  -0.00000  -0.00000   0.00000
  -0.00000   0.00000  -0.00000  -0.00000   0.00543  -0.00000  -0.00000  -0.00002
   0.00000  -0.00000   0.00000  -0.00543  -0.00000   0.00000   0.00002   0.00000
   0.00000   0.00000   0.00000   0.00000  -0.00000  -0.00000  -0.00000   0.00000
   0.00000   0.00000   0.00000   0.00000  -0.00002   0.00000  -0.00000  -0.00000
  -0.00000   0.00000  -0.00000   0.00002  -0.00000  -0.00000   0.00000  -0.00000
 Atom #  1 - Component magn (z)
   === REAL PART:
   0.00000   0.00000   0.00000   0.00000   0.00000   0.00000   0.00000   0.00000
   0.00000   0.00000   0.00000   0.00000   0.00000   0.00000   0.00000   0.00000
   0.00000   0.00000   0.00000   0.00000   0.00000   0.00000   0.00000   0.00000
   0.00000   0.00000   0.00000   0.00000   0.00000   0.00000   0.00000   0.00000
   0.00000   0.00000   0.00000   0.00000   0.00000   0.00000   0.00000   0.00000
   0.00000   0.00000   0.00000   0.00000   0.00000   0.00000   0.00000   0.00000
   0.00000   0.00000   0.00000   0.00000   0.00000   0.00000   0.00000   0.00000
   0.00000   0.00000   0.00000   0.00000   0.00000   0.00000   0.00000   0.00000
   === IMAGINARY PART:
  -0.00000   0.00000  -0.00000   0.00000   0.00000   0.00000   0.00000  -0.00000
  -0.00000  -0.00000   0.00000  -0.00000  -0.00000  -0.00000  -0.00000  -0.00000
   0.00000  -0.00000   0.00000   0.00000  -0.00543   0.00000   0.00000   0.00002
  -0.00000   0.00000  -0.00000   0.00000   0.00000   0.00000   0.00000  -0.00000
  -0.00000   0.00000   0.00543  -0.00000   0.00000  -0.00002  -0.00000  -0.00000
  -0.00000   0.00000  -0.00000  -0.00000   0.00002   0.00000  -0.00000   0.00000
  -0.00000   0.00000  -0.00000  -0.00000   0.00000   0.00000  -0.00000  -0.00000
   0.00000   0.00000  -0.00002   0.00000   0.00000  -0.00000   0.00000   0.00000
 Atom #  2 - Component dens (n)
   === REAL PART:
   1.08530  -0.00266  -0.00000  -0.00000  -0.00000   0.00000   0.00000   0.00000
  -0.00266   0.00001  -0.00000  -0.00000   0.00000   0.00000   0.00000   0.00000
  -0.00000  -0.00000   0.82033  -0.00000   0.00000  -0.00091  -0.00000  -0.00000
  -0.00000  -0.00000  -0.00000   0.82033   0.00000  -0.00000  -0.00091  -0.00000
  -0.00000   0.00000   0.00000   0.00000   0.82033  -0.00000  -0.00000  -0.00091
   0.00000   0.00000  -0.00091  -0.00000  -0.00000   0.00000   0.00000   0.00000
   0.00000   0.00000  -0.00000  -0.00091  -0.00000   0.00000   0.00000   0.00000
   0.00000   0.00000  -0.00000  -0.00000  -0.00091   0.00000   0.00000   0.00000
   === IMAGINARY PART:
  -0.00000  -0.00000  -0.00000   0.00000   0.00000  -0.00000  -0.00000  -0.00000
   0.00000   0.00000   0.00000  -0.00000  -0.00000  -0.00000  -0.00000  -0.00000
   0.00000  -0.00000  -0.00000   0.00131   0.00000  -0.00000   0.00000  -0.00000
  -0.00000   0.00000  -0.00131   0.00000  -0.00000  -0.00000   0.00000   0.00000
  -0.00000   0.00000  -0.00000   0.00000   0.00000  -0.00000   0.00000   0.00000
   0.00000   0.00000   0.00000   0.00000   0.00000  -0.00000  -0.00000  -0.00000
   0.00000   0.00000  -0.00000  -0.00000  -0.00000   0.00000   0.00000   0.00000
   0.00000   0.00000   0.00000  -0.00000  -0.00000   0.00000  -0.00000   0.00000
 Atom #  2 - Component magn (x)
   === REAL PART:
   0.00000   0.00000   0.00000   0.00000   0.00000   0.00000   0.00000   0.00000
   0.00000   0.00000   0.00000   0.00000   0.00000   0.00000   0.00000   0.00000
   0.00000   0.00000   0.00000   0.00000   0.00000   0.00000   0.00000   0.00000
   0.00000   0.00000   0.00000   0.00000   0.00000   0.00000   0.00000   0.00000
   0.00000   0.00000   0.00000   0.00000   0.00000   0.00000   0.00000   0.00000
   0.00000   0.00000   0.00000   0.00000   0.00000   0.00000   0.00000   0.00000
   0.00000   0.00000   0.00000   0.00000   0.00000   0.00000   0.00000   0.00000
   0.00000   0.00000   0.00000   0.00000   0.00000   0.00000   0.00000   0.00000
   === IMAGINARY PART:
  -0.00000   0.00000  -0.00000   0.00000  -0.00000  -0.00000  -0.00000  -0.00000
  -0.00000  -0.00000   0.00000  -0.00000  -0.00000  -0.00000  -0.00000  -0.00000
   0.00000  -0.00000  -0.00000   0.00405   0.00000  -0.00000   0.00001  -0.00000
  -0.00000   0.00000  -0.00405  -0.00000  -0.00000  -0.00001   0.00000   0.00000
   0.00000   0.00000  -0.00000   0.00000   0.00000  -0.00000   0.00000   0.00000
   0.00000   0.00000   0.00000   0.00001   0.00000  -0.00000  -0.00000  -0.00000
   0.00000   0.00000  -0.00001  -0.00000  -0.00000   0.00000  -0.00000   0.00000
   0.00000   0.00000   0.00000  -0.00000  -0.00000   0.00000  -0.00000  -0.00000
 Atom #  2 - Component magn (y)
   === REAL PART:
   0.00000   0.00000   0.00000   0.00000   0.00000   0.00000   0.00000   0.00000
   0.00000   0.00000   0.00000   0.00000   0.00000   0.00000   0.00000   0.00000
   0.00000   0.00000   0.00000   0.00000   0.00000   0.00000   0.00000   0.00000
   0.00000   0.00000   0.00000   0.00000   0.00000   0.00000   0.00000   0.00000
   0.00000   0.00000   0.00000   0.00000   0.00000   0.00000   0.00000   0.00000
   0.00000   0.00000   0.00000   0.00000   0.00000   0.00000   0.00000   0.00000
   0.00000   0.00000   0.00000   0.00000   0.00000   0.00000   0.00000   0.00000
   0.00000   0.00000   0.00000   0.00000   0.00000   0.00000   0.00000   0.00000
   === IMAGINARY PART:
  -0.00000  -0.00000  -0.00000  -0.00000   0.00000  -0.00000  -0.00000  -0.00000
   0.00000  -0.00000  -0.00000   0.00000  -0.00000  -0.00000  -0.00000  -0.00000
   0.00000   0.00000  -0.00000  -0.00000   0.00000  -0.00000  -0.00000   0.00000
   0.00000  -0.00000   0.00000  -0.00000   0.00405  -0.00000  -0.00000   0.00001
  -0.00000   0.00000  -0.00000  -0.00405  -0.00000   0.00000  -0.00001   0.00000
   0.00000   0.00000   0.00000   0.00000  -0.00000  -0.00000   0.00000  -0.00000
   0.00000   0.00000   0.00000   0.00000   0.00001  -0.00000  -0.00000  -0.00000
   0.00000   0.00000  -0.00000  -0.00001  -0.00000   0.00000   0.00000  -0.00000
 Atom #  2 - Component magn (z)
   === REAL PART:
   0.00000   0.00000   0.00000   0.00000   0.00000   0.00000   0.00000   0.00000
   0.00000   0.00000   0.00000   0.00000   0.00000   0.00000   0.00000   0.00000
   0.00000   0.00000   0.00000   0.00000   0.00000   0.00000   0.00000   0.00000
   0.00000   0.00000   0.00000   0.00000   0.00000   0.00000   0.00000   0.00000
   0.00000   0.00000   0.00000   0.00000   0.00000   0.00000   0.00000   0.00000
   0.00000   0.00000   0.00000   0.00000   0.00000   0.00000   0.00000   0.00000
   0.00000   0.00000   0.00000   0.00000   0.00000   0.00000   0.00000   0.00000
   0.00000   0.00000   0.00000   0.00000   0.00000   0.00000   0.00000   0.00000
   === IMAGINARY PART:
   0.00000  -0.00000   0.00000   0.00000  -0.00000  -0.00000  -0.00000  -0.00000
   0.00000   0.00000  -0.00000   0.00000  -0.00000  -0.00000  -0.00000  -0.00000
  -0.00000   0.00000  -0.00000  -0.00000  -0.00405   0.00000   0.00000  -0.00001
  -0.00000  -0.00000   0.00000   0.00000  -0.00000   0.00000   0.00000  -0.00000
   0.00000   0.00000   0.00405   0.00000  -0.00000   0.00001  -0.00000  -0.00000
   0.00000   0.00000  -0.00000  -0.00000  -0.00001  -0.00000   0.00000   0.00000
   0.00000   0.00000  -0.00000  -0.00000   0.00000  -0.00000  -0.00000   0.00000
   0.00000   0.00000   0.00001   0.00000   0.00000  -0.00000  -0.00000  -0.00000


================================================================================

 ----iterations are completed or convergence reached----

 Mean square residual over all n,k,spin=   49.996E-16; max=  16.394E-15
 reduced coordinates (array xred) for    2 atoms
       0.250000000000      0.250000000000      0.250000000000
       0.000000000000      0.000000000000      0.000000000000
 rms dE/dt=  0.0000E+00; max dE/dt=  0.0000E+00; dE/dt below (all hartree)
    1       0.000000000000      0.000000000000      0.000000000000
    2       0.000000000000      0.000000000000      0.000000000000

 cartesian coordinates (angstrom) at end:
    1      1.36274997628497     1.36274997628497     1.36274997628497
    2      0.00000000000000     0.00000000000000     0.00000000000000
 length scales= 10.300896971100 10.300896971100 10.300896971100 bohr
              =  5.450999905140  5.450999905140  5.450999905140 angstroms
 Fermi (or HOMO) energy (hartree) =   0.17468   Average Vxc (hartree)=  -0.35415
 Eigenvalues (hartree) for nkpt=  32  k points:
 kpt#   1, nband=  8, wtk=  0.03125, kpt= -0.2500  0.5000  0.0000 (reduced coord)
  -0.17745   -0.17732    0.00495    0.00541    0.08992    0.09024    0.13183    0.13186
 prteigrs : prtvol=0 or 1, do not print more k-points.


--- !EnergyTerms
iteration_state     : {dtset: 1, }
comment             : Components of total free energy in Hartree
kinetic             :  3.59107700270576E+00
hartree             :  9.29411769994527E-01
xc                  : -4.84088604176038E+00
Ewald energy        : -8.73435537339883E+00
psp_core            : -6.14791273485205E-02
local_psp           : -3.06971757901727E+00
PAW spherical_terms :  7.02109220830543E+00
nucl. magn. dipoles : -8.88515471529508E-09
total_energy        : -5.16485714940443E+00
total_energy_eV     : -1.40542910474509E+02
...


--- !EnergyTermsDC
iteration_state     : {dtset: 1, }
comment             : '"Double-counting" decomposition of free energy'
band_energy         :  1.71089444208779E-01
Ewald energy        : -8.73435537339883E+00
psp_core            : -6.14791273485205E-02
xc_dc               : -1.77042112344180E+00
PAW spherical_terms :  5.23030583194018E+00
total_energy_dc     : -5.16486034804018E+00
total_energy_dc_eV  : -1.40542997513815E+02
...


--- !EnergyTermsWithPAWCore
iteration_state     : {dtset: 1, }
comment             : 'Components of total free energy, including PAW core contributions'
Total energy        : -5.85200839083564E+02
Total energy DC     : -5.85200842282200E+02
Total energy (eV)   : -1.59241246674970E+04
Total energy DC (eV): -1.59241247545363E+04
...


================================================================================
== DATASET  2 ==================================================================
-   mpi_nproc: 1, omp_nthreads: -1 (-1 if OMP is not activated)


--- !DatasetInfo
iteration_state: {dtset: 2, }
dimensions: {natom: 2, nkpt: 32, mband: 8, nsppol: 1, nspinor: 2, nspden: 1, mpw: 150, }
cutoff_energies: {ecut:   5.0, pawecutdg:  10.0, }
electrons: {nelect:   8.00000000E+00, charge:   0.00000000E+00, occopt:   1.00000000E+00, tsmear:   1.00000000E-02, }
meta: {optdriver: 1, rfddk: 1, }
...

 mkfilename : getwfk/=0, take file _WFK from output of DATASET   1.

 Real(R)+Recip(G) space primitive vectors, cartesian coordinates (Bohr,Bohr^-1):
 R(1)=  0.0000000  5.1504485  5.1504485  G(1)= -0.0970789  0.0970789  0.0970789
 R(2)=  5.1504485  0.0000000  5.1504485  G(2)=  0.0970789 -0.0970789  0.0970789
 R(3)=  5.1504485  5.1504485  0.0000000  G(3)=  0.0970789  0.0970789 -0.0970789
 Unit cell volume ucvol=  2.7325313E+02 bohr^3
 Angles (23,13,12)=  6.00000000E+01  6.00000000E+01  6.00000000E+01 degrees

 Coarse grid specifications (used for wave-functions):

 getcut: wavevector=  0.0000  0.0000  0.0000  ngfft=  16  16  16
         ecut(hartree)=      5.000   => boxcut(ratio)=   2.18228

 Fine grid specifications (used for densities):

 getcut: wavevector=  0.0000  0.0000  0.0000  ngfft=  24  24  24
         ecut(hartree)=     10.000   => boxcut(ratio)=   2.31465

 getcut : COMMENT -
  Note that boxcut > 2.2 ; recall that boxcut=Gcut(box)/Gcut(sphere) = 2
  is sufficient for exact treatment of convolution.
  Such a large boxcut is a waste : you could raise ecut
  e.g. ecut=   13.394057 Hartrees makes boxcut=2


--- Pseudopotential description ------------------------------------------------
- pspini: atom type   1  psp file is /home/buildbot/ABINIT3/eos_gnu_13.2_mpichT/trunk_develop/tests/Pspdir/P.GGA_X_PBE+GGA_C_PBE.xml
- pspatm: opening atomic psp file    /home/buildbot/ABINIT3/eos_gnu_13.2_mpichT/trunk_develop/tests/Pspdir/P.GGA_X_PBE+GGA_C_PBE.xml
- pspatm : Reading pseudopotential header in XML form from /home/buildbot/ABINIT3/eos_gnu_13.2_mpichT/trunk_develop/tests/Pspdir/P.GGA_X_PBE+GGA_C_PBE.xml
 Pseudopotential format is: paw10
 basis_size (lnmax)=  4 (lmn_size=  8), orbitals=   0   0   1   1
 Spheres core radius: rc_sph= 1.90690075
 1 radial meshes are used:
  - mesh 1: r(i)=AA*[exp(BB*(i-1))-1], size=2001 , AA= 0.40634E-03 BB= 0.60952E-02
 Shapefunction is SIN type: shapef(r)=[sin(pi*r/rshp)/(pi*r/rshp)]**2
 Radius for shape functions =  1.60765221
 mmax= 2001
 Radial grid used for partial waves is grid 1
 Radial grid used for projectors is grid 1
 Radial grid used for (t)core density is grid 1
 Radial grid used for (t)coretau kinetic density is grid 1
 Radial grid used for Vloc is grid 1
 Radial grid used for pseudo valence density is grid 1
 Mesh size for Vloc has been set to 1773 to avoid numerical noise.
 Compensation charge density is not taken into account in XC energy/potential
 pspatm: atomic psp has been read  and splines computed

- pspini: atom type   2  psp file is /home/buildbot/ABINIT3/eos_gnu_13.2_mpichT/trunk_develop/tests/Pspdir/Al.GGA_X_PBE+GGA_C_PBE.xml
- pspatm: opening atomic psp file    /home/buildbot/ABINIT3/eos_gnu_13.2_mpichT/trunk_develop/tests/Pspdir/Al.GGA_X_PBE+GGA_C_PBE.xml
- pspatm : Reading pseudopotential header in XML form from /home/buildbot/ABINIT3/eos_gnu_13.2_mpichT/trunk_develop/tests/Pspdir/Al.GGA_X_PBE+GGA_C_PBE.xml
 Pseudopotential format is: paw10
 basis_size (lnmax)=  4 (lmn_size=  8), orbitals=   0   0   1   1
 Spheres core radius: rc_sph= 1.90363307
 1 radial meshes are used:
  - mesh 1: r(i)=AA*[exp(BB*(i-1))-1], size=2001 , AA= 0.46377E-03 BB= 0.60291E-02
 Shapefunction is SIN type: shapef(r)=[sin(pi*r/rshp)/(pi*r/rshp)]**2
 Radius for shape functions =  1.60786206
 mmax= 2001
 Radial grid used for partial waves is grid 1
 Radial grid used for projectors is grid 1
 Radial grid used for (t)core density is grid 1
 Radial grid used for (t)coretau kinetic density is grid 1
 Radial grid used for Vloc is grid 1
 Radial grid used for pseudo valence density is grid 1
 Mesh size for Vloc has been set to 1771 to avoid numerical noise.
 Compensation charge density is not taken into account in XC energy/potential
 pspatm: atomic psp has been read  and splines computed

--------------------------------------------------------------------------------


 ==>  initialize data related to q vector <== 

 The list of irreducible perturbations for this q vector is:
    1)    idir= 1    ipert=   3
    2)    idir= 2    ipert=   3
    3)    idir= 3    ipert=   3

================================================================================

--------------------------------------------------------------------------------
 Perturbation wavevector (in red.coord.)   0.000000  0.000000  0.000000
 Perturbation : derivative vs k along direction   1
 The set of symmetries contains only one element for this perturbation.
 symkpt : not enough symmetry to change the number of k points.

--------------------------------------------------------------------------------

--------------------------------------------------------------------------------

 Initialisation of the first-order wave-functions :
  ireadwf=   0

--- !BeginCycle
iteration_state: {dtset: 2, }
solver: {iscf: -3, nstep: 10, nline: 4, wfoptalg: 10, }
tolerances: {tolwfr: 1.00E-20, }
...

     iter   2DEtotal(Ha)        deltaE(Ha) residm    vres2
-ETOT  1  -9.9020104144903     -9.902E+00 8.507E-03 0.000E+00
 ETOT  2  -9.9039089566020     -1.899E-03 4.259E-06 0.000E+00
 ETOT  3  -9.9039098197631     -8.632E-07 2.018E-09 0.000E+00
 ETOT  4  -9.9039098204744     -7.113E-10 1.298E-12 0.000E+00
 ETOT  5  -9.9039098204751     -6.875E-13 1.551E-15 0.000E+00
 ETOT  6  -9.9039098204751      7.105E-15 1.105E-18 0.000E+00
 ETOT  7  -9.9039098204751      2.132E-14 7.751E-21 0.000E+00

 At SCF step    7   max residual=  7.75E-21 < tolwfr=  1.00E-20 =>converged.
================================================================================

 ----iterations are completed or convergence reached----

 Mean square residual over all n,k,spin=   27.748E-22; max=  77.506E-22
 dfpt_looppert : ek2=    1.7858742990E+01
          f-sum rule ratio=    1.1827082642E+00
 Expectation of eigenvalue derivatives (hartree) for nkpt=  32  k points:
  (in case of degenerate eigenvalues, averaged derivative)
 kpt#   1, nband=  8, wtk=  0.03125, kpt= -0.2500  0.5000  0.0000 (reduced coord)
  -0.07555   -0.07519   -0.08656   -0.08772    0.20510    0.20532    0.15464    0.15462
 prteigrs : prtvol=0 or 1, do not print more k-points.


 Nine components of 2nd-order total energy (hartree) are
 1,2,3: 0th-order hamiltonian combined with 1st-order wavefunctions
     kin0=   2.61942226E+01 eigvalue=  -6.09050209E+00  local=  -2.85307330E+01  evxctau0=   1.07084456E+00
 4,5,6: 1st-order hamiltonian combined with 1st and 0th-order wfs
     kin1=  -2.11216829E+01  Hartree=   0.00000000E+00     xc=   0.00000000E+00  evxctau1=  -1.01172631E+00  nclr dpl1=   4.79487913E-09
 7,8,9: eventually, occupation + non-local contributions
    edocc=   0.00000000E+00     enl0=   1.71482083E+01   enl1=   2.43745906E+00
 10: eventually, PAW "on-site" Hxc contribution: epaw1=   0.00000000E+00
 1-10 gives the relaxation energy (to be shifted if some occ is /=2.0)
   erelax=  -9.90390982E+00
 11 Contribution from 1st-order change of wavefunctions overlap
 eovl1 =  -5.59347309E-02
  No Ewald or frozen-wf contrib.: the relaxation energy is the total one
 2DEtotal=   -0.9903909820E+01 Ha. Also 2DEtotal=   -0.269499091840E+03 eV
    (  non-var. 2DEtotal :   -9.9039098164E+00 Ha)

--------------------------------------------------------------------------------
 Perturbation wavevector (in red.coord.)   0.000000  0.000000  0.000000
 Perturbation : derivative vs k along direction   2
 The set of symmetries contains only one element for this perturbation.
 symkpt : not enough symmetry to change the number of k points.

--------------------------------------------------------------------------------

--------------------------------------------------------------------------------

 Initialisation of the first-order wave-functions :
  ireadwf=   0

--- !BeginCycle
iteration_state: {dtset: 2, }
solver: {iscf: -3, nstep: 10, nline: 4, wfoptalg: 10, }
tolerances: {tolwfr: 1.00E-20, }
...

     iter   2DEtotal(Ha)        deltaE(Ha) residm    vres2
-ETOT  1  -9.9020101774467     -9.902E+00 8.507E-03 0.000E+00
 ETOT  2  -9.9039087191448     -1.899E-03 4.259E-06 0.000E+00
 ETOT  3  -9.9039095823057     -8.632E-07 2.018E-09 0.000E+00
 ETOT  4  -9.9039095830170     -7.113E-10 1.298E-12 0.000E+00
 ETOT  5  -9.9039095830176     -6.004E-13 1.551E-15 0.000E+00
 ETOT  6  -9.9039095830176      1.954E-14 1.105E-18 0.000E+00
 ETOT  7  -9.9039095830176     -7.105E-15 7.751E-21 0.000E+00

 At SCF step    7   max residual=  7.75E-21 < tolwfr=  1.00E-20 =>converged.
================================================================================

 ----iterations are completed or convergence reached----

 Mean square residual over all n,k,spin=   27.748E-22; max=  77.507E-22
 dfpt_looppert : ek2=    1.7858742990E+01
          f-sum rule ratio=    1.1827082357E+00
 Expectation of eigenvalue derivatives (hartree) for nkpt=  32  k points:
  (in case of degenerate eigenvalues, averaged derivative)
 kpt#   1, nband=  8, wtk=  0.03125, kpt= -0.2500  0.5000  0.0000 (reduced coord)
  -0.12058   -0.12019    0.18652    0.18622    0.19881    0.19809   -0.04316   -0.04314
 prteigrs : prtvol=0 or 1, do not print more k-points.


 Nine components of 2nd-order total energy (hartree) are
 1,2,3: 0th-order hamiltonian combined with 1st-order wavefunctions
     kin0=   2.61942209E+01 eigvalue=  -6.09050157E+00  local=  -2.85307303E+01  evxctau0=   1.07084449E+00
 4,5,6: 1st-order hamiltonian combined with 1st and 0th-order wfs
     kin1=  -2.11216824E+01  Hartree=   0.00000000E+00     xc=   0.00000000E+00  evxctau1=  -1.01172629E+00  nclr dpl1=   4.79487972E-09
 7,8,9: eventually, occupation + non-local contributions
    edocc=   0.00000000E+00     enl0=   1.71482067E+01   enl1=   2.43745900E+00
 10: eventually, PAW "on-site" Hxc contribution: epaw1=   0.00000000E+00
 1-10 gives the relaxation energy (to be shifted if some occ is /=2.0)
   erelax=  -9.90390958E+00
 11 Contribution from 1st-order change of wavefunctions overlap
 eovl1 =  -5.59347301E-02
  No Ewald or frozen-wf contrib.: the relaxation energy is the total one
 2DEtotal=   -0.9903909583E+01 Ha. Also 2DEtotal=   -0.269499085378E+03 eV
    (  non-var. 2DEtotal :   -9.9039095794E+00 Ha)

--------------------------------------------------------------------------------
 Perturbation wavevector (in red.coord.)   0.000000  0.000000  0.000000
 Perturbation : derivative vs k along direction   3
 The set of symmetries contains only one element for this perturbation.
 symkpt : not enough symmetry to change the number of k points.

--------------------------------------------------------------------------------

--------------------------------------------------------------------------------

 Initialisation of the first-order wave-functions :
  ireadwf=   0

--- !BeginCycle
iteration_state: {dtset: 2, }
solver: {iscf: -3, nstep: 10, nline: 4, wfoptalg: 10, }
tolerances: {tolwfr: 1.00E-20, }
...

     iter   2DEtotal(Ha)        deltaE(Ha) residm    vres2
-ETOT  1  -9.9020101747457     -9.902E+00 8.507E-03 0.000E+00
 ETOT  2  -9.9039087164401     -1.899E-03 4.259E-06 0.000E+00
 ETOT  3  -9.9039095796009     -8.632E-07 2.018E-09 0.000E+00
 ETOT  4  -9.9039095803123     -7.113E-10 1.298E-12 0.000E+00
 ETOT  5  -9.9039095803129     -6.182E-13 1.551E-15 0.000E+00
 ETOT  6  -9.9039095803129     -8.882E-15 1.105E-18 0.000E+00
 ETOT  7  -9.9039095803129      3.553E-15 7.751E-21 0.000E+00

 At SCF step    7   max residual=  7.75E-21 < tolwfr=  1.00E-20 =>converged.
================================================================================

 ----iterations are completed or convergence reached----

 Mean square residual over all n,k,spin=   27.748E-22; max=  77.507E-22
 dfpt_looppert : ek2=    1.7858742990E+01
          f-sum rule ratio=    1.1827082353E+00
 Expectation of eigenvalue derivatives (hartree) for nkpt=  32  k points:
  (in case of degenerate eigenvalues, averaged derivative)
 kpt#   1, nband=  8, wtk=  0.03125, kpt= -0.2500  0.5000  0.0000 (reduced coord)
   0.09809    0.09762   -0.05036   -0.04887   -0.20197   -0.20184   -0.05565   -0.05531
 prteigrs : prtvol=0 or 1, do not print more k-points.


 Nine components of 2nd-order total energy (hartree) are
 1,2,3: 0th-order hamiltonian combined with 1st-order wavefunctions
     kin0=   2.61942209E+01 eigvalue=  -6.09050157E+00  local=  -2.85307303E+01  evxctau0=   1.07084449E+00
 4,5,6: 1st-order hamiltonian combined with 1st and 0th-order wfs
     kin1=  -2.11216824E+01  Hartree=   0.00000000E+00     xc=   0.00000000E+00  evxctau1=  -1.01172629E+00  nclr dpl1=   4.79487954E-09
 7,8,9: eventually, occupation + non-local contributions
    edocc=   0.00000000E+00     enl0=   1.71482067E+01   enl1=   2.43745900E+00
 10: eventually, PAW "on-site" Hxc contribution: epaw1=   0.00000000E+00
 1-10 gives the relaxation energy (to be shifted if some occ is /=2.0)
   erelax=  -9.90390958E+00
 11 Contribution from 1st-order change of wavefunctions overlap
 eovl1 =  -5.59347301E-02
  No Ewald or frozen-wf contrib.: the relaxation energy is the total one
 2DEtotal=   -0.9903909580E+01 Ha. Also 2DEtotal=   -0.269499085305E+03 eV
    (  non-var. 2DEtotal :   -9.9039095767E+00 Ha)

====================================================

 Orbital magnetic moment computed with DFPT derivative wavefunctions 

 Orbital magnetic moment, Cartesian directions :
 -3.83069708E-04 -3.79679112E-09  6.68632967E-10


 Chern vector, Cartesian directions :
  2.52292801E-06  7.41581311E-11 -1.91060932E-12


 Orbital magnetic moment, term-by-term breakdown :
     rho(1) CC :   2.32708579E-04 -3.80318447E-09  6.96366029E-10
    rho(1) VV1 :  -6.15803711E-06 -5.92044759E-12  1.55835443E-13
    rho(1) VV2 :  -7.63613330E-10  4.41902971E-13 -1.10634957E-12
     rho(0) NL :   1.62821929E-04 -2.63836976E-11  2.64575179E-11
   <L_R> terms :  -3.28164607E-06  3.82527968E-11 -5.32417278E-11
 <A0.An> terms :  -2.39638514E-06  2.78811213E-15  1.66140351E-15
    Lamb terms :  -7.66763385E-04  0.00000000E+00  0.00000000E+00
 Chern vector, term-by-term breakdown :
  Ch CC :   2.37475113E-06  7.26499124E-11 -1.60408024E-12
 Ch vv1 :   1.48176884E-07  1.50821877E-12 -3.06529076E-13
 Ch vv2 :  -5.29395592E-23  5.23567395E-23 -1.55217899E-22


 Term-by-term breakdowns for each band :


 band   1 of   8
 Orbital magnetic moment :  -5.06235157E-04  2.14306237E-10 -2.32163395E-10
     rho(1) CC :  -1.47996623E-04 -4.77051689E-12 -1.45547229E-11
    rho(1) VV1 :   4.28470594E-05  1.22579924E-12 -6.77856647E-13
    rho(1) VV2 :  -1.04638620E-06  3.16658662E-13  8.20557534E-14
     rho(0) NL :  -4.00420698E-04  2.17094161E-10 -2.16770518E-10
   <L_R> terms :   5.34297059E-07  4.33895300E-13 -2.48554642E-13
 <A0.An> terms :  -1.52806323E-07  6.23955593E-15  6.20123703E-15


 Chern vector :  -2.91953486E-07  1.79804785E-13  2.68243112E-13
  Ch CC :   1.30931767E-07  1.95028214E-13  2.63240911E-13
 Ch VV1 :  -4.33397389E-07 -1.28597712E-14  6.15032545E-15
 Ch VV2 :   1.05121354E-08 -2.36365790E-15 -1.14812517E-15


 band   2 of   8
 Orbital magnetic moment :   5.36278850E-04 -4.17798260E-10  2.12335195E-10
     rho(1) CC :   1.54003439E-04 -3.16027589E-13  7.01825165E-13
    rho(1) VV1 :  -4.46943206E-05 -5.70925463E-12 -1.22508165E-12
    rho(1) VV2 :   1.03108927E-06 -7.39181562E-14 -1.30415697E-12
     rho(0) NL :   4.26721652E-04 -4.12294424E-10  2.13822499E-10
   <L_R> terms :  -6.30443357E-07  5.89081956E-13  3.33944005E-13
 <A0.An> terms :  -1.52565897E-07  6.28273602E-15  6.16531182E-15


 Chern vector :   3.08818390E-07 -1.92336563E-13 -2.23269486E-13
  Ch CC :  -1.32866014E-07 -2.51743998E-13 -2.48948394E-13
 Ch VV1 :   4.52063378E-07  5.87076507E-14  1.28597710E-14
 Ch VV2 :  -1.03789746E-08  6.99784623E-16  1.28191370E-14


 band   3 of   8
 Orbital magnetic moment :  -5.52080794E-04 -1.38082639E-10  3.76078612E-10
     rho(1) CC :  -2.33229326E-04 -6.55272253E-11  2.68377597E-10
    rho(1) VV1 :   6.86652962E-06 -2.21487312E-13  2.40308555E-13
    rho(1) VV2 :   3.15736796E-07  1.01761334E-13 -3.66547917E-14
     rho(0) NL :  -3.82145003E-04 -8.28085004E-11  1.17497745E-10
   <L_R> terms :   5.64482025E-05  1.03728430E-11 -1.00001053E-11
 <A0.An> terms :  -3.36933614E-07 -3.01388213E-17 -2.79171537E-16


 Chern vector :  -1.87422367E-05  9.23791536E-13 -1.23140499E-12
  Ch CC :  -1.85566067E-05  9.21150993E-13 -1.22587164E-12
 Ch VV1 :  -1.77935116E-07  5.28543577E-15 -6.40367684E-15
 Ch VV2 :  -7.69490082E-09 -2.64489279E-15  8.70326284E-16


 band   4 of   8
 Orbital magnetic moment :   7.00117036E-04 -2.02870618E-10  5.48050521E-11
     rho(1) CC :   3.05431036E-04 -2.96629819E-10  6.05524242E-11
    rho(1) VV1 :  -8.91874480E-06 -1.46386512E-12  1.87890460E-12
    rho(1) VV2 :  -2.95233485E-07  8.09772728E-14  1.46900967E-13
     rho(0) NL :   4.59282527E-04  7.41007424E-11  6.47119959E-13
   <L_R> terms :  -5.50456704E-05  2.10415568E-11 -8.42010937E-12
 <A0.An> terms :  -3.36878067E-07 -2.10850083E-16 -1.88203935E-16


 Chern vector :   1.80167129E-05  2.48983934E-12  5.17846571E-14
  Ch CC :   1.77832025E-05  2.45789365E-12  9.61687066E-14
 Ch VV1 :   2.26284614E-07  3.36870090E-14 -4.20738163E-14
 Ch VV2 :   7.22579741E-09 -1.74131250E-15 -2.31023325E-15


 band   5 of   8
 Orbital magnetic moment :  -1.18575028E-02 -4.69869023E-09 -8.09319061E-09
     rho(1) CC :  -2.08906680E-02 -8.27360040E-09 -1.15794108E-08
    rho(1) VV1 :  -1.24780302E-05  2.89272141E-11  2.88966697E-11
    rho(1) VV2 :   5.38022656E-08  1.46671668E-13  8.38891897E-14
     rho(0) NL :   1.09491391E-02  4.23732915E-09  4.15128456E-09
   <L_R> terms :  -1.90321101E-03 -6.91643100E-10 -6.94195626E-10
 <A0.An> terms :  -3.38734481E-07  1.50234627E-13  1.50685886E-13


 Chern vector :  -2.48646456E-03 -1.03629135E-09 -9.57694404E-10
  Ch CC :  -2.53321465E-03 -1.05504693E-09 -9.75320823E-10
 Ch VV1 :   4.65110137E-05  1.86623235E-11  1.75306636E-11
 Ch VV2 :   2.39069107E-07  9.32614857E-14  9.57556519E-14


 band   6 of   8
 Orbital magnetic moment :   1.25064836E-02  4.86589491E-09  7.85097360E-09
     rho(1) CC :   2.15027895E-02  8.43867618E-09  1.13560683E-08
    rho(1) VV1 :   1.10331772E-05 -2.87174842E-11 -2.89047743E-11
    rho(1) VV2 :  -5.38170152E-08 -1.40582042E-13 -7.79275096E-14
     rho(0) NL :  -1.09098240E-02 -4.28700453E-09 -4.17600005E-09
   <L_R> terms :   1.90287868E-03  7.42923514E-10  6.99730553E-10
 <A0.An> terms :  -3.39834430E-07  1.57812414E-13  1.57526154E-13


 Chern vector :   2.53450297E-03  1.10260867E-09  1.02488609E-09
  Ch CC :   2.58139937E-03  1.12063847E-09  1.04348879E-09
 Ch VV1 :  -4.66573871E-05 -1.79322344E-11 -1.84999164E-11
 Ch VV2 :  -2.39012058E-07 -9.75695389E-14 -1.02783459E-13


 band   7 of   8
 Orbital magnetic moment :  -1.72212866E-02 -3.18253334E-09 -3.58062781E-09
     rho(1) CC :  -2.85037728E-02 -3.63781579E-09 -3.61586181E-09
    rho(1) VV1 :   7.45476138E-07  4.41429320E-11  4.42143744E-11
    rho(1) VV2 :   5.47252553E-08  2.52162023E-13  2.59117047E-13
     rho(0) NL :   1.36522407E-02  4.38901622E-10  2.30420935E-11
   <L_R> terms :  -2.37018520E-03 -2.78534025E-11 -3.21203903E-11
 <A0.An> terms :  -3.69489808E-07 -1.60869986E-13 -1.61194054E-13


 Chern vector :  -3.21468342E-03 -2.52806120E-10 -2.50753455E-10
  Ch CC :  -3.27340389E-03 -2.54347263E-10 -2.52287462E-10
 Ch VV1 :   5.84221421E-05  1.52975364E-12  1.53087188E-12
 Ch VV2 :   2.98334006E-07  1.13889622E-14  3.13505212E-15


 band   8 of   8
 Orbital magnetic moment :   1.67779195E-02 -2.37017186E-10  4.08042233E-09
     rho(1) CC :   2.80461514E-02  3.67991290E-11  4.22049324E-09
    rho(1) VV1 :  -1.55918386E-06 -4.41043018E-11 -4.42667092E-11
    rho(1) VV2 :  -6.06804918E-08 -2.41827791E-13 -2.59573259E-13
     rho(0) NL :  -1.36321723E-02 -2.11701924E-10 -8.70659328E-11
   <L_R> terms :   2.36592950E-03 -1.76115916E-11 -8.32143923E-12
 <A0.An> terms :  -3.69142518E-07 -1.56670246E-13 -1.57255756E-13


 Chern vector :   3.16987660E-03  2.57245830E-10  1.82785803E-10
  Ch CC :   3.22836926E-03  2.58083305E-10  1.83630822E-10
 Ch VV1 :  -5.81946073E-05 -8.36444228E-13 -8.38680738E-13
 Ch VV2 :  -2.98055113E-07 -1.03083048E-15 -6.33835032E-15

====================================================

================================================================================

 ---- first-order wavefunction calculations are completed ----


 respfn : d/dk was computed, but no 2DTE, so no DDB output.

== END DATASET(S) ==============================================================
================================================================================
  
 -outvars: echo values of variables after computation  --------
            acell      1.0300896971E+01  1.0300896971E+01  1.0300896971E+01 Bohr
              amu      3.09737620E+01  2.69815390E+01
             ecut      5.00000000E+00 Hartree
           etotal1    -5.1648603480E+00
           etotal2    -9.9039095803E+00
            fcart1     9.9999999999E+99  9.9999999999E+99  9.9999999999E+99
                       9.9999999999E+99  9.9999999999E+99  9.9999999999E+99
-          fftalg         512
           getwfk1          0
           getwfk2         -1
             iscf1         17
             iscf2         -3
              ixc     -497498
           jdtset        1    2
              kpt     -2.50000000E-01  5.00000000E-01  0.00000000E+00
                       5.00000000E-01 -2.50000000E-01  0.00000000E+00
                      -2.50000000E-01 -2.50000000E-01  2.50000000E-01
                      -2.50000000E-01  0.00000000E+00  0.00000000E+00
                       5.00000000E-01  2.50000000E-01  0.00000000E+00
                      -2.50000000E-01  2.50000000E-01  2.50000000E-01
                       2.50000000E-01  5.00000000E-01  0.00000000E+00
                       5.00000000E-01  5.00000000E-01  2.50000000E-01
                      -2.50000000E-01  5.00000000E-01  5.00000000E-01
                       0.00000000E+00 -2.50000000E-01  0.00000000E+00
                       2.50000000E-01 -2.50000000E-01  2.50000000E-01
                       5.00000000E-01 -2.50000000E-01  5.00000000E-01
                      -2.50000000E-01 -2.50000000E-01 -2.50000000E-01
                       2.50000000E-01  0.00000000E+00  0.00000000E+00
                       5.00000000E-01  0.00000000E+00  2.50000000E-01
                      -2.50000000E-01  0.00000000E+00  5.00000000E-01
                       0.00000000E+00  2.50000000E-01  0.00000000E+00
                       2.50000000E-01  2.50000000E-01  2.50000000E-01
                       5.00000000E-01  2.50000000E-01  5.00000000E-01
                      -2.50000000E-01  2.50000000E-01 -2.50000000E-01
                       0.00000000E+00  5.00000000E-01  2.50000000E-01
                       2.50000000E-01  5.00000000E-01  5.00000000E-01
                       5.00000000E-01  5.00000000E-01 -2.50000000E-01
                       0.00000000E+00 -2.50000000E-01  5.00000000E-01
                       2.50000000E-01 -2.50000000E-01 -2.50000000E-01
                       0.00000000E+00  0.00000000E+00  2.50000000E-01
                       2.50000000E-01  0.00000000E+00  5.00000000E-01
                       5.00000000E-01  0.00000000E+00 -2.50000000E-01
                       0.00000000E+00  2.50000000E-01  5.00000000E-01
                       2.50000000E-01  2.50000000E-01 -2.50000000E-01
                       0.00000000E+00  5.00000000E-01 -2.50000000E-01
                       0.00000000E+00  0.00000000E+00 -2.50000000E-01
           kptopt           3
         kptrlatt        2   -2    2     -2    2    2     -2   -2    2
          kptrlen      2.06017939E+01
P           mkmem          32
P          mkqmem          32
P          mk1mem          32
            natom           2
            nband           8
           ndtset           2
            ngfft          16      16      16
          ngfftdg          24      24      24
             nkpt          32
          nspinor           2
            nstep          10
             nsym           1
           ntypat           2
        nucdipmom      0.0000000000E+00  0.0000000000E+00  0.0000000000E+00
                       1.0000000000E+00  0.0000000000E+00  0.0000000000E+00
              occ      1.000000  1.000000  1.000000  1.000000  1.000000  1.000000
                       1.000000  1.000000
        optdriver1          0
        optdriver2          1
        optforces           0
        optstress           0
           orbmag1          0
           orbmag2          2
        pawcpxocc           2
        pawecutdg      1.00000000E+01 Hartree
        pawspnorb           1
         pawxcdev           0
           prtden           0
           prteig           0
          prtkden           1
           prtpot1          0
           prtpot2          1
            prtwf1          1
            prtwf2          0
            rfddk1          0
            rfddk2          1
            rprim      0.0000000000E+00  5.0000000000E-01  5.0000000000E-01
                       5.0000000000E-01  0.0000000000E+00  5.0000000000E-01
                       5.0000000000E-01  5.0000000000E-01  0.0000000000E+00
           shiftk      5.00000000E-01  5.00000000E-01  5.00000000E-01
          spgroup           1
           strten1     9.9999999999E+99  9.9999999999E+99  9.9999999999E+99
                       9.9999999999E+99  9.9999999999E+99  9.9999999999E+99
        symmorphi           0
           tolvrs1     1.00000000E-18
           tolvrs2     0.00000000E+00
           tolwfr1     0.00000000E+00
           tolwfr2     1.00000000E-20
            typat      1  2
          usekden           1
        usexcnhat           0
           useylm           1
              wtk        0.03125    0.03125    0.03125    0.03125    0.03125    0.03125
                         0.03125    0.03125    0.03125    0.03125    0.03125    0.03125
                         0.03125    0.03125    0.03125    0.03125    0.03125    0.03125
                         0.03125    0.03125    0.03125    0.03125    0.03125    0.03125
                         0.03125    0.03125    0.03125    0.03125    0.03125    0.03125
                         0.03125    0.03125
           xangst      1.3627499763E+00  1.3627499763E+00  1.3627499763E+00
                       0.0000000000E+00  0.0000000000E+00  0.0000000000E+00
            xcart      2.5752242428E+00  2.5752242428E+00  2.5752242428E+00
                       0.0000000000E+00  0.0000000000E+00  0.0000000000E+00
             xred      2.5000000000E-01  2.5000000000E-01  2.5000000000E-01
                       0.0000000000E+00  0.0000000000E+00  0.0000000000E+00
            znucl       15.00000   13.00000
             zora           2

================================================================================

 The spacegroup number, the magnetic point group, and/or the number of symmetries
 have changed between the initial recognition based on the input file
 and a postprocessing based on the final acell, rprim, and xred.
 More details in the log file.


- Timing analysis has been suppressed with timopt=0



================================================================================

 Suggested references for the acknowledgment of ABINIT usage.

 The users of ABINIT have little formal obligations with respect to the ABINIT group
 (those specified in the GNU General Public License, http://www.gnu.org/copyleft/gpl.txt).
 However, it is common practice in the scientific literature,
 to acknowledge the efforts of people that have made the research possible.
 In this spirit, please find below suggested citations of work written by ABINIT developers,
 corresponding to implementations inside of ABINIT that you have used in the present run.
 Note also that it will be of great value to readers of publications presenting these results,
 to read papers enabling them to understand the theoretical formalism and details
 of the ABINIT implementation.
 For information on why they are suggested, see also https://docs.abinit.org/theory/acknowledgments.
-
- [1] Orbital magnetism and chemical shielding in the projector augmented-wave formalism.
- J.W. Zwanziger, M. Torrent, and X. Gonze Phys. Rev. B 107, 165157 (2023).
- Comment: to be cited in case the computation of orbital magnetism is used, i.e. orbmag>0.
- DOI and bibtex: see https://docs.abinit.org/theory/bibliography/#zwanziger2023
-
- [2] Projector augmented-wave approach to density-functional perturbation theory.
- C. Audouze, F. Jollet, M. Torrent and X. Gonze, Phys. Rev. B 73, 235101 (2006).
- Comparison between projector augmented-wave and ultrasoft pseudopotential formalisms
- at the density-functional perturbation theory level.
- C. Audouze, F. Jollet, M. Torrent and X. Gonze, Phys. Rev. B 78, 035105 (2008).
- Comment: to be cited in case the computation of response function with PAW, i.e. (rfphon=1 or rfelfd=1) and usepaw=1.
- Strong suggestion to cite these papers.
- DOI and bibtex: see https://docs.abinit.org/theory/bibliography/#audouze2006,
- and https://docs.abinit.org/theory/bibliography/#audouze2008
-
- [3] Implementation of the Projector Augmented-Wave Method in the ABINIT code.
- M. Torrent, F. Jollet, F. Bottin, G. Zerah, and X. Gonze Comput. Mat. Science 42, 337, (2008).
- Comment: PAW calculations. Strong suggestion to cite this paper.
- DOI and bibtex: see https://docs.abinit.org/theory/bibliography/#torrent2008
-
- [4] Libxc: A library of exchange and correlation functionals for density functional theory.
- M.A.L. Marques, M.J.T. Oliveira, T. Burnus, Computer Physics Communications 183, 2227 (2012).
- Comment: to be cited when LibXC is used (negative value of ixc)
- Strong suggestion to cite this paper.
- DOI and bibtex: see https://docs.abinit.org/theory/bibliography/#marques2012
-
- [5] The Abinit project: Impact, environment and recent developments.
- Computer Phys. Comm. 248, 107042 (2020).
- X.Gonze, B. Amadon, G. Antonius, F.Arnardi, L.Baguet, J.-M.Beuken,
- J.Bieder, F.Bottin, J.Bouchet, E.Bousquet, N.Brouwer, F.Bruneval,
- G.Brunin, T.Cavignac, J.-B. Charraud, Wei Chen, M.Cote, S.Cottenier,
- J.Denier, G.Geneste, Ph.Ghosez, M.Giantomassi, Y.Gillet, O.Gingras,
- D.R.Hamann, G.Hautier, Xu He, N.Helbig, N.Holzwarth, Y.Jia, F.Jollet,
- W.Lafargue-Dit-Hauret, K.Lejaeghere, M.A.L.Marques, A.Martin, C.Martins,
- H.P.C. Miranda, F.Naccarato, K. Persson, G.Petretto, V.Planes, Y.Pouillon,
- S.Prokhorenko, F.Ricci, G.-M.Rignanese, A.H.Romero, M.M.Schmitt, M.Torrent,
- M.J.van Setten, B.Van Troeye, M.J.Verstraete, G.Zerah and J.W.Zwanzig
- Comment: the fifth generic paper describing the ABINIT project.
- Note that a version of this paper, that is not formatted for Computer Phys. Comm. 
- is available at https://www.abinit.org/sites/default/files/ABINIT20.pdf .
- The licence allows the authors to put it on the Web.
- DOI and bibtex: see https://docs.abinit.org/theory/bibliography/#gonze2020
-
- [6] ABINIT: Overview, and focus on selected capabilities
- J. Chem. Phys. 152, 124102 (2020).
- A. Romero, D.C. Allan, B. Amadon, G. Antonius, T. Applencourt, L.Baguet,
- J.Bieder, F.Bottin, J.Bouchet, E.Bousquet, F.Bruneval,
- G.Brunin, D.Caliste, M.Cote,
- J.Denier, C. Dreyer, Ph.Ghosez, M.Giantomassi, Y.Gillet, O.Gingras,
- D.R.Hamann, G.Hautier, F.Jollet, G. Jomard,
- A.Martin, 
- H.P.C. Miranda, F.Naccarato, G.Petretto, N.A. Pike, V.Planes,
- S.Prokhorenko, T. Rangel, F.Ricci, G.-M.Rignanese, M.Royo, M.Stengel, M.Torrent,
- M.J.van Setten, B.Van Troeye, M.J.Verstraete, J.Wiktor, J.W.Zwanziger, and X.Gonze.
- Comment: a global overview of ABINIT, with focus on selected capabilities .
- Note that a version of this paper, that is not formatted for J. Chem. Phys 
- is available at https://www.abinit.org/sites/default/files/ABINIT20_JPC.pdf .
- The licence allows the authors to put it on the Web.
- DOI and bibtex: see https://docs.abinit.org/theory/bibliography/#romero2020
-
- [7] Recent developments in the ABINIT software package.
- Computer Phys. Comm. 205, 106 (2016).
- X.Gonze, F.Jollet, F.Abreu Araujo, D.Adams, B.Amadon, T.Applencourt,
- C.Audouze, J.-M.Beuken, J.Bieder, A.Bokhanchuk, E.Bousquet, F.Bruneval
- D.Caliste, M.Cote, F.Dahm, F.Da Pieve, M.Delaveau, M.Di Gennaro,
- B.Dorado, C.Espejo, G.Geneste, L.Genovese, A.Gerossier, M.Giantomassi,
- Y.Gillet, D.R.Hamann, L.He, G.Jomard, J.Laflamme Janssen, S.Le Roux,
- A.Levitt, A.Lherbier, F.Liu, I.Lukacevic, A.Martin, C.Martins,
- M.J.T.Oliveira, S.Ponce, Y.Pouillon, T.Rangel, G.-M.Rignanese,
- A.H.Romero, B.Rousseau, O.Rubel, A.A.Shukri, M.Stankovski, M.Torrent,
- M.J.Van Setten, B.Van Troeye, M.J.Verstraete, D.Waroquier, J.Wiktor,
- B.Xu, A.Zhou, J.W.Zwanziger.
- Comment: the fourth generic paper describing the ABINIT project.
- Note that a version of this paper, that is not formatted for Computer Phys. Comm. 
- is available at https://www.abinit.org/sites/default/files/ABINIT16.pdf .
- The licence allows the authors to put it on the Web.
- DOI and bibtex: see https://docs.abinit.org/theory/bibliography/#gonze2016
-
- Proc.   0 individual time (sec): cpu=         50.8  wall=         50.9

================================================================================

 Calculation completed.
.Delivered  26 WARNINGs and  19 COMMENTs to log file.
+Overall time at end (sec) : cpu=         50.8  wall=         50.9
