
.Version 10.4.5.4 of ABINIT, released Jul 2025.
.(MPI version, prepared for a x86_64_linux_intel2021.10 computer) 

.Copyright (C) 1998-2025 ABINIT group . 
 ABINIT comes with ABSOLUTELY NO WARRANTY.
 It is free software, and you are welcome to redistribute it
 under certain conditions (GNU General Public License,
 see ~abinit/COPYING or http://www.gnu.org/copyleft/gpl.txt).

 ABINIT is a project of the Universite Catholique de Louvain,
 Corning Inc. and other collaborators, see ~abinit/doc/developers/contributors.txt .
 Please read https://docs.abinit.org/theory/acknowledgments for suggested
 acknowledgments of the ABINIT effort.
 For more information, see https://www.abinit.org .

.Starting date : Tue  8 Jul 2025.
- ( at 07h41 )
  
- input  file    -> /home/jzwanzig/local/abinit-develop/tmp-build/tests/Test_suite/v10_t44/t44.abi
- output file    -> t44.abo
- root for input  files -> t44i
- root for output files -> t44o
 
- inpspheads : Reading pseudopotential header in XML form from 
-   /home/jzwanzig/local/abinit-develop/tests/Pspdir/Psdj_paw_pbe_std/P.xml
- inpspheads : Reading pseudopotential header in XML form from 
-   /home/jzwanzig/local/abinit-develop/tests/Pspdir/Psdj_paw_pbe_std/Al.xml
 
 invars1: COMMENT -
  With nspinor=2 and usepaw=1, pawspnorb=1 has been switched on by default.
 
 invars1: COMMENT -
  With nspinor=2 and usepaw=1, pawspnorb=1 has been switched on by default.
 
 invars1: COMMENT -
  With nspinor=2 and usepaw=1, pawspnorb=1 has been switched on by default.
 
 invars1: COMMENT -
  With nspinor=2 and usepaw=1, pawspnorb=1 has been switched on by default.
 DATASET   11 : space group P1 (#  1); Bravais aP (primitive triclinic)
================================================================================
 Values of the parameters that define the memory need for DATASET 11.
     intxc =       0    ionmov =       0      iscf =      17    lmnmax =       8
     lnmax =       4     mgfft =      16  mpssoang =       2    mqgrid =    3001
     natom =       2  nloc_mem =       2    nspden =       1   nspinor =       1
    nsppol =       1      nsym =       1    n1xccc =       1    ntypat =       2
    occopt =       1   xclevel =       2
-    mband =           4        mffmem =           1         mkmem =          32
       mpw =         150          nfft =        4096          nkpt =          32
 PAW method is used; the additional fine FFT grid is defined by:
   mgfftf=        24    nfftf =     13824
================================================================================
P This job should need less than                       6.488 Mbytes of memory.
  Rough estimation (10% accuracy) of disk space for files :
_ WF disk file :      0.295 Mbytes ; DEN or POT disk file :      0.107 Mbytes.
================================================================================
 
 DATASET   12 : space group P1 (#  1); Bravais aP (primitive triclinic)
================================================================================
 Values of the parameters that define the memory need for DATASET 12 (RF).
     intxc =       0      iscf =      -3    lmnmax =       8     lnmax =       4
     mgfft =      16  mpssoang =       2    mqgrid =    3001     natom =       2
  nloc_mem =       2    nspden =       1   nspinor =       1    nsppol =       1
      nsym =       1    n1xccc =       1    ntypat =       2    occopt =       1
   xclevel =       2
-    mband =           4        mffmem =           1         mkmem =          32
-   mkqmem =          32        mk1mem =          32           mpw =         150
      nfft =        4096          nkpt =          32
================================================================================
P This job should need less than                       2.805 Mbytes of memory.
  Rough estimation (10% accuracy) of disk space for files :
_ WF disk file :      0.295 Mbytes ; DEN or POT disk file :      0.033 Mbytes.
================================================================================
 
 DATASET   21 : space group P1 (#  1); Bravais aP (primitive triclinic)
================================================================================
 Values of the parameters that define the memory need for DATASET 21.
     intxc =       0    ionmov =       0      iscf =      17    lmnmax =       8
     lnmax =       4     mgfft =      16  mpssoang =       2    mqgrid =    3001
     natom =       2  nloc_mem =       2    nspden =       1   nspinor =       1
    nsppol =       1      nsym =       1    n1xccc =       1    ntypat =       2
    occopt =       1   xclevel =       2
-    mband =           4        mffmem =           1         mkmem =          32
       mpw =         150          nfft =        4096          nkpt =          32
 PAW method is used; the additional fine FFT grid is defined by:
   mgfftf=        24    nfftf =     13824
================================================================================
P This job should need less than                       6.488 Mbytes of memory.
  Rough estimation (10% accuracy) of disk space for files :
_ WF disk file :      0.295 Mbytes ; DEN or POT disk file :      0.107 Mbytes.
================================================================================
 
 DATASET   22 : space group P1 (#  1); Bravais aP (primitive triclinic)
================================================================================
 Values of the parameters that define the memory need for DATASET 22 (RF).
     intxc =       0      iscf =      -3    lmnmax =       8     lnmax =       4
     mgfft =      16  mpssoang =       2    mqgrid =    3001     natom =       2
  nloc_mem =       2    nspden =       1   nspinor =       1    nsppol =       1
      nsym =       1    n1xccc =       1    ntypat =       2    occopt =       1
   xclevel =       2
-    mband =           4        mffmem =           1         mkmem =          32
-   mkqmem =          32        mk1mem =          32           mpw =         150
      nfft =        4096          nkpt =          32
================================================================================
P This job should need less than                       2.805 Mbytes of memory.
  Rough estimation (10% accuracy) of disk space for files :
_ WF disk file :      0.295 Mbytes ; DEN or POT disk file :      0.033 Mbytes.
================================================================================
 
 DATASET   31 : space group P1 (#  1); Bravais aP (primitive triclinic)
================================================================================
 Values of the parameters that define the memory need for DATASET 31.
     intxc =       0    ionmov =       0      iscf =      17    lmnmax =       8
     lnmax =       4     mgfft =      16  mpssoang =       2    mqgrid =    3001
     natom =       2  nloc_mem =       2    nspden =       1   nspinor =       2
    nsppol =       1      nsym =       1    n1xccc =       1    ntypat =       2
    occopt =       1   xclevel =       2
-    mband =           8        mffmem =           1         mkmem =          32
       mpw =         150          nfft =        4096          nkpt =          32
 PAW method is used; the additional fine FFT grid is defined by:
   mgfftf=        24    nfftf =     13824
================================================================================
P This job should need less than                       7.526 Mbytes of memory.
  Rough estimation (10% accuracy) of disk space for files :
_ WF disk file :      0.588 Mbytes ; DEN or POT disk file :      0.107 Mbytes.
================================================================================
 
 DATASET   32 : space group P1 (#  1); Bravais aP (primitive triclinic)
================================================================================
 Values of the parameters that define the memory need for DATASET 32 (RF).
     intxc =       0      iscf =      -3    lmnmax =       8     lnmax =       4
     mgfft =      16  mpssoang =       2    mqgrid =    3001     natom =       2
  nloc_mem =       2    nspden =       1   nspinor =       2    nsppol =       1
      nsym =       1    n1xccc =       1    ntypat =       2    occopt =       1
   xclevel =       2
-    mband =           8        mffmem =           1         mkmem =          32
-   mkqmem =          32        mk1mem =          32           mpw =         150
      nfft =        4096          nkpt =          32
================================================================================
P This job should need less than                       5.506 Mbytes of memory.
  Rough estimation (10% accuracy) of disk space for files :
_ WF disk file :      0.588 Mbytes ; DEN or POT disk file :      0.033 Mbytes.
================================================================================
 
 DATASET   41 : space group P1 (#  1); Bravais aP (primitive triclinic)
================================================================================
 Values of the parameters that define the memory need for DATASET 41.
     intxc =       0    ionmov =       0      iscf =      17    lmnmax =       8
     lnmax =       4     mgfft =      16  mpssoang =       2    mqgrid =    3001
     natom =       2  nloc_mem =       2    nspden =       1   nspinor =       2
    nsppol =       1      nsym =       1    n1xccc =       1    ntypat =       2
    occopt =       1   xclevel =       2
-    mband =           8        mffmem =           1         mkmem =          32
       mpw =         150          nfft =        4096          nkpt =          32
 PAW method is used; the additional fine FFT grid is defined by:
   mgfftf=        24    nfftf =     13824
================================================================================
P This job should need less than                       7.526 Mbytes of memory.
  Rough estimation (10% accuracy) of disk space for files :
_ WF disk file :      0.588 Mbytes ; DEN or POT disk file :      0.107 Mbytes.
================================================================================
 
 DATASET   42 : space group P1 (#  1); Bravais aP (primitive triclinic)
================================================================================
 Values of the parameters that define the memory need for DATASET 42 (RF).
     intxc =       0      iscf =      -3    lmnmax =       8     lnmax =       4
     mgfft =      16  mpssoang =       2    mqgrid =    3001     natom =       2
  nloc_mem =       2    nspden =       1   nspinor =       2    nsppol =       1
      nsym =       1    n1xccc =       1    ntypat =       2    occopt =       1
   xclevel =       2
-    mband =           8        mffmem =           1         mkmem =          32
-   mkqmem =          32        mk1mem =          32           mpw =         150
      nfft =        4096          nkpt =          32
================================================================================
P This job should need less than                       5.506 Mbytes of memory.
  Rough estimation (10% accuracy) of disk space for files :
_ WF disk file :      0.588 Mbytes ; DEN or POT disk file :      0.033 Mbytes.
================================================================================
 
--------------------------------------------------------------------------------
------------- Echo of variables that govern the present computation ------------
--------------------------------------------------------------------------------
-
- outvars: echo of selected default values
-   iomode0 =  3 , fftalg0 =512 , wfoptalg0 = 10
-
- outvars: echo of global parameters not present in the input file
-  max_nthreads =    0
-
 -outvars: echo values of preprocessed input variables --------
            acell      1.0300896971E+01  1.0300896971E+01  1.0300896971E+01 Bohr
              amu      3.09737620E+01  2.69815390E+01
         atndlist      1.0000000000E+00  0.0000000000E+00  0.0000000000E+00
             ecut      5.00000000E+00 Hartree
-          fftalg         512
           getwfk11         0
           getwfk12        -1
           getwfk21         0
           getwfk22        -1
           getwfk31         0
           getwfk32        -1
           getwfk41         0
           getwfk42        -1
            iatnd        2    0
             iscf11        17
             iscf12        -3
             iscf21        17
             iscf22        -3
             iscf31        17
             iscf32        -3
             iscf41        17
             iscf42        -3
              ixc     -101130
           jdtset       11   12   21   22   31   32   41   42
              kpt     -2.50000000E-01  5.00000000E-01  0.00000000E+00
                       5.00000000E-01 -2.50000000E-01  0.00000000E+00
                      -2.50000000E-01 -2.50000000E-01  2.50000000E-01
                      -2.50000000E-01  0.00000000E+00  0.00000000E+00
                       5.00000000E-01  2.50000000E-01  0.00000000E+00
                      -2.50000000E-01  2.50000000E-01  2.50000000E-01
                       2.50000000E-01  5.00000000E-01  0.00000000E+00
                       5.00000000E-01  5.00000000E-01  2.50000000E-01
                      -2.50000000E-01  5.00000000E-01  5.00000000E-01
                       0.00000000E+00 -2.50000000E-01  0.00000000E+00
                       2.50000000E-01 -2.50000000E-01  2.50000000E-01
                       5.00000000E-01 -2.50000000E-01  5.00000000E-01
                      -2.50000000E-01 -2.50000000E-01 -2.50000000E-01
                       2.50000000E-01  0.00000000E+00  0.00000000E+00
                       5.00000000E-01  0.00000000E+00  2.50000000E-01
                      -2.50000000E-01  0.00000000E+00  5.00000000E-01
                       0.00000000E+00  2.50000000E-01  0.00000000E+00
                       2.50000000E-01  2.50000000E-01  2.50000000E-01
                       5.00000000E-01  2.50000000E-01  5.00000000E-01
                      -2.50000000E-01  2.50000000E-01 -2.50000000E-01
                       0.00000000E+00  5.00000000E-01  2.50000000E-01
                       2.50000000E-01  5.00000000E-01  5.00000000E-01
                       5.00000000E-01  5.00000000E-01 -2.50000000E-01
                       0.00000000E+00 -2.50000000E-01  5.00000000E-01
                       2.50000000E-01 -2.50000000E-01 -2.50000000E-01
                       0.00000000E+00  0.00000000E+00  2.50000000E-01
                       2.50000000E-01  0.00000000E+00  5.00000000E-01
                       5.00000000E-01  0.00000000E+00 -2.50000000E-01
                       0.00000000E+00  2.50000000E-01  5.00000000E-01
                       2.50000000E-01  2.50000000E-01 -2.50000000E-01
                       0.00000000E+00  5.00000000E-01 -2.50000000E-01
                       0.00000000E+00  0.00000000E+00 -2.50000000E-01
           kptopt           3
         kptrlatt        2   -2    2     -2    2    2     -2   -2    2
          kptrlen      2.06017939E+01
          lambsig      0.00000000E+00  7.66760000E-04
P           mkmem          32
P          mkqmem          32
P          mk1mem          32
            natnd           1
            natom           2
            nband11         4
            nband12         4
            nband21         4
            nband22         4
            nband31         8
            nband32         8
            nband41         8
            nband42         8
           ndtset           8
            ngfft          16      16      16
          ngfftdg          24      24      24
             nkpt          32
          nspinor11         1
          nspinor12         1
          nspinor21         1
          nspinor22         1
          nspinor31         2
          nspinor32         2
          nspinor41         2
          nspinor42         2
             nsym           1
           ntypat           2
        nucdipmom      0.0000000000E+00  0.0000000000E+00  0.0000000000E+00
                       1.0000000000E+00  0.0000000000E+00  0.0000000000E+00
              occ11    2.000000  2.000000  2.000000  2.000000
              occ12    2.000000  2.000000  2.000000  2.000000
              occ21    2.000000  2.000000  2.000000  2.000000
              occ22    2.000000  2.000000  2.000000  2.000000
              occ31    1.000000  1.000000  1.000000  1.000000  1.000000  1.000000
                       1.000000  1.000000
              occ32    1.000000  1.000000  1.000000  1.000000  1.000000  1.000000
                       1.000000  1.000000
              occ41    1.000000  1.000000  1.000000  1.000000  1.000000  1.000000
                       1.000000  1.000000
              occ42    1.000000  1.000000  1.000000  1.000000  1.000000  1.000000
                       1.000000  1.000000
        optdriver11         0
        optdriver12         1
        optdriver21         0
        optdriver22         1
        optdriver31         0
        optdriver32         1
        optdriver41         0
        optdriver42         1
        optforces           0
        optstress           0
           orbmag11         0
           orbmag12         2
           orbmag21         0
           orbmag22         2
           orbmag31         0
           orbmag32         2
           orbmag41         0
           orbmag42         2
        pawcpxocc           2
        pawecutdg      1.00000000E+01 Hartree
        pawspnorb11         0
        pawspnorb12         0
        pawspnorb21         0
        pawspnorb22         0
        pawspnorb31         1
        pawspnorb32         1
        pawspnorb41         1
        pawspnorb42         1
           prtden           0
        prtebands           0
           prteig           0
           prtgsr           0
            prtwf11         1
            prtwf12         0
            prtwf21         1
            prtwf22         0
            prtwf31         1
            prtwf32         0
            prtwf41         1
            prtwf42         0
            rfddk11         0
            rfddk12         1
            rfddk21         0
            rfddk22         1
            rfddk31         0
            rfddk32         1
            rfddk41         0
            rfddk42         1
            rprim      0.0000000000E+00  5.0000000000E-01  5.0000000000E-01
                       5.0000000000E-01  0.0000000000E+00  5.0000000000E-01
                       5.0000000000E-01  5.0000000000E-01  0.0000000000E+00
           shiftk      5.00000000E-01  5.00000000E-01  5.00000000E-01
          spgroup           1
        symmorphi           0
           tolvrs11    1.00000000E-18
           tolvrs12    0.00000000E+00
           tolvrs21    1.00000000E-18
           tolvrs22    0.00000000E+00
           tolvrs31    1.00000000E-18
           tolvrs32    0.00000000E+00
           tolvrs41    1.00000000E-18
           tolvrs42    0.00000000E+00
           tolwfr11    0.00000000E+00
           tolwfr12    1.00000000E-20
           tolwfr21    0.00000000E+00
           tolwfr22    1.00000000E-20
           tolwfr31    0.00000000E+00
           tolwfr32    1.00000000E-20
           tolwfr41    0.00000000E+00
           tolwfr42    1.00000000E-20
            typat      1  2
        usexcnhat           0
           useylm           1
              wtk        0.03125    0.03125    0.03125    0.03125    0.03125    0.03125
                         0.03125    0.03125    0.03125    0.03125    0.03125    0.03125
                         0.03125    0.03125    0.03125    0.03125    0.03125    0.03125
                         0.03125    0.03125    0.03125    0.03125    0.03125    0.03125
                         0.03125    0.03125    0.03125    0.03125    0.03125    0.03125
                         0.03125    0.03125
           xangst      1.3627499763E+00  1.3627499763E+00  1.3627499763E+00
                       0.0000000000E+00  0.0000000000E+00  0.0000000000E+00
            xcart      2.5752242428E+00  2.5752242428E+00  2.5752242428E+00
                       0.0000000000E+00  0.0000000000E+00  0.0000000000E+00
             xred      2.5000000000E-01  2.5000000000E-01  2.5000000000E-01
                       0.0000000000E+00  0.0000000000E+00  0.0000000000E+00
            znucl       15.00000   13.00000
             zora11         0
             zora12         0
             zora21         1
             zora22         1
             zora31         2
             zora32         2
             zora41         3
             zora42         3
 
================================================================================
 
 chkinp: Checking input parameters for consistency, jdtset=  11.
 
 chkinp: Checking input parameters for consistency, jdtset=  12.
 
 chkinp: Checking input parameters for consistency, jdtset=  21.
 
 chkinp: Checking input parameters for consistency, jdtset=  22.
 
 chkinp: Checking input parameters for consistency, jdtset=  31.
 
 chkinp: Checking input parameters for consistency, jdtset=  32.
 
 chkinp: Checking input parameters for consistency, jdtset=  41.
 
 chkinp: Checking input parameters for consistency, jdtset=  42.
 
================================================================================
== DATASET 11 ==================================================================
-   mpi_nproc: 1, omp_nthreads: -1 (-1 if OMP is not activated)
 

--- !DatasetInfo
iteration_state: {dtset: 11, }
dimensions: {natom: 2, nkpt: 32, mband: 4, nsppol: 1, nspinor: 1, nspden: 1, mpw: 150, }
cutoff_energies: {ecut:   5.0, pawecutdg:  10.0, }
electrons: {nelect:   8.00000000E+00, charge:   0.00000000E+00, occopt:   1.00000000E+00, tsmear:   1.00000000E-02, }
meta: {optdriver: 0, ionmov: 0, optcell: 0, iscf: 17, paral_kgb: 0, }
...

 Real(R)+Recip(G) space primitive vectors, cartesian coordinates (Bohr,Bohr^-1):
 R(1)=  0.0000000  5.1504485  5.1504485  G(1)= -0.0970789  0.0970789  0.0970789
 R(2)=  5.1504485  0.0000000  5.1504485  G(2)=  0.0970789 -0.0970789  0.0970789
 R(3)=  5.1504485  5.1504485  0.0000000  G(3)=  0.0970789  0.0970789 -0.0970789
 Unit cell volume ucvol=  2.7325313E+02 bohr^3
 Angles (23,13,12)=  6.00000000E+01  6.00000000E+01  6.00000000E+01 degrees
 
 Coarse grid specifications (used for wave-functions):
 
 getcut: wavevector=  0.0000  0.0000  0.0000  ngfft=  16  16  16
         ecut(hartree)=      5.000   => boxcut(ratio)=   2.18228
 
 Fine grid specifications (used for densities):
 
 getcut: wavevector=  0.0000  0.0000  0.0000  ngfft=  24  24  24
         ecut(hartree)=     10.000   => boxcut(ratio)=   2.31465
 
 getcut : COMMENT -
  Note that boxcut > 2.2 ; recall that boxcut=Gcut(box)/Gcut(sphere) = 2
  is sufficient for exact treatment of convolution.
  Such a large boxcut is a waste : you could raise ecut
  e.g. ecut=   13.394057 Hartrees makes boxcut=2
 
 
--- Pseudopotential description ------------------------------------------------
- pspini: atom type   1  psp file is /home/jzwanzig/local/abinit-develop/tests/Pspdir/Psdj_paw_pbe_std/P.xml
- pspatm: opening atomic psp file    /home/jzwanzig/local/abinit-develop/tests/Pspdir/Psdj_paw_pbe_std/P.xml
- pspatm : Reading pseudopotential header in XML form from /home/jzwanzig/local/abinit-develop/tests/Pspdir/Psdj_paw_pbe_std/P.xml
 Pseudopotential format is: paw10
 basis_size (lnmax)=  4 (lmn_size=  8), orbitals=   0   0   1   1
 Spheres core radius: rc_sph= 1.90690075
 1 radial meshes are used:
  - mesh 1: r(i)=AA*[exp(BB*(i-1))-1], size=2001 , AA= 0.40634E-03 BB= 0.60952E-02
 Shapefunction is SIN type: shapef(r)=[sin(pi*r/rshp)/(pi*r/rshp)]**2
 Radius for shape functions =  1.60765221
 mmax= 2001
 Radial grid used for partial waves is grid 1
 Radial grid used for projectors is grid 1
 Radial grid used for (t)core density is grid 1
 Radial grid used for Vloc is grid 1
 Radial grid used for pseudo valence density is grid 1
 Mesh size for Vloc has been set to 1773 to avoid numerical noise.
 Compensation charge density is not taken into account in XC energy/potential
 pspatm: atomic psp has been read  and splines computed
 
- pspini: atom type   2  psp file is /home/jzwanzig/local/abinit-develop/tests/Pspdir/Psdj_paw_pbe_std/Al.xml
- pspatm: opening atomic psp file    /home/jzwanzig/local/abinit-develop/tests/Pspdir/Psdj_paw_pbe_std/Al.xml
- pspatm : Reading pseudopotential header in XML form from /home/jzwanzig/local/abinit-develop/tests/Pspdir/Psdj_paw_pbe_std/Al.xml
 Pseudopotential format is: paw10
 basis_size (lnmax)=  4 (lmn_size=  8), orbitals=   0   0   1   1
 Spheres core radius: rc_sph= 1.90363307
 1 radial meshes are used:
  - mesh 1: r(i)=AA*[exp(BB*(i-1))-1], size=2001 , AA= 0.46377E-03 BB= 0.60291E-02
 Shapefunction is SIN type: shapef(r)=[sin(pi*r/rshp)/(pi*r/rshp)]**2
 Radius for shape functions =  1.60786206
 mmax= 2001
 Radial grid used for partial waves is grid 1
 Radial grid used for projectors is grid 1
 Radial grid used for (t)core density is grid 1
 Radial grid used for Vloc is grid 1
 Radial grid used for pseudo valence density is grid 1
 Mesh size for Vloc has been set to 1771 to avoid numerical noise.
 Compensation charge density is not taken into account in XC energy/potential
 pspatm: atomic psp has been read  and splines computed
 
  -2.65993774E+01                                ecore*ucvol(ha*bohr**3)
--------------------------------------------------------------------------------
 
_setup2: Arith. and geom. avg. npw (full set) are     146.250     146.234
 
================================================================================

--- !BeginCycle
iteration_state: {dtset: 11, }
solver: {iscf: 17, nstep: 30, nline: 4, wfoptalg: 10, }
tolerances: {tolvrs: 1.00E-18, }
...
 
     iter   Etot(hartree)      deltaE(h)  residm     nres2
 ETOT  1  -8.7885319693499    -8.789E+00 4.023E-02 7.059E-01
 ETOT  2  -8.7995960387578    -1.106E-02 9.674E-05 1.122E-01
 ETOT  3  -8.7986861215516     9.099E-04 6.266E-06 5.261E-03
 ETOT  4  -8.7988042827626    -1.182E-04 6.952E-08 5.273E-04
 ETOT  5  -8.7988412446677    -3.696E-05 1.626E-08 3.924E-05
 ETOT  6  -8.7988453665836    -4.122E-06 8.878E-10 1.900E-06
 ETOT  7  -8.7988455572348    -1.907E-07 4.092E-10 3.893E-08
 ETOT  8  -8.7988455588941    -1.659E-09 2.516E-11 8.185E-09
 ETOT  9  -8.7988455595754    -6.813E-10 4.241E-12 1.366E-09
 ETOT 10  -8.7988455596860    -1.106E-10 1.116E-13 2.383E-10
 ETOT 11  -8.7988455597045    -1.848E-11 1.935E-13 1.182E-11
 ETOT 12  -8.7988455597048    -2.771E-13 4.194E-15 3.618E-12
 ETOT 13  -8.7988455597048     1.066E-14 5.028E-15 2.329E-13
 ETOT 14  -8.7988455597048    -1.776E-15 1.366E-16 5.909E-14
 ETOT 15  -8.7988455597048     3.553E-15 3.683E-17 1.387E-15
 ETOT 16  -8.7988455597048     3.553E-15 7.566E-19 1.191E-16
 ETOT 17  -8.7988455597048     0.000E+00 7.692E-20 4.843E-17
 ETOT 18  -8.7988455597048    -1.421E-14 6.932E-21 3.586E-18
 ETOT 19  -8.7988455597048     1.066E-14 1.737E-21 1.519E-20
 
 At SCF step   19       nres2   =  1.52E-20 < tolvrs=  1.00E-18 =>converged.

--- !ResultsGS
iteration_state: {dtset: 11, }
comment   : Summary of ground state results
lattice_vectors:
- [  0.0000000,   5.1504485,   5.1504485, ]
- [  5.1504485,   0.0000000,   5.1504485, ]
- [  5.1504485,   5.1504485,   0.0000000, ]
lattice_lengths: [   7.28383,    7.28383,    7.28383, ]
lattice_angles: [ 60.000,  60.000,  60.000, ] # degrees, (23, 13, 12)
lattice_volume:   2.7325313E+02
convergence: {deltae:  1.066E-14, res2:  1.519E-20, residm:  1.737E-21, diffor:  0.000E+00, }
etotal    :  -8.79884556E+00
entropy   :   0.00000000E+00
fermie    :   1.86474141E-01
cartesian_stress_tensor: null
pressure_GPa: null
xred      :
- [  2.5000E-01,   2.5000E-01,   2.5000E-01,  P]
- [  0.0000E+00,   0.0000E+00,   0.0000E+00, Al]
cartesian_forces: null
force_length_stats: {min: null, max: null, mean: null, }
...

 Integrated electronic density in atomic spheres:
 ------------------------------------------------
 Atom  Sphere_radius  Integrated_density
    1        1.90690          2.59107248
    2        1.90363          0.77743734
 
 PAW TEST:
 ==== Compensation charge inside spheres ============
 The following values must be close to each other ...
 Compensation charge over spherical meshes =     -0.546065675192772
 Compensation charge over fine fft grid    =     -0.545952682170288
 
 ==== Results concerning PAW augmentation regions ====
 
 Total pseudopotential strength Dij (hartree):
 Atom #  1
   === REAL PART:
   1.37418   0.02590   0.00000   0.00000   0.00000   0.00000   0.00000   0.00000
   0.02590  28.09307   0.00000   0.00000   0.00000   0.00000   0.00000   0.00000
   0.00000   0.00000   0.26947   0.00000   0.00000   0.00972   0.00000   0.00000
   0.00000   0.00000   0.00000   0.26947   0.00000   0.00000   0.00972   0.00000
   0.00000   0.00000   0.00000   0.00000   0.26947   0.00000   0.00000   0.00972
   0.00000   0.00000   0.00972   0.00000   0.00000  17.75512   0.00000   0.00000
   0.00000   0.00000   0.00000   0.00972   0.00000   0.00000  17.75512   0.00000
   0.00000   0.00000   0.00000   0.00000   0.00972   0.00000   0.00000  17.75512
   === IMAGINARY PART:
   0.00000   0.00000   0.00000   0.00000   0.00000   0.00000   0.00000   0.00000
   0.00000   0.00000   0.00000   0.00000   0.00000   0.00000   0.00000   0.00000
   0.00000   0.00000   0.00000   0.00000   0.00000   0.00000   0.00000   0.00000
   0.00000   0.00000   0.00000   0.00000   0.00000   0.00000   0.00000   0.00000
   0.00000   0.00000   0.00000   0.00000   0.00000   0.00000   0.00000   0.00000
   0.00000   0.00000   0.00000   0.00000   0.00000   0.00000   0.00000   0.00000
   0.00000   0.00000   0.00000   0.00000   0.00000   0.00000   0.00000   0.00000
   0.00000   0.00000   0.00000   0.00000   0.00000   0.00000   0.00000   0.00000
 Atom #  2
   === REAL PART:
   0.32752  -0.04467   0.00000   0.00000   0.00000   0.00000   0.00000   0.00000
  -0.04467  39.58583   0.00000   0.00000   0.00000   0.00000   0.00000   0.00000
   0.00000   0.00000   0.07334   0.00000   0.00000  -0.13862   0.00000   0.00000
   0.00000   0.00000   0.00000   0.07334   0.00000   0.00000  -0.13862   0.00000
   0.00000   0.00000   0.00000   0.00000   0.07334   0.00000   0.00000  -0.13862
   0.00000   0.00000  -0.13862   0.00000   0.00000  23.84379   0.00000   0.00000
   0.00000   0.00000   0.00000  -0.13862   0.00000   0.00000  23.84379   0.00000
   0.00000   0.00000   0.00000   0.00000  -0.13862   0.00000   0.00000  23.84379
   === IMAGINARY PART:
   0.00000   0.00000   0.00000   0.00000   0.00000   0.00000   0.00000   0.00000
   0.00000   0.00000   0.00000   0.00000   0.00000   0.00000   0.00000   0.00000
   0.00000   0.00000   0.00000   0.00007   0.00000   0.00000  -0.00106   0.00000
   0.00000   0.00000  -0.00007   0.00000   0.00000   0.00106   0.00000   0.00000
   0.00000   0.00000   0.00000   0.00000   0.00000   0.00000   0.00000   0.00000
   0.00000   0.00000   0.00000  -0.00106   0.00000   0.00000   0.01610   0.00000
   0.00000   0.00000   0.00106   0.00000   0.00000  -0.01610   0.00000   0.00000
   0.00000   0.00000   0.00000   0.00000   0.00000   0.00000   0.00000   0.00000
 
 
 Augmentation waves occupancies Rhoij:
 Atom #  1
   === REAL PART:
   1.66554   0.00546   0.00000   0.00000   0.00000   0.00000   0.00000   0.00000
   0.00546   0.00003   0.00000   0.00000   0.00000   0.00000   0.00000   0.00000
   0.00000   0.00000   1.15687  -0.00000   0.00000   0.00644   0.00000   0.00000
   0.00000   0.00000  -0.00000   1.15687   0.00000   0.00000   0.00644   0.00000
   0.00000   0.00000   0.00000   0.00000   1.15687   0.00000   0.00000   0.00644
   0.00000   0.00000   0.00644   0.00000   0.00000   0.00004   0.00000   0.00000
   0.00000   0.00000   0.00000   0.00644   0.00000   0.00000   0.00004   0.00000
   0.00000   0.00000   0.00000   0.00000   0.00644   0.00000   0.00000   0.00004
   === IMAGINARY PART:
   0.00000   0.00000   0.00000   0.00000   0.00000   0.00000   0.00000   0.00000
  -0.00000   0.00000   0.00000   0.00000   0.00000   0.00000   0.00000   0.00000
   0.00000   0.00000   0.00000   0.00003   0.00000   0.00000   0.00000   0.00000
   0.00000   0.00000  -0.00003   0.00000   0.00000  -0.00000   0.00000   0.00000
   0.00000   0.00000   0.00000   0.00000   0.00000   0.00000   0.00000   0.00000
   0.00000   0.00000  -0.00000   0.00000   0.00000   0.00000  -0.00000   0.00000
   0.00000   0.00000  -0.00000  -0.00000   0.00000   0.00000   0.00000   0.00000
   0.00000   0.00000   0.00000   0.00000  -0.00000   0.00000   0.00000   0.00000
 Atom #  2
   === REAL PART:
   1.19626  -0.00129   0.00000   0.00000   0.00000   0.00000   0.00000   0.00000
  -0.00129   0.00000   0.00000   0.00000   0.00000   0.00000   0.00000   0.00000
   0.00000   0.00000   0.85318   0.00000   0.00000  -0.00071  -0.00000   0.00000
   0.00000   0.00000   0.00000   0.85318   0.00000  -0.00000  -0.00071   0.00000
   0.00000   0.00000   0.00000   0.00000   0.85318   0.00000   0.00000  -0.00071
   0.00000   0.00000  -0.00071  -0.00000   0.00000   0.00000   0.00000   0.00000
   0.00000   0.00000  -0.00000  -0.00071   0.00000   0.00000   0.00000   0.00000
   0.00000   0.00000   0.00000   0.00000  -0.00071   0.00000   0.00000   0.00000
   === IMAGINARY PART:
   0.00000  -0.00000   0.00000   0.00000   0.00000   0.00000   0.00000   0.00000
   0.00000   0.00000   0.00000   0.00000   0.00000   0.00000   0.00000   0.00000
   0.00000   0.00000   0.00000   0.00146   0.00000  -0.00000   0.00001   0.00000
   0.00000   0.00000  -0.00146   0.00000   0.00000  -0.00001   0.00000   0.00000
   0.00000   0.00000   0.00000   0.00000   0.00000   0.00000   0.00000  -0.00000
   0.00000   0.00000   0.00000   0.00001   0.00000   0.00000  -0.00000   0.00000
   0.00000   0.00000  -0.00001  -0.00000   0.00000   0.00000   0.00000   0.00000
   0.00000   0.00000   0.00000   0.00000   0.00000   0.00000   0.00000   0.00000
 
 
================================================================================
 
 ----iterations are completed or convergence reached----
 
 Mean square residual over all n,k,spin=   61.614E-23; max=  17.366E-22
 reduced coordinates (array xred) for    2 atoms
       0.250000000000      0.250000000000      0.250000000000
       0.000000000000      0.000000000000      0.000000000000
 rms dE/dt=  0.0000E+00; max dE/dt=  0.0000E+00; dE/dt below (all hartree)
    1       0.000000000000      0.000000000000      0.000000000000
    2       0.000000000000      0.000000000000      0.000000000000
 
 cartesian coordinates (angstrom) at end:
    1      1.36274997628497     1.36274997628497     1.36274997628497
    2      0.00000000000000     0.00000000000000     0.00000000000000
 length scales= 10.300896971100 10.300896971100 10.300896971100 bohr
              =  5.450999905140  5.450999905140  5.450999905140 angstroms
 Fermi (or HOMO) energy (hartree) =   0.18647   Average Vxc (hartree)=  -0.33357
 Eigenvalues (hartree) for nkpt=  32  k points:
 kpt#   1, nband=  4, wtk=  0.03125, kpt= -0.2500  0.5000  0.0000 (reduced coord)
  -0.15248    0.02060    0.10379    0.14530
 prteigrs : prtvol=0 or 1, do not print more k-points.
 

--- !EnergyTerms
iteration_state     : {dtset: 11, }
comment             : Components of total free energy in Hartree
kinetic             :  3.59033342200828E+00
hartree             :  9.18228657909630E-01
xc                  : -3.11568048014362E+00
Ewald energy        : -8.73435537339883E+00
psp_core            : -9.73433600340451E-02
local_psp           : -3.09233205678628E+00
spherical_terms     :  1.73230364057420E+00
nucl. magn. dipoles : -9.84955214988457E-09
total_energy        : -8.79884555972023E+00
total_energy_eV     : -2.39428764050404E+02
...


--- !EnergyTermsDC
iteration_state     : {dtset: 11, }
comment             : '"Double-counting" decomposition of free energy'
band_energy         :  3.04636566536609E-01
Ewald energy        : -8.73435537339883E+00
psp_core            : -9.73433600340451E-02
xc_dc               : -3.52445090225527E-01
spherical_terms     :  8.06616974170055E-02
total_energy_dc     : -8.79884555970479E+00
total_energy_dc_eV  : -2.39428764049984E+02
...

 
================================================================================
== DATASET 12 ==================================================================
-   mpi_nproc: 1, omp_nthreads: -1 (-1 if OMP is not activated)
 

--- !DatasetInfo
iteration_state: {dtset: 12, }
dimensions: {natom: 2, nkpt: 32, mband: 4, nsppol: 1, nspinor: 1, nspden: 1, mpw: 150, }
cutoff_energies: {ecut:   5.0, pawecutdg:  10.0, }
electrons: {nelect:   8.00000000E+00, charge:   0.00000000E+00, occopt:   1.00000000E+00, tsmear:   1.00000000E-02, }
meta: {optdriver: 1, rfddk: 1, }
...

 mkfilename : getwfk/=0, take file _WFK from output of DATASET  11.
 
 Real(R)+Recip(G) space primitive vectors, cartesian coordinates (Bohr,Bohr^-1):
 R(1)=  0.0000000  5.1504485  5.1504485  G(1)= -0.0970789  0.0970789  0.0970789
 R(2)=  5.1504485  0.0000000  5.1504485  G(2)=  0.0970789 -0.0970789  0.0970789
 R(3)=  5.1504485  5.1504485  0.0000000  G(3)=  0.0970789  0.0970789 -0.0970789
 Unit cell volume ucvol=  2.7325313E+02 bohr^3
 Angles (23,13,12)=  6.00000000E+01  6.00000000E+01  6.00000000E+01 degrees
 
 Coarse grid specifications (used for wave-functions):
 
 getcut: wavevector=  0.0000  0.0000  0.0000  ngfft=  16  16  16
         ecut(hartree)=      5.000   => boxcut(ratio)=   2.18228
 
 Fine grid specifications (used for densities):
 
 getcut: wavevector=  0.0000  0.0000  0.0000  ngfft=  24  24  24
         ecut(hartree)=     10.000   => boxcut(ratio)=   2.31465
 
 getcut : COMMENT -
  Note that boxcut > 2.2 ; recall that boxcut=Gcut(box)/Gcut(sphere) = 2
  is sufficient for exact treatment of convolution.
  Such a large boxcut is a waste : you could raise ecut
  e.g. ecut=   13.394057 Hartrees makes boxcut=2
 
 
--- Pseudopotential description ------------------------------------------------
- pspini: atom type   1  psp file is /home/jzwanzig/local/abinit-develop/tests/Pspdir/Psdj_paw_pbe_std/P.xml
- pspatm: opening atomic psp file    /home/jzwanzig/local/abinit-develop/tests/Pspdir/Psdj_paw_pbe_std/P.xml
- pspatm : Reading pseudopotential header in XML form from /home/jzwanzig/local/abinit-develop/tests/Pspdir/Psdj_paw_pbe_std/P.xml
 Pseudopotential format is: paw10
 basis_size (lnmax)=  4 (lmn_size=  8), orbitals=   0   0   1   1
 Spheres core radius: rc_sph= 1.90690075
 1 radial meshes are used:
  - mesh 1: r(i)=AA*[exp(BB*(i-1))-1], size=2001 , AA= 0.40634E-03 BB= 0.60952E-02
 Shapefunction is SIN type: shapef(r)=[sin(pi*r/rshp)/(pi*r/rshp)]**2
 Radius for shape functions =  1.60765221
 mmax= 2001
 Radial grid used for partial waves is grid 1
 Radial grid used for projectors is grid 1
 Radial grid used for (t)core density is grid 1
 Radial grid used for Vloc is grid 1
 Radial grid used for pseudo valence density is grid 1
 Mesh size for Vloc has been set to 1773 to avoid numerical noise.
 Compensation charge density is not taken into account in XC energy/potential
 pspatm: atomic psp has been read  and splines computed
 
- pspini: atom type   2  psp file is /home/jzwanzig/local/abinit-develop/tests/Pspdir/Psdj_paw_pbe_std/Al.xml
- pspatm: opening atomic psp file    /home/jzwanzig/local/abinit-develop/tests/Pspdir/Psdj_paw_pbe_std/Al.xml
- pspatm : Reading pseudopotential header in XML form from /home/jzwanzig/local/abinit-develop/tests/Pspdir/Psdj_paw_pbe_std/Al.xml
 Pseudopotential format is: paw10
 basis_size (lnmax)=  4 (lmn_size=  8), orbitals=   0   0   1   1
 Spheres core radius: rc_sph= 1.90363307
 1 radial meshes are used:
  - mesh 1: r(i)=AA*[exp(BB*(i-1))-1], size=2001 , AA= 0.46377E-03 BB= 0.60291E-02
 Shapefunction is SIN type: shapef(r)=[sin(pi*r/rshp)/(pi*r/rshp)]**2
 Radius for shape functions =  1.60786206
 mmax= 2001
 Radial grid used for partial waves is grid 1
 Radial grid used for projectors is grid 1
 Radial grid used for (t)core density is grid 1
 Radial grid used for Vloc is grid 1
 Radial grid used for pseudo valence density is grid 1
 Mesh size for Vloc has been set to 1771 to avoid numerical noise.
 Compensation charge density is not taken into account in XC energy/potential
 pspatm: atomic psp has been read  and splines computed
 
--------------------------------------------------------------------------------
 
 
 ==>  initialize data related to q vector <== 
 
 The list of irreducible perturbations for this q vector is:
    1)    idir= 1    ipert=   3
    2)    idir= 2    ipert=   3
    3)    idir= 3    ipert=   3
 
================================================================================
 
--------------------------------------------------------------------------------
 Perturbation wavevector (in red.coord.)   0.000000  0.000000  0.000000
 Perturbation : derivative vs k along direction   1
 The set of symmetries contains only one element for this perturbation.
 symkpt : not enough symmetry to change the number of k points.
 
--------------------------------------------------------------------------------
 
--------------------------------------------------------------------------------
 
 Initialisation of the first-order wave-functions :
  ireadwf=   0

--- !BeginCycle
iteration_state: {dtset: 12, }
solver: {iscf: -3, nstep: 30, nline: 4, wfoptalg: 10, }
tolerances: {tolwfr: 1.00E-20, }
...
 
     iter   2DEtotal(Ha)        deltaE(Ha) residm    vres2
-ETOT  1  -9.7149281482955     -9.715E+00 1.129E-02 0.000E+00
 ETOT  2  -9.7175719518786     -2.644E-03 6.705E-06 0.000E+00
 ETOT  3  -9.7175737229061     -1.771E-06 5.967E-09 0.000E+00
 ETOT  4  -9.7175737251417     -2.236E-09 5.162E-12 0.000E+00
 ETOT  5  -9.7175737251448     -3.066E-12 9.521E-15 0.000E+00
 ETOT  6  -9.7175737251448     -2.842E-14 9.561E-18 0.000E+00
 ETOT  7  -9.7175737251448      0.000E+00 1.848E-20 0.000E+00
 ETOT  8  -9.7175737251448     -1.776E-15 8.807E-21 0.000E+00
 
 At SCF step    8   max residual=  8.81E-21 < tolwfr=  1.00E-20 =>converged.
================================================================================
 
 ----iterations are completed or convergence reached----
 
 Mean square residual over all n,k,spin=   34.251E-22; max=  88.067E-22
 dfpt_looppert : ek2=    1.7858742990E+01
          f-sum rule ratio=    1.2091276259E+00
 Expectation of eigenvalue derivatives (hartree) for nkpt=  32  k points:
  (in case of degenerate eigenvalues, averaged derivative)
 kpt#   1, nband=  4, wtk=  0.03125, kpt= -0.2500  0.5000  0.0000 (reduced coord)
  -0.07323   -0.08306    0.19740    0.15068
 prteigrs : prtvol=0 or 1, do not print more k-points.
 
 
 Nine components of 2nd-order total energy (hartree) are
 1,2,3: 0th-order hamiltonian combined with 1st-order wavefunctions
     kin0=   2.81476494E+01 eigvalue=  -7.23841416E+00  local=  -3.07839328E+01  nclr dpl0=  -8.19179472E-08
 4,5,6: 1st-order hamiltonian combined with 1st and 0th-order wfs
     kin1=  -2.15934995E+01  Hartree=   0.00000000E+00     xc=   0.00000000E+00  nclr dpl1=   5.92031741E-09
 7,8,9: eventually, occupation + non-local contributions
    edocc=   0.00000000E+00     enl0=   1.94832672E+01   enl1=   2.26735625E+00
 10: eventually, PAW "on-site" Hxc contribution: epaw1=   0.00000000E+00
 1-10 gives the relaxation energy (to be shifted if some occ is /=2.0)
   erelax=  -9.71757373E+00
 11 Contribution from 1st-order change of wavefunctions overlap
 eovl1 =  -5.45020951E-02
  No Ewald or frozen-wf contrib.: the relaxation energy is the total one
 2DEtotal=   -0.9717573725E+01 Ha. Also 2DEtotal=   -0.264428628823E+03 eV
    (  non-var. 2DEtotal :   -9.7175737250E+00 Ha)
 
--------------------------------------------------------------------------------
 Perturbation wavevector (in red.coord.)   0.000000  0.000000  0.000000
 Perturbation : derivative vs k along direction   2
 The set of symmetries contains only one element for this perturbation.
 symkpt : not enough symmetry to change the number of k points.
 
--------------------------------------------------------------------------------
 
--------------------------------------------------------------------------------
 
 Initialisation of the first-order wave-functions :
  ireadwf=   0

--- !BeginCycle
iteration_state: {dtset: 12, }
solver: {iscf: -3, nstep: 30, nline: 4, wfoptalg: 10, }
tolerances: {tolwfr: 1.00E-20, }
...
 
     iter   2DEtotal(Ha)        deltaE(Ha) residm    vres2
-ETOT  1  -9.7149281481323     -9.715E+00 1.129E-02 0.000E+00
 ETOT  2  -9.7175719517152     -2.644E-03 6.705E-06 0.000E+00
 ETOT  3  -9.7175737227427     -1.771E-06 5.967E-09 0.000E+00
 ETOT  4  -9.7175737249783     -2.236E-09 5.162E-12 0.000E+00
 ETOT  5  -9.7175737249814     -3.084E-12 9.521E-15 0.000E+00
 ETOT  6  -9.7175737249814      1.421E-14 9.561E-18 0.000E+00
 ETOT  7  -9.7175737249814      1.776E-15 1.848E-20 0.000E+00
 ETOT  8  -9.7175737249814     -3.553E-15 8.807E-21 0.000E+00
 
 At SCF step    8   max residual=  8.81E-21 < tolwfr=  1.00E-20 =>converged.
================================================================================
 
 ----iterations are completed or convergence reached----
 
 Mean square residual over all n,k,spin=   34.251E-22; max=  88.067E-22
 dfpt_looppert : ek2=    1.7858742990E+01
          f-sum rule ratio=    1.2091276259E+00
 Expectation of eigenvalue derivatives (hartree) for nkpt=  32  k points:
  (in case of degenerate eigenvalues, averaged derivative)
 kpt#   1, nband=  4, wtk=  0.03125, kpt= -0.2500  0.5000  0.0000 (reduced coord)
  -0.11824    0.18163    0.19406   -0.04246
 prteigrs : prtvol=0 or 1, do not print more k-points.
 
 
 Nine components of 2nd-order total energy (hartree) are
 1,2,3: 0th-order hamiltonian combined with 1st-order wavefunctions
     kin0=   2.81476494E+01 eigvalue=  -7.23841416E+00  local=  -3.07839328E+01  nclr dpl0=  -8.19179472E-08
 4,5,6: 1st-order hamiltonian combined with 1st and 0th-order wfs
     kin1=  -2.15934995E+01  Hartree=   0.00000000E+00     xc=   0.00000000E+00  nclr dpl1=   5.92031741E-09
 7,8,9: eventually, occupation + non-local contributions
    edocc=   0.00000000E+00     enl0=   1.94832672E+01   enl1=   2.26735625E+00
 10: eventually, PAW "on-site" Hxc contribution: epaw1=   0.00000000E+00
 1-10 gives the relaxation energy (to be shifted if some occ is /=2.0)
   erelax=  -9.71757372E+00
 11 Contribution from 1st-order change of wavefunctions overlap
 eovl1 =  -5.45020951E-02
  No Ewald or frozen-wf contrib.: the relaxation energy is the total one
 2DEtotal=   -0.9717573725E+01 Ha. Also 2DEtotal=   -0.264428628818E+03 eV
    (  non-var. 2DEtotal :   -9.7175737249E+00 Ha)
 
--------------------------------------------------------------------------------
 Perturbation wavevector (in red.coord.)   0.000000  0.000000  0.000000
 Perturbation : derivative vs k along direction   3
 The set of symmetries contains only one element for this perturbation.
 symkpt : not enough symmetry to change the number of k points.
 
--------------------------------------------------------------------------------
 
--------------------------------------------------------------------------------
 
 Initialisation of the first-order wave-functions :
  ireadwf=   0

--- !BeginCycle
iteration_state: {dtset: 12, }
solver: {iscf: -3, nstep: 30, nline: 4, wfoptalg: 10, }
tolerances: {tolwfr: 1.00E-20, }
...
 
     iter   2DEtotal(Ha)        deltaE(Ha) residm    vres2
-ETOT  1  -9.7149281479614     -9.715E+00 1.129E-02 0.000E+00
 ETOT  2  -9.7175719515441     -2.644E-03 6.705E-06 0.000E+00
 ETOT  3  -9.7175737225715     -1.771E-06 5.967E-09 0.000E+00
 ETOT  4  -9.7175737248072     -2.236E-09 5.162E-12 0.000E+00
 ETOT  5  -9.7175737248103     -3.066E-12 9.521E-15 0.000E+00
 ETOT  6  -9.7175737248103     -2.665E-14 9.561E-18 0.000E+00
 ETOT  7  -9.7175737248103     -1.776E-14 1.848E-20 0.000E+00
 ETOT  8  -9.7175737248103      7.105E-15 8.807E-21 0.000E+00
 
 At SCF step    8   max residual=  8.81E-21 < tolwfr=  1.00E-20 =>converged.
================================================================================
 
 ----iterations are completed or convergence reached----
 
 Mean square residual over all n,k,spin=   34.251E-22; max=  88.067E-22
 dfpt_looppert : ek2=    1.7858742990E+01
          f-sum rule ratio=    1.2091276259E+00
 Expectation of eigenvalue derivatives (hartree) for nkpt=  32  k points:
  (in case of degenerate eigenvalues, averaged derivative)
 kpt#   1, nband=  4, wtk=  0.03125, kpt= -0.2500  0.5000  0.0000 (reduced coord)
   0.09571   -0.04929   -0.19581   -0.05384
 prteigrs : prtvol=0 or 1, do not print more k-points.
 
 
 Nine components of 2nd-order total energy (hartree) are
 1,2,3: 0th-order hamiltonian combined with 1st-order wavefunctions
     kin0=   2.81476494E+01 eigvalue=  -7.23841416E+00  local=  -3.07839328E+01  nclr dpl0=  -8.19179472E-08
 4,5,6: 1st-order hamiltonian combined with 1st and 0th-order wfs
     kin1=  -2.15934995E+01  Hartree=   0.00000000E+00     xc=   0.00000000E+00  nclr dpl1=   5.92031741E-09
 7,8,9: eventually, occupation + non-local contributions
    edocc=   0.00000000E+00     enl0=   1.94832672E+01   enl1=   2.26735625E+00
 10: eventually, PAW "on-site" Hxc contribution: epaw1=   0.00000000E+00
 1-10 gives the relaxation energy (to be shifted if some occ is /=2.0)
   erelax=  -9.71757372E+00
 11 Contribution from 1st-order change of wavefunctions overlap
 eovl1 =  -5.45020951E-02
  No Ewald or frozen-wf contrib.: the relaxation energy is the total one
 2DEtotal=   -0.9717573725E+01 Ha. Also 2DEtotal=   -0.264428628814E+03 eV
    (  non-var. 2DEtotal :   -9.7175737247E+00 Ha)
 
====================================================
 
 Orbital magnetic moment computed with DFPT derivative wavefunctions 
 
 Orbital magnetic moment, Cartesian directions :
 -3.19785605E-04  1.70860102E-09 -1.85103381E-09
 
 
 Chern vector, Cartesian directions :
  4.56637143E-06 -7.34027638E-11  7.33938289E-11
 
 
 Orbital magnetic moment, term-by-term breakdown :
     rho(1) CC :   2.80717068E-04  1.86602205E-09 -1.86463864E-09
    rho(1) VV1 :  -6.95505145E-06  6.29746077E-14  3.76556150E-14
    rho(1) VV2 :  -1.25837660E-09  1.62952308E-12  4.22272476E-13
     rho(0) NL :   1.79313829E-04 -1.18914489E-10 -1.61791161E-11
   <L_R> terms :  -3.66825333E-06 -4.01987723E-11  2.93240397E-11
 <A0.An> terms :  -2.43193898E-06 -2.71831864E-16 -1.78063363E-17
    Lamb terms :  -7.66760000E-04  0.00000000E+00  0.00000000E+00
 Chern vector, term-by-term breakdown :
  Ch CC :   4.39307861E-06 -7.33890654E-11  7.33890764E-11
 Ch vv1 :   1.73292824E-07 -1.36984397E-14  4.75251030E-15
 Ch vv2 :   2.11758237E-22 -8.69822520E-23 -1.87208425E-23
 
 
 Term-by-term breakdowns for each band :
 
 
 band   1 of   4
 Orbital magnetic moment :   3.20638303E-05  3.51590269E-12 -1.61901157E-12
     rho(1) CC :   6.34111151E-06  2.66225657E-14 -1.70403988E-14
    rho(1) VV1 :  -1.95022106E-06  4.92658973E-19 -1.03260549E-19
    rho(1) VV2 :  -1.84327863E-08  1.54549508E-12  3.39739556E-13
     rho(0) NL :   2.81117219E-05  1.94171061E-12 -1.94171062E-12
   <L_R> terms :  -1.15878124E-07  2.07394672E-15 -3.84956813E-21
 <A0.An> terms :  -3.04471220E-07 -2.82537110E-23  0.00000000E+00
 
 
 Chern vector :   2.29174874E-09 -1.46711270E-14 -3.18261969E-15
  Ch CC :  -1.81686144E-08 -3.50851122E-17  3.48037900E-17
 Ch VV1 :   2.02869039E-08  6.78089064E-22 -4.34400807E-22
 Ch VV2 :   1.73459188E-10 -1.46360426E-14 -3.21742304E-15
 
 
 band   2 of   4
 Orbital magnetic moment :   1.55841175E-04  1.07085900E-11 -1.49544367E-12
     rho(1) CC :   7.38433313E-05 -2.47779241E-13  2.47567038E-13
    rho(1) VV1 :  -2.36554913E-06  1.26710797E-14 -1.26710797E-14
    rho(1) VV2 :   2.45737549E-08  8.39613469E-14  8.27857415E-14
     rho(0) NL :   8.31811831E-05 -2.31477145E-13  1.92790517E-13
   <L_R> terms :   1.83272367E-06  1.10912140E-11 -2.00591589E-12
 <A0.An> terms :  -6.75087325E-07  1.13014844E-22  1.13014844E-22
 
 
 Chern vector :  -1.03518439E-06  6.47065513E-17 -6.04311235E-15
  Ch CC :  -1.09067627E-06  3.36127969E-15 -3.34817630E-15
 Ch VV1 :   5.60952141E-08 -2.79560518E-16  2.79560412E-16
 Ch VV2 :  -6.03328804E-10 -3.01701262E-15 -2.97449647E-15
 
 
 band   3 of   4
 Orbital magnetic moment :  -5.26519556E-02 -5.62899051E-11  2.35194637E-10
     rho(1) CC :  -7.53939314E-02 -1.21020529E-12  1.13764673E-12
    rho(1) VV1 :  -2.09166831E-06  3.17145994E-14 -1.84720033E-15
    rho(1) VV2 :  -2.57148876E-09  3.92541093E-16 -4.39954855E-16
     rho(0) NL :   2.76198011E-02 -6.88918889E-11  2.07315230E-10
   <L_R> terms :  -4.87503774E-03  1.37785263E-11  2.67442648E-11
 <A0.An> terms :  -6.93372668E-07  1.55570448E-15 -2.17607144E-16
 
 
 Chern vector :  -8.30814840E-03 -7.59839594E-14  6.07991206E-14
  Ch CC :  -8.43669662E-03 -8.94599033E-14  5.36752013E-14
 Ch VV1 :   1.27916894E-04 -1.44659000E-20  1.44659000E-20
 Ch VV2 :   6.31319846E-07  1.34759584E-14  7.12390482E-15
 
 
 band   4 of   4
 Orbital magnetic moment :   5.29110250E-02  1.75066643E-09 -2.08311399E-09
     rho(1) CC :   7.55944640E-02  1.86745341E-09 -1.86600681E-09
    rho(1) VV1 :  -5.47612953E-07  1.85884359E-14  5.21739984E-14
    rho(1) VV2 :  -4.82785640E-09 -3.25883147E-16  1.87133196E-16
     rho(0) NL :  -2.75517802E-02 -5.17328333E-11 -2.21745426E-10
   <L_R> terms :   4.86965264E-03 -6.50705865E-11  4.58569078E-12
 <A0.An> terms :  -7.59007770E-07 -1.82753643E-15  1.99800695E-16
 
 
 Chern vector :   8.31374767E-03 -7.33121734E-11  7.33422555E-11
  Ch CC :   8.44219854E-03 -7.33029317E-11  7.33387145E-11
 Ch VV1 :  -1.27819984E-04 -1.34188654E-14  4.47293585E-15
 Ch VV2 :  -6.30889977E-07  4.17709673E-15 -9.31985331E-16
 
====================================================
 
================================================================================
 
 ---- first-order wavefunction calculations are completed ----
 
 
 respfn : d/dk was computed, but no 2DTE, so no DDB output.
 
================================================================================
== DATASET 21 ==================================================================
-   mpi_nproc: 1, omp_nthreads: -1 (-1 if OMP is not activated)
 

--- !DatasetInfo
iteration_state: {dtset: 21, }
dimensions: {natom: 2, nkpt: 32, mband: 4, nsppol: 1, nspinor: 1, nspden: 1, mpw: 150, }
cutoff_energies: {ecut:   5.0, pawecutdg:  10.0, }
electrons: {nelect:   8.00000000E+00, charge:   0.00000000E+00, occopt:   1.00000000E+00, tsmear:   1.00000000E-02, }
meta: {optdriver: 0, ionmov: 0, optcell: 0, iscf: 17, paral_kgb: 0, }
...

 Real(R)+Recip(G) space primitive vectors, cartesian coordinates (Bohr,Bohr^-1):
 R(1)=  0.0000000  5.1504485  5.1504485  G(1)= -0.0970789  0.0970789  0.0970789
 R(2)=  5.1504485  0.0000000  5.1504485  G(2)=  0.0970789 -0.0970789  0.0970789
 R(3)=  5.1504485  5.1504485  0.0000000  G(3)=  0.0970789  0.0970789 -0.0970789
 Unit cell volume ucvol=  2.7325313E+02 bohr^3
 Angles (23,13,12)=  6.00000000E+01  6.00000000E+01  6.00000000E+01 degrees
 
 Coarse grid specifications (used for wave-functions):
 
 getcut: wavevector=  0.0000  0.0000  0.0000  ngfft=  16  16  16
         ecut(hartree)=      5.000   => boxcut(ratio)=   2.18228
 
 Fine grid specifications (used for densities):
 
 getcut: wavevector=  0.0000  0.0000  0.0000  ngfft=  24  24  24
         ecut(hartree)=     10.000   => boxcut(ratio)=   2.31465
 
 getcut : COMMENT -
  Note that boxcut > 2.2 ; recall that boxcut=Gcut(box)/Gcut(sphere) = 2
  is sufficient for exact treatment of convolution.
  Such a large boxcut is a waste : you could raise ecut
  e.g. ecut=   13.394057 Hartrees makes boxcut=2
 
 
--- Pseudopotential description ------------------------------------------------
- pspini: atom type   1  psp file is /home/jzwanzig/local/abinit-develop/tests/Pspdir/Psdj_paw_pbe_std/P.xml
- pspatm: opening atomic psp file    /home/jzwanzig/local/abinit-develop/tests/Pspdir/Psdj_paw_pbe_std/P.xml
- pspatm : Reading pseudopotential header in XML form from /home/jzwanzig/local/abinit-develop/tests/Pspdir/Psdj_paw_pbe_std/P.xml
 Pseudopotential format is: paw10
 basis_size (lnmax)=  4 (lmn_size=  8), orbitals=   0   0   1   1
 Spheres core radius: rc_sph= 1.90690075
 1 radial meshes are used:
  - mesh 1: r(i)=AA*[exp(BB*(i-1))-1], size=2001 , AA= 0.40634E-03 BB= 0.60952E-02
 Shapefunction is SIN type: shapef(r)=[sin(pi*r/rshp)/(pi*r/rshp)]**2
 Radius for shape functions =  1.60765221
 mmax= 2001
 Radial grid used for partial waves is grid 1
 Radial grid used for projectors is grid 1
 Radial grid used for (t)core density is grid 1
 Radial grid used for Vloc is grid 1
 Radial grid used for pseudo valence density is grid 1
 Mesh size for Vloc has been set to 1773 to avoid numerical noise.
 Compensation charge density is not taken into account in XC energy/potential
 pspatm: atomic psp has been read  and splines computed
 
- pspini: atom type   2  psp file is /home/jzwanzig/local/abinit-develop/tests/Pspdir/Psdj_paw_pbe_std/Al.xml
- pspatm: opening atomic psp file    /home/jzwanzig/local/abinit-develop/tests/Pspdir/Psdj_paw_pbe_std/Al.xml
- pspatm : Reading pseudopotential header in XML form from /home/jzwanzig/local/abinit-develop/tests/Pspdir/Psdj_paw_pbe_std/Al.xml
 Pseudopotential format is: paw10
 basis_size (lnmax)=  4 (lmn_size=  8), orbitals=   0   0   1   1
 Spheres core radius: rc_sph= 1.90363307
 1 radial meshes are used:
  - mesh 1: r(i)=AA*[exp(BB*(i-1))-1], size=2001 , AA= 0.46377E-03 BB= 0.60291E-02
 Shapefunction is SIN type: shapef(r)=[sin(pi*r/rshp)/(pi*r/rshp)]**2
 Radius for shape functions =  1.60786206
 mmax= 2001
 Radial grid used for partial waves is grid 1
 Radial grid used for projectors is grid 1
 Radial grid used for (t)core density is grid 1
 Radial grid used for Vloc is grid 1
 Radial grid used for pseudo valence density is grid 1
 Mesh size for Vloc has been set to 1771 to avoid numerical noise.
 Compensation charge density is not taken into account in XC energy/potential
 pspatm: atomic psp has been read  and splines computed
 
--------------------------------------------------------------------------------
 
_setup2: Arith. and geom. avg. npw (full set) are     146.250     146.234
 
================================================================================

--- !BeginCycle
iteration_state: {dtset: 21, }
solver: {iscf: 17, nstep: 30, nline: 4, wfoptalg: 10, }
tolerances: {tolvrs: 1.00E-18, }
...
 
     iter   Etot(hartree)      deltaE(h)  residm     nres2
 ETOT  1  -8.7885319965453    -8.789E+00 4.023E-02 7.059E-01
 ETOT  2  -8.7995960376838    -1.106E-02 9.674E-05 1.122E-01
 ETOT  3  -8.7986861209429     9.099E-04 6.266E-06 5.261E-03
 ETOT  4  -8.7988042821423    -1.182E-04 6.952E-08 5.273E-04
 ETOT  5  -8.7988412440818    -3.696E-05 1.626E-08 3.924E-05
 ETOT  6  -8.7988453659767    -4.122E-06 8.878E-10 1.900E-06
 ETOT  7  -8.7988455566282    -1.907E-07 4.092E-10 3.893E-08
 ETOT  8  -8.7988455582875    -1.659E-09 2.516E-11 8.185E-09
 ETOT  9  -8.7988455589688    -6.813E-10 4.241E-12 1.366E-09
 ETOT 10  -8.7988455590794    -1.106E-10 1.116E-13 2.383E-10
 ETOT 11  -8.7988455590979    -1.849E-11 1.935E-13 1.182E-11
 ETOT 12  -8.7988455590982    -2.558E-13 4.195E-15 3.618E-12
 ETOT 13  -8.7988455590982     1.599E-14 5.029E-15 2.329E-13
 ETOT 14  -8.7988455590982    -1.599E-14 1.366E-16 5.910E-14
 ETOT 15  -8.7988455590982     1.243E-14 3.684E-17 1.387E-15
 ETOT 16  -8.7988455590982    -1.776E-15 7.566E-19 1.191E-16
 ETOT 17  -8.7988455590981     4.086E-14 7.692E-20 4.843E-17
 ETOT 18  -8.7988455590982    -3.553E-14 6.931E-21 3.586E-18
 ETOT 19  -8.7988455590981     5.329E-15 1.737E-21 1.519E-20
 
 At SCF step   19       nres2   =  1.52E-20 < tolvrs=  1.00E-18 =>converged.

--- !ResultsGS
iteration_state: {dtset: 21, }
comment   : Summary of ground state results
lattice_vectors:
- [  0.0000000,   5.1504485,   5.1504485, ]
- [  5.1504485,   0.0000000,   5.1504485, ]
- [  5.1504485,   5.1504485,   0.0000000, ]
lattice_lengths: [   7.28383,    7.28383,    7.28383, ]
lattice_angles: [ 60.000,  60.000,  60.000, ] # degrees, (23, 13, 12)
lattice_volume:   2.7325313E+02
convergence: {deltae:  5.329E-15, res2:  1.519E-20, residm:  1.737E-21, diffor:  0.000E+00, }
etotal    :  -8.79884556E+00
entropy   :   0.00000000E+00
fermie    :   1.86474086E-01
cartesian_stress_tensor: null
pressure_GPa: null
xred      :
- [  2.5000E-01,   2.5000E-01,   2.5000E-01,  P]
- [  0.0000E+00,   0.0000E+00,   0.0000E+00, Al]
cartesian_forces: null
force_length_stats: {min: null, max: null, mean: null, }
...

 Integrated electronic density in atomic spheres:
 ------------------------------------------------
 Atom  Sphere_radius  Integrated_density
    1        1.90690          2.59107248
    2        1.90363          0.77743734
 
 PAW TEST:
 ==== Compensation charge inside spheres ============
 The following values must be close to each other ...
 Compensation charge over spherical meshes =     -0.546065675177937
 Compensation charge over fine fft grid    =     -0.545952682155456
 
 ==== Results concerning PAW augmentation regions ====
 
 Total pseudopotential strength Dij (hartree):
 Atom #  1
   === REAL PART:
   1.37418   0.02590   0.00000   0.00000   0.00000   0.00000   0.00000   0.00000
   0.02590  28.09307   0.00000   0.00000   0.00000   0.00000   0.00000   0.00000
   0.00000   0.00000   0.26947   0.00000   0.00000   0.00972   0.00000   0.00000
   0.00000   0.00000   0.00000   0.26947   0.00000   0.00000   0.00972   0.00000
   0.00000   0.00000   0.00000   0.00000   0.26947   0.00000   0.00000   0.00972
   0.00000   0.00000   0.00972   0.00000   0.00000  17.75512   0.00000   0.00000
   0.00000   0.00000   0.00000   0.00972   0.00000   0.00000  17.75512   0.00000
   0.00000   0.00000   0.00000   0.00000   0.00972   0.00000   0.00000  17.75512
   === IMAGINARY PART:
   0.00000   0.00000   0.00000   0.00000   0.00000   0.00000   0.00000   0.00000
   0.00000   0.00000   0.00000   0.00000   0.00000   0.00000   0.00000   0.00000
   0.00000   0.00000   0.00000   0.00000   0.00000   0.00000   0.00000   0.00000
   0.00000   0.00000   0.00000   0.00000   0.00000   0.00000   0.00000   0.00000
   0.00000   0.00000   0.00000   0.00000   0.00000   0.00000   0.00000   0.00000
   0.00000   0.00000   0.00000   0.00000   0.00000   0.00000   0.00000   0.00000
   0.00000   0.00000   0.00000   0.00000   0.00000   0.00000   0.00000   0.00000
   0.00000   0.00000   0.00000   0.00000   0.00000   0.00000   0.00000   0.00000
 Atom #  2
   === REAL PART:
   0.32752  -0.04467   0.00000   0.00000   0.00000   0.00000   0.00000   0.00000
  -0.04467  39.58583   0.00000   0.00000   0.00000   0.00000   0.00000   0.00000
   0.00000   0.00000   0.07334   0.00000   0.00000  -0.13862   0.00000   0.00000
   0.00000   0.00000   0.00000   0.07334   0.00000   0.00000  -0.13862   0.00000
   0.00000   0.00000   0.00000   0.00000   0.07334   0.00000   0.00000  -0.13862
   0.00000   0.00000  -0.13862   0.00000   0.00000  23.84379   0.00000   0.00000
   0.00000   0.00000   0.00000  -0.13862   0.00000   0.00000  23.84379   0.00000
   0.00000   0.00000   0.00000   0.00000  -0.13862   0.00000   0.00000  23.84379
   === IMAGINARY PART:
   0.00000   0.00000   0.00000   0.00000   0.00000   0.00000   0.00000   0.00000
   0.00000   0.00000   0.00000   0.00000   0.00000   0.00000   0.00000   0.00000
   0.00000   0.00000   0.00000   0.00007   0.00000   0.00000  -0.00106   0.00000
   0.00000   0.00000  -0.00007   0.00000   0.00000   0.00106   0.00000   0.00000
   0.00000   0.00000   0.00000   0.00000   0.00000   0.00000   0.00000   0.00000
   0.00000   0.00000   0.00000  -0.00106   0.00000   0.00000   0.01606   0.00000
   0.00000   0.00000   0.00106   0.00000   0.00000  -0.01606   0.00000   0.00000
   0.00000   0.00000   0.00000   0.00000   0.00000   0.00000   0.00000   0.00000
 
 
 Augmentation waves occupancies Rhoij:
 Atom #  1
   === REAL PART:
   1.66554   0.00546   0.00000   0.00000   0.00000   0.00000   0.00000   0.00000
   0.00546   0.00003   0.00000   0.00000   0.00000   0.00000   0.00000   0.00000
   0.00000   0.00000   1.15687  -0.00000   0.00000   0.00644   0.00000   0.00000
   0.00000   0.00000  -0.00000   1.15687   0.00000   0.00000   0.00644   0.00000
   0.00000   0.00000   0.00000   0.00000   1.15687   0.00000   0.00000   0.00644
   0.00000   0.00000   0.00644   0.00000   0.00000   0.00004   0.00000   0.00000
   0.00000   0.00000   0.00000   0.00644   0.00000   0.00000   0.00004   0.00000
   0.00000   0.00000   0.00000   0.00000   0.00644   0.00000   0.00000   0.00004
   === IMAGINARY PART:
   0.00000   0.00000   0.00000   0.00000   0.00000   0.00000   0.00000   0.00000
  -0.00000   0.00000   0.00000   0.00000   0.00000   0.00000   0.00000   0.00000
   0.00000   0.00000   0.00000   0.00003   0.00000   0.00000   0.00000   0.00000
   0.00000   0.00000  -0.00003   0.00000   0.00000  -0.00000   0.00000   0.00000
   0.00000   0.00000   0.00000   0.00000   0.00000   0.00000   0.00000   0.00000
   0.00000   0.00000  -0.00000   0.00000   0.00000   0.00000  -0.00000   0.00000
   0.00000   0.00000  -0.00000  -0.00000   0.00000   0.00000   0.00000   0.00000
   0.00000   0.00000   0.00000   0.00000  -0.00000   0.00000   0.00000   0.00000
 Atom #  2
   === REAL PART:
   1.19626  -0.00129   0.00000   0.00000   0.00000   0.00000   0.00000   0.00000
  -0.00129   0.00000   0.00000   0.00000   0.00000   0.00000   0.00000   0.00000
   0.00000   0.00000   0.85318   0.00000   0.00000  -0.00071  -0.00000   0.00000
   0.00000   0.00000   0.00000   0.85318   0.00000  -0.00000  -0.00071   0.00000
   0.00000   0.00000   0.00000   0.00000   0.85318   0.00000   0.00000  -0.00071
   0.00000   0.00000  -0.00071  -0.00000   0.00000   0.00000   0.00000   0.00000
   0.00000   0.00000  -0.00000  -0.00071   0.00000   0.00000   0.00000   0.00000
   0.00000   0.00000   0.00000   0.00000  -0.00071   0.00000   0.00000   0.00000
   === IMAGINARY PART:
   0.00000  -0.00000   0.00000   0.00000   0.00000   0.00000   0.00000   0.00000
   0.00000   0.00000   0.00000   0.00000   0.00000   0.00000   0.00000   0.00000
   0.00000   0.00000   0.00000   0.00145   0.00000  -0.00000   0.00001   0.00000
   0.00000   0.00000  -0.00145   0.00000   0.00000  -0.00001   0.00000   0.00000
   0.00000   0.00000   0.00000   0.00000   0.00000   0.00000   0.00000   0.00000
   0.00000   0.00000   0.00000   0.00001   0.00000   0.00000  -0.00000   0.00000
   0.00000   0.00000  -0.00001  -0.00000   0.00000   0.00000   0.00000   0.00000
   0.00000   0.00000   0.00000   0.00000  -0.00000   0.00000   0.00000   0.00000
 
 
================================================================================
 
 ----iterations are completed or convergence reached----
 
 Mean square residual over all n,k,spin=   61.608E-23; max=  17.367E-22
 reduced coordinates (array xred) for    2 atoms
       0.250000000000      0.250000000000      0.250000000000
       0.000000000000      0.000000000000      0.000000000000
 rms dE/dt=  0.0000E+00; max dE/dt=  0.0000E+00; dE/dt below (all hartree)
    1       0.000000000000      0.000000000000      0.000000000000
    2       0.000000000000      0.000000000000      0.000000000000
 
 cartesian coordinates (angstrom) at end:
    1      1.36274997628497     1.36274997628497     1.36274997628497
    2      0.00000000000000     0.00000000000000     0.00000000000000
 length scales= 10.300896971100 10.300896971100 10.300896971100 bohr
              =  5.450999905140  5.450999905140  5.450999905140 angstroms
 Fermi (or HOMO) energy (hartree) =   0.18647   Average Vxc (hartree)=  -0.33357
 Eigenvalues (hartree) for nkpt=  32  k points:
 kpt#   1, nband=  4, wtk=  0.03125, kpt= -0.2500  0.5000  0.0000 (reduced coord)
  -0.15248    0.02060    0.10379    0.14530
 prteigrs : prtvol=0 or 1, do not print more k-points.
 

--- !EnergyTerms
iteration_state     : {dtset: 21, }
comment             : Components of total free energy in Hartree
kinetic             :  3.59033342131540E+00
hartree             :  9.18228658169410E-01
xc                  : -3.11568048012944E+00
Ewald energy        : -8.73435537339883E+00
psp_core            : -9.73433600340451E-02
local_psp           : -3.09233205608430E+00
spherical_terms     :  1.73230364086518E+00
nucl. magn. dipoles : -9.81697351548917E-09
total_energy        : -8.79884555911360E+00
total_energy_eV     : -2.39428764033897E+02
...


--- !EnergyTermsDC
iteration_state     : {dtset: 21, }
comment             : '"Double-counting" decomposition of free energy'
band_energy         :  3.04636567318359E-01
Ewald energy        : -8.73435537339883E+00
psp_core            : -9.73433600340451E-02
xc_dc               : -3.52445090428119E-01
spherical_terms     :  8.06616974444889E-02
total_energy_dc     : -8.79884555909815E+00
total_energy_dc_eV  : -2.39428764033476E+02
...

 
================================================================================
== DATASET 22 ==================================================================
-   mpi_nproc: 1, omp_nthreads: -1 (-1 if OMP is not activated)
 

--- !DatasetInfo
iteration_state: {dtset: 22, }
dimensions: {natom: 2, nkpt: 32, mband: 4, nsppol: 1, nspinor: 1, nspden: 1, mpw: 150, }
cutoff_energies: {ecut:   5.0, pawecutdg:  10.0, }
electrons: {nelect:   8.00000000E+00, charge:   0.00000000E+00, occopt:   1.00000000E+00, tsmear:   1.00000000E-02, }
meta: {optdriver: 1, rfddk: 1, }
...

 mkfilename : getwfk/=0, take file _WFK from output of DATASET  21.
 
 Real(R)+Recip(G) space primitive vectors, cartesian coordinates (Bohr,Bohr^-1):
 R(1)=  0.0000000  5.1504485  5.1504485  G(1)= -0.0970789  0.0970789  0.0970789
 R(2)=  5.1504485  0.0000000  5.1504485  G(2)=  0.0970789 -0.0970789  0.0970789
 R(3)=  5.1504485  5.1504485  0.0000000  G(3)=  0.0970789  0.0970789 -0.0970789
 Unit cell volume ucvol=  2.7325313E+02 bohr^3
 Angles (23,13,12)=  6.00000000E+01  6.00000000E+01  6.00000000E+01 degrees
 
 Coarse grid specifications (used for wave-functions):
 
 getcut: wavevector=  0.0000  0.0000  0.0000  ngfft=  16  16  16
         ecut(hartree)=      5.000   => boxcut(ratio)=   2.18228
 
 Fine grid specifications (used for densities):
 
 getcut: wavevector=  0.0000  0.0000  0.0000  ngfft=  24  24  24
         ecut(hartree)=     10.000   => boxcut(ratio)=   2.31465
 
 getcut : COMMENT -
  Note that boxcut > 2.2 ; recall that boxcut=Gcut(box)/Gcut(sphere) = 2
  is sufficient for exact treatment of convolution.
  Such a large boxcut is a waste : you could raise ecut
  e.g. ecut=   13.394057 Hartrees makes boxcut=2
 
 
--- Pseudopotential description ------------------------------------------------
- pspini: atom type   1  psp file is /home/jzwanzig/local/abinit-develop/tests/Pspdir/Psdj_paw_pbe_std/P.xml
- pspatm: opening atomic psp file    /home/jzwanzig/local/abinit-develop/tests/Pspdir/Psdj_paw_pbe_std/P.xml
- pspatm : Reading pseudopotential header in XML form from /home/jzwanzig/local/abinit-develop/tests/Pspdir/Psdj_paw_pbe_std/P.xml
 Pseudopotential format is: paw10
 basis_size (lnmax)=  4 (lmn_size=  8), orbitals=   0   0   1   1
 Spheres core radius: rc_sph= 1.90690075
 1 radial meshes are used:
  - mesh 1: r(i)=AA*[exp(BB*(i-1))-1], size=2001 , AA= 0.40634E-03 BB= 0.60952E-02
 Shapefunction is SIN type: shapef(r)=[sin(pi*r/rshp)/(pi*r/rshp)]**2
 Radius for shape functions =  1.60765221
 mmax= 2001
 Radial grid used for partial waves is grid 1
 Radial grid used for projectors is grid 1
 Radial grid used for (t)core density is grid 1
 Radial grid used for Vloc is grid 1
 Radial grid used for pseudo valence density is grid 1
 Mesh size for Vloc has been set to 1773 to avoid numerical noise.
 Compensation charge density is not taken into account in XC energy/potential
 pspatm: atomic psp has been read  and splines computed
 
- pspini: atom type   2  psp file is /home/jzwanzig/local/abinit-develop/tests/Pspdir/Psdj_paw_pbe_std/Al.xml
- pspatm: opening atomic psp file    /home/jzwanzig/local/abinit-develop/tests/Pspdir/Psdj_paw_pbe_std/Al.xml
- pspatm : Reading pseudopotential header in XML form from /home/jzwanzig/local/abinit-develop/tests/Pspdir/Psdj_paw_pbe_std/Al.xml
 Pseudopotential format is: paw10
 basis_size (lnmax)=  4 (lmn_size=  8), orbitals=   0   0   1   1
 Spheres core radius: rc_sph= 1.90363307
 1 radial meshes are used:
  - mesh 1: r(i)=AA*[exp(BB*(i-1))-1], size=2001 , AA= 0.46377E-03 BB= 0.60291E-02
 Shapefunction is SIN type: shapef(r)=[sin(pi*r/rshp)/(pi*r/rshp)]**2
 Radius for shape functions =  1.60786206
 mmax= 2001
 Radial grid used for partial waves is grid 1
 Radial grid used for projectors is grid 1
 Radial grid used for (t)core density is grid 1
 Radial grid used for Vloc is grid 1
 Radial grid used for pseudo valence density is grid 1
 Mesh size for Vloc has been set to 1771 to avoid numerical noise.
 Compensation charge density is not taken into account in XC energy/potential
 pspatm: atomic psp has been read  and splines computed
 
--------------------------------------------------------------------------------
 
 
 ==>  initialize data related to q vector <== 
 
 The list of irreducible perturbations for this q vector is:
    1)    idir= 1    ipert=   3
    2)    idir= 2    ipert=   3
    3)    idir= 3    ipert=   3
 
================================================================================
 
--------------------------------------------------------------------------------
 Perturbation wavevector (in red.coord.)   0.000000  0.000000  0.000000
 Perturbation : derivative vs k along direction   1
 The set of symmetries contains only one element for this perturbation.
 symkpt : not enough symmetry to change the number of k points.
 
--------------------------------------------------------------------------------
 
--------------------------------------------------------------------------------
 
 Initialisation of the first-order wave-functions :
  ireadwf=   0

--- !BeginCycle
iteration_state: {dtset: 22, }
solver: {iscf: -3, nstep: 30, nline: 4, wfoptalg: 10, }
tolerances: {tolwfr: 1.00E-20, }
...
 
     iter   2DEtotal(Ha)        deltaE(Ha) residm    vres2
-ETOT  1  -9.7149281524011     -9.715E+00 1.129E-02 0.000E+00
 ETOT  2  -9.7175719558991     -2.644E-03 6.705E-06 0.000E+00
 ETOT  3  -9.7175737269264     -1.771E-06 5.967E-09 0.000E+00
 ETOT  4  -9.7175737291621     -2.236E-09 5.162E-12 0.000E+00
 ETOT  5  -9.7175737291651     -3.064E-12 9.521E-15 0.000E+00
 ETOT  6  -9.7175737291651      3.553E-15 9.561E-18 0.000E+00
 ETOT  7  -9.7175737291651     -8.882E-15 1.848E-20 0.000E+00
 ETOT  8  -9.7175737291651      3.553E-15 8.807E-21 0.000E+00
 
 At SCF step    8   max residual=  8.81E-21 < tolwfr=  1.00E-20 =>converged.
================================================================================
 
 ----iterations are completed or convergence reached----
 
 Mean square residual over all n,k,spin=   34.218E-22; max=  88.067E-22
 dfpt_looppert : ek2=    1.7858742990E+01
          f-sum rule ratio=    1.2091276265E+00
 Expectation of eigenvalue derivatives (hartree) for nkpt=  32  k points:
  (in case of degenerate eigenvalues, averaged derivative)
 kpt#   1, nband=  4, wtk=  0.03125, kpt= -0.2500  0.5000  0.0000 (reduced coord)
  -0.07323   -0.08306    0.19740    0.15068
 prteigrs : prtvol=0 or 1, do not print more k-points.
 
 
 Nine components of 2nd-order total energy (hartree) are
 1,2,3: 0th-order hamiltonian combined with 1st-order wavefunctions
     kin0=   2.81476494E+01 eigvalue=  -7.23841417E+00  local=  -3.07839328E+01  nclr dpl0=  -8.16431048E-08
 4,5,6: 1st-order hamiltonian combined with 1st and 0th-order wfs
     kin1=  -2.15934995E+01  Hartree=   0.00000000E+00     xc=   0.00000000E+00  nclr dpl1=   5.90116931E-09
 7,8,9: eventually, occupation + non-local contributions
    edocc=   0.00000000E+00     enl0=   1.94832672E+01   enl1=   2.26735625E+00
 10: eventually, PAW "on-site" Hxc contribution: epaw1=   0.00000000E+00
 1-10 gives the relaxation energy (to be shifted if some occ is /=2.0)
   erelax=  -9.71757373E+00
 11 Contribution from 1st-order change of wavefunctions overlap
 eovl1 =  -5.45020951E-02
  No Ewald or frozen-wf contrib.: the relaxation energy is the total one
 2DEtotal=   -0.9717573729E+01 Ha. Also 2DEtotal=   -0.264428628932E+03 eV
    (  non-var. 2DEtotal :   -9.7175737291E+00 Ha)
 
--------------------------------------------------------------------------------
 Perturbation wavevector (in red.coord.)   0.000000  0.000000  0.000000
 Perturbation : derivative vs k along direction   2
 The set of symmetries contains only one element for this perturbation.
 symkpt : not enough symmetry to change the number of k points.
 
--------------------------------------------------------------------------------
 
--------------------------------------------------------------------------------
 
 Initialisation of the first-order wave-functions :
  ireadwf=   0

--- !BeginCycle
iteration_state: {dtset: 22, }
solver: {iscf: -3, nstep: 30, nline: 4, wfoptalg: 10, }
tolerances: {tolwfr: 1.00E-20, }
...
 
     iter   2DEtotal(Ha)        deltaE(Ha) residm    vres2
-ETOT  1  -9.7149281522379     -9.715E+00 1.129E-02 0.000E+00
 ETOT  2  -9.7175719557357     -2.644E-03 6.705E-06 0.000E+00
 ETOT  3  -9.7175737267630     -1.771E-06 5.967E-09 0.000E+00
 ETOT  4  -9.7175737289987     -2.236E-09 5.162E-12 0.000E+00
 ETOT  5  -9.7175737290017     -3.020E-12 9.521E-15 0.000E+00
 ETOT  6  -9.7175737290017     -2.487E-14 9.561E-18 0.000E+00
 ETOT  7  -9.7175737290017     -8.882E-15 1.848E-20 0.000E+00
 ETOT  8  -9.7175737290017     -3.553E-15 8.807E-21 0.000E+00
 
 At SCF step    8   max residual=  8.81E-21 < tolwfr=  1.00E-20 =>converged.
================================================================================
 
 ----iterations are completed or convergence reached----
 
 Mean square residual over all n,k,spin=   34.218E-22; max=  88.067E-22
 dfpt_looppert : ek2=    1.7858742990E+01
          f-sum rule ratio=    1.2091276265E+00
 Expectation of eigenvalue derivatives (hartree) for nkpt=  32  k points:
  (in case of degenerate eigenvalues, averaged derivative)
 kpt#   1, nband=  4, wtk=  0.03125, kpt= -0.2500  0.5000  0.0000 (reduced coord)
  -0.11824    0.18163    0.19406   -0.04246
 prteigrs : prtvol=0 or 1, do not print more k-points.
 
 
 Nine components of 2nd-order total energy (hartree) are
 1,2,3: 0th-order hamiltonian combined with 1st-order wavefunctions
     kin0=   2.81476494E+01 eigvalue=  -7.23841417E+00  local=  -3.07839328E+01  nclr dpl0=  -8.16431048E-08
 4,5,6: 1st-order hamiltonian combined with 1st and 0th-order wfs
     kin1=  -2.15934995E+01  Hartree=   0.00000000E+00     xc=   0.00000000E+00  nclr dpl1=   5.90116931E-09
 7,8,9: eventually, occupation + non-local contributions
    edocc=   0.00000000E+00     enl0=   1.94832672E+01   enl1=   2.26735625E+00
 10: eventually, PAW "on-site" Hxc contribution: epaw1=   0.00000000E+00
 1-10 gives the relaxation energy (to be shifted if some occ is /=2.0)
   erelax=  -9.71757373E+00
 11 Contribution from 1st-order change of wavefunctions overlap
 eovl1 =  -5.45020951E-02
  No Ewald or frozen-wf contrib.: the relaxation energy is the total one
 2DEtotal=   -0.9717573729E+01 Ha. Also 2DEtotal=   -0.264428628928E+03 eV
    (  non-var. 2DEtotal :   -9.7175737289E+00 Ha)
 
--------------------------------------------------------------------------------
 Perturbation wavevector (in red.coord.)   0.000000  0.000000  0.000000
 Perturbation : derivative vs k along direction   3
 The set of symmetries contains only one element for this perturbation.
 symkpt : not enough symmetry to change the number of k points.
 
--------------------------------------------------------------------------------
 
--------------------------------------------------------------------------------
 
 Initialisation of the first-order wave-functions :
  ireadwf=   0

--- !BeginCycle
iteration_state: {dtset: 22, }
solver: {iscf: -3, nstep: 30, nline: 4, wfoptalg: 10, }
tolerances: {tolwfr: 1.00E-20, }
...
 
     iter   2DEtotal(Ha)        deltaE(Ha) residm    vres2
-ETOT  1  -9.7149281520669     -9.715E+00 1.129E-02 0.000E+00
[...]
    rho(1) VV1 :   1.23783133E-05 -8.68512952E-14 -7.08249686E-14
    rho(1) VV2 :  -6.14399772E-08 -9.51116369E-14  7.50182276E-14
     rho(0) NL :  -1.08782677E-02  1.11513533E-10 -6.76407212E-11
   <L_R> terms :   1.93060989E-03 -3.26005748E-11  1.65760507E-11
 <A0.An> terms :  -3.47234278E-07  1.06162698E-16 -1.76365315E-18
 
 
 Chern vector :   3.36959351E-03 -8.24290719E-15 -1.64730355E-13
  Ch CC :   3.42108972E-03 -1.78916566E-14 -1.61026761E-13
 Ch VV1 :  -5.12484090E-05  2.51603953E-15  2.51604676E-15
 Ch VV2 :  -2.47804186E-07  7.13270991E-15 -6.21964021E-15
 
 
 band   7 of   8
 Orbital magnetic moment :  -2.77987723E-02 -1.23407122E-09 -1.33488357E-09
     rho(1) CC :  -3.90433379E-02 -1.25012125E-09 -1.24959073E-09
    rho(1) VV1 :   2.52818128E-07  1.17373418E-14  4.27626341E-14
    rho(1) VV2 :   5.06829178E-08 -1.70086706E-15 -2.62701727E-16
     rho(0) NL :   1.36556816E-02  4.73540749E-12 -4.85142144E-11
   <L_R> terms :  -2.41103970E-03  1.13044514E-11 -3.68209805E-11
 <A0.An> terms :  -3.79767353E-07  1.32898393E-16 -1.52585918E-16
 
 
 Chern vector :  -4.28397552E-03  1.33665518E-13  1.21959613E-13
  Ch CC :  -4.34859452E-03  1.25242754E-13  1.25242754E-13
 Ch VV1 :   6.43087311E-05  2.23647516E-15 -2.23647516E-15
 Ch VV2 :   3.10268810E-07  6.18628946E-15 -1.04666565E-15
 
 
 band   8 of   8
 Orbital magnetic moment :   2.72619142E-02 -2.10039537E-10  1.74813904E-10
     rho(1) CC :   3.84904966E-02  3.42743531E-12  3.09802831E-12
    rho(1) VV1 :  -1.19949673E-06 -3.71836961E-14 -1.71587149E-14
    rho(1) VV2 :  -5.69262268E-08  1.82440097E-15 -1.41807695E-15
     rho(0) NL :  -1.36334887E-02 -2.08825381E-10  1.75486876E-10
   <L_R> terms :   2.40654212E-03 -4.60613167E-12 -3.75251997E-12
 <A0.An> terms :  -3.79387314E-07 -9.99218766E-17  9.68638644E-17
 
 
 Chern vector :   4.22334513E-03 -3.96501619E-14 -3.97829722E-14
  Ch CC :   4.28767837E-03 -3.35470008E-14 -4.69658012E-14
 Ch VV1 :  -6.40232795E-05 -4.47295394E-15  4.47295394E-15
 Ch VV2 :  -3.09957272E-07 -1.63020711E-15  2.70987504E-15
 
====================================================
 
================================================================================
 
 ---- first-order wavefunction calculations are completed ----
 
 
 respfn : d/dk was computed, but no 2DTE, so no DDB output.
 
== END DATASET(S) ==============================================================
================================================================================
  
 -outvars: echo values of variables after computation  --------
            acell      1.0300896971E+01  1.0300896971E+01  1.0300896971E+01 Bohr
              amu      3.09737620E+01  2.69815390E+01
         atndlist      1.0000000000E+00  0.0000000000E+00  0.0000000000E+00
             ecut      5.00000000E+00 Hartree
           etotal11   -8.7988455597E+00
           etotal12   -9.7175737248E+00
           etotal21   -8.7988455591E+00
           etotal22   -9.7175737288E+00
           etotal31   -8.7988622112E+00
           etotal32   -9.7176473737E+00
           etotal41   -8.7988622106E+00
           etotal42   -9.7176473778E+00
            fcart11    9.9999999999E+99  9.9999999999E+99  9.9999999999E+99
                       9.9999999999E+99  9.9999999999E+99  9.9999999999E+99
            fcart21    9.9999999999E+99  9.9999999999E+99  9.9999999999E+99
                       9.9999999999E+99  9.9999999999E+99  9.9999999999E+99
            fcart31    9.9999999999E+99  9.9999999999E+99  9.9999999999E+99
                       9.9999999999E+99  9.9999999999E+99  9.9999999999E+99
            fcart41    9.9999999999E+99  9.9999999999E+99  9.9999999999E+99
                       9.9999999999E+99  9.9999999999E+99  9.9999999999E+99
-          fftalg         512
           getwfk11         0
           getwfk12        -1
           getwfk21         0
           getwfk22        -1
           getwfk31         0
           getwfk32        -1
           getwfk41         0
           getwfk42        -1
            iatnd        2    0
             iscf11        17
             iscf12        -3
             iscf21        17
             iscf22        -3
             iscf31        17
             iscf32        -3
             iscf41        17
             iscf42        -3
              ixc     -101130
           jdtset       11   12   21   22   31   32   41   42
              kpt     -2.50000000E-01  5.00000000E-01  0.00000000E+00
                       5.00000000E-01 -2.50000000E-01  0.00000000E+00
                      -2.50000000E-01 -2.50000000E-01  2.50000000E-01
                      -2.50000000E-01  0.00000000E+00  0.00000000E+00
                       5.00000000E-01  2.50000000E-01  0.00000000E+00
                      -2.50000000E-01  2.50000000E-01  2.50000000E-01
                       2.50000000E-01  5.00000000E-01  0.00000000E+00
                       5.00000000E-01  5.00000000E-01  2.50000000E-01
                      -2.50000000E-01  5.00000000E-01  5.00000000E-01
                       0.00000000E+00 -2.50000000E-01  0.00000000E+00
                       2.50000000E-01 -2.50000000E-01  2.50000000E-01
                       5.00000000E-01 -2.50000000E-01  5.00000000E-01
                      -2.50000000E-01 -2.50000000E-01 -2.50000000E-01
                       2.50000000E-01  0.00000000E+00  0.00000000E+00
                       5.00000000E-01  0.00000000E+00  2.50000000E-01
                      -2.50000000E-01  0.00000000E+00  5.00000000E-01
                       0.00000000E+00  2.50000000E-01  0.00000000E+00
                       2.50000000E-01  2.50000000E-01  2.50000000E-01
                       5.00000000E-01  2.50000000E-01  5.00000000E-01
                      -2.50000000E-01  2.50000000E-01 -2.50000000E-01
                       0.00000000E+00  5.00000000E-01  2.50000000E-01
                       2.50000000E-01  5.00000000E-01  5.00000000E-01
                       5.00000000E-01  5.00000000E-01 -2.50000000E-01
                       0.00000000E+00 -2.50000000E-01  5.00000000E-01
                       2.50000000E-01 -2.50000000E-01 -2.50000000E-01
                       0.00000000E+00  0.00000000E+00  2.50000000E-01
                       2.50000000E-01  0.00000000E+00  5.00000000E-01
                       5.00000000E-01  0.00000000E+00 -2.50000000E-01
                       0.00000000E+00  2.50000000E-01  5.00000000E-01
                       2.50000000E-01  2.50000000E-01 -2.50000000E-01
                       0.00000000E+00  5.00000000E-01 -2.50000000E-01
                       0.00000000E+00  0.00000000E+00 -2.50000000E-01
           kptopt           3
         kptrlatt        2   -2    2     -2    2    2     -2   -2    2
          kptrlen      2.06017939E+01
          lambsig      0.00000000E+00  7.66760000E-04
P           mkmem          32
P          mkqmem          32
P          mk1mem          32
            natnd           1
            natom           2
            nband11         4
            nband12         4
            nband21         4
            nband22         4
            nband31         8
            nband32         8
            nband41         8
            nband42         8
           ndtset           8
            ngfft          16      16      16
          ngfftdg          24      24      24
             nkpt          32
          nspinor11         1
          nspinor12         1
          nspinor21         1
          nspinor22         1
          nspinor31         2
          nspinor32         2
          nspinor41         2
          nspinor42         2
             nsym           1
           ntypat           2
        nucdipmom      0.0000000000E+00  0.0000000000E+00  0.0000000000E+00
                       1.0000000000E+00  0.0000000000E+00  0.0000000000E+00
              occ11    2.000000  2.000000  2.000000  2.000000
              occ12    2.000000  2.000000  2.000000  2.000000
              occ21    2.000000  2.000000  2.000000  2.000000
              occ22    2.000000  2.000000  2.000000  2.000000
              occ31    1.000000  1.000000  1.000000  1.000000  1.000000  1.000000
                       1.000000  1.000000
              occ32    1.000000  1.000000  1.000000  1.000000  1.000000  1.000000
                       1.000000  1.000000
              occ41    1.000000  1.000000  1.000000  1.000000  1.000000  1.000000
                       1.000000  1.000000
              occ42    1.000000  1.000000  1.000000  1.000000  1.000000  1.000000
                       1.000000  1.000000
        optdriver11         0
        optdriver12         1
        optdriver21         0
        optdriver22         1
        optdriver31         0
        optdriver32         1
        optdriver41         0
        optdriver42         1
        optforces           0
        optstress           0
           orbmag11         0
           orbmag12         2
           orbmag21         0
           orbmag22         2
           orbmag31         0
           orbmag32         2
           orbmag41         0
           orbmag42         2
        pawcpxocc           2
        pawecutdg      1.00000000E+01 Hartree
        pawspnorb11         0
        pawspnorb12         0
        pawspnorb21         0
        pawspnorb22         0
        pawspnorb31         1
        pawspnorb32         1
        pawspnorb41         1
        pawspnorb42         1
           prtden           0
        prtebands           0
           prteig           0
           prtgsr           0
            prtwf11         1
            prtwf12         0
            prtwf21         1
            prtwf22         0
            prtwf31         1
            prtwf32         0
            prtwf41         1
            prtwf42         0
            rfddk11         0
            rfddk12         1
            rfddk21         0
            rfddk22         1
            rfddk31         0
            rfddk32         1
            rfddk41         0
            rfddk42         1
            rprim      0.0000000000E+00  5.0000000000E-01  5.0000000000E-01
                       5.0000000000E-01  0.0000000000E+00  5.0000000000E-01
                       5.0000000000E-01  5.0000000000E-01  0.0000000000E+00
           shiftk      5.00000000E-01  5.00000000E-01  5.00000000E-01
          spgroup           1
           strten11    9.9999999999E+99  9.9999999999E+99  9.9999999999E+99
                       9.9999999999E+99  9.9999999999E+99  9.9999999999E+99
           strten21    9.9999999999E+99  9.9999999999E+99  9.9999999999E+99
                       9.9999999999E+99  9.9999999999E+99  9.9999999999E+99
           strten31    9.9999999999E+99  9.9999999999E+99  9.9999999999E+99
                       9.9999999999E+99  9.9999999999E+99  9.9999999999E+99
           strten41    9.9999999999E+99  9.9999999999E+99  9.9999999999E+99
                       9.9999999999E+99  9.9999999999E+99  9.9999999999E+99
        symmorphi           0
           tolvrs11    1.00000000E-18
           tolvrs12    0.00000000E+00
           tolvrs21    1.00000000E-18
           tolvrs22    0.00000000E+00
           tolvrs31    1.00000000E-18
           tolvrs32    0.00000000E+00
           tolvrs41    1.00000000E-18
           tolvrs42    0.00000000E+00
           tolwfr11    0.00000000E+00
           tolwfr12    1.00000000E-20
           tolwfr21    0.00000000E+00
           tolwfr22    1.00000000E-20
           tolwfr31    0.00000000E+00
           tolwfr32    1.00000000E-20
           tolwfr41    0.00000000E+00
           tolwfr42    1.00000000E-20
            typat      1  2
        usexcnhat           0
           useylm           1
              wtk        0.03125    0.03125    0.03125    0.03125    0.03125    0.03125
                         0.03125    0.03125    0.03125    0.03125    0.03125    0.03125
                         0.03125    0.03125    0.03125    0.03125    0.03125    0.03125
                         0.03125    0.03125    0.03125    0.03125    0.03125    0.03125
                         0.03125    0.03125    0.03125    0.03125    0.03125    0.03125
                         0.03125    0.03125
           xangst      1.3627499763E+00  1.3627499763E+00  1.3627499763E+00
                       0.0000000000E+00  0.0000000000E+00  0.0000000000E+00
            xcart      2.5752242428E+00  2.5752242428E+00  2.5752242428E+00
                       0.0000000000E+00  0.0000000000E+00  0.0000000000E+00
             xred      2.5000000000E-01  2.5000000000E-01  2.5000000000E-01
                       0.0000000000E+00  0.0000000000E+00  0.0000000000E+00
            znucl       15.00000   13.00000
             zora11         0
             zora12         0
             zora21         1
             zora22         1
             zora31         2
             zora32         2
             zora41         3
             zora42         3
 
================================================================================
 
 The spacegroup number, the magnetic point group, and/or the number of symmetries
 have changed between the initial recognition based on the input file
 and a postprocessing based on the final acell, rprim, and xred.
 More details in the log file.


- Timing analysis has been suppressed with timopt=0



================================================================================

 Suggested references for the acknowledgment of ABINIT usage.

 The users of ABINIT have little formal obligations with respect to the ABINIT group
 (those specified in the GNU General Public License, http://www.gnu.org/copyleft/gpl.txt).
 However, it is common practice in the scientific literature,
 to acknowledge the efforts of people that have made the research possible.
 In this spirit, please find below suggested citations of work written by ABINIT developers,
 corresponding to implementations inside of ABINIT that you have used in the present run.
 Note also that it will be of great value to readers of publications presenting these results,
 to read papers enabling them to understand the theoretical formalism and details
 of the ABINIT implementation.
 For information on why they are suggested, see also https://docs.abinit.org/theory/acknowledgments.
-
- [1] Specification of an extensible and portable file format for electronic structure and crystallographic data
- X. Gonze, C.-O. Almbladh, A. Cucca, D. Caliste, C. Freysoldt, M. Marques, V. Olevano, Y. Pouillon, M.J. Verstraete,
- Comput. Material Science 43, 1056 (2008).
- Comment: to be cited in case the ETSF_IO file format is used, i.e. iomode=3.
- DOI and bibtex: see https://docs.abinit.org/theory/bibliography/#gonze2008
-
- [2] Orbital magnetism and chemical shielding in the projector augmented-wave formalism.
- J.W. Zwanziger, M. Torrent, and X. Gonze Phys. Rev. B 107, 165157 (2023).
- Comment: to be cited in case the computation of orbital magnetism is used, i.e. orbmag>0.
- DOI and bibtex: see https://docs.abinit.org/theory/bibliography/#zwanziger2023
-
- [3] Projector augmented-wave approach to density-functional perturbation theory.
- C. Audouze, F. Jollet, M. Torrent and X. Gonze, Phys. Rev. B 73, 235101 (2006).
- Comparison between projector augmented-wave and ultrasoft pseudopotential formalisms
- at the density-functional perturbation theory level.
- C. Audouze, F. Jollet, M. Torrent and X. Gonze, Phys. Rev. B 78, 035105 (2008).
- Comment: to be cited in case the computation of response function with PAW, i.e. (rfphon=1 or rfelfd=1) and usepaw=1.
- Strong suggestion to cite these papers.
- DOI and bibtex: see https://docs.abinit.org/theory/bibliography/#audouze2006,
- and https://docs.abinit.org/theory/bibliography/#audouze2008
-
- [4] Implementation of the Projector Augmented-Wave Method in the ABINIT code.
- M. Torrent, F. Jollet, F. Bottin, G. Zerah, and X. Gonze Comput. Mat. Science 42, 337, (2008).
- Comment: PAW calculations. Strong suggestion to cite this paper.
- DOI and bibtex: see https://docs.abinit.org/theory/bibliography/#torrent2008
-
- [5] Libxc: A library of exchange and correlation functionals for density functional theory.
- M.A.L. Marques, M.J.T. Oliveira, T. Burnus, Computer Physics Communications 183, 2227 (2012).
- Comment: to be cited when LibXC is used (negative value of ixc)
- Strong suggestion to cite this paper.
- DOI and bibtex: see https://docs.abinit.org/theory/bibliography/#marques2012
-
- [6] The Abinit project: Impact, environment and recent developments.
- Computer Phys. Comm. 248, 107042 (2020).
- X.Gonze, B. Amadon, G. Antonius, F.Arnardi, L.Baguet, J.-M.Beuken,
- J.Bieder, F.Bottin, J.Bouchet, E.Bousquet, N.Brouwer, F.Bruneval,
- G.Brunin, T.Cavignac, J.-B. Charraud, Wei Chen, M.Cote, S.Cottenier,
- J.Denier, G.Geneste, Ph.Ghosez, M.Giantomassi, Y.Gillet, O.Gingras,
- D.R.Hamann, G.Hautier, Xu He, N.Helbig, N.Holzwarth, Y.Jia, F.Jollet,
- W.Lafargue-Dit-Hauret, K.Lejaeghere, M.A.L.Marques, A.Martin, C.Martins,
- H.P.C. Miranda, F.Naccarato, K. Persson, G.Petretto, V.Planes, Y.Pouillon,
- S.Prokhorenko, F.Ricci, G.-M.Rignanese, A.H.Romero, M.M.Schmitt, M.Torrent,
- M.J.van Setten, B.Van Troeye, M.J.Verstraete, G.Zerah and J.W.Zwanzig
- Comment: the fifth generic paper describing the ABINIT project.
- Note that a version of this paper, that is not formatted for Computer Phys. Comm. 
- is available at https://www.abinit.org/sites/default/files/ABINIT20.pdf .
- The licence allows the authors to put it on the Web.
- DOI and bibtex: see https://docs.abinit.org/theory/bibliography/#gonze2020
-
- [7] ABINIT: Overview, and focus on selected capabilities
- J. Chem. Phys. 152, 124102 (2020).
- A. Romero, D.C. Allan, B. Amadon, G. Antonius, T. Applencourt, L.Baguet,
- J.Bieder, F.Bottin, J.Bouchet, E.Bousquet, F.Bruneval,
- G.Brunin, D.Caliste, M.Cote,
- J.Denier, C. Dreyer, Ph.Ghosez, M.Giantomassi, Y.Gillet, O.Gingras,
- D.R.Hamann, G.Hautier, F.Jollet, G. Jomard,
- A.Martin, 
- H.P.C. Miranda, F.Naccarato, G.Petretto, N.A. Pike, V.Planes,
- S.Prokhorenko, T. Rangel, F.Ricci, G.-M.Rignanese, M.Royo, M.Stengel, M.Torrent,
- M.J.van Setten, B.Van Troeye, M.J.Verstraete, J.Wiktor, J.W.Zwanziger, and X.Gonze.
- Comment: a global overview of ABINIT, with focus on selected capabilities .
- Note that a version of this paper, that is not formatted for J. Chem. Phys 
- is available at https://www.abinit.org/sites/default/files/ABINIT20_JPC.pdf .
- The licence allows the authors to put it on the Web.
- DOI and bibtex: see https://docs.abinit.org/theory/bibliography/#romero2020
-
- [8] Recent developments in the ABINIT software package.
- Computer Phys. Comm. 205, 106 (2016).
- X.Gonze, F.Jollet, F.Abreu Araujo, D.Adams, B.Amadon, T.Applencourt,
- C.Audouze, J.-M.Beuken, J.Bieder, A.Bokhanchuk, E.Bousquet, F.Bruneval
- D.Caliste, M.Cote, F.Dahm, F.Da Pieve, M.Delaveau, M.Di Gennaro,
- B.Dorado, C.Espejo, G.Geneste, L.Genovese, A.Gerossier, M.Giantomassi,
- Y.Gillet, D.R.Hamann, L.He, G.Jomard, J.Laflamme Janssen, S.Le Roux,
- A.Levitt, A.Lherbier, F.Liu, I.Lukacevic, A.Martin, C.Martins,
- M.J.T.Oliveira, S.Ponce, Y.Pouillon, T.Rangel, G.-M.Rignanese,
- A.H.Romero, B.Rousseau, O.Rubel, A.A.Shukri, M.Stankovski, M.Torrent,
- M.J.Van Setten, B.Van Troeye, M.J.Verstraete, D.Waroquier, J.Wiktor,
- B.Xu, A.Zhou, J.W.Zwanziger.
- Comment: the fourth generic paper describing the ABINIT project.
- Note that a version of this paper, that is not formatted for Computer Phys. Comm. 
- is available at https://www.abinit.org/sites/default/files/ABINIT16.pdf .
- The licence allows the authors to put it on the Web.
- DOI and bibtex: see https://docs.abinit.org/theory/bibliography/#gonze2016
-
- Proc.   0 individual time (sec): cpu=         34.7  wall=         35.0
 
================================================================================
 
 Calculation completed.
.Delivered  72 WARNINGs and  73 COMMENTs to log file.
+Overall time at end (sec) : cpu=         34.7  wall=         35.0
