
 **** DERIVATIVE DATABASE ****    
+DDB, Version number  20230401

 # merging

    usepaw         0
     natom         2
      nkpt         8
    nsppol         1
      nsym        48
    ntypat         1
    occopt         1
     nband         4
     acell  0.67510000000000D+01  0.67510000000000D+01  0.67510000000000D+01
       amu  0.12011000000000D+02
   dilatmx  0.10000000000000D+01
      ecut  0.20000000000000D+02
    ecutsm  0.00000000000000D+00
     intxc         0
      iscf         7
       ixc         1
       kpt  0.00000000000000D+00  0.00000000000000D+00  0.00000000000000D+00
            0.50000000000000D+00  0.00000000000000D+00  0.00000000000000D+00
            0.00000000000000D+00  0.50000000000000D+00  0.00000000000000D+00
            0.50000000000000D+00  0.50000000000000D+00  0.00000000000000D+00
            0.00000000000000D+00  0.00000000000000D+00  0.50000000000000D+00
            0.50000000000000D+00  0.00000000000000D+00  0.50000000000000D+00
            0.00000000000000D+00  0.50000000000000D+00  0.50000000000000D+00
            0.50000000000000D+00  0.50000000000000D+00  0.50000000000000D+00
    kptnrm  0.10000000000000D+01
     ngfft        20   20   20
    nspden         1
   nspinor         1
       occ  0.20000000000000D+01  0.20000000000000D+01  0.20000000000000D+01
            0.20000000000000D+01
     rprim  0.00000000000000D+00  0.50000000000000D+00  0.50000000000000D+00
            0.50000000000000D+00  0.00000000000000D+00  0.50000000000000D+00
            0.50000000000000D+00  0.50000000000000D+00  0.00000000000000D+00
  dfpt_sciss  0.00000000000000D+00
    spinat  0.00000000000000D+00  0.00000000000000D+00  0.00000000000000D+00
            0.00000000000000D+00  0.00000000000000D+00  0.00000000000000D+00
    symafm         1    1    1    1    1    1    1    1    1    1    1    1
                   1    1    1    1    1    1    1    1    1    1    1    1
                   1    1    1    1    1    1    1    1    1    1    1    1
                   1    1    1    1    1    1    1    1    1    1    1    1
    symrel         1    0    0    0    1    0    0    0    1
                  -1    0    0    0   -1    0    0    0   -1
                   0   -1    1    0   -1    0    1   -1    0
                   0    1   -1    0    1    0   -1    1    0
                  -1    0    0   -1    0    1   -1    1    0
                   1    0    0    1    0   -1    1   -1    0
                   0    1   -1    1    0   -1    0    0   -1
                   0   -1    1   -1    0    1    0    0    1
                  -1    0    0   -1    1    0   -1    0    1
                   1    0    0    1   -1    0    1    0   -1
                   0   -1    1    1   -1    0    0   -1    0
                   0    1   -1   -1    1    0    0    1    0
                   1    0    0    0    0    1    0    1    0
                  -1    0    0    0    0   -1    0   -1    0
                   0    1   -1    0    0   -1    1    0   -1
                   0   -1    1    0    0    1   -1    0    1
                  -1    0    1   -1    1    0   -1    0    0
                   1    0   -1    1   -1    0    1    0    0
                   0   -1    0    1   -1    0    0   -1    1
                   0    1    0   -1    1    0    0    1   -1
                   1    0   -1    0    0   -1    0    1   -1
                  -1    0    1    0    0    1    0   -1    1
                   0    1    0    0    0    1    1    0    0
                   0   -1    0    0    0   -1   -1    0    0
                   1    0   -1    0    1   -1    0    0   -1
                  -1    0    1    0   -1    1    0    0    1
                   0   -1    0    0   -1    1    1   -1    0
                   0    1    0    0    1   -1   -1    1    0
                  -1    0    1   -1    0    0   -1    1    0
                   1    0   -1    1    0    0    1   -1    0
                   0    1    0    1    0    0    0    0    1
                   0   -1    0   -1    0    0    0    0   -1
                   0    0   -1    0    1   -1    1    0   -1
                   0    0    1    0   -1    1   -1    0    1
                   1   -1    0    0   -1    1    0   -1    0
                  -1    1    0    0    1   -1    0    1    0
                   0    0    1    1    0    0    0    1    0
                   0    0   -1   -1    0    0    0   -1    0
                  -1    1    0   -1    0    0   -1    0    1
                   1   -1    0    1    0    0    1    0   -1
                   0    0    1    0    1    0    1    0    0
                   0    0   -1    0   -1    0   -1    0    0
                   1   -1    0    0   -1    0    0   -1    1
                  -1    1    0    0    1    0    0    1   -1
                   0    0   -1    1    0   -1    0    1   -1
                   0    0    1   -1    0    1    0   -1    1
                  -1    1    0   -1    0    1   -1    0    0
                   1   -1    0    1    0   -1    1    0    0
     tnons  0.00000000000000D+00  0.00000000000000D+00  0.00000000000000D+00
            0.25000000000000D+00  0.25000000000000D+00  0.25000000000000D+00
            0.00000000000000D+00  0.00000000000000D+00  0.00000000000000D+00
            0.25000000000000D+00  0.25000000000000D+00  0.25000000000000D+00
            0.00000000000000D+00  0.00000000000000D+00  0.00000000000000D+00
            0.25000000000000D+00  0.25000000000000D+00  0.25000000000000D+00
            0.00000000000000D+00  0.00000000000000D+00  0.00000000000000D+00
            0.25000000000000D+00  0.25000000000000D+00  0.25000000000000D+00
            0.00000000000000D+00  0.00000000000000D+00  0.00000000000000D+00
            0.25000000000000D+00  0.25000000000000D+00  0.25000000000000D+00
            0.00000000000000D+00  0.00000000000000D+00  0.00000000000000D+00
            0.25000000000000D+00  0.25000000000000D+00  0.25000000000000D+00
            0.00000000000000D+00  0.00000000000000D+00  0.00000000000000D+00
            0.25000000000000D+00  0.25000000000000D+00  0.25000000000000D+00
            0.00000000000000D+00  0.00000000000000D+00  0.00000000000000D+00
            0.25000000000000D+00  0.25000000000000D+00  0.25000000000000D+00
            0.00000000000000D+00  0.00000000000000D+00  0.00000000000000D+00
            0.25000000000000D+00  0.25000000000000D+00  0.25000000000000D+00
            0.00000000000000D+00  0.00000000000000D+00  0.00000000000000D+00
            0.25000000000000D+00  0.25000000000000D+00  0.25000000000000D+00
            0.00000000000000D+00  0.00000000000000D+00  0.00000000000000D+00
            0.25000000000000D+00  0.25000000000000D+00  0.25000000000000D+00
            0.00000000000000D+00  0.00000000000000D+00  0.00000000000000D+00
            0.25000000000000D+00  0.25000000000000D+00  0.25000000000000D+00
            0.00000000000000D+00  0.00000000000000D+00  0.00000000000000D+00
            0.25000000000000D+00  0.25000000000000D+00  0.25000000000000D+00
            0.00000000000000D+00  0.00000000000000D+00  0.00000000000000D+00
            0.25000000000000D+00  0.25000000000000D+00  0.25000000000000D+00
            0.00000000000000D+00  0.00000000000000D+00  0.00000000000000D+00
            0.25000000000000D+00  0.25000000000000D+00  0.25000000000000D+00
            0.00000000000000D+00  0.00000000000000D+00  0.00000000000000D+00
            0.25000000000000D+00  0.25000000000000D+00  0.25000000000000D+00
            0.00000000000000D+00  0.00000000000000D+00  0.00000000000000D+00
            0.25000000000000D+00  0.25000000000000D+00  0.25000000000000D+00
            0.00000000000000D+00  0.00000000000000D+00  0.00000000000000D+00
            0.25000000000000D+00  0.25000000000000D+00  0.25000000000000D+00
            0.00000000000000D+00  0.00000000000000D+00  0.00000000000000D+00
            0.25000000000000D+00  0.25000000000000D+00  0.25000000000000D+00
            0.00000000000000D+00  0.00000000000000D+00  0.00000000000000D+00
            0.25000000000000D+00  0.25000000000000D+00  0.25000000000000D+00
            0.00000000000000D+00  0.00000000000000D+00  0.00000000000000D+00
            0.25000000000000D+00  0.25000000000000D+00  0.25000000000000D+00
            0.00000000000000D+00  0.00000000000000D+00  0.00000000000000D+00
            0.25000000000000D+00  0.25000000000000D+00  0.25000000000000D+00
            0.00000000000000D+00  0.00000000000000D+00  0.00000000000000D+00
            0.25000000000000D+00  0.25000000000000D+00  0.25000000000000D+00
            0.00000000000000D+00  0.00000000000000D+00  0.00000000000000D+00
            0.25000000000000D+00  0.25000000000000D+00  0.25000000000000D+00
    tolwfr  0.10000000000000D+01
   tphysel  0.00000000000000D+00
    tsmear  0.10000000000000D-01
     typat         1    1
       wtk  0.12500000000000D+00  0.12500000000000D+00  0.12500000000000D+00
            0.12500000000000D+00  0.12500000000000D+00  0.12500000000000D+00
            0.12500000000000D+00  0.12500000000000D+00
      xred  0.00000000000000D+00  0.00000000000000D+00  0.00000000000000D+00
            0.25000000000000D+00  0.25000000000000D+00  0.25000000000000D+00
     znucl  0.60000000000000D+01
      zion  0.40000000000000D+01
 
  Description of the potentials (KB energies)
  vrsio8 (for pseudopotentials)=100401
  usepaw =  0
  dimekb =  1       lmnmax=  1
  Atom type=    1   pspso=  0   nekb=   1
  iln lpsang iproj  ekb(:)
     1     0     1     4.9214663E+00
 
 **** Database of total energy derivatives ****
 Number of data blocks=    4
  
 2nd derivatives (non-stat.)  - # elements :          60
 qpt  0.00000000E+00  0.00000000E+00  0.00000000E+00   1.0
   1   1   1   1  0.13329868607500D+02  0.00000000000000D+00
   2   1   1   1  0.66649343037498D+01  0.00000000000000D+00
   3   1   1   1  0.66649343037498D+01  0.00000000000000D+00
   1   2   1   1 -0.13328594883718D+02  0.62981505477333D-18
   2   2   1   1 -0.66642974418588D+01 -0.18471128568879D-16
   3   2   1   1 -0.66642974418589D+01 -0.10731094771243D-16
   2   4   1   1  0.00000000000000D+00  0.00000000000000D+00
   3   4   1   1  0.00000000000000D+00  0.00000000000000D+00
   1   1   2   1  0.66649343037498D+01  0.00000000000000D+00
   2   1   2   1  0.13329868607500D+02  0.00000000000000D+00
   3   1   2   1  0.66649343037498D+01  0.00000000000000D+00
   1   2   2   1 -0.66642974418588D+01 -0.18471128568879D-16
   2   2   2   1 -0.13328594883718D+02  0.16437398868625D-16
   3   2   2   1 -0.66642974418589D+01  0.33449056545033D-16
   1   4   2   1  0.00000000000000D+00  0.00000000000000D+00
   3   4   2   1  0.00000000000000D+00  0.00000000000000D+00
   1   1   3   1  0.66649343037498D+01  0.00000000000000D+00
   2   1   3   1  0.66649343037498D+01  0.00000000000000D+00
   3   1   3   1  0.13329868607500D+02  0.00000000000000D+00
   1   2   3   1 -0.66642974418589D+01 -0.10731094771243D-16
   2   2   3   1 -0.66642974418589D+01  0.33449056545033D-16
   3   2   3   1 -0.13328594883718D+02 -0.35258213043577D-16
   1   4   3   1  0.00000000000000D+00  0.00000000000000D+00
   2   4   3   1  0.00000000000000D+00  0.00000000000000D+00
   1   1   1   2 -0.13328594883718D+02 -0.62981505477333D-18
   2   1   1   2 -0.66642974418588D+01  0.18471128568879D-16
   3   1   1   2 -0.66642974418589D+01  0.10731094771243D-16
   1   2   1   2  0.13329868607500D+02  0.00000000000000D+00
   2   2   1   2  0.66649343037498D+01  0.00000000000000D+00
   3   2   1   2  0.66649343037498D+01  0.00000000000000D+00
   2   4   1   2  0.00000000000000D+00  0.00000000000000D+00
   3   4   1   2  0.00000000000000D+00  0.00000000000000D+00
   1   1   2   2 -0.66642974418588D+01  0.18471128568879D-16
   2   1   2   2 -0.13328594883718D+02 -0.16437398868625D-16
   3   1   2   2 -0.66642974418589D+01 -0.33449056545033D-16
   1   2   2   2  0.66649343037498D+01  0.00000000000000D+00
   2   2   2   2  0.13329868607500D+02  0.00000000000000D+00
   3   2   2   2  0.66649343037498D+01  0.00000000000000D+00
   1   4   2   2  0.00000000000000D+00  0.00000000000000D+00
   3   4   2   2  0.00000000000000D+00  0.00000000000000D+00
   1   1   3   2 -0.66642974418589D+01  0.10731094771243D-16
   2   1   3   2 -0.66642974418589D+01 -0.33449056545033D-16
   3   1   3   2 -0.13328594883718D+02  0.35258213043577D-16
   1   2   3   2  0.66649343037498D+01  0.00000000000000D+00
   2   2   3   2  0.66649343037498D+01  0.00000000000000D+00
   3   2   3   2  0.13329868607500D+02  0.00000000000000D+00
   1   4   3   2  0.00000000000000D+00  0.00000000000000D+00
   2   4   3   2  0.00000000000000D+00  0.00000000000000D+00
   2   1   1   4  0.00000000000000D+00  0.00000000000000D+00
   3   1   1   4  0.00000000000000D+00  0.00000000000000D+00
   2   2   1   4  0.00000000000000D+00  0.00000000000000D+00
   3   2   1   4  0.00000000000000D+00  0.00000000000000D+00
   1   1   2   4  0.00000000000000D+00  0.00000000000000D+00
   3   1   2   4  0.00000000000000D+00  0.00000000000000D+00
   1   2   2   4  0.00000000000000D+00  0.00000000000000D+00
   3   2   2   4  0.00000000000000D+00  0.00000000000000D+00
   1   1   3   4  0.00000000000000D+00  0.00000000000000D+00
   2   1   3   4  0.00000000000000D+00  0.00000000000000D+00
   1   2   3   4  0.00000000000000D+00  0.00000000000000D+00
   2   2   3   4  0.00000000000000D+00  0.00000000000000D+00
  
 2nd derivatives (non-stat.)  - # elements :          36
 qpt  5.00000000E-01  0.00000000E+00  0.00000000E+00   1.0
   1   1   1   1  0.12123107858888D+02  0.87226245006053D-03
   2   1   1   1  0.50292605097823D+01  0.36140072416159D-19
   3   1   1   1  0.50292605097824D+01  0.18070036208099D-19
   1   2   1   1 -0.57494739805930D+01  0.59894826090076D-03
   2   2   1   1 -0.42733280348405D+01  0.59894826090353D-03
   3   2   1   1 -0.42733280348405D+01  0.59894826090354D-03
   1   1   2   1  0.50292605097823D+01  0.00000000000000D+00
   2   1   2   1  0.10058521019565D+02  0.00000000000000D+00
   3   1   2   1  0.50292605097823D+01  0.00000000000000D+00
   1   2   2   1 -0.42733280348405D+01  0.59894826090353D-03
   2   2   2   1 -0.85466560696809D+01  0.11978965218071D-02
   3   2   2   1 -0.42733280348405D+01  0.59894826090354D-03
   1   1   3   1  0.50292605097824D+01  0.00000000000000D+00
   2   1   3   1  0.50292605097824D+01  0.00000000000000D+00
   3   1   3   1  0.10058521019565D+02  0.00000000000000D+00
   1   2   3   1 -0.42733280348405D+01  0.59894826090354D-03
   2   2   3   1 -0.42733280348405D+01  0.59894826090354D-03
   3   2   3   1 -0.85466560696809D+01  0.11978965218071D-02
   1   1   1   2 -0.57494739805930D+01  0.59894826090560D-03
   2   1   1   2 -0.42733280348405D+01  0.59894826090283D-03
   3   1   1   2 -0.42733280348405D+01  0.59894826090282D-03
   1   2   1   2  0.12123107858888D+02  0.87226245006053D-03
   2   2   1   2  0.50292605097823D+01  0.36140072416159D-19
   3   2   1   2  0.50292605097824D+01  0.18070036208099D-19
   1   1   2   2 -0.42733280348405D+01  0.59894826090282D-03
   2   1   2   2 -0.85466560696809D+01  0.11978965218056D-02
   3   1   2   2 -0.42733280348405D+01  0.59894826090281D-03
   1   2   2   2  0.50292605097824D+01  0.00000000000000D+00
   2   2   2   2  0.10058521019565D+02  0.00000000000000D+00
   3   2   2   2  0.50292605097823D+01  0.00000000000000D+00
   1   1   3   2 -0.42733280348405D+01  0.59894826090282D-03
   2   1   3   2 -0.42733280348405D+01  0.59894826090281D-03
   3   1   3   2 -0.85466560696809D+01  0.11978965218057D-02
   1   2   3   2  0.50292605097824D+01  0.00000000000000D+00
   2   2   3   2  0.50292605097824D+01  0.00000000000000D+00
   3   2   3   2  0.10058521019565D+02  0.00000000000000D+00
  
 2nd derivatives (non-stat.)  - # elements :          36
 qpt  5.00000000E-01  5.00000000E-01  0.00000000E+00   1.0
   1   1   1   1  0.11209517634372D+02  0.00000000000000D+00
   2   1   1   1  0.71554055402653D+01  0.00000000000000D+00
   3   1   1   1  0.40541120941069D+01  0.00000000000000D+00
   1   2   1   1 -0.27741170497760D-14 -0.11645367934582D-14
   2   2   1   1 -0.21065651180151D+01 -0.13791648706192D-03
   3   2   1   1 -0.21065651180151D+01 -0.13791648706268D-03
   1   1   2   1  0.71554055402653D+01  0.00000000000000D+00
   2   1   2   1  0.11209517634372D+02  0.00000000000000D+00
   3   1   2   1  0.40541120941068D+01  0.00000000000000D+00
   1   2   2   1 -0.21065651180151D+01 -0.13791648706192D-03
   2   2   2   1 -0.24679660305630D-14 -0.13358323011522D-14
   3   2   2   1 -0.21065651180151D+01 -0.13791648706268D-03
   1   1   3   1  0.40541120941070D+01  0.00000000000000D+00
   2   1   3   1  0.40541120941069D+01  0.00000000000000D+00
   3   1   3   1  0.81082241882137D+01  0.00000000000000D+00
   1   2   3   1 -0.21065651180151D+01 -0.13791648706268D-03
   2   2   3   1 -0.21065651180151D+01 -0.13791648706268D-03
   3   2   3   1 -0.42131302360301D+01 -0.27583297412537D-03
   1   1   1   2 -0.27741170497760D-14  0.11645503459853D-14
   2   1   1   2 -0.21065651180151D+01 -0.13791648706494D-03
   3   1   1   2 -0.21065651180151D+01 -0.13791648706418D-03
   1   2   1   2  0.11209517634372D+02  0.00000000000000D+00
   2   2   1   2  0.71554055402653D+01  0.00000000000000D+00
   3   2   1   2  0.40541120941069D+01  0.00000000000000D+00
   1   1   2   2 -0.21065651180151D+01 -0.13791648706494D-03
   2   1   2   2 -0.24679660305630D-14  0.13358323011522D-14
   3   1   2   2 -0.21065651180151D+01 -0.13791648706418D-03
   1   2   2   2  0.71554055402653D+01  0.00000000000000D+00
   2   2   2   2  0.11209517634372D+02  0.00000000000000D+00
   3   2   2   2  0.40541120941068D+01  0.00000000000000D+00
   1   1   3   2 -0.21065651180151D+01 -0.13791648706418D-03
   2   1   3   2 -0.21065651180151D+01 -0.13791648706418D-03
   3   1   3   2 -0.42131302360301D+01 -0.27583297412836D-03
   1   2   3   2  0.40541120941070D+01  0.00000000000000D+00
   2   2   3   2  0.40541120941069D+01  0.00000000000000D+00
   3   2   3   2  0.81082241882136D+01  0.00000000000000D+00
  
 3rd derivatives (long wave)  - # elements :         108
 qpt  0.00000000E+00  0.00000000E+00  0.00000000E+00   1.0
      0.00000000E+00  0.00000000E+00  0.00000000E+00   1.0
      0.00000000E+00  0.00000000E+00  0.00000000E+00   1.0
     1     4     1     1     1    10  0.00000000000000D+00 -0.95187314286381D+02
     2     4     1     1     1    10  0.00000000000000D+00  0.47595958326436D+02
     3     4     1     1     1    10  0.00000000000000D+00  0.47595958326436D+02
     1     4     2     1     1    10  0.00000000000000D+00  0.00000000000000D+00
     2     4     2     1     1    10  0.00000000000000D+00  0.47586739452659D+02
     3     4     2     1     1    10  0.00000000000000D+00  0.00000000000000D+00
     1     4     3     1     1    10  0.00000000000000D+00  0.00000000000000D+00
     2     4     3     1     1    10  0.00000000000000D+00  0.00000000000000D+00
     3     4     3     1     1    10  0.00000000000000D+00  0.47598266580079D+02
     1     4     1     2     1    10  0.00000000000000D+00  0.95189608399228D+02
     2     4     1     2     1    10  0.00000000000000D+00 -0.47595958326436D+02
     3     4     1     2     1    10  0.00000000000000D+00 -0.47595958326436D+02
     1     4     2     2     1    10  0.00000000000000D+00  0.00000000000000D+00
     2     4     2     2     1    10  0.00000000000000D+00 -0.47586739452659D+02
     3     4     2     2     1    10  0.00000000000000D+00  0.00000000000000D+00
     1     4     3     2     1    10  0.00000000000000D+00  0.00000000000000D+00
     2     4     3     2     1    10  0.00000000000000D+00  0.00000000000000D+00
     3     4     3     2     1    10  0.00000000000000D+00 -0.47598266580079D+02
     1     1     1     4     1    10  0.00000000000000D+00  0.95187314286381D+02
     2     1     1     4     1    10  0.00000000000000D+00 -0.00000000000000D+00
     3     1     1     4     1    10  0.00000000000000D+00 -0.00000000000000D+00
     1     2     1     4     1    10  0.00000000000000D+00 -0.95189608399228D+02
     2     2     1     4     1    10  0.00000000000000D+00 -0.00000000000000D+00
     3     2     1     4     1    10  0.00000000000000D+00 -0.00000000000000D+00
     1     1     2     4     1    10  0.00000000000000D+00 -0.47595958326436D+02
     2     1     2     4     1    10  0.00000000000000D+00 -0.47586739452659D+02
     3     1     2     4     1    10  0.00000000000000D+00 -0.00000000000000D+00
     1     2     2     4     1    10  0.00000000000000D+00  0.47595958326436D+02
     2     2     2     4     1    10  0.00000000000000D+00  0.47586739452659D+02
     3     2     2     4     1    10  0.00000000000000D+00 -0.00000000000000D+00
     1     1     3     4     1    10  0.00000000000000D+00 -0.47595958326436D+02
     2     1     3     4     1    10  0.00000000000000D+00 -0.00000000000000D+00
     3     1     3     4     1    10  0.00000000000000D+00 -0.47598266580079D+02
     1     2     3     4     1    10  0.00000000000000D+00  0.47595958326436D+02
     2     2     3     4     1    10  0.00000000000000D+00 -0.00000000000000D+00
     3     2     3     4     1    10  0.00000000000000D+00  0.47598266580079D+02
     1     4     1     1     2    10  0.00000000000000D+00  0.47598266580079D+02
     2     4     1     1     2    10  0.00000000000000D+00  0.00000000000000D+00
     3     4     1     1     2    10  0.00000000000000D+00  0.00000000000000D+00
     1     4     2     1     2    10  0.00000000000000D+00  0.47595958326436D+02
     2     4     2     1     2    10  0.00000000000000D+00 -0.95187314286381D+02
     3     4     2     1     2    10  0.00000000000000D+00  0.47595958326436D+02
     1     4     3     1     2    10  0.00000000000000D+00  0.00000000000000D+00
     2     4     3     1     2    10  0.00000000000000D+00  0.00000000000000D+00
     3     4     3     1     2    10  0.00000000000000D+00  0.47586739452659D+02
     1     4     1     2     2    10  0.00000000000000D+00 -0.47598266580079D+02
     2     4     1     2     2    10  0.00000000000000D+00  0.00000000000000D+00
     3     4     1     2     2    10  0.00000000000000D+00  0.00000000000000D+00
     1     4     2     2     2    10  0.00000000000000D+00 -0.47593664213589D+02
     2     4     2     2     2    10  0.00000000000000D+00  0.95187314286381D+02
     3     4     2     2     2    10  0.00000000000000D+00 -0.47595958326436D+02
     1     4     3     2     2    10  0.00000000000000D+00  0.00000000000000D+00
     2     4     3     2     2    10  0.00000000000000D+00  0.00000000000000D+00
     3     4     3     2     2    10  0.00000000000000D+00 -0.47586739452659D+02
     1     1     1     4     2    10  0.00000000000000D+00 -0.47598266580079D+02
     2     1     1     4     2    10  0.00000000000000D+00 -0.47595958326436D+02
     3     1     1     4     2    10  0.00000000000000D+00 -0.00000000000000D+00
     1     2     1     4     2    10  0.00000000000000D+00  0.47598266580079D+02
     2     2     1     4     2    10  0.00000000000000D+00  0.47593664213589D+02
     3     2     1     4     2    10  0.00000000000000D+00 -0.00000000000000D+00
     1     1     2     4     2    10  0.00000000000000D+00 -0.00000000000000D+00
     2     1     2     4     2    10  0.00000000000000D+00  0.95187314286381D+02
     3     1     2     4     2    10  0.00000000000000D+00 -0.00000000000000D+00
     1     2     2     4     2    10  0.00000000000000D+00 -0.00000000000000D+00
     2     2     2     4     2    10  0.00000000000000D+00 -0.95187314286381D+02
     3     2     2     4     2    10  0.00000000000000D+00 -0.00000000000000D+00
     1     1     3     4     2    10  0.00000000000000D+00 -0.00000000000000D+00
     2     1     3     4     2    10  0.00000000000000D+00 -0.47595958326436D+02
     3     1     3     4     2    10  0.00000000000000D+00 -0.47586739452659D+02
     1     2     3     4     2    10  0.00000000000000D+00 -0.00000000000000D+00
     2     2     3     4     2    10  0.00000000000000D+00  0.47595958326436D+02
     3     2     3     4     2    10  0.00000000000000D+00  0.47586739452659D+02
     1     4     1     1     3    10  0.00000000000000D+00  0.47598266580079D+02
     2     4     1     1     3    10  0.00000000000000D+00  0.00000000000000D+00
     3     4     1     1     3    10  0.00000000000000D+00  0.00000000000000D+00
     1     4     2     1     3    10  0.00000000000000D+00  0.00000000000000D+00
     2     4     2     1     3    10  0.00000000000000D+00  0.47598266580079D+02
     3     4     2     1     3    10  0.00000000000000D+00  0.00000000000000D+00
     1     4     3     1     3    10  0.00000000000000D+00  0.47595958326436D+02
     2     4     3     1     3    10  0.00000000000000D+00  0.47595958326436D+02
     3     4     3     1     3    10  0.00000000000000D+00 -0.95187314286381D+02
     1     4     1     2     3    10  0.00000000000000D+00 -0.47586739452659D+02
     2     4     1     2     3    10  0.00000000000000D+00  0.00000000000000D+00
     3     4     1     2     3    10  0.00000000000000D+00  0.00000000000000D+00
     1     4     2     2     3    10  0.00000000000000D+00  0.00000000000000D+00
     2     4     2     2     3    10  0.00000000000000D+00 -0.47598266580079D+02
     3     4     2     2     3    10  0.00000000000000D+00  0.00000000000000D+00
     1     4     3     2     3    10  0.00000000000000D+00 -0.47582137086169D+02
     2     4     3     2     3    10  0.00000000000000D+00 -0.47595958326436D+02
     3     4     3     2     3    10  0.00000000000000D+00  0.95187314286381D+02
     1     1     1     4     3    10  0.00000000000000D+00 -0.47598266580079D+02
     2     1     1     4     3    10  0.00000000000000D+00 -0.00000000000000D+00
     3     1     1     4     3    10  0.00000000000000D+00 -0.47595958326436D+02
     1     2     1     4     3    10  0.00000000000000D+00  0.47586739452659D+02
     2     2     1     4     3    10  0.00000000000000D+00 -0.00000000000000D+00
     3     2     1     4     3    10  0.00000000000000D+00  0.47582137086169D+02
     1     1     2     4     3    10  0.00000000000000D+00 -0.00000000000000D+00
     2     1     2     4     3    10  0.00000000000000D+00 -0.47598266580079D+02
     3     1     2     4     3    10  0.00000000000000D+00 -0.47595958326436D+02
     1     2     2     4     3    10  0.00000000000000D+00 -0.00000000000000D+00
     2     2     2     4     3    10  0.00000000000000D+00  0.47598266580079D+02
     3     2     2     4     3    10  0.00000000000000D+00  0.47595958326436D+02
     1     1     3     4     3    10  0.00000000000000D+00 -0.00000000000000D+00
     2     1     3     4     3    10  0.00000000000000D+00 -0.00000000000000D+00
     3     1     3     4     3    10  0.00000000000000D+00  0.95187314286381D+02
     1     2     3     4     3    10  0.00000000000000D+00 -0.00000000000000D+00
     2     2     3     4     3    10  0.00000000000000D+00 -0.00000000000000D+00
     3     2     3     4     3    10  0.00000000000000D+00 -0.95187314286381D+02
