
.Version 8.3.1 of ABINIT 
.(MPI version, prepared for a x86_64_darwin15.6.0_gnu6.2 computer) 

.Copyright (C) 1998-2016 ABINIT group . 
 ABINIT comes with ABSOLUTELY NO WARRANTY.
 It is free software, and you are welcome to redistribute it
 under certain conditions (GNU General Public License,
 see ~abinit/COPYING or http://www.gnu.org/copyleft/gpl.txt).

 ABINIT is a project of the Universite Catholique de Louvain,
 Corning Inc. and other collaborators, see ~abinit/doc/developers/contributors.txt .
 Please read ~abinit/doc/users/acknowledgments.html for suggested
 acknowledgments of the ABINIT effort.
 For more information, see http://www.abinit.org .

.Starting date : Tue 11 Apr 2017.
- ( at 16h11 )
  
- input  file    -> calc.in
- output file    -> calc.out
- root for input  files -> input_data/idat
- root for output files -> out_data/odat


 Symmetries : space group P1 (#  1); Bravais aP (primitive triclinic)
================================================================================
 Values of the parameters that define the memory need of the present run (RF).
     intxc =       0      iscf =      -2    lmnmax =       1     lnmax =       1
     mgfft =      16  mpssoang =       2    mqgrid =    3001     natom =       2
  nloc_mem =       1    nspden =       1   nspinor =       1    nsppol =       1
      nsym =       1    n1xccc =    2501    ntypat =       2    occopt =       1
   xclevel =       1
-    mband =           8        mffmem =           1         mkmem =           1
-   mkqmem =           1        mk1mem =           1           mpw =         174
      nfft =        4096          nkpt =           1
================================================================================
P This job should need less than                       1.811 Mbytes of memory.
  Rough estimation (10% accuracy) of disk space for files :
_ WF disk file :      0.023 Mbytes ; DEN or POT disk file :      0.033 Mbytes.
================================================================================

--------------------------------------------------------------------------------
------------- Echo of variables that govern the present computation ------------
--------------------------------------------------------------------------------
-
- outvars: echo of selected default values                                      
-   iomode0 =  0 , fftalg0 =112 , wfoptalg0 =  0
-
- outvars: echo of global parameters not present in the input file              
-  max_nthreads =    0
-
 -outvars: echo values of preprocessed input variables --------
            acell      1.0000000000E+00  1.0000000000E+00  1.0000000000E+00 Bohr
              amu      6.94100000E+00  1.89984032E+01
        autoparal           1
           diemac      9.00000000E+00
             ecut      1.00000000E+01 Hartree
    elph2_imagden      1.83746627E-03 Hartree
           enunit           2
-          fftalg         112
          ieig2rf           5
           irdwfk           1
           irdwfq           1
          ird1den           1
             iscf          -2
           istwfk        1
           kptopt           3
         kptrlatt        1    0    0      0    1    0      0    0    1
          kptrlen      5.44684916E+00
P           mkmem           1
P          mkqmem           1
P          mk1mem           1
            natom           2
            nband           8
            ngfft          16      16      16
             nkpt           1
           nnsclo          40
             nqpt           1
             nsym           1
           ntypat           2
        optdriver           1
        optforces           1
              qpt      5.00000000E-01  2.50000000E-01  0.00000000E+00
          rfatpol           1       2
            rfdir           1       1       1
           rfphon           1
            rprim      0.0000000000E+00  3.8515039744E+00  3.8515039744E+00
                       3.8515039744E+00  0.0000000000E+00  3.8515039744E+00
                       3.8515039744E+00  3.8515039744E+00  0.0000000000E+00
          spgroup           1
           tolwfr      1.00000000E-18
            typat      1  2
           xangst      0.0000000000E+00  0.0000000000E+00  0.0000000000E+00
                       2.0381281221E+00  2.0381281221E+00  2.0381281221E+00
            xcart      0.0000000000E+00  0.0000000000E+00  0.0000000000E+00
                       3.8515039744E+00  3.8515039744E+00  3.8515039744E+00
             xred      0.0000000000E+00  0.0000000000E+00  0.0000000000E+00
                       5.0000000000E-01  5.0000000000E-01  5.0000000000E-01
            znucl        3.00000    9.00000

================================================================================

 chkinp: Checking input parameters for consistency.

================================================================================
== DATASET  1 ==================================================================
-   nproc =    4

 Exchange-correlation functional for the present dataset will be:
  LDA: new Teter (4/93) with spin-polarized option - ixc=1
 Citation for XC functional:
  S. Goedecker, M. Teter, J. Huetter, PRB 54, 1703 (1996)

 Real(R)+Recip(G) space primitive vectors, cartesian coordinates (Bohr,Bohr^-1):
 R(1)=  0.0000000  3.8515040  3.8515040  G(1)= -0.1298194  0.1298194  0.1298194
 R(2)=  3.8515040  0.0000000  3.8515040  G(2)=  0.1298194 -0.1298194  0.1298194
 R(3)=  3.8515040  3.8515040  0.0000000  G(3)=  0.1298194  0.1298194 -0.1298194
 Unit cell volume ucvol=  1.1426706E+02 bohr^3
 Angles (23,13,12)=  6.00000000E+01  6.00000000E+01  6.00000000E+01 degrees
 setup1 : take into account q-point for computing boxcut.

 getcut: wavevector=  0.5000  0.2500  0.0000  ngfft=  16  16  16
         ecut(hartree)=     10.000   => boxcut(ratio)=   1.93617

--- Pseudopotential description ------------------------------------------------
- pspini: atom type   1  psp file is ../../../../Data/Pseudos/03-Li.LDA.TM.pspnc
- pspatm: opening atomic psp file    ../../../../Data/Pseudos/03-Li.LDA.TM.pspnc
-  Troullier-Martins psp for element  Li        Thu Oct 27 17:29:06 EDT 1994
-  3.00000   1.00000    940714                znucl, zion, pspdat
    1    1    1    1      2001   0.00000      pspcod,pspxc,lmax,lloc,mmax,r2well
    0   2.534   6.726    1   2.4315963        l,e99.0,e99.9,nproj,rcpsp
   0.00000000   0.00000000   0.00000000   0.00000000     rms, ekb1, ekb2, epsatm
    1   3.283   5.836    0   2.4315963        l,e99.0,e99.9,nproj,rcpsp
   0.00000000   0.00000000   0.00000000   0.00000000     rms, ekb1, ekb2, epsatm
    2.44451305764117    0.01373030920382    0.17502673260160   rchrg,fchrg,qchrg
 pspatm: epsatm=   -1.77437869
         --- l  ekb(1:nproj) -->
             0    1.242797
 pspatm: atomic psp has been read  and splines computed

- pspini: atom type   2  psp file is ../../../../Data/Pseudos/09-F.LDA.TM.pspnc
- pspatm: opening atomic psp file    ../../../../Data/Pseudos/09-F.LDA.TM.pspnc
-  Troullier-Martins psp for element  F         Thu Oct 27 17:30:08 EDT 1994
-  9.00000   7.00000    940714                znucl, zion, pspdat
    1    1    1    1      2001   0.00000      pspcod,pspxc,lmax,lloc,mmax,r2well
    0   6.771  17.439    1   1.3876018        l,e99.0,e99.9,nproj,rcpsp
   0.00000000   0.00000000   0.00000000   0.00000000     rms, ekb1, ekb2, epsatm
    1  24.372  32.350    0   1.3876018        l,e99.0,e99.9,nproj,rcpsp
   0.00000000   0.00000000   0.00000000   0.00000000     rms, ekb1, ekb2, epsatm
    0.49406148701180    6.36128955091623    0.66947621353748   rchrg,fchrg,qchrg
 pspatm: epsatm=    1.80528525
         --- l  ekb(1:nproj) -->
             0    6.310228
 pspatm: atomic psp has been read  and splines computed

--------------------------------------------------------------------------------

-inwffil : will read wavefunctions from disk file input_data/idat_WFK

 ==>  initialize data related to q vector <== 

 The list of irreducible perturbations for this q vector is:
    1)    idir= 1    ipert=   1
    2)    idir= 2    ipert=   1
    3)    idir= 3    ipert=   1
    4)    idir= 1    ipert=   2
    5)    idir= 2    ipert=   2
    6)    idir= 3    ipert=   2

================================================================================

--------------------------------------------------------------------------------
 Perturbation wavevector (in red.coord.)   0.500000  0.250000  0.000000
 Perturbation : displacement of atom   1   along direction   1
 The set of symmetries contains only one element for this perturbation.
 symkpt : not enough symmetry to change the number of k points.

--------------------------------------------------------------------------------

-inwffil : will read wavefunctions from disk file input_data/idat_WFK
--------------------------------------------------------------------------------

-inwffil : will read wavefunctions from disk file input_data/idat_WFQ
 Initialisation of the first-order wave-functions :
  ireadwf=   0
================================================================================

 ----iterations are completed or convergence reached----

 Mean square residual over all n,k,spin=   2.6967E-19; max=  8.6664E-19

 Thirteen components of 2nd-order total energy (hartree) are
 1,2,3: 0th-order hamiltonian combined with 1st-order wavefunctions
     kin0=   2.28598553E+00 eigvalue=  -1.03781433E-01  local=  -8.47988529E-01
 4,5,6: 1st-order hamiltonian combined with 1st and 0th-order wfs
 loc psp =  -2.27376696E+00  Hartree=   5.37592150E-01     xc=  -1.77703413E-01
 note that "loc psp" includes a xc core correction that could be resolved
 7,8,9: eventually, occupation + non-local contributions
    edocc=   8.05394576E-01     enl0=   5.89781004E-01   enl1=  -3.79356241E+00
 1-9 gives the relaxation energy (to be shifted if some occ is /=2.0)
   erelax=  -2.97804948E+00
 10,11,12 Non-relaxation  contributions : frozen-wavefunctions and Ewald
 fr.local=  -8.18155753E+00 fr.nonlo=   3.22116259E+00  Ewald=   9.34874775E+00
 13,14 Frozen wf xc core corrections (1) and (2)
 frxc 1  =  -1.22398381E-01  frxc 2 =  -7.92082621E-02
 Resulting in :
 2DEtotal=    0.1208696675E+01 Ha. Also 2DEtotal=    0.328903091918E+02 eV
    (2DErelax=   -2.9780494846E+00 Ha. 2DEnonrelax=    4.1867461595E+00 Ha)
    (  non-var. 2DEtotal :    1.1530814744E+00 Ha)


--------------------------------------------------------------------------------
 Perturbation wavevector (in red.coord.)   0.500000  0.250000  0.000000
 Perturbation : displacement of atom   1   along direction   2
 The set of symmetries contains only one element for this perturbation.
 symkpt : not enough symmetry to change the number of k points.

--------------------------------------------------------------------------------

-inwffil : will read wavefunctions from disk file input_data/idat_WFK
--------------------------------------------------------------------------------

-inwffil : will read wavefunctions from disk file input_data/idat_WFQ
 Initialisation of the first-order wave-functions :
  ireadwf=   0
================================================================================

 ----iterations are completed or convergence reached----

 Mean square residual over all n,k,spin=   2.8926E-19; max=  6.8986E-19

 Thirteen components of 2nd-order total energy (hartree) are
 1,2,3: 0th-order hamiltonian combined with 1st-order wavefunctions
     kin0=   2.30200695E+00 eigvalue=  -1.08215074E-01  local=  -8.63709137E-01
 4,5,6: 1st-order hamiltonian combined with 1st and 0th-order wfs
 loc psp =  -1.38190348E+00  Hartree=   3.19556310E-01     xc=  -1.31204533E-01
 note that "loc psp" includes a xc core correction that could be resolved
 7,8,9: eventually, occupation + non-local contributions
    edocc=   2.61981187E-01     enl0=   6.13559971E-01   enl1=  -3.63346565E+00
 1-9 gives the relaxation energy (to be shifted if some occ is /=2.0)
   erelax=  -2.62139346E+00
 10,11,12 Non-relaxation  contributions : frozen-wavefunctions and Ewald
 fr.local=  -8.18155753E+00 fr.nonlo=   3.22116259E+00  Ewald=   8.38493390E+00
 13,14 Frozen wf xc core corrections (1) and (2)
 frxc 1  =  -1.21966442E-01  frxc 2 =  -7.92082621E-02
 Resulting in :
 2DEtotal=    0.6019707883E+00 Ha. Also 2DEtotal=    0.163804581924E+02 eV
    (2DErelax=   -2.6213934582E+00 Ha. 2DEnonrelax=    3.2233642465E+00 Ha)
    (  non-var. 2DEtotal :    7.1567968068E-01 Ha)


--------------------------------------------------------------------------------
 Perturbation wavevector (in red.coord.)   0.500000  0.250000  0.000000
 Perturbation : displacement of atom   1   along direction   3
 The set of symmetries contains only one element for this perturbation.
 symkpt : not enough symmetry to change the number of k points.

--------------------------------------------------------------------------------

-inwffil : will read wavefunctions from disk file input_data/idat_WFK
--------------------------------------------------------------------------------

-inwffil : will read wavefunctions from disk file input_data/idat_WFQ
 Initialisation of the first-order wave-functions :
  ireadwf=   0
================================================================================

 ----iterations are completed or convergence reached----

 Mean square residual over all n,k,spin=   4.5978E-19; max=  9.6230E-19

 Thirteen components of 2nd-order total energy (hartree) are
 1,2,3: 0th-order hamiltonian combined with 1st-order wavefunctions
     kin0=   2.31128131E+00 eigvalue=  -1.15298363E-01  local=  -9.54255148E-01
 4,5,6: 1st-order hamiltonian combined with 1st and 0th-order wfs
 loc psp =  -5.58669651E-01  Hartree=   1.03656885E-01     xc=  -6.45939007E-02
 note that "loc psp" includes a xc core correction that could be resolved
 7,8,9: eventually, occupation + non-local contributions
    edocc=   1.61226579E-01     enl0=   7.13353918E-01   enl1=  -3.61081147E+00
 1-9 gives the relaxation energy (to be shifted if some occ is /=2.0)
   erelax=  -2.01410985E+00
 10,11,12 Non-relaxation  contributions : frozen-wavefunctions and Ewald
 fr.local=  -8.18155754E+00 fr.nonlo=   3.22116259E+00  Ewald=   7.94761865E+00
 13,14 Frozen wf xc core corrections (1) and (2)
 frxc 1  =  -1.21733101E-01  frxc 2 =  -7.92082622E-02
 Resulting in :
 2DEtotal=    0.7721724973E+00 Ha. Also 2DEtotal=    0.210118822304E+02 eV
    (2DErelax=   -2.0141098457E+00 Ha. 2DEnonrelax=    2.7862823430E+00 Ha)
    (  non-var. 2DEtotal :    7.0154178197E-01 Ha)


--------------------------------------------------------------------------------
 Perturbation wavevector (in red.coord.)   0.500000  0.250000  0.000000
 Perturbation : displacement of atom   2   along direction   1
 The set of symmetries contains only one element for this perturbation.
 symkpt : not enough symmetry to change the number of k points.

--------------------------------------------------------------------------------

-inwffil : will read wavefunctions from disk file input_data/idat_WFK
--------------------------------------------------------------------------------

-inwffil : will read wavefunctions from disk file input_data/idat_WFQ
 Initialisation of the first-order wave-functions :
  ireadwf=   0
================================================================================

 ----iterations are completed or convergence reached----

 Mean square residual over all n,k,spin=   3.7560E-19; max=  7.9561E-19

 Thirteen components of 2nd-order total energy (hartree) are
 1,2,3: 0th-order hamiltonian combined with 1st-order wavefunctions
     kin0=   1.20608155E+03 eigvalue=  -2.32793917E+01  local=  -4.50234035E+02
 4,5,6: 1st-order hamiltonian combined with 1st and 0th-order wfs
 loc psp =  -1.80145341E+03  Hartree=   4.21983740E+02     xc=  -7.55433345E+01
 note that "loc psp" includes a xc core correction that could be resolved
 7,8,9: eventually, occupation + non-local contributions
    edocc=   4.62906317E+01     enl0=   1.43634718E+02   enl1=  -5.16390108E+02
 1-9 gives the relaxation energy (to be shifted if some occ is /=2.0)
   erelax=  -1.04890963E+03
 10,11,12 Non-relaxation  contributions : frozen-wavefunctions and Ewald
 fr.local=   8.64637398E+02 fr.nonlo=   3.88603881E+02  Ewald=   9.26642450E+01
 13,14 Frozen wf xc core corrections (1) and (2)
 frxc 1  =  -1.15383370E+02  frxc 2 =   1.19710848E+02
 Resulting in :
 2DEtotal=    0.3013233707E+03 Ha. Also 2DEtotal=    0.819942590493E+04 eV
    (2DErelax=   -1.0489096317E+03 Ha. 2DEnonrelax=    1.3502330023E+03 Ha)
    (  non-var. 2DEtotal :    1.9131124548E+02 Ha)


--------------------------------------------------------------------------------
 Perturbation wavevector (in red.coord.)   0.500000  0.250000  0.000000
 Perturbation : displacement of atom   2   along direction   2
 The set of symmetries contains only one element for this perturbation.
 symkpt : not enough symmetry to change the number of k points.

--------------------------------------------------------------------------------

-inwffil : will read wavefunctions from disk file input_data/idat_WFK
--------------------------------------------------------------------------------

-inwffil : will read wavefunctions from disk file input_data/idat_WFQ
 Initialisation of the first-order wave-functions :
  ireadwf=   0
================================================================================

 ----iterations are completed or convergence reached----

 Mean square residual over all n,k,spin=   3.4381E-19; max=  7.8704E-19

 Thirteen components of 2nd-order total energy (hartree) are
 1,2,3: 0th-order hamiltonian combined with 1st-order wavefunctions
     kin0=   1.16780358E+03 eigvalue=  -2.25420531E+01  local=  -4.11989387E+02
 4,5,6: 1st-order hamiltonian combined with 1st and 0th-order wfs
 loc psp =  -1.69699240E+03  Hartree=   3.71956757E+02     xc=  -7.52263122E+01
 note that "loc psp" includes a xc core correction that could be resolved
 7,8,9: eventually, occupation + non-local contributions
    edocc=   6.36748133E+01     enl0=   1.21925690E+02   enl1=  -5.94903746E+02
 1-9 gives the relaxation energy (to be shifted if some occ is /=2.0)
   erelax=  -1.07629306E+03
 10,11,12 Non-relaxation  contributions : frozen-wavefunctions and Ewald
 fr.local=   8.64637398E+02 fr.nonlo=   3.88603881E+02  Ewald=   4.54373662E+01
 13,14 Frozen wf xc core corrections (1) and (2)
 frxc 1  =  -1.15383370E+02  frxc 2 =   1.19710848E+02
 Resulting in :
 2DEtotal=    0.2267130610E+03 Ha. Also 2DEtotal=    0.616917612907E+04 eV
    (2DErelax=   -1.0762930626E+03 Ha. 2DEnonrelax=    1.3030061236E+03 Ha)
    (  non-var. 2DEtotal :    1.5705805006E+02 Ha)


--------------------------------------------------------------------------------
 Perturbation wavevector (in red.coord.)   0.500000  0.250000  0.000000
 Perturbation : displacement of atom   2   along direction   3
 The set of symmetries contains only one element for this perturbation.
 symkpt : not enough symmetry to change the number of k points.

--------------------------------------------------------------------------------

-inwffil : will read wavefunctions from disk file input_data/idat_WFK
--------------------------------------------------------------------------------

-inwffil : will read wavefunctions from disk file input_data/idat_WFQ
 Initialisation of the first-order wave-functions :
  ireadwf=   0
================================================================================

 ----iterations are completed or convergence reached----

 Mean square residual over all n,k,spin=   3.9488E-19; max=  7.2988E-19

 Thirteen components of 2nd-order total energy (hartree) are
 1,2,3: 0th-order hamiltonian combined with 1st-order wavefunctions
     kin0=   1.16494212E+03 eigvalue=  -2.24752474E+01  local=  -3.94910132E+02
 4,5,6: 1st-order hamiltonian combined with 1st and 0th-order wfs
 loc psp =  -1.64855123E+03  Hartree=   3.49033687E+02     xc=  -7.50939858E+01
 note that "loc psp" includes a xc core correction that could be resolved
 7,8,9: eventually, occupation + non-local contributions
    edocc=   6.20974338E+01     enl0=   1.08311829E+02   enl1=  -6.84014719E+02
 1-9 gives the relaxation energy (to be shifted if some occ is /=2.0)
   erelax=  -1.14066025E+03
 10,11,12 Non-relaxation  contributions : frozen-wavefunctions and Ewald
 fr.local=   8.64637398E+02 fr.nonlo=   3.88603881E+02  Ewald=   2.40089189E+01
 13,14 Frozen wf xc core corrections (1) and (2)
 frxc 1  =  -1.15383370E+02  frxc 2 =   1.19710848E+02
 Resulting in :
 2DEtotal=    0.1409174289E+03 Ha. Also 2DEtotal=    0.383455825130E+04 eV
    (2DErelax=   -1.1406602473E+03 Ha. 2DEnonrelax=    1.2815776762E+03 Ha)
    (  non-var. 2DEtotal :    1.1529470216E+02 Ha)

================================================================================

 ---- first-order wavefunction calculations are completed ----


 ==> Compute Derivative Database <==
  
  2nd-order matrix (non-cartesian coordinates, masses not included,
   asr not included )
     j1       j2             matrix element
  dir pert dir pert     real part     imaginary part
  
   1    1   1    1         1.1530802839        -0.0000000000
   1    1   2    1         0.3731085444         0.0000000000
   1    1   3    1         0.3507708709         0.0000000005
   1    1   1    2        -0.0460766957        -0.0460767057
   1    1   2    2         0.1543331664         0.1543331576
   1    1   3    2         0.0712662291         0.0712662274
  
   2    1   1    1         0.3308235882         0.0000000002
   2    1   2    1         0.7156787227         0.0000000000
   2    1   3    1         0.3507709196        -0.0000000003
   2    1   1    2        -0.0662469413        -0.0662469562
   2    1   2    2        -0.0230805078        -0.0230805198
   2    1   3    2         0.0712671736         0.0712671685
  
   3    1   1    1         0.3507706045         0.0000000002
   3    1   2    1         0.3507707181         0.0000000001
   3    1   3    1         0.7015415670         0.0000000000
   3    1   1    2         0.0712549286         0.0712549269
   3    1   2    2         0.0712583598         0.0712583573
   3    1   3    2         0.1425223945         0.1425223908
  
   1    2   1    1         2.8239059631        -2.8239059677
   1    2   2    1         1.1403874977        -1.1403874973
   1    2   3    1         0.4524845112        -0.4524845028
   1    2   1    2       191.2842607726        -0.0000000000
   1    2   2    2        88.0373074983         0.0000001138
   1    2   3    2        57.6414795547         0.0000000161
  
   2    2   1    1         3.5901935704        -3.5901935708
   2    2   2    1         2.1626580514        -2.1626580334
   2    2   3    1         0.4524754038        -0.4524753997
   2    2   1    2        88.3425118393         0.0000001910
   2    2   2    2       157.0371583156         0.0000000000
   2    2   3    2        57.6396254349        -0.0000000251
  
   3    2   1    1         0.4524823511        -0.4524823379
   3    2   2    1         0.4524687084        -0.4524687024
   3    2   3    1         0.9049398162        -0.9049398009
   3    2   1    2        57.6414770814        -0.0000000130
   3    2   2    2        57.6395683296        -0.0000000191
   3    2   3    2       115.2772362049         0.0000000000
  
  
  Dynamical matrix, in cartesian coordinates,
   if specified in the inputs, asr has been imposed
     j1       j2             matrix element
  dir pert dir pert     real part    imaginary part
  
   1    1   1    1         0.0314540612        -0.0000000000
   1    1   2    1        -0.0078077859        -0.0000000000
   1    1   3    1        -0.0080842007         0.0000000000
   1    1   1    2        -0.0002480210        -0.0002480211
   1    1   2    2         0.0050519358         0.0050519357
   1    1   3    2        -0.0033300672        -0.0033300673
  
   2    1   1    1        -0.0078077837         0.0000000000
   2    1   2    1         0.0314540558         0.0000000000
   2    1   3    1         0.0080841924        -0.0000000000
   2    1   1    2         0.0050520196         0.0050520196
   2    1   2    2        -0.0002481685        -0.0002481685
   2    1   3    2         0.0033297603         0.0033297603
  
   3    1   1    1        -0.0066589303         0.0000000000
   3    1   2    1         0.0066589378         0.0000000000
   3    1   3    1         0.0315346356        -0.0000000000
   3    1   1    2         0.0041051387         0.0041051388
   3    1   2    2        -0.0041047677        -0.0041047678
   3    1   3    2        -0.0020829612        -0.0020829618
  
   1    2   1    1         0.0195647419        -0.0195647416
   1    2   2    1         0.0109369991        -0.0109369990
   1    2   3    1         0.0301430585        -0.0301430580
   1    2   1    2         4.8404588894        -0.0000000059
   1    2   2    2        -0.9549681876         0.0000000045
   1    2   3    2        -0.5719301136         0.0000000015
  
   2    2   1    1         0.0109368463        -0.0109368463
   2    2   2    1         0.0195655088        -0.0195655081
   2    2   3    1        -0.0301426796         0.0301426792
   2    2   1    2        -0.9549700290         0.0000000057
   2    2   2    2         4.8405857214        -0.0000000043
   2    2   3    2         0.5720585073        -0.0000000025
  
   3    2   1    1        -0.0524302761         0.0524302766
   3    2   2    1         0.0524309536        -0.0524309541
   3    2   3    1         0.1485122809        -0.1485122809
   3    2   1    2        -0.5822154557        -0.0000000013
   3    2   2    2         0.5823458576         0.0000000010
   3    2   3    2         6.8999264726         0.0000000058

  Phonon wavevector (reduced coordinates) :  0.50000  0.25000  0.00000
 Phonon energies in Hartree :
   1.362346E-03  1.365491E-03  1.881202E-03  1.059285E-02  1.244738E-02
   1.455457E-02
 Phonon energies in meV     :
-  3.707131E+01  3.715691E+01  5.119012E+01  2.882461E+02  3.387103E+02
-  3.960501E+02
 Phonon frequencies in cm-1    :
-  2.990003E+02  2.996907E+02  4.128762E+02  2.324862E+03  2.731883E+03
-  3.194360E+03
 Phonon frequencies in Thz     :
-  8.963804E+00  8.984501E+00  1.237772E+01  6.969760E+01  8.189980E+01
-  9.576449E+01
 Phonon energies in Kelvin  :
-  4.301942E+02  4.311875E+02  5.940360E+02  3.344953E+03  3.930566E+03
-  4.595965E+03
 Components of second-order derivatives of the electronic energy, EIGR2D.
 For automatic tests, printing the matrix for the first k-point, first band, first atom.
   1   1   1   1   -5.9784821409E+00    0.0000000000E+00
   1   1   2   1   -2.1674696307E-01   -1.1444459033E-08
   1   1   3   1   -3.2416393467E-03   -2.9940010194E-09
   2   1   1   1   -2.1674696307E-01    1.1444459033E-08
   2   1   2   1   -1.7621918169E-02    0.0000000000E+00
   2   1   3   1   -3.2381042640E-03   -1.0544181092E-10
   3   1   1   1   -3.2416393467E-03    2.9940010193E-09
   3   1   2   1   -3.2381042640E-03    1.0544181093E-10
   3   1   3   1   -6.4759550891E-03    0.0000000000E+00
 
================================================================================

 ---- T=0 shift of eigenenergies due to electron-phonon interation at q ---- 
 Warning : the total shift must be computed through anaddb,                  
 here, only the contribution of one q point is printed.                      
 Print first the electronic eigenvalues, then the q-dependent Fan shift of eigenvalues.

 Eigenvalues (hartree) for nkpt=   1  k points:
 kpt#   1, nband=  8, wtk=  1.00000, kpt=  0.0000  0.0000  0.0000 (reduced coord)
  -1.08548    0.09394    0.09394    0.09394    0.25154    0.86290    0.86290    0.86290
 Eigenvalues (   eV  ) for nkpt=   1  k points:
 kpt#   1, nband=  8, wtk=  1.00000, kpt=  0.0000  0.0000  0.0000 (reduced coord)
 -29.53730    2.55633    2.55633    2.55633    6.84481   23.48062   23.48062   23.48062


 Fan corrections to eigenvalues at T=0 (hartree) for nkpt=   1  k points:
  (in case of degenerate eigenvalues, averaged derivative)
 kpt#   1, nband=  8, wtk=  1.00000, kpt=  0.0000  0.0000  0.0000 (reduced coord)
  -0.00928   -0.00705   -0.00705   -0.00705   -0.00137    0.00012    0.00012    0.00012
 Fan corrections to eigenvalues at T=0 (   eV  ) for nkpt=   1  k points:
 kpt#   1, nband=  8, wtk=  1.00000, kpt=  0.0000  0.0000  0.0000 (reduced coord)
  -0.25243   -0.19184   -0.19184   -0.19184   -0.03736    0.00332    0.00332    0.00332

== END DATASET(S) ==============================================================
================================================================================
  
 -outvars: echo values of variables after computation  --------
            acell      1.0000000000E+00  1.0000000000E+00  1.0000000000E+00 Bohr
              amu      6.94100000E+00  1.89984032E+01
        autoparal           1
           diemac      9.00000000E+00
             ecut      1.00000000E+01 Hartree
    elph2_imagden      1.83746627E-03 Hartree
           enunit           2
-          fftalg         112
          ieig2rf           5
           irdwfk           1
           irdwfq           1
          ird1den           1
             iscf          -2
           istwfk        1
           kptopt           3
         kptrlatt        1    0    0      0    1    0      0    0    1
          kptrlen      5.44684916E+00
P           mkmem           1
P          mkqmem           1
P          mk1mem           1
            natom           2
            nband           8
            ngfft          16      16      16
             nkpt           1
           nnsclo          40
             nqpt           1
             nsym           1
           ntypat           2
        optdriver           1
        optforces           1
              qpt      5.00000000E-01  2.50000000E-01  0.00000000E+00
          rfatpol           1       2
            rfdir           1       1       1
           rfphon           1
            rprim      0.0000000000E+00  3.8515039744E+00  3.8515039744E+00
                       3.8515039744E+00  0.0000000000E+00  3.8515039744E+00
                       3.8515039744E+00  3.8515039744E+00  0.0000000000E+00
          spgroup           1
           tolwfr      1.00000000E-18
            typat      1  2
           xangst      0.0000000000E+00  0.0000000000E+00  0.0000000000E+00
                       2.0381281221E+00  2.0381281221E+00  2.0381281221E+00
            xcart      0.0000000000E+00  0.0000000000E+00  0.0000000000E+00
                       3.8515039744E+00  3.8515039744E+00  3.8515039744E+00
             xred      0.0000000000E+00  0.0000000000E+00  0.0000000000E+00
                       5.0000000000E-01  5.0000000000E-01  5.0000000000E-01
            znucl        3.00000    9.00000

================================================================================


- Timing analysis has been suppressed with timopt=0



================================================================================

 Suggested references for the acknowledgment of ABINIT usage.

 The users of ABINIT have little formal obligations with respect to the ABINIT group
 (those specified in the GNU General Public License, http://www.gnu.org/copyleft/gpl.txt).
 However, it is common practice in the scientific literature,
 to acknowledge the efforts of people that have made the research possible.
 In this spirit, please find below suggested citations of work written by ABINIT developers,
 corresponding to implementations inside of ABINIT that you have used in the present run.
 Note also that it will be of great value to readers of publications presenting these results,
 to read papers enabling them to understand the theoretical formalism and details
 of the ABINIT implementation.
 For information on why they are suggested, see also http://www.abinit.org/about/?text=acknowledgments.
-
- [1] Verification of first-principles codes: Comparison of total energies, phonon frequencies,
- electron--phonon coupling and zero-point motion correction to the gap between ABINIT and QE/Yambo
- S. Ponce, G. Antonius, P. Boulanger, E. Cannuccia, A. Marini, M. Cote and X. Gonze. Computational Material Science 83, 341 (2014)
- Comment : the temperature-dependence of the electronic structure is computed (or the zero-point renormalisation).
- Strong suggestion to cite this paper in your publications.
-
- [2] Temperature dependence of the electronic structure of semiconductors and insulators 
- S. Ponce, Y. Gillet, J. Laflamme Janssen, A. Marini, M. Verstraete and X. Gonze. J. Chem. Phys. 143, 102813 (2015)
- Comment : the temperature-dependence of the electronic structure is computed (or the zero-point renormalisation).
- Strong suggestion to cite this paper in your publications.
-
- [3] Recent developments in the ABINIT software package.
- Computer Phys. Comm. 205, 106 (2016).
- X.Gonze, F.Jollet, F.Abreu Araujo, D.Adams, B.Amadon, T.Applencourt,
- C.Audouze, J.-M.Beuken, J.Bieder, A.Bokhanchuk, E.Bousquet, F.Bruneval
- D.Caliste, M.Cote, F.Dahm, F.Da Pieve, M.Delaveau, M.Di Gennaro,
- B.Dorado, C.Espejo, G.Geneste, L.Genovese, A.Gerossier, M.Giantomassi,
- Y.Gillet, D.R.Hamann, L.He, G.Jomard, J.Laflamme Janssen, S.Le Roux,
- A.Levitt, A.Lherbier, F.Liu, I.Lukacevic, A.Martin, C.Martins,
- M.J.T.Oliveira, S.Ponce, Y.Pouillon, T.Rangel, G.-M.Rignanese,
- A.H.Romero, B.Rousseau, O.Rubel, A.A.Shukri, M.Stankovski, M.Torrent,
- M.J.Van Setten, B.Van Troeye, M.J.Verstraete, D.Waroquier, J.Wiktor,
- B.Xue, A.Zhou, J.W.Zwanziger.
- Comment : the fourth generic paper describing the ABINIT project.
- Note that a version of this paper, that is not formatted for Computer Phys. Comm. 
- is available at http://www.abinit.org/about/ABINIT16.pdf .
- The licence allows the authors to put it on the Web.
-
- [4] First-principles responses of solids to atomic displacements and homogeneous electric fields:,
- implementation of a conjugate-gradient algorithm. X. Gonze, Phys. Rev. B55, 10337 (1997).
- Comment : Non-vanishing rfphon and/or rfelfd, in the norm-conserving case.
-
- [5] Dynamical matrices, Born effective charges, dielectric permittivity tensors, and ,
- interatomic force constants from density-functional perturbation theory,
- X. Gonze and C. Lee, Phys. Rev. B55, 10355 (1997).
- Comment : Non-vanishing rfphon and/or rfelfd, in the norm-conserving case.
-
- [6] ABINIT : First-principles approach of materials and nanosystem properties.
- Computer Phys. Comm. 180, 2582-2615 (2009).
- X. Gonze, B. Amadon, P.-M. Anglade, J.-M. Beuken, F. Bottin, P. Boulanger, F. Bruneval,
- D. Caliste, R. Caracas, M. Cote, T. Deutsch, L. Genovese, Ph. Ghosez, M. Giantomassi
- S. Goedecker, D.R. Hamann, P. Hermet, F. Jollet, G. Jomard, S. Leroux, M. Mancini, S. Mazevet,
- M.J.T. Oliveira, G. Onida, Y. Pouillon, T. Rangel, G.-M. Rignanese, D. Sangalli, R. Shaltaf,
- M. Torrent, M.J. Verstraete, G. Zerah, J.W. Zwanziger
- Comment : the third generic paper describing the ABINIT project.
- Note that a version of this paper, that is not formatted for Computer Phys. Comm. 
- is available at http://www.abinit.org/about/ABINIT_CPC_v10.pdf .
- The licence allows the authors to put it on the Web.
-
- [7] A brief introduction to the ABINIT software package.
- Z. Kristallogr. 220, 558-562 (2005).
- X. Gonze, G.-M. Rignanese, M. Verstraete, J.-M. Beuken, Y. Pouillon, R. Caracas, F. Jollet,
- M. Torrent, G. Zerah, M. Mikami, Ph. Ghosez, M. Veithen, J.-Y. Raty, V. Olevano, F. Bruneval,
- L. Reining, R. Godby, G. Onida, D.R. Hamann, and D.C. Allan.
- Comment : the second generic paper describing the ABINIT project. Note that this paper
- should be cited especially if you are using the GW part of ABINIT, as several authors
- of this part are not in the list of authors of the first or third paper.
- The .pdf of the latter paper is available at http://www.abinit.org/about/zfk_0505-06_558-562.pdf.
- Note that it should not redistributed (Copyright by Oldenburg Wissenshaftverlag,
- the licence allows the authors to put it on the Web).
-
- Proc.   0 individual time (sec): cpu=          0.6  wall=          0.6

================================================================================

 Calculation completed.
.Delivered   0 WARNINGs and   0 COMMENTs to log file.
+Overall time at end (sec) : cpu=          2.5  wall=          2.5
