Al    ONCVPSP-3.3.0  r_core=   1.76802   1.76802   1.70587
13.0000      3.0000      171102    zatom,zion,pspd
8   -1012   2     4   600     0    pspcod,pspxc,lmax,lloc,mmax,r2well
5.99000000  5.00000000  0.00000000    rchrg fchrg qchrg
2     2     2     0     0    nproj
1     1           extension_switch
0                         5.7258696825527D+00  7.2613084747043D-01
1  0.0000000000000D+00 -1.3152838262975D-09  3.3228998302937D-09
2  1.0000000000000D-02  2.6870671861488D-02 -1.5814022719123D-02
3  2.0000000000000D-02  5.3630338578765D-02 -3.1343219018663D-02
4  3.0000000000000D-02  8.0169684797216D-02 -4.6307099275503D-02
5  4.0000000000000D-02  1.0638275020802D-01 -6.0433785349932D-02
6  5.0000000000000D-02  1.3216854607775D-01 -7.3464161913058D-02
7  6.0000000000000D-02  1.5743259953412D-01 -8.5155844872116D-02
8  7.0000000000000D-02  1.8208840309271D-01 -9.5286909883384D-02
9  8.0000000000000D-02  2.0605874822515D-01 -1.0365932726532D-01
10  9.0000000000000D-02  2.2927692337943D-01 -1.1010205369304D-01
11  1.0000000000000D-01  2.5168775874696D-01 -1.1447373581466D-01
12  1.1000000000000D-01  2.7324850220282D-01 -1.1666498631528D-01
13  1.2000000000000D-01  2.9392951319656D-01 -1.1660019889341D-01
14  1.3000000000000D-01  3.1371476390867D-01 -1.1423887502607D-01
15  1.4000000000000D-01  3.3260213967902D-01 -1.0957644219624D-01
16  1.5000000000000D-01  3.5060353352035D-01 -1.0264455034718D-01
17  1.6000000000000D-01  3.6774473241506D-01 -9.3510840616004D-02
18  1.7000000000000D-01  3.8406509601741D-01 -8.2278187784649D-02
19  1.8000000000000D-01  3.9961703130612D-01 -6.9083425268564D-02
20  1.9000000000000D-01  4.1446526961376D-01 -5.4095568742470D-02
21  2.0000000000000D-01  4.2868595526069D-01 -3.7513561576965D-02
22  2.1000000000000D-01  4.4236555770302D-01 -1.9563572033597D-02
23  2.2000000000000D-01  4.5559962163053D-01 -4.9587854563797D-04
24  2.3000000000000D-01  4.6849137178491D-01  1.9418614691869D-02
25  2.4000000000000D-01  4.8115019138049D-01  3.9892184266960D-02
26  2.5000000000000D-01  4.9368999486815D-01  6.0624363982312D-02
27  2.6000000000000D-01  5.0622751736192D-01  8.1306234937934D-02
28  2.7000000000000D-01  5.1888054432559D-01  1.0162486980477D-01
29  2.8000000000000D-01  5.3176610607334D-01  1.2126786941346D-01
30  2.9000000000000D-01  5.4499866226131D-01  1.3992792821110D-01
31  3.0000000000000D-01  5.5868830182477D-01  1.5730736443855D-01
32  3.1000000000000D-01  5.7293898374459D-01  1.7312255106124D-01
33  3.2000000000000D-01  5.8784684360531D-01  1.8710818455143D-01
34  3.3000000000000D-01  6.0349859014011D-01  1.9902133055750D-01
35  3.4000000000000D-01  6.1997001485453D-01  2.0864518828217D-01
36  3.5000000000000D-01  6.3732463639408D-01  2.1579251899410D-01
37  3.6000000000000D-01  6.5561249958883D-01  2.2030868846940D-01
38  3.7000000000000D-01  6.7486914709400D-01  2.2207427824434D-01
39  3.8000000000000D-01  6.9511477927332D-01  2.2100722629394D-01
40  3.9000000000000D-01  7.1635361547435D-01  2.1706446405472D-01
41  4.0000000000000D-01  7.3857346715187D-01  2.1024302350418D-01
42  4.1000000000000D-01  7.6174553044501D-01  2.0058059520006D-01
43  4.2000000000000D-01  7.8582440284282D-01  1.8815552567653D-01
44  4.3000000000000D-01  8.1074832552127D-01  1.7308625028906D-01
45  4.4000000000000D-01  8.3643964984475D-01  1.5553016539107D-01
46  4.5000000000000D-01  8.6280552343665D-01  1.3568195150866D-01
47  4.6000000000000D-01  8.8973878818133D-01  1.1377136684746D-01
48  4.7000000000000D-01  9.1711907956306D-01  9.0060537912060D-02
49  4.8000000000000D-01  9.4481411391898D-01  6.4840781141915D-02
50  4.9000000000000D-01  9.7268114752033D-01  3.8428996168383D-02
51  5.0000000000000D-01  1.0005685889390D+00  1.1163677479212D-02
52  5.1000000000000D-01  1.0283177439355D+00 -1.6599403142544D-02
53  5.2000000000000D-01  1.0557646701575D+00 -4.4491786145859D-02
54  5.3000000000000D-01  1.0827421172837D+00 -7.2137124306820D-02
55  5.4000000000000D-01  1.1090815269260D+00 -9.9156128671603D-02
56  5.5000000000000D-01  1.1346150656120D+00 -1.2517159317353D-01
57  5.6000000000000D-01  1.1591776635485D+00 -1.4981342920326D-01
58  5.7000000000000D-01  1.1826090316082D+00 -1.7272364079764D-01
59  5.8000000000000D-01  1.2047556291013D+00 -1.9356117144643D-01
60  5.9000000000000D-01  1.2254725553879D+00 -2.1200655480376D-01
61  6.0000000000000D-01  1.2446253392536D+00 -2.2776630380806D-01
62  6.1000000000000D-01  1.2620916012037D+00 -2.4057697586613D-01
63  6.2000000000000D-01  1.2777625654005D+00 -2.5020885575268D-01
64  6.3000000000000D-01  1.2915443998853D+00 -2.5646920274800D-01
65  6.4000000000000D-01  1.3033593659296D+00 -2.5920501413475D-01
66  6.5000000000000D-01  1.3131467598515D+00 -2.5830526348907D-01
67  6.6000000000000D-01  1.3208636333708D+00 -2.5370257914833D-01
68  6.7000000000000D-01  1.3264852815148D+00 -2.4537433567814D-01
69  6.8000000000000D-01  1.3300054902004D+00 -2.3334313904636D-01
70  6.9000000000000D-01  1.3314365388681D+00 -2.1767669443903D-01
71  7.0000000000000D-01  1.3308089568711D+00 -1.9848705406739D-01
72  7.1000000000000D-01  1.3281710356889D+00 -1.7592925083203D-01
73  7.2000000000000D-01  1.3235881024078D+00 -1.5019933223054D-01
74  7.3000000000000D-01  1.3171415632290D+00 -1.2153181727989D-01
75  7.4000000000000D-01  1.3089277289820D+00 -9.0196607345306D-02
76  7.5000000000000D-01  1.2990564377023D+00 -5.6495389546192D-02
77  7.6000000000000D-01  1.2876494922357D+00 -2.0757578723226D-02
78  7.7000000000000D-01  1.2748389334895D+00  1.6664149340982D-02
79  7.8000000000000D-01  1.2607651723796D+00  5.5398674656722D-02
80  7.9000000000000D-01  1.2455750056199D+00  9.5061535640971D-02
81  8.0000000000000D-01  1.2294195422900D+00  1.3526024905203D-01
82  8.1000000000000D-01  1.2124520695445D+00  1.7559977511542D-01
83  8.2000000000000D-01  1.1948258868750D+00  2.1568805309875D-01
84  8.3000000000000D-01  1.1766921389938D+00  2.5514153098168D-01
85  8.4000000000000D-01  1.1581976776515D+00  2.9359061228834D-01
86  8.5000000000000D-01  1.1394829825391D+00  3.3068494361899D-01
87  8.6000000000000D-01  1.1206801708400D+00  3.6609846793752D-01
88  8.7000000000000D-01  1.1019111240076D+00  3.9953417123043D-01
89  8.8000000000000D-01  1.0832857589518D+00  4.3072845372451D-01
90  8.9000000000000D-01  1.0649004690441D+00  4.5945506139358D-01
91  9.0000000000000D-01  1.0468367582065D+00  4.8552851894753D-01
92  9.1000000000000D-01  1.0291600888801D+00  5.0880701181119D-01
93  9.2000000000000D-01  1.0119189618806D+00  5.2919467168771D-01
94  9.3000000000000D-01  9.9514424309904D-01  5.4664322807319D-01
95  9.4000000000000D-01  9.7884874871898D-01  5.6115299644298D-01
96  9.5000000000000D-01  9.6302709715493D-01  5.7277318264740D-01
97  9.6000000000000D-01  9.4765583227199D-01  5.8160149231359D-01
98  9.7000000000000D-01  9.3269381879125D-01  5.8778304333630D-01
99  9.8000000000000D-01  9.1808290698216D-01  5.9150858919701D-01
100  9.9000000000000D-01  9.0374885999771D-01  5.9301207035793D-01
101  1.0000000000000D+00  8.8960253353240D-01  5.9256752030367D-01
102  1.0100000000000D+00  8.7554129388284D-01  5.9048536193662D-01
103  1.0200000000000D+00  8.6145065707111D-01  5.8710813870264D-01
104  1.0300000000000D+00  8.4720612841326D-01  5.8280573313386D-01
105  1.0400000000000D+00  8.3267521905856D-01  5.7797013273338D-01
106  1.0500000000000D+00  8.1771961321840D-01  5.7300981023732D-01
107  1.0600000000000D+00  8.0219745749201D-01  5.6834379114136D-01
108  1.0700000000000D+00  7.8596574173534D-01  5.6439548634102D-01
109  1.0800000000000D+00  7.6888273929302D-01  5.6158637184506D-01
110  1.0900000000000D+00  7.5081047330650D-01  5.6032960031518D-01
111  1.1000000000000D+00  7.3161717499869D-01  5.6102363123087D-01
112  1.1100000000000D+00  7.1117969959927D-01  5.6404596706083D-01
113  1.1200000000000D+00  6.8938586575666D-01  5.6974708234558D-01
114  1.1300000000000D+00  6.6613668508500D-01  5.7844463054370D-01
115  1.1400000000000D+00  6.4134844919187D-01  5.9041801171249D-01
116  1.1500000000000D+00  6.1495464354842D-01  6.0590337896087D-01
117  1.1600000000000D+00  5.8690765929468D-01  6.2508915721026D-01
118  1.1700000000000D+00  5.5718027676958D-01  6.4811214094367D-01
119  1.1800000000000D+00  5.2576689649130D-01  6.7505423270256D-01
120  1.1900000000000D+00  4.9268449751310D-01  7.0593987342316D-01
121  1.2000000000000D+00  4.5797330620948D-01  7.4073420775883D-01
122  1.2100000000000D+00  4.2169716141297D-01  7.7934202025814D-01
123  1.2200000000000D+00  3.8394356652602D-01  8.2160746632696D-01
124  1.2300000000000D+00  3.4482342357813D-01  8.6731461087479D-01
125  1.2400000000000D+00  3.0447044773697D-01  9.1618877856599D-01
126  1.2500000000000D+00  2.6304026429335D-01  9.6789871068668D-01
127  1.2600000000000D+00  2.2070919661461D-01  1.0220595072118D+00
128  1.2700000000000D+00  1.7767275621078D-01  1.0782363259364D+00
129  1.2800000000000D+00  1.3414384876376D-01  1.1359488036700D+00
130  1.2900000000000D+00  9.0350717542166D-02  1.1946761452866D+00
131  1.3000000000000D+00  4.6534646477183D-02  1.2538628242633D+00
132  1.3100000000000D+00  2.9474480382683D-03  1.3129248310746D+00
133  1.3200000000000D+00 -4.0151232298012D-02  1.3712563889393D+00
134  1.3300000000000D+00 -8.2496764255686D-02  1.4282370591107D+00
135  1.3400000000000D+00 -1.2382249897617D-01  1.4832391479174D+00
136  1.3500000000000D+00 -1.6386281549426D-01  1.5356353199499D+00
137  1.3600000000000D+00 -2.0235621105039D-01  1.5848063251316D+00
138  1.3700000000000D+00 -2.3904839477043D-01  1.6301487357601D+00
139  1.3800000000000D+00 -2.7369534641065D-01  1.6710826004718D+00
140  1.3900000000000D+00 -3.0606630056930D-01  1.7070589229789D+00
141  1.4000000000000D+00 -3.3594661585206D-01  1.7375668623193D+00
142  1.4100000000000D+00 -3.6314049127168D-01  1.7621403043524D+00
143  1.4200000000000D+00 -3.8747350232667D-01  1.7803647636578D+00
144  1.4300000000000D+00 -4.0879492547293D-01  1.7918839742436D+00
145  1.4400000000000D+00 -4.2697984894853D-01  1.7964059924142D+00
146  1.4500000000000D+00 -4.4193100878232D-01  1.7937083549601D+00
147  1.4600000000000D+00 -4.5358032404979D-01  1.7836417649635D+00
148  1.4700000000000D+00 -4.6189010390376D-01  1.7661332027149D+00
149  1.4800000000000D+00 -4.6685391617521D-01  1.7411881616093D+00
150  1.4900000000000D+00 -4.6849709011026D-01  1.7088919439804D+00
151  1.5000000000000D+00 -4.6687686082163D-01  1.6694100480390D+00
152  1.5100000000000D+00 -4.6208213240666D-01  1.6229875874686D+00
153  1.5200000000000D+00 -4.5423287269688D-01  1.5699477765349D+00
154  1.5300000000000D+00 -4.4347913582515D-01  1.5106894705929D+00
155  1.5400000000000D+00 -4.2999972109023D-01  1.4456837833905D+00
156  1.5500000000000D+00 -4.1400048824945D-01  1.3754698321569D+00
157  1.5600000000000D+00 -3.9571233193940D-01  1.3006496171949D+00
158  1.5700000000000D+00 -3.7538885717007D-01  1.2218821423769D+00
159  1.5800000000000D+00 -3.5330375605413D-01  1.1398767768199D+00
160  1.5900000000000D+00 -3.2974794146011D-01  1.0553859990432D+00
161  1.6000000000000D+00 -3.0502644390565D-01  9.6919753951642D-01
162  1.6100000000000D+00 -2.7945512942939D-01  8.8212606810554D-01
163  1.6200000000000D+00 -2.5335725735858D-01  7.9500447433210D-01
164  1.6300000000000D+00 -2.2705993189871D-01  7.0867487726678D-01
165  1.6400000000000D+00 -2.0089047786757D-01  6.2397944193686D-01
166  1.6500000000000D+00 -1.7517279047173D-01  5.4175112884337D-01
167  1.6600000000000D+00 -1.5022369622648D-01  4.6280447068394D-01
168  1.6700000000000D+00 -1.2634937154899D-01  3.8792649432688D-01
169  1.6800000000000D+00 -1.0384185840680D-01  3.1786788793140D-01
170  1.6900000000000D+00 -8.2975719939052D-02  2.5333452209448D-01
171  1.7000000000000D+00 -6.4004874610025D-02  1.9497942283946D-01
172  1.7100000000000D+00 -4.7167166162585D-02  1.4341810568109D-01
173  1.7200000000000D+00 -3.2656128180676D-02  9.9144255705394D-02
174  1.7300000000000D+00 -2.0594202662911D-02  6.2449891650377D-02
175  1.7400000000000D+00 -1.1191178395461D-02  3.3906429495249D-02
176  1.7500000000000D+00 -4.7634475994634D-03  1.4423441623122D-02
177  1.7600000000000D+00 -1.2207259496729D-03  3.6954789822885D-03
178  1.7700000000000D+00  1.6721904323813D-04 -5.0464761766161D-04
179  1.7800000000000D+00  2.8728512220109D-04 -8.6816342827286D-04
180  1.7900000000000D+00 -1.4987194184337D-05  4.5310564720321D-05
181  1.8000000000000D+00 -1.0065199178369D-04  3.0428334811136D-04
182  1.8100000000000D+00 -9.0957395071879D-06  2.7495700547871D-05
183  1.8200000000000D+00  1.8313594364035D-05 -5.5425621461676D-05
184  1.8300000000000D+00  6.0056827564213D-06 -1.8176565469669D-05
185  1.8400000000000D+00 -5.6316413331160D-08  1.6708093540343D-07
186  1.8500000000000D+00 -3.4211022840926D-08  1.0149811323668D-07
187  1.8600000000000D+00  0.0000000000000D+00  0.0000000000000D+00
188  1.8700000000000D+00  0.0000000000000D+00  0.0000000000000D+00
189  1.8800000000000D+00  0.0000000000000D+00  0.0000000000000D+00
190  1.8900000000000D+00  0.0000000000000D+00  0.0000000000000D+00
191  1.9000000000000D+00  0.0000000000000D+00  0.0000000000000D+00
192  1.9100000000000D+00  0.0000000000000D+00  0.0000000000000D+00
193  1.9200000000000D+00  0.0000000000000D+00  0.0000000000000D+00
194  1.9300000000000D+00  0.0000000000000D+00  0.0000000000000D+00
195  1.9400000000000D+00  0.0000000000000D+00  0.0000000000000D+00
196  1.9500000000000D+00  0.0000000000000D+00  0.0000000000000D+00
197  1.9600000000000D+00  0.0000000000000D+00  0.0000000000000D+00
198  1.9700000000000D+00  0.0000000000000D+00  0.0000000000000D+00
199  1.9800000000000D+00  0.0000000000000D+00  0.0000000000000D+00
200  1.9900000000000D+00  0.0000000000000D+00  0.0000000000000D+00
201  2.0000000000000D+00  0.0000000000000D+00  0.0000000000000D+00
202  2.0100000000000D+00  0.0000000000000D+00  0.0000000000000D+00
203  2.0200000000000D+00  0.0000000000000D+00  0.0000000000000D+00
204  2.0300000000000D+00  0.0000000000000D+00  0.0000000000000D+00
205  2.0400000000000D+00  0.0000000000000D+00  0.0000000000000D+00
206  2.0500000000000D+00  0.0000000000000D+00  0.0000000000000D+00
207  2.0600000000000D+00  0.0000000000000D+00  0.0000000000000D+00
208  2.0700000000000D+00  0.0000000000000D+00  0.0000000000000D+00
209  2.0800000000000D+00  0.0000000000000D+00  0.0000000000000D+00
210  2.0900000000000D+00  0.0000000000000D+00  0.0000000000000D+00
211  2.1000000000000D+00  0.0000000000000D+00  0.0000000000000D+00
212  2.1100000000000D+00  0.0000000000000D+00  0.0000000000000D+00
213  2.1200000000000D+00  0.0000000000000D+00  0.0000000000000D+00
214  2.1300000000000D+00  0.0000000000000D+00  0.0000000000000D+00
215  2.1400000000000D+00  0.0000000000000D+00  0.0000000000000D+00
216  2.1500000000000D+00  0.0000000000000D+00  0.0000000000000D+00
217  2.1600000000000D+00  0.0000000000000D+00  0.0000000000000D+00
218  2.1700000000000D+00  0.0000000000000D+00  0.0000000000000D+00
219  2.1800000000000D+00  0.0000000000000D+00  0.0000000000000D+00
220  2.1900000000000D+00  0.0000000000000D+00  0.0000000000000D+00
221  2.2000000000000D+00  0.0000000000000D+00  0.0000000000000D+00
222  2.2100000000000D+00  0.0000000000000D+00  0.0000000000000D+00
223  2.2200000000000D+00  0.0000000000000D+00  0.0000000000000D+00
224  2.2300000000000D+00  0.0000000000000D+00  0.0000000000000D+00
225  2.2400000000000D+00  0.0000000000000D+00  0.0000000000000D+00
226  2.2500000000000D+00  0.0000000000000D+00  0.0000000000000D+00
227  2.2600000000000D+00  0.0000000000000D+00  0.0000000000000D+00
228  2.2700000000000D+00  0.0000000000000D+00  0.0000000000000D+00
229  2.2800000000000D+00  0.0000000000000D+00  0.0000000000000D+00
230  2.2900000000000D+00  0.0000000000000D+00  0.0000000000000D+00
231  2.3000000000000D+00  0.0000000000000D+00  0.0000000000000D+00
232  2.3100000000000D+00  0.0000000000000D+00  0.0000000000000D+00
233  2.3200000000000D+00  0.0000000000000D+00  0.0000000000000D+00
234  2.3300000000000D+00  0.0000000000000D+00  0.0000000000000D+00
235  2.3400000000000D+00  0.0000000000000D+00  0.0000000000000D+00
236  2.3500000000000D+00  0.0000000000000D+00  0.0000000000000D+00
237  2.3600000000000D+00  0.0000000000000D+00  0.0000000000000D+00
238  2.3700000000000D+00  0.0000000000000D+00  0.0000000000000D+00
239  2.3800000000000D+00  0.0000000000000D+00  0.0000000000000D+00
240  2.3900000000000D+00  0.0000000000000D+00  0.0000000000000D+00
241  2.4000000000000D+00  0.0000000000000D+00  0.0000000000000D+00
242  2.4100000000000D+00  0.0000000000000D+00  0.0000000000000D+00
243  2.4200000000000D+00  0.0000000000000D+00  0.0000000000000D+00
244  2.4300000000000D+00  0.0000000000000D+00  0.0000000000000D+00
245  2.4400000000000D+00  0.0000000000000D+00  0.0000000000000D+00
246  2.4500000000000D+00  0.0000000000000D+00  0.0000000000000D+00
247  2.4600000000000D+00  0.0000000000000D+00  0.0000000000000D+00
248  2.4700000000000D+00  0.0000000000000D+00  0.0000000000000D+00
249  2.4800000000000D+00  0.0000000000000D+00  0.0000000000000D+00
250  2.4900000000000D+00  0.0000000000000D+00  0.0000000000000D+00
251  2.5000000000000D+00  0.0000000000000D+00  0.0000000000000D+00
252  2.5100000000000D+00  0.0000000000000D+00  0.0000000000000D+00
253  2.5200000000000D+00  0.0000000000000D+00  0.0000000000000D+00
254  2.5300000000000D+00  0.0000000000000D+00  0.0000000000000D+00
255  2.5400000000000D+00  0.0000000000000D+00  0.0000000000000D+00
256  2.5500000000000D+00  0.0000000000000D+00  0.0000000000000D+00
257  2.5600000000000D+00  0.0000000000000D+00  0.0000000000000D+00
258  2.5700000000000D+00  0.0000000000000D+00  0.0000000000000D+00
259  2.5800000000000D+00  0.0000000000000D+00  0.0000000000000D+00
260  2.5900000000000D+00  0.0000000000000D+00  0.0000000000000D+00
261  2.6000000000000D+00  0.0000000000000D+00  0.0000000000000D+00
262  2.6100000000000D+00  0.0000000000000D+00  0.0000000000000D+00
263  2.6200000000000D+00  0.0000000000000D+00  0.0000000000000D+00
264  2.6300000000000D+00  0.0000000000000D+00  0.0000000000000D+00
265  2.6400000000000D+00  0.0000000000000D+00  0.0000000000000D+00
266  2.6500000000000D+00  0.0000000000000D+00  0.0000000000000D+00
267  2.6600000000000D+00  0.0000000000000D+00  0.0000000000000D+00
268  2.6700000000000D+00  0.0000000000000D+00  0.0000000000000D+00
269  2.6800000000000D+00  0.0000000000000D+00  0.0000000000000D+00
270  2.6900000000000D+00  0.0000000000000D+00  0.0000000000000D+00
271  2.7000000000000D+00  0.0000000000000D+00  0.0000000000000D+00
272  2.7100000000000D+00  0.0000000000000D+00  0.0000000000000D+00
273  2.7200000000000D+00  0.0000000000000D+00  0.0000000000000D+00
274  2.7300000000000D+00  0.0000000000000D+00  0.0000000000000D+00
275  2.7400000000000D+00  0.0000000000000D+00  0.0000000000000D+00
276  2.7500000000000D+00  0.0000000000000D+00  0.0000000000000D+00
277  2.7600000000000D+00  0.0000000000000D+00  0.0000000000000D+00
278  2.7700000000000D+00  0.0000000000000D+00  0.0000000000000D+00
279  2.7800000000000D+00  0.0000000000000D+00  0.0000000000000D+00
280  2.7900000000000D+00  0.0000000000000D+00  0.0000000000000D+00
281  2.8000000000000D+00  0.0000000000000D+00  0.0000000000000D+00
282  2.8100000000000D+00  0.0000000000000D+00  0.0000000000000D+00
283  2.8200000000000D+00  0.0000000000000D+00  0.0000000000000D+00
284  2.8300000000000D+00  0.0000000000000D+00  0.0000000000000D+00
285  2.8400000000000D+00  0.0000000000000D+00  0.0000000000000D+00
286  2.8500000000000D+00  0.0000000000000D+00  0.0000000000000D+00
287  2.8600000000000D+00  0.0000000000000D+00  0.0000000000000D+00
288  2.8700000000000D+00  0.0000000000000D+00  0.0000000000000D+00
289  2.8800000000000D+00  0.0000000000000D+00  0.0000000000000D+00
290  2.8900000000000D+00  0.0000000000000D+00  0.0000000000000D+00
291  2.9000000000000D+00  0.0000000000000D+00  0.0000000000000D+00
292  2.9100000000000D+00  0.0000000000000D+00  0.0000000000000D+00
293  2.9200000000000D+00  0.0000000000000D+00  0.0000000000000D+00
294  2.9300000000000D+00  0.0000000000000D+00  0.0000000000000D+00
295  2.9400000000000D+00  0.0000000000000D+00  0.0000000000000D+00
296  2.9500000000000D+00  0.0000000000000D+00  0.0000000000000D+00
297  2.9600000000000D+00  0.0000000000000D+00  0.0000000000000D+00
298  2.9700000000000D+00  0.0000000000000D+00  0.0000000000000D+00
299  2.9800000000000D+00  0.0000000000000D+00  0.0000000000000D+00
300  2.9900000000000D+00  0.0000000000000D+00  0.0000000000000D+00
301  3.0000000000000D+00  0.0000000000000D+00  0.0000000000000D+00
302  3.0100000000000D+00  0.0000000000000D+00  0.0000000000000D+00
303  3.0200000000000D+00  0.0000000000000D+00  0.0000000000000D+00
304  3.0300000000000D+00  0.0000000000000D+00  0.0000000000000D+00
305  3.0400000000000D+00  0.0000000000000D+00  0.0000000000000D+00
306  3.0500000000000D+00  0.0000000000000D+00  0.0000000000000D+00
307  3.0600000000000D+00  0.0000000000000D+00  0.0000000000000D+00
308  3.0700000000000D+00  0.0000000000000D+00  0.0000000000000D+00
309  3.0800000000000D+00  0.0000000000000D+00  0.0000000000000D+00
310  3.0900000000000D+00  0.0000000000000D+00  0.0000000000000D+00
311  3.1000000000000D+00  0.0000000000000D+00  0.0000000000000D+00
312  3.1100000000000D+00  0.0000000000000D+00  0.0000000000000D+00
313  3.1200000000000D+00  0.0000000000000D+00  0.0000000000000D+00
314  3.1300000000000D+00  0.0000000000000D+00  0.0000000000000D+00
315  3.1400000000000D+00  0.0000000000000D+00  0.0000000000000D+00
316  3.1500000000000D+00  0.0000000000000D+00  0.0000000000000D+00
317  3.1600000000000D+00  0.0000000000000D+00  0.0000000000000D+00
318  3.1700000000000D+00  0.0000000000000D+00  0.0000000000000D+00
319  3.1800000000000D+00  0.0000000000000D+00  0.0000000000000D+00
320  3.1900000000000D+00  0.0000000000000D+00  0.0000000000000D+00
321  3.2000000000000D+00  0.0000000000000D+00  0.0000000000000D+00
322  3.2100000000000D+00  0.0000000000000D+00  0.0000000000000D+00
323  3.2200000000000D+00  0.0000000000000D+00  0.0000000000000D+00
324  3.2300000000000D+00  0.0000000000000D+00  0.0000000000000D+00
325  3.2400000000000D+00  0.0000000000000D+00  0.0000000000000D+00
326  3.2500000000000D+00  0.0000000000000D+00  0.0000000000000D+00
327  3.2600000000000D+00  0.0000000000000D+00  0.0000000000000D+00
328  3.2700000000000D+00  0.0000000000000D+00  0.0000000000000D+00
329  3.2800000000000D+00  0.0000000000000D+00  0.0000000000000D+00
330  3.2900000000000D+00  0.0000000000000D+00  0.0000000000000D+00
331  3.3000000000000D+00  0.0000000000000D+00  0.0000000000000D+00
332  3.3100000000000D+00  0.0000000000000D+00  0.0000000000000D+00
333  3.3200000000000D+00  0.0000000000000D+00  0.0000000000000D+00
334  3.3300000000000D+00  0.0000000000000D+00  0.0000000000000D+00
335  3.3400000000000D+00  0.0000000000000D+00  0.0000000000000D+00
336  3.3500000000000D+00  0.0000000000000D+00  0.0000000000000D+00
337  3.3600000000000D+00  0.0000000000000D+00  0.0000000000000D+00
338  3.3700000000000D+00  0.0000000000000D+00  0.0000000000000D+00
339  3.3800000000000D+00  0.0000000000000D+00  0.0000000000000D+00
340  3.3900000000000D+00  0.0000000000000D+00  0.0000000000000D+00
341  3.4000000000000D+00  0.0000000000000D+00  0.0000000000000D+00
342  3.4100000000000D+00  0.0000000000000D+00  0.0000000000000D+00
343  3.4200000000000D+00  0.0000000000000D+00  0.0000000000000D+00
344  3.4300000000000D+00  0.0000000000000D+00  0.0000000000000D+00
345  3.4400000000000D+00  0.0000000000000D+00  0.0000000000000D+00
346  3.4500000000000D+00  0.0000000000000D+00  0.0000000000000D+00
347  3.4600000000000D+00  0.0000000000000D+00  0.0000000000000D+00
348  3.4700000000000D+00  0.0000000000000D+00  0.0000000000000D+00
349  3.4800000000000D+00  0.0000000000000D+00  0.0000000000000D+00
350  3.4900000000000D+00  0.0000000000000D+00  0.0000000000000D+00
351  3.5000000000000D+00  0.0000000000000D+00  0.0000000000000D+00
352  3.5100000000000D+00  0.0000000000000D+00  0.0000000000000D+00
353  3.5200000000000D+00  0.0000000000000D+00  0.0000000000000D+00
354  3.5300000000000D+00  0.0000000000000D+00  0.0000000000000D+00
355  3.5400000000000D+00  0.0000000000000D+00  0.0000000000000D+00
356  3.5500000000000D+00  0.0000000000000D+00  0.0000000000000D+00
357  3.5600000000000D+00  0.0000000000000D+00  0.0000000000000D+00
358  3.5700000000000D+00  0.0000000000000D+00  0.0000000000000D+00
359  3.5800000000000D+00  0.0000000000000D+00  0.0000000000000D+00
360  3.5900000000000D+00  0.0000000000000D+00  0.0000000000000D+00
361  3.6000000000000D+00  0.0000000000000D+00  0.0000000000000D+00
362  3.6100000000000D+00  0.0000000000000D+00  0.0000000000000D+00
363  3.6200000000000D+00  0.0000000000000D+00  0.0000000000000D+00
364  3.6300000000000D+00  0.0000000000000D+00  0.0000000000000D+00
365  3.6400000000000D+00  0.0000000000000D+00  0.0000000000000D+00
366  3.6500000000000D+00  0.0000000000000D+00  0.0000000000000D+00
367  3.6600000000000D+00  0.0000000000000D+00  0.0000000000000D+00
368  3.6700000000000D+00  0.0000000000000D+00  0.0000000000000D+00
369  3.6800000000000D+00  0.0000000000000D+00  0.0000000000000D+00
370  3.6900000000000D+00  0.0000000000000D+00  0.0000000000000D+00
371  3.7000000000000D+00  0.0000000000000D+00  0.0000000000000D+00
372  3.7100000000000D+00  0.0000000000000D+00  0.0000000000000D+00
373  3.7200000000000D+00  0.0000000000000D+00  0.0000000000000D+00
374  3.7300000000000D+00  0.0000000000000D+00  0.0000000000000D+00
375  3.7400000000000D+00  0.0000000000000D+00  0.0000000000000D+00
376  3.7500000000000D+00  0.0000000000000D+00  0.0000000000000D+00
377  3.7600000000000D+00  0.0000000000000D+00  0.0000000000000D+00
378  3.7700000000000D+00  0.0000000000000D+00  0.0000000000000D+00
379  3.7800000000000D+00  0.0000000000000D+00  0.0000000000000D+00
380  3.7900000000000D+00  0.0000000000000D+00  0.0000000000000D+00
381  3.8000000000000D+00  0.0000000000000D+00  0.0000000000000D+00
382  3.8100000000000D+00  0.0000000000000D+00  0.0000000000000D+00
383  3.8200000000000D+00  0.0000000000000D+00  0.0000000000000D+00
384  3.8300000000000D+00  0.0000000000000D+00  0.0000000000000D+00
385  3.8400000000000D+00  0.0000000000000D+00  0.0000000000000D+00
386  3.8500000000000D+00  0.0000000000000D+00  0.0000000000000D+00
387  3.8600000000000D+00  0.0000000000000D+00  0.0000000000000D+00
388  3.8700000000000D+00  0.0000000000000D+00  0.0000000000000D+00
389  3.8800000000000D+00  0.0000000000000D+00  0.0000000000000D+00
390  3.8900000000000D+00  0.0000000000000D+00  0.0000000000000D+00
391  3.9000000000000D+00  0.0000000000000D+00  0.0000000000000D+00
392  3.9100000000000D+00  0.0000000000000D+00  0.0000000000000D+00
393  3.9200000000000D+00  0.0000000000000D+00  0.0000000000000D+00
394  3.9300000000000D+00  0.0000000000000D+00  0.0000000000000D+00
395  3.9400000000000D+00  0.0000000000000D+00  0.0000000000000D+00
396  3.9500000000000D+00  0.0000000000000D+00  0.0000000000000D+00
397  3.9600000000000D+00  0.0000000000000D+00  0.0000000000000D+00
398  3.9700000000000D+00  0.0000000000000D+00  0.0000000000000D+00
399  3.9800000000000D+00  0.0000000000000D+00  0.0000000000000D+00
400  3.9900000000000D+00  0.0000000000000D+00  0.0000000000000D+00
401  4.0000000000000D+00  0.0000000000000D+00  0.0000000000000D+00
402  4.0100000000000D+00  0.0000000000000D+00  0.0000000000000D+00
403  4.0200000000000D+00  0.0000000000000D+00  0.0000000000000D+00
404  4.0300000000000D+00  0.0000000000000D+00  0.0000000000000D+00
405  4.0400000000000D+00  0.0000000000000D+00  0.0000000000000D+00
406  4.0500000000000D+00  0.0000000000000D+00  0.0000000000000D+00
407  4.0600000000000D+00  0.0000000000000D+00  0.0000000000000D+00
408  4.0700000000000D+00  0.0000000000000D+00  0.0000000000000D+00
409  4.0800000000000D+00  0.0000000000000D+00  0.0000000000000D+00
410  4.0900000000000D+00  0.0000000000000D+00  0.0000000000000D+00
411  4.1000000000000D+00  0.0000000000000D+00  0.0000000000000D+00
412  4.1100000000000D+00  0.0000000000000D+00  0.0000000000000D+00
413  4.1200000000000D+00  0.0000000000000D+00  0.0000000000000D+00
414  4.1300000000000D+00  0.0000000000000D+00  0.0000000000000D+00
415  4.1400000000000D+00  0.0000000000000D+00  0.0000000000000D+00
416  4.1500000000000D+00  0.0000000000000D+00  0.0000000000000D+00
417  4.1600000000000D+00  0.0000000000000D+00  0.0000000000000D+00
418  4.1700000000000D+00  0.0000000000000D+00  0.0000000000000D+00
419  4.1800000000000D+00  0.0000000000000D+00  0.0000000000000D+00
420  4.1900000000000D+00  0.0000000000000D+00  0.0000000000000D+00
421  4.2000000000000D+00  0.0000000000000D+00  0.0000000000000D+00
422  4.2100000000000D+00  0.0000000000000D+00  0.0000000000000D+00
423  4.2200000000000D+00  0.0000000000000D+00  0.0000000000000D+00
424  4.2300000000000D+00  0.0000000000000D+00  0.0000000000000D+00
425  4.2400000000000D+00  0.0000000000000D+00  0.0000000000000D+00
426  4.2500000000000D+00  0.0000000000000D+00  0.0000000000000D+00
427  4.2600000000000D+00  0.0000000000000D+00  0.0000000000000D+00
428  4.2700000000000D+00  0.0000000000000D+00  0.0000000000000D+00
429  4.2800000000000D+00  0.0000000000000D+00  0.0000000000000D+00
430  4.2900000000000D+00  0.0000000000000D+00  0.0000000000000D+00
431  4.3000000000000D+00  0.0000000000000D+00  0.0000000000000D+00
432  4.3100000000000D+00  0.0000000000000D+00  0.0000000000000D+00
433  4.3200000000000D+00  0.0000000000000D+00  0.0000000000000D+00
434  4.3300000000000D+00  0.0000000000000D+00  0.0000000000000D+00
435  4.3400000000000D+00  0.0000000000000D+00  0.0000000000000D+00
436  4.3500000000000D+00  0.0000000000000D+00  0.0000000000000D+00
437  4.3600000000000D+00  0.0000000000000D+00  0.0000000000000D+00
438  4.3700000000000D+00  0.0000000000000D+00  0.0000000000000D+00
439  4.3800000000000D+00  0.0000000000000D+00  0.0000000000000D+00
440  4.3900000000000D+00  0.0000000000000D+00  0.0000000000000D+00
441  4.4000000000000D+00  0.0000000000000D+00  0.0000000000000D+00
442  4.4100000000000D+00  0.0000000000000D+00  0.0000000000000D+00
443  4.4200000000000D+00  0.0000000000000D+00  0.0000000000000D+00