Fe    ONCVPSP-3.3.0  r_core=   1.26437   1.20546   1.56719
26.0000     16.0000      171102    zatom,zion,pspd
8   -1012   2     4   600     0    pspcod,pspxc,lmax,lloc,mmax,r2well
5.99000000  3.00000000  0.00000000    rchrg fchrg qchrg
2     2     2     0     0    nproj
1     1           extension_switch
0                         1.0102794443061D+01  1.4501281207729D+00
1  0.0000000000000D+00 -2.2258861420710D-12  2.2724871984181D-10
2  1.0000000000000D-02  9.5166219531761D-02 -2.8348907054301D-02
3  2.0000000000000D-02  1.9004294893058D-01 -5.6443906987412D-02
4  3.0000000000000D-02  2.8434170295504D-01 -8.4032518704347D-02
5  4.0000000000000D-02  3.7777600304473D-01 -1.1086510465371D-01
6  5.0000000000000D-02  4.7006237290595D-01 -1.3669627138524D-01
7  6.0000000000000D-02  5.6092132479198D-01 -1.6128624481141D-01
8  7.0000000000000D-02  6.5007833337747D-01 -1.8440221200915D-01
9  8.0000000000000D-02  7.3726479412864D-01 -2.0581962162454D-01
10  9.0000000000000D-02  8.2221896307521D-01 -2.2532343522509D-01
11  1.0000000000000D-01  9.0468687489685D-01 -2.4270932227779D-01
12  1.1000000000000D-01  9.8442323624761D-01 -2.5778479181463D-01
13  1.2000000000000D-01  1.0611922912576D+00 -2.7037025427874D-01
14  1.3000000000000D-01  1.1347686561731D+00 -2.8030000751982D-01
15  1.4000000000000D-01  1.2049381201246D+00 -2.8742314142470D-01
16  1.5000000000000D-01  1.2714984090513D+00 -2.9160435622377D-01
17  1.6000000000000D-01  1.3342599098585D+00 -2.9272469010206D-01
18  1.7000000000000D-01  1.3930463519407D+00 -2.9068215236215D-01
19  1.8000000000000D-01  1.4476954432808D+00 -2.8539225902855D-01
20  1.9000000000000D-01  1.4980594584139D+00 -2.7678846844600D-01
21  2.0000000000000D-01  1.5440057756512D+00 -2.6482251510183D-01
22  2.1000000000000D-01  1.5854173610713D+00 -2.4946464058978D-01
23  2.2000000000000D-01  1.6221931969201D+00 -2.3070372132356D-01
24  2.3000000000000D-01  1.6542486522108D+00 -2.0854729329834D-01
25  2.4000000000000D-01  1.6815157934811D+00 -1.8302147488017D-01
26  2.5000000000000D-01  1.7039436338518D+00 -1.5417078927218D-01
27  2.6000000000000D-01  1.7214983187306D+00 -1.2205788895654D-01
28  2.7000000000000D-01  1.7341632467285D+00 -8.6763185035693D-02
29  2.8000000000000D-01  1.7419391245889D+00 -4.8384384991336D-02
30  2.9000000000000D-01  1.7448439551875D+00 -7.0359429385028D-03
31  3.0000000000000D-01  1.7429129579234D+00  3.7151573030061D-02
32  3.1000000000000D-01  1.7361984211089D+00  8.4032191341763D-02
33  3.2000000000000D-01  1.7247694862574D+00  1.3344531979453D-01
34  3.3000000000000D-01  1.7087118644732D+00  1.8521659490175D-01
35  3.4000000000000D-01  1.6881274854641D+00  2.3915879156341D-01
36  3.5000000000000D-01  1.6631340800152D+00  2.9507278664407D-01
37  3.6000000000000D-01  1.6338646970896D+00  3.5274856985052D-01
38  3.7000000000000D-01  1.6004671570493D+00  4.1196629517728D-01
39  3.8000000000000D-01  1.5631034428172D+00  4.7249736612846D-01
40  3.9000000000000D-01  1.5219490311254D+00  5.3410554792893D-01
41  4.0000000000000D-01  1.4771921663162D+00  5.9654810000606D-01
42  4.1000000000000D-01  1.4290330794731D+00  6.5957692215338D-01
43  4.2000000000000D-01  1.3776831559617D+00  7.2293970797727D-01
44  4.3000000000000D-01  1.3233640547498D+00  7.8638109947359D-01
45  4.4000000000000D-01  1.2663067831498D+00  8.4964383687942D-01
46  4.5000000000000D-01  1.2067507308839D+00  9.1246989829048D-01
47  4.6000000000000D-01  1.1449426676090D+00  9.7460162392269D-01
48  4.7000000000000D-01  1.0811357082561D+00  1.0357828203194D+00
49  4.8000000000000D-01  1.0155882507298D+00  1.0957598402594D+00
50  4.9000000000000D-01  9.4856289068299D-01  1.1542826345943D+00
51  5.0000000000000D-01  8.8032531822467D-01  1.2111057727364D+00
52  5.1000000000000D-01  8.1114320153064D-01  1.2659894290107D+00
53  5.2000000000000D-01  7.4128506241809D-01  1.3187003325857D+00
54  5.3000000000000D-01  6.7101914900050D-01  1.3690126791788D+00
55  5.4000000000000D-01  6.0061231057002D-01  1.4167090032067D+00
56  5.5000000000000D-01  5.3032887985540D-01  1.4615810094951D+00
57  5.6000000000000D-01  4.6042956777482D-01  1.5034303640738D+00
58  5.7000000000000D-01  3.9117037574736D-01  1.5420694439625D+00
59  5.8000000000000D-01  3.2280153054253D-01  1.5773220461776D+00
60  5.9000000000000D-01  2.5556644653671D-01  1.6090240564736D+00
61  6.0000000000000D-01  1.8970072010944D-01  1.6370240785530D+00
62  6.1000000000000D-01  1.2543116075147D-01  1.6611840246437D+00
63  6.2000000000000D-01  6.2974863274096D-02  1.6813796684452D+00
64  6.3000000000000D-01  2.5383253035888D-03  1.6975011614787D+00
65  6.4000000000000D-01 -5.5683385978077D-02  1.7094535138497D+00
66  6.5000000000000D-01 -1.1150741412757D-01  1.7171570403376D+00
67  6.6000000000000D-01 -1.6476383730807D-01  1.7205477725670D+00
68  6.7000000000000D-01 -2.1529633253957D-01  1.7195778377991D+00
69  6.8000000000000D-01 -2.6296277742404D-01  1.7142158046034D+00
70  6.9000000000000D-01 -3.0763578673005D-01  1.7044469953437D+00
71  7.0000000000000D-01 -3.4920318152242D-01  1.6902737650343D+00
72  7.1000000000000D-01 -3.8756838882709D-01  1.6717157457102D+00
73  7.2000000000000D-01 -4.2265077013376D-01  1.6488100550097D+00
74  7.3000000000000D-01 -4.5438587734956D-01  1.6216114671947D+00
75  7.4000000000000D-01 -4.8272563513036D-01  1.5901925443566D+00
76  7.5000000000000D-01 -5.0763844882805D-01  1.5546437250645D+00
77  7.6000000000000D-01 -5.2910923760017D-01  1.5150733672367D+00
78  7.7000000000000D-01 -5.4713939253362D-01  1.4716077415494D+00
79  7.8000000000000D-01 -5.6174665993297D-01  1.4243909712637D+00
80  7.9000000000000D-01 -5.7296495021632D-01  1.3735849139520D+00
81  8.0000000000000D-01 -5.8084407314618D-01  1.3193689802560D+00
82  8.1000000000000D-01 -5.8544940039881D-01  1.2619398845143D+00
83  8.2000000000000D-01 -5.8686145674169D-01  1.2015113218718D+00
84  8.3000000000000D-01 -5.8517544134437D-01  1.1383135663280D+00
85  8.4000000000000D-01 -5.8050068099280D-01  1.0725929841141D+00
86  8.5000000000000D-01 -5.7296001721006D-01  1.0046114567978D+00
87  8.6000000000000D-01 -5.6268912950674D-01  9.3464570862876D-01
88  8.7000000000000D-01 -5.4983579719237D-01  8.6298653283371D-01
89  8.8000000000000D-01 -5.3455910237333D-01  7.8993791187278D-01
90  8.9000000000000D-01 -5.1702857694363D-01  7.1581602706171D-01
91  9.0000000000000D-01 -4.9742329654147D-01  6.4094815345606D-01
92  9.1000000000000D-01 -4.7593092459656D-01  5.6567143647658D-01
93  9.2000000000000D-01 -4.5274670973020D-01  4.9033154742496D-01
94  9.3000000000000D-01 -4.2807243989213D-01  4.1528121579093D-01
95  9.4000000000000D-01 -4.0211535672395D-01  3.4087863707722D-01
96  9.5000000000000D-01 -3.7508703372884D-01  2.6748575575742D-01
97  9.6000000000000D-01 -3.4720222190080D-01  1.9546642392297D-01
98  9.7000000000000D-01 -3.1867766652243D-01  1.2518443716949D-01
99  9.8000000000000D-01 -2.8973089887894D-01  5.7001450263578D-02
100  9.9000000000000D-01 -2.6057900665713D-01 -8.7252238201387D-03
101  1.0000000000000D+00 -2.3143738679981D-01 -7.1644926883012D-02
102  1.0100000000000D+00 -2.0251848456934D-01 -1.3141607488892D-01
103  1.0200000000000D+00 -1.7403052253797D-01 -1.8770867715053D-01
104  1.0300000000000D+00 -1.4617622316712D-01 -2.4020694778040D-01
105  1.0400000000000D+00 -1.1915152855683D-01 -2.8861200097544D-01
106  1.0500000000000D+00 -9.3144320861172D-02 -3.3264462096650D-01
107  1.0600000000000D+00 -6.8333146734467D-02 -3.7204809666954D-01
108  1.0700000000000D+00 -4.4885948988312D-02 -4.0659111072494D-01
109  1.0800000000000D+00 -2.2958807071516D-02 -4.3607067694241D-01
110  1.0900000000000D+00 -2.6946835655384D-03 -4.6031513260810D-01
111  1.1000000000000D+00  1.5777672543565D-02 -4.7918667621581D-01
112  1.1100000000000D+00  3.2345428015053D-02 -4.9258603954281D-01
113  1.1200000000000D+00  4.6911380459208D-02 -5.0045040279298D-01
114  1.1300000000000D+00  5.9390797709633D-02 -5.0274168062993D-01
115  1.1400000000000D+00  6.9707844612036D-02 -4.9943428105360D-01
116  1.1500000000000D+00  7.7795046583894D-02 -4.9051367419794D-01
117  1.1600000000000D+00  8.3593640983835D-02 -4.7597814813650D-01
118  1.1700000000000D+00  8.7053505062555D-02 -4.5583906130414D-01
119  1.1800000000000D+00  8.8133168647581D-02 -4.3012141120879D-01
120  1.1900000000000D+00  8.6799811110759D-02 -3.9886434219376D-01
121  1.2000000000000D+00  8.3029240951875D-02 -3.6212157973925D-01
122  1.2100000000000D+00  7.6805861291038D-02 -3.1996179493709D-01
123  1.2200000000000D+00  6.8121512926063D-02 -2.7246515324245D-01
124  1.2300000000000D+00  5.6917448232958D-02 -2.1952800241380D-01
125  1.2400000000000D+00  4.3887945823725D-02 -1.6358888301987D-01
126  1.2500000000000D+00  2.7126250128230D-02 -9.8226696192619D-02
127  1.2600000000000D+00  6.5608203989395D-03 -2.3234608203749D-02
128  1.2700000000000D+00 -2.3947964569824D-03  8.6806278788770D-03
129  1.2800000000000D+00  7.2004340772275D-05 -2.6198790479862D-04
130  1.2900000000000D+00  4.6880356856238D-04 -1.6995623764615D-03
131  1.3000000000000D+00 -6.8904929649514D-05  2.5483420281374D-04
132  1.3100000000000D+00 -6.3125417295326D-06  2.3314853673820D-05
133  1.3200000000000D+00 -3.9690173242726D-07  9.1199166960083D-07
134  1.3300000000000D+00  0.0000000000000D+00  0.0000000000000D+00
135  1.3400000000000D+00  0.0000000000000D+00  0.0000000000000D+00
136  1.3500000000000D+00  0.0000000000000D+00  0.0000000000000D+00
137  1.3600000000000D+00  0.0000000000000D+00  0.0000000000000D+00
138  1.3700000000000D+00  0.0000000000000D+00  0.0000000000000D+00
139  1.3800000000000D+00  0.0000000000000D+00  0.0000000000000D+00
140  1.3900000000000D+00  0.0000000000000D+00  0.0000000000000D+00
141  1.4000000000000D+00  0.0000000000000D+00  0.0000000000000D+00
142  1.4100000000000D+00  0.0000000000000D+00  0.0000000000000D+00
143  1.4200000000000D+00  0.0000000000000D+00  0.0000000000000D+00
144  1.4300000000000D+00  0.0000000000000D+00  0.0000000000000D+00
145  1.4400000000000D+00  0.0000000000000D+00  0.0000000000000D+00
146  1.4500000000000D+00  0.0000000000000D+00  0.0000000000000D+00
147  1.4600000000000D+00  0.0000000000000D+00  0.0000000000000D+00
148  1.4700000000000D+00  0.0000000000000D+00  0.0000000000000D+00
149  1.4800000000000D+00  0.0000000000000D+00  0.0000000000000D+00
150  1.4900000000000D+00  0.0000000000000D+00  0.0000000000000D+00
151  1.5000000000000D+00  0.0000000000000D+00  0.0000000000000D+00
152  1.5100000000000D+00  0.0000000000000D+00  0.0000000000000D+00
153  1.5200000000000D+00  0.0000000000000D+00  0.0000000000000D+00
154  1.5300000000000D+00  0.0000000000000D+00  0.0000000000000D+00
155  1.5400000000000D+00  0.0000000000000D+00  0.0000000000000D+00
156  1.5500000000000D+00  0.0000000000000D+00  0.0000000000000D+00
157  1.5600000000000D+00  0.0000000000000D+00  0.0000000000000D+00
158  1.5700000000000D+00  0.0000000000000D+00  0.0000000000000D+00
159  1.5800000000000D+00  0.0000000000000D+00  0.0000000000000D+00
160  1.5900000000000D+00  0.0000000000000D+00  0.0000000000000D+00
161  1.6000000000000D+00  0.0000000000000D+00  0.0000000000000D+00
162  1.6100000000000D+00  0.0000000000000D+00  0.0000000000000D+00
163  1.6200000000000D+00  0.0000000000000D+00  0.0000000000000D+00
164  1.6300000000000D+00  0.0000000000000D+00  0.0000000000000D+00
165  1.6400000000000D+00  0.0000000000000D+00  0.0000000000000D+00
166  1.6500000000000D+00  0.0000000000000D+00  0.0000000000000D+00
167  1.6600000000000D+00  0.0000000000000D+00  0.0000000000000D+00
168  1.6700000000000D+00  0.0000000000000D+00  0.0000000000000D+00
169  1.6800000000000D+00  0.0000000000000D+00  0.0000000000000D+00
170  1.6900000000000D+00  0.0000000000000D+00  0.0000000000000D+00
171  1.7000000000000D+00  0.0000000000000D+00  0.0000000000000D+00
172  1.7100000000000D+00  0.0000000000000D+00  0.0000000000000D+00
173  1.7200000000000D+00  0.0000000000000D+00  0.0000000000000D+00
174  1.7300000000000D+00  0.0000000000000D+00  0.0000000000000D+00
175  1.7400000000000D+00  0.0000000000000D+00  0.0000000000000D+00
176  1.7500000000000D+00  0.0000000000000D+00  0.0000000000000D+00
177  1.7600000000000D+00  0.0000000000000D+00  0.0000000000000D+00
178  1.7700000000000D+00  0.0000000000000D+00  0.0000000000000D+00
179  1.7800000000000D+00  0.0000000000000D+00  0.0000000000000D+00
180  1.7900000000000D+00  0.0000000000000D+00  0.0000000000000D+00
181  1.8000000000000D+00  0.0000000000000D+00  0.0000000000000D+00
182  1.8100000000000D+00  0.0000000000000D+00  0.0000000000000D+00
183  1.8200000000000D+00  0.0000000000000D+00  0.0000000000000D+00
184  1.8300000000000D+00  0.0000000000000D+00  0.0000000000000D+00
185  1.8400000000000D+00  0.0000000000000D+00  0.0000000000000D+00
186  1.8500000000000D+00  0.0000000000000D+00  0.0000000000000D+00
187  1.8600000000000D+00  0.0000000000000D+00  0.0000000000000D+00
188  1.8700000000000D+00  0.0000000000000D+00  0.0000000000000D+00
189  1.8800000000000D+00  0.0000000000000D+00  0.0000000000000D+00
190  1.8900000000000D+00  0.0000000000000D+00  0.0000000000000D+00
191  1.9000000000000D+00  0.0000000000000D+00  0.0000000000000D+00
192  1.9100000000000D+00  0.0000000000000D+00  0.0000000000000D+00
193  1.9200000000000D+00  0.0000000000000D+00  0.0000000000000D+00
194  1.9300000000000D+00  0.0000000000000D+00  0.0000000000000D+00
195  1.9400000000000D+00  0.0000000000000D+00  0.0000000000000D+00
196  1.9500000000000D+00  0.0000000000000D+00  0.0000000000000D+00
197  1.9600000000000D+00  0.0000000000000D+00  0.0000000000000D+00
198  1.9700000000000D+00  0.0000000000000D+00  0.0000000000000D+00
199  1.9800000000000D+00  0.0000000000000D+00  0.0000000000000D+00
200  1.9900000000000D+00  0.0000000000000D+00  0.0000000000000D+00
201  2.0000000000000D+00  0.0000000000000D+00  0.0000000000000D+00
202  2.0100000000000D+00  0.0000000000000D+00  0.0000000000000D+00
203  2.0200000000000D+00  0.0000000000000D+00  0.0000000000000D+00
204  2.0300000000000D+00  0.0000000000000D+00  0.0000000000000D+00
205  2.0400000000000D+00  0.0000000000000D+00  0.0000000000000D+00
206  2.0500000000000D+00  0.0000000000000D+00  0.0000000000000D+00
207  2.0600000000000D+00  0.0000000000000D+00  0.0000000000000D+00
208  2.0700000000000D+00  0.0000000000000D+00  0.0000000000000D+00
209  2.0800000000000D+00  0.0000000000000D+00  0.0000000000000D+00
210  2.0900000000000D+00  0.0000000000000D+00  0.0000000000000D+00
211  2.1000000000000D+00  0.0000000000000D+00  0.0000000000000D+00
212  2.1100000000000D+00  0.0000000000000D+00  0.0000000000000D+00
213  2.1200000000000D+00  0.0000000000000D+00  0.0000000000000D+00
214  2.1300000000000D+00  0.0000000000000D+00  0.0000000000000D+00
215  2.1400000000000D+00  0.0000000000000D+00  0.0000000000000D+00
216  2.1500000000000D+00  0.0000000000000D+00  0.0000000000000D+00
217  2.1600000000000D+00  0.0000000000000D+00  0.0000000000000D+00
218  2.1700000000000D+00  0.0000000000000D+00  0.0000000000000D+00
219  2.1800000000000D+00  0.0000000000000D+00  0.0000000000000D+00
220  2.1900000000000D+00  0.0000000000000D+00  0.0000000000000D+00
221  2.2000000000000D+00  0.0000000000000D+00  0.0000000000000D+00
222  2.2100000000000D+00  0.0000000000000D+00  0.0000000000000D+00
223  2.2200000000000D+00  0.0000000000000D+00  0.0000000000000D+00
224  2.2300000000000D+00  0.0000000000000D+00  0.0000000000000D+00
225  2.2400000000000D+00  0.0000000000000D+00  0.0000000000000D+00
226  2.2500000000000D+00  0.0000000000000D+00  0.0000000000000D+00
227  2.2600000000000D+00  0.0000000000000D+00  0.0000000000000D+00
228  2.2700000000000D+00  0.0000000000000D+00  0.0000000000000D+00
229  2.2800000000000D+00  0.0000000000000D+00  0.0000000000000D+00
230  2.2900000000000D+00  0.0000000000000D+00  0.0000000000000D+00
231  2.3000000000000D+00  0.0000000000000D+00  0.0000000000000D+00
232  2.3100000000000D+00  0.0000000000000D+00  0.0000000000000D+00
233  2.3200000000000D+00  0.0000000000000D+00  0.0000000000000D+00
234  2.3300000000000D+00  0.0000000000000D+00  0.0000000000000D+00
235  2.3400000000000D+00  0.0000000000000D+00  0.0000000000000D+00
236  2.3500000000000D+00  0.0000000000000D+00  0.0000000000000D+00
237  2.3600000000000D+00  0.0000000000000D+00  0.0000000000000D+00
238  2.3700000000000D+00  0.0000000000000D+00  0.0000000000000D+00
239  2.3800000000000D+00  0.0000000000000D+00  0.0000000000000D+00
240  2.3900000000000D+00  0.0000000000000D+00  0.0000000000000D+00
241  2.4000000000000D+00  0.0000000000000D+00  0.0000000000000D+00
242  2.4100000000000D+00  0.0000000000000D+00  0.0000000000000D+00
243  2.4200000000000D+00  0.0000000000000D+00  0.0000000000000D+00
244  2.4300000000000D+00  0.0000000000000D+00  0.0000000000000D+00
245  2.4400000000000D+00  0.0000000000000D+00  0.0000000000000D+00
246  2.4500000000000D+00  0.0000000000000D+00  0.0000000000000D+00
247  2.4600000000000D+00  0.0000000000000D+00  0.0000000000000D+00
248  2.4700000000000D+00  0.0000000000000D+00  0.0000000000000D+00
249  2.4800000000000D+00  0.0000000000000D+00  0.0000000000000D+00
250  2.4900000000000D+00  0.0000000000000D+00  0.0000000000000D+00
251  2.5000000000000D+00  0.0000000000000D+00  0.0000000000000D+00
252  2.5100000000000D+00  0.0000000000000D+00  0.0000000000000D+00
253  2.5200000000000D+00  0.0000000000000D+00  0.0000000000000D+00
254  2.5300000000000D+00  0.0000000000000D+00  0.0000000000000D+00
255  2.5400000000000D+00  0.0000000000000D+00  0.0000000000000D+00
256  2.5500000000000D+00  0.0000000000000D+00  0.0000000000000D+00
257  2.5600000000000D+00  0.0000000000000D+00  0.0000000000000D+00
258  2.5700000000000D+00  0.0000000000000D+00  0.0000000000000D+00
259  2.5800000000000D+00  0.0000000000000D+00  0.0000000000000D+00
260  2.5900000000000D+00  0.0000000000000D+00  0.0000000000000D+00
261  2.6000000000000D+00  0.0000000000000D+00  0.0000000000000D+00
262  2.6100000000000D+00  0.0000000000000D+00  0.0000000000000D+00
263  2.6200000000000D+00  0.0000000000000D+00  0.0000000000000D+00
264  2.6300000000000D+00  0.0000000000000D+00  0.0000000000000D+00
265  2.6400000000000D+00  0.0000000000000D+00  0.0000000000000D+00
266  2.6500000000000D+00  0.0000000000000D+00  0.0000000000000D+00
267  2.6600000000000D+00  0.0000000000000D+00  0.0000000000000D+00
268  2.6700000000000D+00  0.0000000000000D+00  0.0000000000000D+00
269  2.6800000000000D+00  0.0000000000000D+00  0.0000000000000D+00
270  2.6900000000000D+00  0.0000000000000D+00  0.0000000000000D+00
271  2.7000000000000D+00  0.0000000000000D+00  0.0000000000000D+00
272  2.7100000000000D+00  0.0000000000000D+00  0.0000000000000D+00
273  2.7200000000000D+00  0.0000000000000D+00  0.0000000000000D+00
274  2.7300000000000D+00  0.0000000000000D+00  0.0000000000000D+00
275  2.7400000000000D+00  0.0000000000000D+00  0.0000000000000D+00
276  2.7500000000000D+00  0.0000000000000D+00  0.0000000000000D+00
277  2.7600000000000D+00  0.0000000000000D+00  0.0000000000000D+00
278  2.7700000000000D+00  0.0000000000000D+00  0.0000000000000D+00
279  2.7800000000000D+00  0.0000000000000D+00  0.0000000000000D+00
280  2.7900000000000D+00  0.0000000000000D+00  0.0000000000000D+00
281  2.8000000000000D+00  0.0000000000000D+00  0.0000000000000D+00
282  2.8100000000000D+00  0.0000000000000D+00  0.0000000000000D+00
283  2.8200000000000D+00  0.0000000000000D+00  0.0000000000000D+00
284  2.8300000000000D+00  0.0000000000000D+00  0.0000000000000D+00
285  2.8400000000000D+00  0.0000000000000D+00  0.0000000000000D+00
286  2.8500000000000D+00  0.0000000000000D+00  0.0000000000000D+00
287  2.8600000000000D+00  0.0000000000000D+00  0.0000000000000D+00
288  2.8700000000000D+00  0.0000000000000D+00  0.0000000000000D+00
289  2.8800000000000D+00  0.0000000000000D+00  0.0000000000000D+00
290  2.8900000000000D+00  0.0000000000000D+00  0.0000000000000D+00
291  2.9000000000000D+00  0.0000000000000D+00  0.0000000000000D+00
292  2.9100000000000D+00  0.0000000000000D+00  0.0000000000000D+00
293  2.9200000000000D+00  0.0000000000000D+00  0.0000000000000D+00
294  2.9300000000000D+00  0.0000000000000D+00  0.0000000000000D+00
295  2.9400000000000D+00  0.0000000000000D+00  0.0000000000000D+00
296  2.9500000000000D+00  0.0000000000000D+00  0.0000000000000D+00
297  2.9600000000000D+00  0.0000000000000D+00  0.0000000000000D+00
298  2.9700000000000D+00  0.0000000000000D+00  0.0000000000000D+00
299  2.9800000000000D+00  0.0000000000000D+00  0.0000000000000D+00
300  2.9900000000000D+00  0.0000000000000D+00  0.0000000000000D+00
301  3.0000000000000D+00  0.0000000000000D+00  0.0000000000000D+00
302  3.0100000000000D+00  0.0000000000000D+00  0.0000000000000D+00
303  3.0200000000000D+00  0.0000000000000D+00  0.0000000000000D+00
304  3.0300000000000D+00  0.0000000000000D+00  0.0000000000000D+00
305  3.0400000000000D+00  0.0000000000000D+00  0.0000000000000D+00
306  3.0500000000000D+00  0.0000000000000D+00  0.0000000000000D+00
307  3.0600000000000D+00  0.0000000000000D+00  0.0000000000000D+00
308  3.0700000000000D+00  0.0000000000000D+00  0.0000000000000D+00
309  3.0800000000000D+00  0.0000000000000D+00  0.0000000000000D+00
310  3.0900000000000D+00  0.0000000000000D+00  0.0000000000000D+00
311  3.1000000000000D+00  0.0000000000000D+00  0.0000000000000D+00
312  3.1100000000000D+00  0.0000000000000D+00  0.0000000000000D+00
313  3.1200000000000D+00  0.0000000000000D+00  0.0000000000000D+00
314  3.1300000000000D+00  0.0000000000000D+00  0.0000000000000D+00
315  3.1400000000000D+00  0.0000000000000D+00  0.0000000000000D+00
316  3.1500000000000D+00  0.0000000000000D+00  0.0000000000000D+00
317  3.1600000000000D+00  0.0000000000000D+00  0.0000000000000D+00
318  3.1700000000000D+00  0.0000000000000D+00  0.0000000000000D+00
319  3.1800000000000D+00  0.0000000000000D+00  0.0000000000000D+00
320  3.1900000000000D+00  0.0000000000000D+00  0.0000000000000D+00
321  3.2000000000000D+00  0.0000000000000D+00  0.0000000000000D+00
322  3.2100000000000D+00  0.0000000000000D+00  0.0000000000000D+00
323  3.2200000000000D+00  0.0000000000000D+00  0.0000000000000D+00
324  3.2300000000000D+00  0.0000000000000D+00  0.0000000000000D+00
325  3.2400000000000D+00  0.0000000000000D+00  0.0000000000000D+00
326  3.2500000000000D+00  0.0000000000000D+00  0.0000000000000D+00
327  3.2600000000000D+00  0.0000000000000D+00  0.0000000000000D+00
328  3.2700000000000D+00  0.0000000000000D+00  0.0000000000000D+00
329  3.2800000000000D+00  0.0000000000000D+00  0.0000000000000D+00
330  3.2900000000000D+00  0.0000000000000D+00  0.0000000000000D+00
331  3.3000000000000D+00  0.0000000000000D+00  0.0000000000000D+00
332  3.3100000000000D+00  0.0000000000000D+00  0.0000000000000D+00
333  3.3200000000000D+00  0.0000000000000D+00  0.0000000000000D+00
334  3.3300000000000D+00  0.0000000000000D+00  0.0000000000000D+00
335  3.3400000000000D+00  0.0000000000000D+00  0.0000000000000D+00
336  3.3500000000000D+00  0.0000000000000D+00  0.0000000000000D+00
337  3.3600000000000D+00  0.0000000000000D+00  0.0000000000000D+00
338  3.3700000000000D+00  0.0000000000000D+00  0.0000000000000D+00
339  3.3800000000000D+00  0.0000000000000D+00  0.0000000000000D+00
340  3.3900000000000D+00  0.0000000000000D+00  0.0000000000000D+00
341  3.4000000000000D+00  0.0000000000000D+00  0.0000000000000D+00
342  3.4100000000000D+00  0.0000000000000D+00  0.0000000000000D+00
343  3.4200000000000D+00  0.0000000000000D+00  0.0000000000000D+00
344  3.4300000000000D+00  0.0000000000000D+00  0.0000000000000D+00
345  3.4400000000000D+00  0.0000000000000D+00  0.0000000000000D+00
346  3.4500000000000D+00  0.0000000000000D+00  0.0000000000000D+00
347  3.4600000000000D+00  0.0000000000000D+00  0.0000000000000D+00
348  3.4700000000000D+00  0.0000000000000D+00  0.0000000000000D+00
349  3.4800000000000D+00  0.0000000000000D+00  0.0000000000000D+00
350  3.4900000000000D+00  0.0000000000000D+00  0.0000000000000D+00
351  3.5000000000000D+00  0.0000000000000D+00  0.0000000000000D+00
352  3.5100000000000D+00  0.0000000000000D+00  0.0000000000000D+00
353  3.5200000000000D+00  0.0000000000000D+00  0.0000000000000D+00
354  3.5300000000000D+00  0.0000000000000D+00  0.0000000000000D+00
355  3.5400000000000D+00  0.0000000000000D+00  0.0000000000000D+00
356  3.5500000000000D+00  0.0000000000000D+00  0.0000000000000D+00
357  3.5600000000000D+00  0.0000000000000D+00  0.0000000000000D+00
358  3.5700000000000D+00  0.0000000000000D+00  0.0000000000000D+00
359  3.5800000000000D+00  0.0000000000000D+00  0.0000000000000D+00
360  3.5900000000000D+00  0.0000000000000D+00  0.0000000000000D+00
361  3.6000000000000D+00  0.0000000000000D+00  0.0000000000000D+00
362  3.6100000000000D+00  0.0000000000000D+00  0.0000000000000D+00
363  3.6200000000000D+00  0.0000000000000D+00  0.0000000000000D+00
364  3.6300000000000D+00  0.0000000000000D+00  0.0000000000000D+00
365  3.6400000000000D+00  0.0000000000000D+00  0.0000000000000D+00
366  3.6500000000000D+00  0.0000000000000D+00  0.0000000000000D+00
367  3.6600000000000D+00  0.0000000000000D+00  0.0000000000000D+00
368  3.6700000000000D+00  0.0000000000000D+00  0.0000000000000D+00
369  3.6800000000000D+00  0.0000000000000D+00  0.0000000000000D+00
370  3.6900000000000D+00  0.0000000000000D+00  0.0000000000000D+00
371  3.7000000000000D+00  0.0000000000000D+00  0.0000000000000D+00
372  3.7100000000000D+00  0.0000000000000D+00  0.0000000000000D+00
373  3.7200000000000D+00  0.0000000000000D+00  0.0000000000000D+00
374  3.7300000000000D+00  0.0000000000000D+00  0.0000000000000D+00
375  3.7400000000000D+00  0.0000000000000D+00  0.0000000000000D+00
376  3.7500000000000D+00  0.0000000000000D+00  0.0000000000000D+00
377  3.7600000000000D+00  0.0000000000000D+00  0.0000000000000D+00
378  3.7700000000000D+00  0.0000000000000D+00  0.0000000000000D+00
379  3.7800000000000D+00  0.0000000000000D+00  0.0000000000000D+00
380  3.7900000000000D+00  0.0000000000000D+00  0.0000000000000D+00
381  3.8000000000000D+00  0.0000000000000D+00  0.0000000000000D+00
382  3.8100000000000D+00  0.0000000000000D+00  0.0000000000000D+00
383  3.8200000000000D+00  0.0000000000000D+00  0.0000000000000D+00
384  3.8300000000000D+00  0.0000000000000D+00  0.0000000000000D+00
385  3.8400000000000D+00  0.0000000000000D+00  0.0000000000000D+00
386  3.8500000000000D+00  0.0000000000000D+00  0.0000000000000D+00
387  3.8600000000000D+00  0.0000000000000D+00  0.0000000000000D+00
388  3.8700000000000D+00  0.0000000000000D+00  0.0000000000000D+00
389  3.8800000000000D+00  0.0000000000000D+00  0.0000000000000D+00
390  3.8900000000000D+00  0.0000000000000D+00  0.0000000000000D+00
391  3.9000000000000D+00  0.0000000000000D+00  0.0000000000000D+00
392  3.9100000000000D+00  0.0000000000000D+00  0.0000000000000D+00
393  3.9200000000000D+00  0.0000000000000D+00  0.0000000000000D+00
394  3.9300000000000D+00  0.0000000000000D+00  0.0000000000000D+00
395  3.9400000000000D+00  0.0000000000000D+00  0.0000000000000D+00
396  3.9500000000000D+00  0.0000000000000D+00  0.0000000000000D+00
397  3.9600000000000D+00  0.0000000000000D+00  0.0000000000000D+00
398  3.9700000000000D+00  0.0000000000000D+00  0.0000000000000D+00
399  3.9800000000000D+00  0.0000000000000D+00  0.0000000000000D+00
400  3.9900000000000D+00  0.0000000000000D+00  0.0000000000000D+00
401  4.0000000000000D+00  0.0000000000000D+00  0.0000000000000D+00
402  4.0100000000000D+00  0.0000000000000D+00  0.0000000000000D+00
403  4.0200000000000D+00  0.0000000000000D+00  0.0000000000000D+00
404  4.0300000000000D+00  0.0000000000000D+00  0.0000000000000D+00
405  4.0400000000000D+00  0.0000000000000D+00  0.0000000000000D+00
406  4.0500000000000D+00  0.0000000000000D+00  0.0000000000000D+00
407  4.0600000000000D+00  0.0000000000000D+00  0.0000000000000D+00
408  4.0700000000000D+00  0.0000000000000D+00  0.0000000000000D+00
409  4.0800000000000D+00  0.0000000000000D+00  0.0000000000000D+00
410  4.0900000000000D+00  0.0000000000000D+00  0.0000000000000D+00
411  4.1000000000000D+00  0.0000000000000D+00  0.0000000000000D+00
412  4.1100000000000D+00  0.0000000000000D+00  0.0000000000000D+00
413  4.1200000000000D+00  0.0000000000000D+00  0.0000000000000D+00
414  4.1300000000000D+00  0.0000000000000D+00  0.0000000000000D+00
415  4.1400000000000D+00  0.0000000000000D+00  0.0000000000000D+00
416  4.1500000000000D+00  0.0000000000000D+00  0.0000000000000D+00
417  4.1600000000000D+00  0.0000000000000D+00  0.0000000000000D+00
418  4.1700000000000D+00  0.0000000000000D+00  0.0000000000000D+00
419  4.1800000000000D+00  0.0000000000000D+00  0.0000000000000D+00
420  4.1900000000000D+00  0.0000000000000D+00  0.0000000000000D+00
421  4.2000000000000D+00  0.0000000000000D+00  0.0000000000000D+00
422  4.2100000000000D+00  0.0000000000000D+00  0.0000000000000D+00
423  4.2200000000000D+00  0.0000000000000D+00  0.0000000000000D+00
424  4.2300000000000D+00  0.0000000000000D+00  0.0000000000000D+00
425  4.2400000000000D+00  0.0000000000000D+00  0.0000000000000D+00
426  4.2500000000000D+00  0.0000000000000D+00  0.0000000000000D+00
427  4.2600000000000D+00  0.0000000000000D+00  0.0000000000000D+00
428  4.2700000000000D+00  0.0000000000000D+00  0.0000000000000D+00
429  4.2800000000000D+00  0.0000000000000D+00  0.0000000000000D+00
430  4.2900000000000D+00  0.0000000000000D+00  0.0000000000000D+00
431  4.3000000000000D+00  0.0000000000000D+00  0.0000000000000D+00
432  4.3100000000000D+00  0.0000000000000D+00  0.0000000000000D+00
433  4.3200000000000D+00  0.0000000000000D+00  0.0000000000000D+00
434  4.3300000000000D+00  0.0000000000000D+00  0.0000000000000D+00
435  4.3400000000000D+00  0.0000000000000D+00  0.0000000000000D+00
436  4.3500000000000D+00  0.0000000000000D+00  0.0000000000000D+00
437  4.3600000000000D+00  0.0000000000000D+00  0.0000000000000D+00
438  4.3700000000000D+00  0.0000000000000D+00  0.0000000000000D+00
439  4.3800000000000D+00  0.0000000000000D+00  0.0000000000000D+00
440  4.3900000000000D+00  0.0000000000000D+00  0.0000000000000D+00
441  4.4000000000000D+00  0.0000000000000D+00  0.0000000000000D+00
442  4.4100000000000D+00  0.0000000000000D+00  0.0000000000000D+00
443  4.4200000000000D+00  0.0000000000000D+00  0.0000000000000D+00