H     ONCVPSP-3.3.0  r_core=   1.00957   0.90680
1.0000      1.0000      171101    zatom,zion,pspd
8   -1012   1     4   300     0    pspcod,pspxc,lmax,lloc,mmax,r2well
2.99000000  0.00000000  0.00000000    rchrg fchrg qchrg
2     1     0     0     0    nproj
1     1           extension_switch
0                        -1.6653384562423D+00 -5.1951023508915D-01
1  0.0000000000000D+00  3.2973843211437D-08 -5.2692486596229D-08
2  1.0000000000000D-02  3.9032443183509D-02  1.0213426290655D-01
3  2.0000000000000D-02  7.8921039655736D-02  2.0254165546542D-01
4  3.0000000000000D-02  1.2049959965031D-01  2.9953101518794D-01
5  4.0000000000000D-02  1.6455769757288D-01  3.9148188464373D-01
6  5.0000000000000D-02  2.1181967114508D-01  4.7687810116870D-01
7  6.0000000000000D-02  2.6292493696795D-01  5.5433930964170D-01
8  7.0000000000000D-02  3.1841002171582D-01  6.2264976931808D-01
9  8.0000000000000D-02  3.7869267519819D-01  6.8078387840161D-01
10  9.0000000000000D-02  4.4405839149608D-01  7.2792790397884D-01
11  1.0000000000000D-01  5.1464961804944D-01  7.6349747890882D-01
12  1.1000000000000D-01  5.9045788081981D-01  7.8715050983293D-01
13  1.2000000000000D-01  6.7131899745989D-01  7.9879523005827D-01
14  1.3000000000000D-01  7.5691149085477D-01  7.9859322594825D-01
15  1.4000000000000D-01  8.4675825358876D-01  7.8695736380052D-01
16  1.5000000000000D-01  9.4023145101299D-01  7.6454464410568D-01
17  1.6000000000000D-01  1.0365605878387D+00  7.3224410963043D-01
18  1.7000000000000D-01  1.1348436017543D+00  6.9116003103150D-01
19  1.8000000000000D-01  1.2340607886360D+00  6.4259068679220D-01
20  1.9000000000000D-01  1.3330913086138D+00  5.8800314137438D-01
21  2.0000000000000D-01  1.4307319716362D+00  5.2900450489613D-01
22  2.1000000000000D-01  1.5257179562085D+00  4.6731022782403D-01
23  2.2000000000000D-01  1.6167450765407D+00  4.0471004372932D-01
24  2.3000000000000D-01  1.7024931821672D+00  3.4303222092178D-01
25  2.4000000000000D-01  1.7816502508037D+00  2.8410681878787D-01
26  2.5000000000000D-01  1.8529367202463D+00  2.2972866621002D-01
27  2.6000000000000D-01  1.9151295987918D+00  1.8162078708257D-01
28  2.7000000000000D-01  1.9670858961061D+00  1.4139899147821D-01
29  2.8000000000000D-01  2.0077649276583D+00  1.1053833054761D-01
30  2.9000000000000D-01  2.0362490655730D+00  9.0342079113072D-02
31  3.0000000000000D-01  2.0517625366740D+00  8.1913862769302D-02
32  3.1000000000000D-01  2.0536879040747D+00  8.6133487013142D-02
33  3.2000000000000D-01  2.0415799112524D+00  1.0363695560753D-01
34  3.3000000000000D-01  2.0151764163213D+00  1.3480108538044D-01
35  3.4000000000000D-01  1.9744061982610D+00  1.7973303650254D-01
36  3.5000000000000D-01  1.9193934751513D+00  2.3826498266716D-01
37  3.6000000000000D-01  1.8504590358793D+00  3.0995404634960D-01
38  3.7000000000000D-01  1.7681179501617D+00  3.9408752236796D-01
39  3.8000000000000D-01  1.6730738858391D+00  4.8969331030118D-01
40  3.9000000000000D-01  1.5662101260198D+00  5.9555537493681D-01
41  4.0000000000000D-01  1.4485774405488D+00  7.1023395583099D-01
42  4.1000000000000D-01  1.3213790252568D+00  8.3209015418752D-01
43  4.2000000000000D-01  1.1859527773632D+00  9.5931443944924D-01
44  4.3000000000000D-01  1.0437512251902D+00  1.0899585409599D+00
45  4.4000000000000D-01  8.9631947402929D-01  1.2219701233378D+00
46  4.5000000000000D-01  7.4527156672198D-01  1.3532295891573D+00
47  4.6000000000000D-01  5.9226568655778D-01  1.4815883102951D+00
48  4.7000000000000D-01  4.3897865087421D-01  1.6049075607315D+00
49  4.8000000000000D-01  2.8708015584856D-01  1.7210974093387D+00
50  4.9000000000000D-01  1.3820723615352D-01  1.8281548315567D+00
51  5.0000000000000D-01 -6.0606026659247D-03  1.9242003139122D+00
52  5.1000000000000D-01 -1.4422513595440D-01  2.0075122548384D+00
53  5.2000000000000D-01 -2.7489163605708D-01  2.0765585086920D+00
54  5.3000000000000D-01 -3.9678916449990D-01  2.1300244763810D+00
55  5.4000000000000D-01 -5.0878859107114D-01  2.1668372146269D+00
56  5.5000000000000D-01 -6.0991803660125D-01  2.1861851152926D+00
57  5.6000000000000D-01 -6.9937548801608D-01  2.1875327946219D+00
58  5.7000000000000D-01 -7.7653839119183D-01  2.1706309285752D+00
59  5.8000000000000D-01 -8.4097008758382D-01  2.1355208718608D+00
60  5.9000000000000D-01 -8.9242302410128D-01  2.0825340040091D+00
61  6.0000000000000D-01 -9.3083873014134D-01  2.0122858523926D+00
62  6.1000000000000D-01 -9.5634462084598D-01  1.9256651490551D+00
63  6.2000000000000D-01 -9.6924774904073D-01  1.8238180815019D+00
64  6.3000000000000D-01 -9.7002569000186D-01  1.7081280972845D+00
65  6.4000000000000D-01 -9.5931480081785D-01  1.5801917144219D+00
66  6.5000000000000D-01 -9.3789614925975D-01  1.4417908737704D+00
67  6.6000000000000D-01 -9.0667945459330D-01  1.2948624435031D+00
68  6.7000000000000D-01 -8.6668542340382D-01  1.1414655478767D+00
69  6.8000000000000D-01 -8.1902689686245D-01  9.8374744183884D-01
70  6.9000000000000D-01 -7.6488925295091D-01  8.2390869279758D-01
71  7.0000000000000D-01 -7.0551048961526D-01  6.6416836626030D-01
72  7.1000000000000D-01 -6.4216163461963D-01  5.0673045425697D-01
73  7.2000000000000D-01 -5.7612402344293D-01  3.5374247131654D-01
74  7.3000000000000D-01 -5.0865808154829D-01  2.0723431114607D-01
75  7.4000000000000D-01 -4.4097677790307D-01  6.9071812031124D-02
76  7.5000000000000D-01 -3.7422527296571D-01 -5.9073738217141D-02
77  7.6000000000000D-01 -3.0946230316329D-01 -1.7575264892804D-01
78  7.7000000000000D-01 -2.4764382222419D-01 -2.7975938095580D-01
79  7.8000000000000D-01 -1.8960912339524D-01 -3.7015033119298D-01
80  7.9000000000000D-01 -1.3606966553036D-01 -4.4625652051584D-01
81  8.0000000000000D-01 -8.7600768944862D-02 -5.0769096086387D-01
82  8.1000000000000D-01 -4.4636287129352D-02 -5.5435058259154D-01
83  8.2000000000000D-01 -7.4662995352680D-03 -5.8641270940218D-01
84  8.3000000000000D-01  2.3762190676645D-02 -6.0432617450049D-01
85  8.4000000000000D-01  4.9041630568976D-02 -6.0879727599774D-01
86  8.5000000000000D-01  6.8497498230438D-02 -6.0077087002914D-01
87  8.6000000000000D-01  8.2379281035980D-02 -5.8140699453712D-01
88  8.7000000000000D-01  9.1049093108647D-02 -5.5205350339311D-01
89  8.8000000000000D-01  9.4968219635960D-02 -5.1421526777705D-01
90  8.9000000000000D-01  9.4681915456244D-02 -4.6952056800505D-01
91  9.0000000000000D-01  9.0802818171240D-02 -4.1968535299661D-01
92  9.1000000000000D-01  8.3993361324919D-02 -3.6647608525095D-01
93  9.2000000000000D-01  7.4947590433944D-02 -3.1167191576724D-01
94  9.3000000000000D-01  6.4372793539569D-02 -2.5702694527905D-01
95  9.4000000000000D-01  5.2971358320696D-02 -2.0423332524938D-01
96  9.5000000000000D-01  4.1423259756524D-02 -1.5488593449037D-01
97  9.6000000000000D-01  3.0369565491476D-02 -1.1044933437428D-01
98  9.7000000000000D-01  2.0397322492833D-02 -7.2227661157220D-02
99  9.8000000000000D-01  1.2031548641655D-02 -4.1354069867430D-02
100  9.9000000000000D-01  5.6662342810634D-03 -1.8601238074652D-02
101  1.0000000000000D+00  1.8252274891522D-03 -5.1256566911851D-03
102  1.0100000000000D+00  4.4586687565791D-04 -4.9643285685210D-04
103  1.0200000000000D+00  2.6927893309312D-05  3.2817994388181D-05
104  1.0300000000000D+00 -1.2836206315045D-05 -3.8320019459568D-05
105  1.0400000000000D+00  5.7545666636797D-06  5.5447495179657D-06
106  1.0500000000000D+00 -1.1426107921042D-06  1.3824661915126D-06
107  1.0600000000000D+00  0.0000000000000D+00  0.0000000000000D+00
108  1.0700000000000D+00  0.0000000000000D+00  0.0000000000000D+00
109  1.0800000000000D+00  0.0000000000000D+00  0.0000000000000D+00
110  1.0900000000000D+00  0.0000000000000D+00  0.0000000000000D+00
111  1.1000000000000D+00  0.0000000000000D+00  0.0000000000000D+00
112  1.1100000000000D+00  0.0000000000000D+00  0.0000000000000D+00
113  1.1200000000000D+00  0.0000000000000D+00  0.0000000000000D+00
114  1.1300000000000D+00  0.0000000000000D+00  0.0000000000000D+00
115  1.1400000000000D+00  0.0000000000000D+00  0.0000000000000D+00
116  1.1500000000000D+00  0.0000000000000D+00  0.0000000000000D+00
117  1.1600000000000D+00  0.0000000000000D+00  0.0000000000000D+00
118  1.1700000000000D+00  0.0000000000000D+00  0.0000000000000D+00
119  1.1800000000000D+00  0.0000000000000D+00  0.0000000000000D+00
120  1.1900000000000D+00  0.0000000000000D+00  0.0000000000000D+00
121  1.2000000000000D+00  0.0000000000000D+00  0.0000000000000D+00
122  1.2100000000000D+00  0.0000000000000D+00  0.0000000000000D+00
123  1.2200000000000D+00  0.0000000000000D+00  0.0000000000000D+00
124  1.2300000000000D+00  0.0000000000000D+00  0.0000000000000D+00
125  1.2400000000000D+00  0.0000000000000D+00  0.0000000000000D+00
126  1.2500000000000D+00  0.0000000000000D+00  0.0000000000000D+00
127  1.2600000000000D+00  0.0000000000000D+00  0.0000000000000D+00
128  1.2700000000000D+00  0.0000000000000D+00  0.0000000000000D+00
129  1.2800000000000D+00  0.0000000000000D+00  0.0000000000000D+00
130  1.2900000000000D+00  0.0000000000000D+00  0.0000000000000D+00
131  1.3000000000000D+00  0.0000000000000D+00  0.0000000000000D+00
132  1.3100000000000D+00  0.0000000000000D+00  0.0000000000000D+00
133  1.3200000000000D+00  0.0000000000000D+00  0.0000000000000D+00
134  1.3300000000000D+00  0.0000000000000D+00  0.0000000000000D+00
135  1.3400000000000D+00  0.0000000000000D+00  0.0000000000000D+00
136  1.3500000000000D+00  0.0000000000000D+00  0.0000000000000D+00
137  1.3600000000000D+00  0.0000000000000D+00  0.0000000000000D+00
138  1.3700000000000D+00  0.0000000000000D+00  0.0000000000000D+00
139  1.3800000000000D+00  0.0000000000000D+00  0.0000000000000D+00
140  1.3900000000000D+00  0.0000000000000D+00  0.0000000000000D+00
141  1.4000000000000D+00  0.0000000000000D+00  0.0000000000000D+00
142  1.4100000000000D+00  0.0000000000000D+00  0.0000000000000D+00
143  1.4200000000000D+00  0.0000000000000D+00  0.0000000000000D+00
144  1.4300000000000D+00  0.0000000000000D+00  0.0000000000000D+00
145  1.4400000000000D+00  0.0000000000000D+00  0.0000000000000D+00
146  1.4500000000000D+00  0.0000000000000D+00  0.0000000000000D+00
147  1.4600000000000D+00  0.0000000000000D+00  0.0000000000000D+00
148  1.4700000000000D+00  0.0000000000000D+00  0.0000000000000D+00
149  1.4800000000000D+00  0.0000000000000D+00  0.0000000000000D+00
150  1.4900000000000D+00  0.0000000000000D+00  0.0000000000000D+00
151  1.5000000000000D+00  0.0000000000000D+00  0.0000000000000D+00
152  1.5100000000000D+00  0.0000000000000D+00  0.0000000000000D+00
153  1.5200000000000D+00  0.0000000000000D+00  0.0000000000000D+00
154  1.5300000000000D+00  0.0000000000000D+00  0.0000000000000D+00
155  1.5400000000000D+00  0.0000000000000D+00  0.0000000000000D+00
156  1.5500000000000D+00  0.0000000000000D+00  0.0000000000000D+00
157  1.5600000000000D+00  0.0000000000000D+00  0.0000000000000D+00
158  1.5700000000000D+00  0.0000000000000D+00  0.0000000000000D+00
159  1.5800000000000D+00  0.0000000000000D+00  0.0000000000000D+00
160  1.5900000000000D+00  0.0000000000000D+00  0.0000000000000D+00
161  1.6000000000000D+00  0.0000000000000D+00  0.0000000000000D+00
162  1.6100000000000D+00  0.0000000000000D+00  0.0000000000000D+00
163  1.6200000000000D+00  0.0000000000000D+00  0.0000000000000D+00
164  1.6300000000000D+00  0.0000000000000D+00  0.0000000000000D+00
165  1.6400000000000D+00  0.0000000000000D+00  0.0000000000000D+00
166  1.6500000000000D+00  0.0000000000000D+00  0.0000000000000D+00
167  1.6600000000000D+00  0.0000000000000D+00  0.0000000000000D+00
168  1.6700000000000D+00  0.0000000000000D+00  0.0000000000000D+00
169  1.6800000000000D+00  0.0000000000000D+00  0.0000000000000D+00
170  1.6900000000000D+00  0.0000000000000D+00  0.0000000000000D+00
171  1.7000000000000D+00  0.0000000000000D+00  0.0000000000000D+00
172  1.7100000000000D+00  0.0000000000000D+00  0.0000000000000D+00
173  1.7200000000000D+00  0.0000000000000D+00  0.0000000000000D+00
174  1.7300000000000D+00  0.0000000000000D+00  0.0000000000000D+00
175  1.7400000000000D+00  0.0000000000000D+00  0.0000000000000D+00
176  1.7500000000000D+00  0.0000000000000D+00  0.0000000000000D+00
177  1.7600000000000D+00  0.0000000000000D+00  0.0000000000000D+00
178  1.7700000000000D+00  0.0000000000000D+00  0.0000000000000D+00
179  1.7800000000000D+00  0.0000000000000D+00  0.0000000000000D+00
180  1.7900000000000D+00  0.0000000000000D+00  0.0000000000000D+00
181  1.8000000000000D+00  0.0000000000000D+00  0.0000000000000D+00
182  1.8100000000000D+00  0.0000000000000D+00  0.0000000000000D+00
183  1.8200000000000D+00  0.0000000000000D+00  0.0000000000000D+00
184  1.8300000000000D+00  0.0000000000000D+00  0.0000000000000D+00
185  1.8400000000000D+00  0.0000000000000D+00  0.0000000000000D+00
186  1.8500000000000D+00  0.0000000000000D+00  0.0000000000000D+00
187  1.8600000000000D+00  0.0000000000000D+00  0.0000000000000D+00
188  1.8700000000000D+00  0.0000000000000D+00  0.0000000000000D+00
189  1.8800000000000D+00  0.0000000000000D+00  0.0000000000000D+00
190  1.8900000000000D+00  0.0000000000000D+00  0.0000000000000D+00
191  1.9000000000000D+00  0.0000000000000D+00  0.0000000000000D+00
192  1.9100000000000D+00  0.0000000000000D+00  0.0000000000000D+00
193  1.9200000000000D+00  0.0000000000000D+00  0.0000000000000D+00
194  1.9300000000000D+00  0.0000000000000D+00  0.0000000000000D+00
195  1.9400000000000D+00  0.0000000000000D+00  0.0000000000000D+00
196  1.9500000000000D+00  0.0000000000000D+00  0.0000000000000D+00
197  1.9600000000000D+00  0.0000000000000D+00  0.0000000000000D+00
198  1.9700000000000D+00  0.0000000000000D+00  0.0000000000000D+00
199  1.9800000000000D+00  0.0000000000000D+00  0.0000000000000D+00
200  1.9900000000000D+00  0.0000000000000D+00  0.0000000000000D+00
201  2.0000000000000D+00  0.0000000000000D+00  0.0000000000000D+00
202  2.0100000000000D+00  0.0000000000000D+00  0.0000000000000D+00
203  2.0200000000000D+00  0.0000000000000D+00  0.0000000000000D+00
204  2.0300000000000D+00  0.0000000000000D+00  0.0000000000000D+00
205  2.0400000000000D+00  0.0000000000000D+00  0.0000000000000D+00
206  2.0500000000000D+00  0.0000000000000D+00  0.0000000000000D+00
207  2.0600000000000D+00  0.0000000000000D+00  0.0000000000000D+00
208  2.0700000000000D+00  0.0000000000000D+00  0.0000000000000D+00
209  2.0800000000000D+00  0.0000000000000D+00  0.0000000000000D+00
210  2.0900000000000D+00  0.0000000000000D+00  0.0000000000000D+00
211  2.1000000000000D+00  0.0000000000000D+00  0.0000000000000D+00
212  2.1100000000000D+00  0.0000000000000D+00  0.0000000000000D+00
213  2.1200000000000D+00  0.0000000000000D+00  0.0000000000000D+00
214  2.1300000000000D+00  0.0000000000000D+00  0.0000000000000D+00
215  2.1400000000000D+00  0.0000000000000D+00  0.0000000000000D+00
216  2.1500000000000D+00  0.0000000000000D+00  0.0000000000000D+00
217  2.1600000000000D+00  0.0000000000000D+00  0.0000000000000D+00
218  2.1700000000000D+00  0.0000000000000D+00  0.0000000000000D+00
219  2.1800000000000D+00  0.0000000000000D+00  0.0000000000000D+00
220  2.1900000000000D+00  0.0000000000000D+00  0.0000000000000D+00
221  2.2000000000000D+00  0.0000000000000D+00  0.0000000000000D+00
222  2.2100000000000D+00  0.0000000000000D+00  0.0000000000000D+00
223  2.2200000000000D+00  0.0000000000000D+00  0.0000000000000D+00
224  2.2300000000000D+00  0.0000000000000D+00  0.0000000000000D+00
225  2.2400000000000D+00  0.0000000000000D+00  0.0000000000000D+00
226  2.2500000000000D+00  0.0000000000000D+00  0.0000000000000D+00
227  2.2600000000000D+00  0.0000000000000D+00  0.0000000000000D+00
228  2.2700000000000D+00  0.0000000000000D+00  0.0000000000000D+00
229  2.2800000000000D+00  0.0000000000000D+00  0.0000000000000D+00
230  2.2900000000000D+00  0.0000000000000D+00  0.0000000000000D+00
231  2.3000000000000D+00  0.0000000000000D+00  0.0000000000000D+00
232  2.3100000000000D+00  0.0000000000000D+00  0.0000000000000D+00
233  2.3200000000000D+00  0.0000000000000D+00  0.0000000000000D+00
234  2.3300000000000D+00  0.0000000000000D+00  0.0000000000000D+00
235  2.3400000000000D+00  0.0000000000000D+00  0.0000000000000D+00
236  2.3500000000000D+00  0.0000000000000D+00  0.0000000000000D+00
237  2.3600000000000D+00  0.0000000000000D+00  0.0000000000000D+00
238  2.3700000000000D+00  0.0000000000000D+00  0.0000000000000D+00
239  2.3800000000000D+00  0.0000000000000D+00  0.0000000000000D+00
240  2.3900000000000D+00  0.0000000000000D+00  0.0000000000000D+00
241  2.4000000000000D+00  0.0000000000000D+00  0.0000000000000D+00
242  2.4100000000000D+00  0.0000000000000D+00  0.0000000000000D+00
243  2.4200000000000D+00  0.0000000000000D+00  0.0000000000000D+00
244  2.4300000000000D+00  0.0000000000000D+00  0.0000000000000D+00
245  2.4400000000000D+00  0.0000000000000D+00  0.0000000000000D+00
246  2.4500000000000D+00  0.0000000000000D+00  0.0000000000000D+00
247  2.4600000000000D+00  0.0000000000000D+00  0.0000000000000D+00
248  2.4700000000000D+00  0.0000000000000D+00  0.0000000000000D+00
249  2.4800000000000D+00  0.0000000000000D+00  0.0000000000000D+00
250  2.4900000000000D+00  0.0000000000000D+00  0.0000000000000D+00
251  2.5000000000000D+00  0.0000000000000D+00  0.0000000000000D+00
252  2.5100000000000D+00  0.0000000000000D+00  0.0000000000000D+00
253  2.5200000000000D+00  0.0000000000000D+00  0.0000000000000D+00
254  2.5300000000000D+00  0.0000000000000D+00  0.0000000000000D+00
255  2.5400000000000D+00  0.0000000000000D+00  0.0000000000000D+00
256  2.5500000000000D+00  0.0000000000000D+00  0.0000000000000D+00
257  2.5600000000000D+00  0.0000000000000D+00  0.0000000000000D+00
258  2.5700000000000D+00  0.0000000000000D+00  0.0000000000000D+00
259  2.5800000000000D+00  0.0000000000000D+00  0.0000000000000D+00
260  2.5900000000000D+00  0.0000000000000D+00  0.0000000000000D+00
261  2.6000000000000D+00  0.0000000000000D+00  0.0000000000000D+00
262  2.6100000000000D+00  0.0000000000000D+00  0.0000000000000D+00
263  2.6200000000000D+00  0.0000000000000D+00  0.0000000000000D+00
264  2.6300000000000D+00  0.0000000000000D+00  0.0000000000000D+00
265  2.6400000000000D+00  0.0000000000000D+00  0.0000000000000D+00
266  2.6500000000000D+00  0.0000000000000D+00  0.0000000000000D+00
267  2.6600000000000D+00  0.0000000000000D+00  0.0000000000000D+00
268  2.6700000000000D+00  0.0000000000000D+00  0.0000000000000D+00
269  2.6800000000000D+00  0.0000000000000D+00  0.0000000000000D+00
270  2.6900000000000D+00  0.0000000000000D+00  0.0000000000000D+00
271  2.7000000000000D+00  0.0000000000000D+00  0.0000000000000D+00
272  2.7100000000000D+00  0.0000000000000D+00  0.0000000000000D+00
273  2.7200000000000D+00  0.0000000000000D+00  0.0000000000000D+00
274  2.7300000000000D+00  0.0000000000000D+00  0.0000000000000D+00
275  2.7400000000000D+00  0.0000000000000D+00  0.0000000000000D+00
276  2.7500000000000D+00  0.0000000000000D+00  0.0000000000000D+00
277  2.7600000000000D+00  0.0000000000000D+00  0.0000000000000D+00
278  2.7700000000000D+00  0.0000000000000D+00  0.0000000000000D+00
279  2.7800000000000D+00  0.0000000000000D+00  0.0000000000000D+00
280  2.7900000000000D+00  0.0000000000000D+00  0.0000000000000D+00
281  2.8000000000000D+00  0.0000000000000D+00  0.0000000000000D+00
282  2.8100000000000D+00  0.0000000000000D+00  0.0000000000000D+00
283  2.8200000000000D+00  0.0000000000000D+00  0.0000000000000D+00
284  2.8300000000000D+00  0.0000000000000D+00  0.0000000000000D+00
285  2.8400000000000D+00  0.0000000000000D+00  0.0000000000000D+00
286  2.8500000000000D+00  0.0000000000000D+00  0.0000000000000D+00
287  2.8600000000000D+00  0.0000000000000D+00  0.0000000000000D+00
288  2.8700000000000D+00  0.0000000000000D+00  0.0000000000000D+00
289  2.8800000000000D+00  0.0000000000000D+00  0.0000000000000D+00
290  2.8900000000000D+00  0.0000000000000D+00  0.0000000000000D+00
291  2.9000000000000D+00  0.0000000000000D+00  0.0000000000000D+00
292  2.9100000000000D+00  0.0000000000000D+00  0.0000000000000D+00
293  2.9200000000000D+00  0.0000000000000D+00  0.0000000000000D+00
294  2.9300000000000D+00  0.0000000000000D+00  0.0000000000000D+00
295  2.9400000000000D+00  0.0000000000000D+00  0.0000000000000D+00
296  2.9500000000000D+00  0.0000000000000D+00  0.0000000000000D+00
297  2.9600000000000D+00  0.0000000000000D+00  0.0000000000000D+00
298  2.9700000000000D+00  0.0000000000000D+00  0.0000000000000D+00
299  2.9800000000000D+00  0.0000000000000D+00  0.0000000000000D+00
300  2.9900000000000D+00  0.0000000000000D+00  0.0000000000000D+00
1                        -2.7507127700660D-01
1  0.0000000000000D+00 -8.5166678265303D-08
2  1.0000000000000D-02 -4.8014066726946D-03
3  2.0000000000000D-02 -1.9128438083214D-02
4  3.0000000000000D-02 -4.2751432300505D-02
5  4.0000000000000D-02 -7.5293910290343D-02
6  5.0000000000000D-02 -1.1624181976948D-01
7  6.0000000000000D-02 -1.6495609772331D-01
8  7.0000000000000D-02 -2.2068818644418D-01
9  8.0000000000000D-02 -2.8259805278080D-01
10  9.0000000000000D-02 -3.4977418869354D-01
11  1.0000000000000D-01 -4.2125501534864D-01
12  1.1000000000000D-01 -4.9605107454024D-01
13  1.2000000000000D-01 -5.7316737136617D-01
14  1.3000000000000D-01 -6.5162523140464D-01
15  1.4000000000000D-01 -7.3048305416091D-01
16  1.5000000000000D-01 -8.0885538172537D-01
17  1.6000000000000D-01 -8.8592975627585D-01
18  1.7000000000000D-01 -9.6098091061551D-01
19  1.8000000000000D-01 -1.0333819202233D+00
20  1.9000000000000D-01 -1.1026120407433D+00
21  2.0000000000000D-01 -1.1682610585529D+00
22  2.1000000000000D-01 -1.2300300908598D+00
23  2.2000000000000D-01 -1.2877288823631D+00
24  2.3000000000000D-01 -1.3412697544869D+00
25  2.4000000000000D-01 -1.3906584672012D+00
26  2.5000000000000D-01 -1.4359823492816D+00
27  2.6000000000000D-01 -1.4773961375557D+00
28  2.7000000000000D-01 -1.5151060365956D+00
29  2.8000000000000D-01 -1.5493525652111D+00
30  2.9000000000000D-01 -1.5803927932375D+00
31  3.0000000000000D-01 -1.6084825902637D+00
32  3.1000000000000D-01 -1.6338595064836D+00
33  3.2000000000000D-01 -1.6567268847353D+00
34  3.3000000000000D-01 -1.6772397625692D+00
35  3.4000000000000D-01 -1.6954930650251D+00
36  3.5000000000000D-01 -1.7115125143938D+00
37  3.6000000000000D-01 -1.7252485948262D+00
38  3.7000000000000D-01 -1.7365738098860D+00
39  3.8000000000000D-01 -1.7452833630757D+00
40  3.9000000000000D-01 -1.7510992782919D+00
41  4.0000000000000D-01 -1.7536778626162D+00
42  4.1000000000000D-01 -1.7526203013709D+00
43  4.2000000000000D-01 -1.7474860685280D+00
44  4.3000000000000D-01 -1.7378087377594D+00
45  4.4000000000000D-01 -1.7231136938278D+00
46  4.5000000000000D-01 -1.7029371734620D+00
47  4.6000000000000D-01 -1.6768460117466D+00
48  4.7000000000000D-01 -1.6444574362748D+00
49  4.8000000000000D-01 -1.6054582381928D+00
50  4.9000000000000D-01 -1.5596226575302D+00
51  5.0000000000000D-01 -1.5068283499222D+00
52  5.1000000000000D-01 -1.4470698524416D+00
53  5.2000000000000D-01 -1.3804690365613D+00
54  5.3000000000000D-01 -1.3072821243794D+00
55  5.4000000000000D-01 -1.2279029478936D+00
56  5.5000000000000D-01 -1.1428622474329D+00
57  5.6000000000000D-01 -1.0528229307264D+00
58  5.7000000000000D-01 -9.5857134572316D-01
59  5.8000000000000D-01 -8.6100475306708D-01
60  5.9000000000000D-01 -7.6111531574955D-01
61  6.0000000000000D-01 -6.5997104819475D-01
62  6.1000000000000D-01 -5.5869428302700D-01
63  6.2000000000000D-01 -4.5843831541247D-01
64  6.3000000000000D-01 -3.6036297098989D-01
65  6.4000000000000D-01 -2.6560990950048D-01
66  6.5000000000000D-01 -1.7527852123196D-01
67  6.6000000000000D-01 -9.0403295147872D-02
68  6.7000000000000D-01 -1.1933535118146D-02
69  6.8000000000000D-01  5.9283725936087D-02
70  6.9000000000000D-01  1.2251680543785D-01
71  7.0000000000000D-01  1.7715790252376D-01
72  7.1000000000000D-01  2.2272541712536D-01
73  7.2000000000000D-01  2.5888187635874D-01
74  7.3000000000000D-01  2.8549552649401D-01
75  7.4000000000000D-01  3.0266850444770D-01
76  7.5000000000000D-01  3.1073034351078D-01
77  7.6000000000000D-01  3.1022662005085D-01
78  7.7000000000000D-01  3.0190172837360D-01
79  7.8000000000000D-01  2.8667647019581D-01
80  7.9000000000000D-01  2.6562096124999D-01
81  8.0000000000000D-01  2.3992349247674D-01
82  8.1000000000000D-01  2.1085609937649D-01
83  8.2000000000000D-01  1.7973768675089D-01
84  8.3000000000000D-01  1.4789562791622D-01
85  8.4000000000000D-01  1.1662680538700D-01
86  8.5000000000000D-01  8.7159082545078D-02
87  8.6000000000000D-01  6.0614192166771D-02
88  8.7000000000000D-01  3.7972997836105D-02
89  8.8000000000000D-01  2.0049495454700D-02
90  8.9000000000000D-01  7.4083195514268D-03
91  9.0000000000000D-01  5.9844850111932D-04
92  9.1000000000000D-01 -7.5417083261251D-04
93  9.2000000000000D-01  1.0341499239396D-04
94  9.3000000000000D-01 -1.2371444727711D-05
95  9.4000000000000D-01  1.2388215840447D-07
96  9.5000000000000D-01  6.6289661965058D-07
97  9.6000000000000D-01  0.0000000000000D+00
98  9.7000000000000D-01  0.0000000000000D+00
99  9.8000000000000D-01  0.0000000000000D+00
100  9.9000000000000D-01  0.0000000000000D+00
101  1.0000000000000D+00  0.0000000000000D+00
102  1.0100000000000D+00  0.0000000000000D+00
103  1.0200000000000D+00  0.0000000000000D+00
104  1.0300000000000D+00  0.0000000000000D+00
105  1.0400000000000D+00  0.0000000000000D+00
106  1.0500000000000D+00  0.0000000000000D+00
107  1.0600000000000D+00  0.0000000000000D+00
108  1.0700000000000D+00  0.0000000000000D+00
109  1.0800000000000D+00  0.0000000000000D+00
110  1.0900000000000D+00  0.0000000000000D+00
111  1.1000000000000D+00  0.0000000000000D+00
112  1.1100000000000D+00  0.0000000000000D+00
113  1.1200000000000D+00  0.0000000000000D+00
114  1.1300000000000D+00  0.0000000000000D+00
115  1.1400000000000D+00  0.0000000000000D+00
116  1.1500000000000D+00  0.0000000000000D+00
117  1.1600000000000D+00  0.0000000000000D+00
118  1.1700000000000D+00  0.0000000000000D+00
119  1.1800000000000D+00  0.0000000000000D+00
120  1.1900000000000D+00  0.0000000000000D+00
121  1.2000000000000D+00  0.0000000000000D+00
122  1.2100000000000D+00  0.0000000000000D+00
123  1.2200000000000D+00  0.0000000000000D+00
124  1.2300000000000D+00  0.0000000000000D+00
125  1.2400000000000D+00  0.0000000000000D+00
126  1.2500000000000D+00  0.0000000000000D+00
127  1.2600000000000D+00  0.0000000000000D+00
128  1.2700000000000D+00  0.0000000000000D+00
129  1.2800000000000D+00  0.0000000000000D+00
130  1.2900000000000D+00  0.0000000000000D+00
131  1.3000000000000D+00  0.0000000000000D+00
132  1.3100000000000D+00  0.0000000000000D+00
133  1.3200000000000D+00  0.0000000000000D+00
134  1.3300000000000D+00  0.0000000000000D+00
135  1.3400000000000D+00  0.0000000000000D+00
136  1.3500000000000D+00  0.0000000000000D+00
137  1.3600000000000D+00  0.0000000000000D+00
138  1.3700000000000D+00  0.0000000000000D+00
139  1.3800000000000D+00  0.0000000000000D+00
140  1.3900000000000D+00  0.0000000000000D+00
141  1.4000000000000D+00  0.0000000000000D+00
142  1.4100000000000D+00  0.0000000000000D+00
143  1.4200000000000D+00  0.0000000000000D+00
144  1.4300000000000D+00  0.0000000000000D+00
145  1.4400000000000D+00  0.0000000000000D+00
146  1.4500000000000D+00  0.0000000000000D+00
147  1.4600000000000D+00  0.0000000000000D+00
148  1.4700000000000D+00  0.0000000000000D+00
149  1.4800000000000D+00  0.0000000000000D+00
150  1.4900000000000D+00  0.0000000000000D+00
151  1.5000000000000D+00  0.0000000000000D+00
152  1.5100000000000D+00  0.0000000000000D+00
153  1.5200000000000D+00  0.0000000000000D+00
154  1.5300000000000D+00  0.0000000000000D+00
155  1.5400000000000D+00  0.0000000000000D+00
156  1.5500000000000D+00  0.0000000000000D+00
157  1.5600000000000D+00  0.0000000000000D+00
158  1.5700000000000D+00  0.0000000000000D+00
159  1.5800000000000D+00  0.0000000000000D+00
160  1.5900000000000D+00  0.0000000000000D+00
161  1.6000000000000D+00  0.0000000000000D+00
162  1.6100000000000D+00  0.0000000000000D+00
163  1.6200000000000D+00  0.0000000000000D+00
164  1.6300000000000D+00  0.0000000000000D+00
165  1.6400000000000D+00  0.0000000000000D+00
166  1.6500000000000D+00  0.0000000000000D+00
167  1.6600000000000D+00  0.0000000000000D+00
168  1.6700000000000D+00  0.0000000000000D+00
169  1.6800000000000D+00  0.0000000000000D+00
170  1.6900000000000D+00  0.0000000000000D+00
171  1.7000000000000D+00  0.0000000000000D+00
172  1.7100000000000D+00  0.0000000000000D+00
173  1.7200000000000D+00  0.0000000000000D+00
174  1.7300000000000D+00  0.0000000000000D+00
175  1.7400000000000D+00  0.0000000000000D+00
176  1.7500000000000D+00  0.0000000000000D+00
177  1.7600000000000D+00  0.0000000000000D+00
178  1.7700000000000D+00  0.0000000000000D+00
179  1.7800000000000D+00  0.0000000000000D+00
180  1.7900000000000D+00  0.0000000000000D+00
181  1.8000000000000D+00  0.0000000000000D+00
182  1.8100000000000D+00  0.0000000000000D+00
183  1.8200000000000D+00  0.0000000000000D+00
184  1.8300000000000D+00  0.0000000000000D+00
185  1.8400000000000D+00  0.0000000000000D+00
186  1.8500000000000D+00  0.0000000000000D+00
187  1.8600000000000D+00  0.0000000000000D+00
188  1.8700000000000D+00  0.0000000000000D+00
189  1.8800000000000D+00  0.0000000000000D+00
190  1.8900000000000D+00  0.0000000000000D+00
191  1.9000000000000D+00  0.0000000000000D+00
192  1.9100000000000D+00  0.0000000000000D+00
193  1.9200000000000D+00  0.0000000000000D+00
194  1.9300000000000D+00  0.0000000000000D+00
195  1.9400000000000D+00  0.0000000000000D+00
196  1.9500000000000D+00  0.0000000000000D+00
197  1.9600000000000D+00  0.0000000000000D+00
198  1.9700000000000D+00  0.0000000000000D+00
199  1.9800000000000D+00  0.0000000000000D+00
200  1.9900000000000D+00  0.0000000000000D+00
201  2.0000000000000D+00  0.0000000000000D+00
202  2.0100000000000D+00  0.0000000000000D+00
203  2.0200000000000D+00  0.0000000000000D+00
204  2.0300000000000D+00  0.0000000000000D+00
205  2.0400000000000D+00  0.0000000000000D+00
206  2.0500000000000D+00  0.0000000000000D+00
207  2.0600000000000D+00  0.0000000000000D+00
208  2.0700000000000D+00  0.0000000000000D+00
209  2.0800000000000D+00  0.0000000000000D+00
210  2.0900000000000D+00  0.0000000000000D+00
211  2.1000000000000D+00  0.0000000000000D+00