Mg    ONCVPSP-3.3.0  r_core=   1.16056   1.56380
12.0000     10.0000      171101    zatom,zion,pspd
8   -1012   1     4   400     0    pspcod,pspxc,lmax,lloc,mmax,r2well
3.99000000  0.00000000  0.00000000    rchrg fchrg qchrg
2     2     0     0     0    nproj
1     1           extension_switch
0                         2.2390332934550D+00 -8.2874902689628D-01
1  0.0000000000000D+00 -2.0466648265050D-08 -8.2036188953083D-10
2  1.0000000000000D-02  1.2301721031650D-01  3.2266081703268D-02
3  2.0000000000000D-02  2.4515977040177D-01  6.4541295221981D-02
4  3.0000000000000D-02  3.6556508163654D-01  9.6834787386350D-02
5  4.0000000000000D-02  4.8339440569045D-01  1.2915572793697D-01
6  5.0000000000000D-02  5.9784419274637D-01  1.6151330340048D-01
7  6.0000000000000D-02  7.0815670246849D-01  1.9391669047568D-01
8  7.0000000000000D-02  8.1362970667733D-01  2.2637500309415D-01
9  8.0000000000000D-02  9.1362508316235D-01  2.5889720813990D-01
10  9.0000000000000D-02  1.0075761347657D+00  2.9149200579916D-01
11  1.0000000000000D-01  1.0949934962560D+00  3.2416767164062D-01
12  1.1000000000000D-01  1.1754695229343D+00  3.5693185876931D-01
13  1.2000000000000D-01  1.2486810886693D+00  3.8979135972317D-01
14  1.3000000000000D-01  1.3143907563812D+00  4.2275182915747D-01
15  1.4000000000000D-01  1.3724463200843D+00  4.5581746975267D-01
16  1.5000000000000D-01  1.4227787536431D+00  4.8899068515203D-01
17  1.6000000000000D-01  1.4653986365743D+00  5.2227170505000D-01
18  1.7000000000000D-01  1.5003911607449D+00  5.5565818877693D-01
19  1.8000000000000D-01  1.5279098529073D+00  5.8914481482859D-01
20  1.9000000000000D-01  1.5481691759734D+00  6.2272286473804D-01
21  2.0000000000000D-01  1.5614361961194D+00  6.5637981045868D-01
22  2.1000000000000D-01  1.5680215226748D+00  6.9009891499575D-01
23  2.2000000000000D-01  1.5682697428400D+00  7.2385885637178D-01
24  2.3000000000000D-01  1.5625495832225D+00  7.5763338512653D-01
25  2.4000000000000D-01  1.5512440347790D+00  7.9139102542434D-01
26  2.5000000000000D-01  1.5347406768581D+00  8.2509482947065D-01
27  2.6000000000000D-01  1.5134224296926D+00  8.5870219432653D-01
28  2.7000000000000D-01  1.4876589530086D+00  8.9216474936430D-01
29  2.8000000000000D-01  1.4577988916731D+00  9.2542832154384D-01
30  2.9000000000000D-01  1.4241631478553D+00  9.5843298442592D-01
31  3.0000000000000D-01  1.3870393335269D+00  9.9111319540114D-01
32  3.1000000000000D-01  1.3466775278328D+00  1.0233980240293D+00
33  3.2000000000000D-01  1.3032874316171D+00  1.0552114726859D+00
34  3.3000000000000D-01  1.2570369769038D+00  1.0864728889362D+00
35  3.4000000000000D-01  1.2080524132098D+00  1.1170974672403D+00
36  3.5000000000000D-01  1.1564198560369D+00  1.1469968357730D+00
37  3.6000000000000D-01  1.1021882465844D+00  1.1760797223632D+00
38  3.7000000000000D-01  1.0453736365013D+00  1.2042526918517D+00
39  3.8000000000000D-01  9.8596467816682D-01  1.2314209455812D+00
40  3.9000000000000D-01  9.2392917034679D-01  1.2574891722972D+00
41  4.0000000000000D-01  8.5922148183678D-01  1.2823624384870D+00
42  4.1000000000000D-01  7.9179065253277D-01  1.3059471051527D+00
43  4.2000000000000D-01  7.2158895282514D-01  1.3281517572222D+00
44  4.3000000000000D-01  6.4858066875565D-01  1.3488881312667D+00
45  4.4000000000000D-01  5.7275087235734D-01  1.3680720269476D+00
46  4.5000000000000D-01  4.9411393423812D-01  1.3856241876402D+00
47  4.6000000000000D-01  4.1272153887029D-01  1.4014711360102D+00
48  4.7000000000000D-01  3.2866997217371D-01  1.4155459509267D+00
49  4.8000000000000D-01  2.4210646566700D-01  1.4277889729797D+00
50  4.9000000000000D-01  1.5323440141261D-01  1.4381484270252D+00
51  5.0000000000000D-01  6.2317206790398D-02  1.4465809515676D+00
52  5.1000000000000D-01 -3.0319202755334D-02  1.4530520263971D+00
53  5.2000000000000D-01 -1.2428554202965D-01  1.4575362916914D+00
54  5.3000000000000D-01 -2.1912990872049D-01  1.4600177537276D+00
55  5.4000000000000D-01 -3.1434020569679D-01  1.4604898743997D+00
56  5.5000000000000D-01 -4.0934822903111D-01  1.4589555438542D+00
57  5.6000000000000D-01 -5.0353537814264D-01  1.4554269376956D+00
58  5.7000000000000D-01 -5.9623990528521D-01  1.4499252623348D+00
59  5.8000000000000D-01 -6.8676558373618D-01  1.4424803941137D+00
60  5.9000000000000D-01 -7.7439163858891D-01  1.4331304197848D+00
61  6.0000000000000D-01 -8.5838375151881D-01  1.4219210877319D+00
62  6.1000000000000D-01 -9.3800592241842D-01  1.4089051809322D+00
63  6.2000000000000D-01 -1.0125329467509D+00  1.3941418240554D+00
64  6.3000000000000D-01 -1.0812632486661D+00  1.3776957382446D+00
65  6.4000000000000D-01 -1.1435317967579D+00  1.3596364579901D+00
66  6.5000000000000D-01 -1.1987228221465D+00  1.3400375250895D+00
67  6.6000000000000D-01 -1.2462820576667D+00  1.3189756749526D+00
68  6.7000000000000D-01 -1.2857282222920D+00  1.2965300304750D+00
69  6.8000000000000D-01 -1.3166634866164D+00  1.2727813183433D+00
70  6.9000000000000D-01 -1.3387826729655D+00  1.2478111219813D+00
71  7.0000000000000D-01 -1.3518809670867D+00  1.2217011843978D+00
72  7.1000000000000D-01 -1.3558599472103D+00  1.1945327729737D+00
73  7.2000000000000D-01 -1.3507317696537D+00  1.1663861167645D+00
74  7.3000000000000D-01 -1.3366213875239D+00  1.1373399252165D+00
75  7.4000000000000D-01 -1.3137667197549D+00  1.1074709953356D+00
76  7.5000000000000D-01 -1.2825167304148D+00  1.0768539123673D+00
77  7.6000000000000D-01 -1.2433274227370D+00  1.0455608469441D+00
78  7.7000000000000D-01 -1.1967557968524D+00  1.0136614495337D+00
79  7.8000000000000D-01 -1.1434518643340D+00  9.8122284087340D-01
80  7.9000000000000D-01 -1.0841488551884D+00  9.4830969498546D-01
81  8.0000000000000D-01 -1.0196517929139D+00  9.1498440935667D-01
82  8.1000000000000D-01 -9.5082464979737D-01  8.8130735498956D-01
83  8.2000000000000D-01 -8.7857632688937D-01  8.4733719732767D-01
84  8.3000000000000D-01 -8.0384573033887D-01  8.1313127756110D-01
85  8.4000000000000D-01 -7.2758623732857D-01  7.7874604256230D-01
86  8.5000000000000D-01 -6.5074986021784D-01  7.4423751071369D-01
87  8.6000000000000D-01 -5.7427142627465D-01  7.0966176018766D-01
88  8.7000000000000D-01 -4.9905309232069D-01  6.7507542584110D-01
89  8.8000000000000D-01 -4.2594950862741D-01  6.4053619079783D-01
90  8.9000000000000D-01 -3.5575393454471D-01  6.0610325901428D-01
91  9.0000000000000D-01 -2.8918558982916D-01  5.7183779564954D-01
92  9.1000000000000D-01 -2.2687850082562D-01  5.3780332287881D-01
93  9.2000000000000D-01 -1.6937207004738D-01  5.0406605987789D-01
94  9.3000000000000D-01 -1.1710356192976D-01  4.7069519704221D-01
95  9.4000000000000D-01 -7.0402657352720D-02  4.3776309605376D-01
96  9.5000000000000D-01 -2.9488185793651D-02  4.0534540913929D-01
97  9.6000000000000D-01  5.5329023804768D-03  3.7352111273180D-01
98  9.7000000000000D-01  3.4664308903829D-02  3.4237245271126D-01
99  9.8000000000000D-01  5.8016939976128D-02  3.1198480042223D-01
100  9.9000000000000D-01  7.5803320205175D-02  2.8244642069081D-01
101  1.0000000000000D+00  8.8329996015696D-02  2.5384815500724D-01
102  1.0100000000000D+00  9.5988101908018D-02  2.2628302500126D-01
103  1.0200000000000D+00  9.9242302073179D-02  1.9984576304656D-01
104  1.0300000000000D+00  9.8618356404643D-02  1.7463227844892D-01
105  1.0400000000000D+00  9.4689590607863D-02  1.5073906905683D-01
106  1.0500000000000D+00  8.8062575095395D-02  1.2826258929736D-01
107  1.0600000000000D+00  7.9362334837162D-02  1.0729858647819D-01
108  1.0700000000000D+00  6.9217427496935D-02  8.7941418385824D-02
109  1.0800000000000D+00  5.8245213787936D-02  7.0283361573956D-02
110  1.0900000000000D+00  4.7037716450455D-02  5.4413936945341D-02
111  1.1000000000000D+00  3.6148069750556D-02  4.0419192877196D-02
112  1.1100000000000D+00  2.6079257036052D-02  2.8381277879804D-02
113  1.1200000000000D+00  1.7269820296529D-02  1.8377157622890D-02
114  1.1300000000000D+00  1.0080467392457D-02  1.0478971224197D-02
115  1.1400000000000D+00  4.7325648583356D-03  4.7093602859304D-03
116  1.1500000000000D+00  1.5610093310693D-03  1.2636794876957D-03
117  1.1600000000000D+00  3.5835743492044D-04 -2.8391173461430D-05
118  1.1700000000000D+00  3.3800817762442D-05 -9.0197315865009D-05
119  1.1800000000000D+00 -4.2468817756199D-06  3.8803607110196D-05
120  1.1900000000000D+00  9.3990920501908D-07 -2.6565118403092D-06
121  1.2000000000000D+00  1.0554306739528D-06 -4.0807160239791D-06
122  1.2100000000000D+00 -9.2550095276100D-07  1.5384550933534D-07
123  1.2200000000000D+00  0.0000000000000D+00  0.0000000000000D+00
124  1.2300000000000D+00  0.0000000000000D+00  0.0000000000000D+00
125  1.2400000000000D+00  0.0000000000000D+00  0.0000000000000D+00
126  1.2500000000000D+00  0.0000000000000D+00  0.0000000000000D+00
127  1.2600000000000D+00  0.0000000000000D+00  0.0000000000000D+00
128  1.2700000000000D+00  0.0000000000000D+00  0.0000000000000D+00
129  1.2800000000000D+00  0.0000000000000D+00  0.0000000000000D+00
130  1.2900000000000D+00  0.0000000000000D+00  0.0000000000000D+00
131  1.3000000000000D+00  0.0000000000000D+00  0.0000000000000D+00
132  1.3100000000000D+00  0.0000000000000D+00  0.0000000000000D+00
133  1.3200000000000D+00  0.0000000000000D+00  0.0000000000000D+00
134  1.3300000000000D+00  0.0000000000000D+00  0.0000000000000D+00
135  1.3400000000000D+00  0.0000000000000D+00  0.0000000000000D+00
136  1.3500000000000D+00  0.0000000000000D+00  0.0000000000000D+00
137  1.3600000000000D+00  0.0000000000000D+00  0.0000000000000D+00
138  1.3700000000000D+00  0.0000000000000D+00  0.0000000000000D+00
139  1.3800000000000D+00  0.0000000000000D+00  0.0000000000000D+00
140  1.3900000000000D+00  0.0000000000000D+00  0.0000000000000D+00
141  1.4000000000000D+00  0.0000000000000D+00  0.0000000000000D+00
142  1.4100000000000D+00  0.0000000000000D+00  0.0000000000000D+00
143  1.4200000000000D+00  0.0000000000000D+00  0.0000000000000D+00
144  1.4300000000000D+00  0.0000000000000D+00  0.0000000000000D+00
145  1.4400000000000D+00  0.0000000000000D+00  0.0000000000000D+00
146  1.4500000000000D+00  0.0000000000000D+00  0.0000000000000D+00
147  1.4600000000000D+00  0.0000000000000D+00  0.0000000000000D+00
148  1.4700000000000D+00  0.0000000000000D+00  0.0000000000000D+00
149  1.4800000000000D+00  0.0000000000000D+00  0.0000000000000D+00
150  1.4900000000000D+00  0.0000000000000D+00  0.0000000000000D+00
151  1.5000000000000D+00  0.0000000000000D+00  0.0000000000000D+00
152  1.5100000000000D+00  0.0000000000000D+00  0.0000000000000D+00
153  1.5200000000000D+00  0.0000000000000D+00  0.0000000000000D+00
154  1.5300000000000D+00  0.0000000000000D+00  0.0000000000000D+00
155  1.5400000000000D+00  0.0000000000000D+00  0.0000000000000D+00
156  1.5500000000000D+00  0.0000000000000D+00  0.0000000000000D+00
157  1.5600000000000D+00  0.0000000000000D+00  0.0000000000000D+00
158  1.5700000000000D+00  0.0000000000000D+00  0.0000000000000D+00
159  1.5800000000000D+00  0.0000000000000D+00  0.0000000000000D+00
160  1.5900000000000D+00  0.0000000000000D+00  0.0000000000000D+00
161  1.6000000000000D+00  0.0000000000000D+00  0.0000000000000D+00
162  1.6100000000000D+00  0.0000000000000D+00  0.0000000000000D+00
163  1.6200000000000D+00  0.0000000000000D+00  0.0000000000000D+00
164  1.6300000000000D+00  0.0000000000000D+00  0.0000000000000D+00
165  1.6400000000000D+00  0.0000000000000D+00  0.0000000000000D+00
166  1.6500000000000D+00  0.0000000000000D+00  0.0000000000000D+00
167  1.6600000000000D+00  0.0000000000000D+00  0.0000000000000D+00
168  1.6700000000000D+00  0.0000000000000D+00  0.0000000000000D+00
169  1.6800000000000D+00  0.0000000000000D+00  0.0000000000000D+00
170  1.6900000000000D+00  0.0000000000000D+00  0.0000000000000D+00
171  1.7000000000000D+00  0.0000000000000D+00  0.0000000000000D+00
172  1.7100000000000D+00  0.0000000000000D+00  0.0000000000000D+00
173  1.7200000000000D+00  0.0000000000000D+00  0.0000000000000D+00
174  1.7300000000000D+00  0.0000000000000D+00  0.0000000000000D+00
175  1.7400000000000D+00  0.0000000000000D+00  0.0000000000000D+00
176  1.7500000000000D+00  0.0000000000000D+00  0.0000000000000D+00
177  1.7600000000000D+00  0.0000000000000D+00  0.0000000000000D+00
178  1.7700000000000D+00  0.0000000000000D+00  0.0000000000000D+00
179  1.7800000000000D+00  0.0000000000000D+00  0.0000000000000D+00
180  1.7900000000000D+00  0.0000000000000D+00  0.0000000000000D+00
181  1.8000000000000D+00  0.0000000000000D+00  0.0000000000000D+00
182  1.8100000000000D+00  0.0000000000000D+00  0.0000000000000D+00
183  1.8200000000000D+00  0.0000000000000D+00  0.0000000000000D+00
184  1.8300000000000D+00  0.0000000000000D+00  0.0000000000000D+00
185  1.8400000000000D+00  0.0000000000000D+00  0.0000000000000D+00
186  1.8500000000000D+00  0.0000000000000D+00  0.0000000000000D+00
187  1.8600000000000D+00  0.0000000000000D+00  0.0000000000000D+00
188  1.8700000000000D+00  0.0000000000000D+00  0.0000000000000D+00
189  1.8800000000000D+00  0.0000000000000D+00  0.0000000000000D+00
190  1.8900000000000D+00  0.0000000000000D+00  0.0000000000000D+00
191  1.9000000000000D+00  0.0000000000000D+00  0.0000000000000D+00
192  1.9100000000000D+00  0.0000000000000D+00  0.0000000000000D+00
193  1.9200000000000D+00  0.0000000000000D+00  0.0000000000000D+00
194  1.9300000000000D+00  0.0000000000000D+00  0.0000000000000D+00
195  1.9400000000000D+00  0.0000000000000D+00  0.0000000000000D+00
196  1.9500000000000D+00  0.0000000000000D+00  0.0000000000000D+00
197  1.9600000000000D+00  0.0000000000000D+00  0.0000000000000D+00
198  1.9700000000000D+00  0.0000000000000D+00  0.0000000000000D+00
199  1.9800000000000D+00  0.0000000000000D+00  0.0000000000000D+00
200  1.9900000000000D+00  0.0000000000000D+00  0.0000000000000D+00
201  2.0000000000000D+00  0.0000000000000D+00  0.0000000000000D+00
202  2.0100000000000D+00  0.0000000000000D+00  0.0000000000000D+00
203  2.0200000000000D+00  0.0000000000000D+00  0.0000000000000D+00
204  2.0300000000000D+00  0.0000000000000D+00  0.0000000000000D+00
205  2.0400000000000D+00  0.0000000000000D+00  0.0000000000000D+00
206  2.0500000000000D+00  0.0000000000000D+00  0.0000000000000D+00
207  2.0600000000000D+00  0.0000000000000D+00  0.0000000000000D+00
208  2.0700000000000D+00  0.0000000000000D+00  0.0000000000000D+00
209  2.0800000000000D+00  0.0000000000000D+00  0.0000000000000D+00
210  2.0900000000000D+00  0.0000000000000D+00  0.0000000000000D+00
211  2.1000000000000D+00  0.0000000000000D+00  0.0000000000000D+00
212  2.1100000000000D+00  0.0000000000000D+00  0.0000000000000D+00
213  2.1200000000000D+00  0.0000000000000D+00  0.0000000000000D+00
214  2.1300000000000D+00  0.0000000000000D+00  0.0000000000000D+00
215  2.1400000000000D+00  0.0000000000000D+00  0.0000000000000D+00
216  2.1500000000000D+00  0.0000000000000D+00  0.0000000000000D+00
217  2.1600000000000D+00  0.0000000000000D+00  0.0000000000000D+00
218  2.1700000000000D+00  0.0000000000000D+00  0.0000000000000D+00
219  2.1800000000000D+00  0.0000000000000D+00  0.0000000000000D+00
220  2.1900000000000D+00  0.0000000000000D+00  0.0000000000000D+00
221  2.2000000000000D+00  0.0000000000000D+00  0.0000000000000D+00
222  2.2100000000000D+00  0.0000000000000D+00  0.0000000000000D+00
223  2.2200000000000D+00  0.0000000000000D+00  0.0000000000000D+00
224  2.2300000000000D+00  0.0000000000000D+00  0.0000000000000D+00
225  2.2400000000000D+00  0.0000000000000D+00  0.0000000000000D+00
226  2.2500000000000D+00  0.0000000000000D+00  0.0000000000000D+00
227  2.2600000000000D+00  0.0000000000000D+00  0.0000000000000D+00
228  2.2700000000000D+00  0.0000000000000D+00  0.0000000000000D+00
229  2.2800000000000D+00  0.0000000000000D+00  0.0000000000000D+00
230  2.2900000000000D+00  0.0000000000000D+00  0.0000000000000D+00
231  2.3000000000000D+00  0.0000000000000D+00  0.0000000000000D+00
232  2.3100000000000D+00  0.0000000000000D+00  0.0000000000000D+00
233  2.3200000000000D+00  0.0000000000000D+00  0.0000000000000D+00
234  2.3300000000000D+00  0.0000000000000D+00  0.0000000000000D+00
235  2.3400000000000D+00  0.0000000000000D+00  0.0000000000000D+00
236  2.3500000000000D+00  0.0000000000000D+00  0.0000000000000D+00
237  2.3600000000000D+00  0.0000000000000D+00  0.0000000000000D+00
238  2.3700000000000D+00  0.0000000000000D+00  0.0000000000000D+00
239  2.3800000000000D+00  0.0000000000000D+00  0.0000000000000D+00
240  2.3900000000000D+00  0.0000000000000D+00  0.0000000000000D+00
241  2.4000000000000D+00  0.0000000000000D+00  0.0000000000000D+00
242  2.4100000000000D+00  0.0000000000000D+00  0.0000000000000D+00
243  2.4200000000000D+00  0.0000000000000D+00  0.0000000000000D+00
244  2.4300000000000D+00  0.0000000000000D+00  0.0000000000000D+00
245  2.4400000000000D+00  0.0000000000000D+00  0.0000000000000D+00
246  2.4500000000000D+00  0.0000000000000D+00  0.0000000000000D+00
247  2.4600000000000D+00  0.0000000000000D+00  0.0000000000000D+00
248  2.4700000000000D+00  0.0000000000000D+00  0.0000000000000D+00
249  2.4800000000000D+00  0.0000000000000D+00  0.0000000000000D+00
250  2.4900000000000D+00  0.0000000000000D+00  0.0000000000000D+00
251  2.5000000000000D+00  0.0000000000000D+00  0.0000000000000D+00
252  2.5100000000000D+00  0.0000000000000D+00  0.0000000000000D+00
253  2.5200000000000D+00  0.0000000000000D+00  0.0000000000000D+00
254  2.5300000000000D+00  0.0000000000000D+00  0.0000000000000D+00
255  2.5400000000000D+00  0.0000000000000D+00  0.0000000000000D+00
256  2.5500000000000D+00  0.0000000000000D+00  0.0000000000000D+00
257  2.5600000000000D+00  0.0000000000000D+00  0.0000000000000D+00
258  2.5700000000000D+00  0.0000000000000D+00  0.0000000000000D+00
259  2.5800000000000D+00  0.0000000000000D+00  0.0000000000000D+00
260  2.5900000000000D+00  0.0000000000000D+00  0.0000000000000D+00
261  2.6000000000000D+00  0.0000000000000D+00  0.0000000000000D+00
262  2.6100000000000D+00  0.0000000000000D+00  0.0000000000000D+00
263  2.6200000000000D+00  0.0000000000000D+00  0.0000000000000D+00
264  2.6300000000000D+00  0.0000000000000D+00  0.0000000000000D+00
265  2.6400000000000D+00  0.0000000000000D+00  0.0000000000000D+00
266  2.6500000000000D+00  0.0000000000000D+00  0.0000000000000D+00
267  2.6600000000000D+00  0.0000000000000D+00  0.0000000000000D+00
268  2.6700000000000D+00  0.0000000000000D+00  0.0000000000000D+00
269  2.6800000000000D+00  0.0000000000000D+00  0.0000000000000D+00
270  2.6900000000000D+00  0.0000000000000D+00  0.0000000000000D+00
271  2.7000000000000D+00  0.0000000000000D+00  0.0000000000000D+00
272  2.7100000000000D+00  0.0000000000000D+00  0.0000000000000D+00
273  2.7200000000000D+00  0.0000000000000D+00  0.0000000000000D+00
274  2.7300000000000D+00  0.0000000000000D+00  0.0000000000000D+00
275  2.7400000000000D+00  0.0000000000000D+00  0.0000000000000D+00
276  2.7500000000000D+00  0.0000000000000D+00  0.0000000000000D+00
277  2.7600000000000D+00  0.0000000000000D+00  0.0000000000000D+00
278  2.7700000000000D+00  0.0000000000000D+00  0.0000000000000D+00
279  2.7800000000000D+00  0.0000000000000D+00  0.0000000000000D+00
280  2.7900000000000D+00  0.0000000000000D+00  0.0000000000000D+00
281  2.8000000000000D+00  0.0000000000000D+00  0.0000000000000D+00
282  2.8100000000000D+00  0.0000000000000D+00  0.0000000000000D+00
283  2.8200000000000D+00  0.0000000000000D+00  0.0000000000000D+00
284  2.8300000000000D+00  0.0000000000000D+00  0.0000000000000D+00
285  2.8400000000000D+00  0.0000000000000D+00  0.0000000000000D+00
286  2.8500000000000D+00  0.0000000000000D+00  0.0000000000000D+00
287  2.8600000000000D+00  0.0000000000000D+00  0.0000000000000D+00
288  2.8700000000000D+00  0.0000000000000D+00  0.0000000000000D+00
289  2.8800000000000D+00  0.0000000000000D+00  0.0000000000000D+00
290  2.8900000000000D+00  0.0000000000000D+00  0.0000000000000D+00
291  2.9000000000000D+00  0.0000000000000D+00  0.0000000000000D+00
292  2.9100000000000D+00  0.0000000000000D+00  0.0000000000000D+00
293  2.9200000000000D+00  0.0000000000000D+00  0.0000000000000D+00
294  2.9300000000000D+00  0.0000000000000D+00  0.0000000000000D+00
295  2.9400000000000D+00  0.0000000000000D+00  0.0000000000000D+00
296  2.9500000000000D+00  0.0000000000000D+00  0.0000000000000D+00
297  2.9600000000000D+00  0.0000000000000D+00  0.0000000000000D+00
298  2.9700000000000D+00  0.0000000000000D+00  0.0000000000000D+00
299  2.9800000000000D+00  0.0000000000000D+00  0.0000000000000D+00
300  2.9900000000000D+00  0.0000000000000D+00  0.0000000000000D+00
301  3.0000000000000D+00  0.0000000000000D+00  0.0000000000000D+00
302  3.0100000000000D+00  0.0000000000000D+00  0.0000000000000D+00
303  3.0200000000000D+00  0.0000000000000D+00  0.0000000000000D+00
304  3.0300000000000D+00  0.0000000000000D+00  0.0000000000000D+00
305  3.0400000000000D+00  0.0000000000000D+00  0.0000000000000D+00
306  3.0500000000000D+00  0.0000000000000D+00  0.0000000000000D+00
307  3.0600000000000D+00  0.0000000000000D+00  0.0000000000000D+00
308  3.0700000000000D+00  0.0000000000000D+00  0.0000000000000D+00
309  3.0800000000000D+00  0.0000000000000D+00  0.0000000000000D+00
310  3.0900000000000D+00  0.0000000000000D+00  0.0000000000000D+00
311  3.1000000000000D+00  0.0000000000000D+00  0.0000000000000D+00
312  3.1100000000000D+00  0.0000000000000D+00  0.0000000000000D+00
313  3.1200000000000D+00  0.0000000000000D+00  0.0000000000000D+00
314  3.1300000000000D+00  0.0000000000000D+00  0.0000000000000D+00
315  3.1400000000000D+00  0.0000000000000D+00  0.0000000000000D+00
316  3.1500000000000D+00  0.0000000000000D+00  0.0000000000000D+00
317  3.1600000000000D+00  0.0000000000000D+00  0.0000000000000D+00
318  3.1700000000000D+00  0.0000000000000D+00  0.0000000000000D+00
319  3.1800000000000D+00  0.0000000000000D+00  0.0000000000000D+00
320  3.1900000000000D+00  0.0000000000000D+00  0.0000000000000D+00
321  3.2000000000000D+00  0.0000000000000D+00  0.0000000000000D+00
322  3.2100000000000D+00  0.0000000000000D+00  0.0000000000000D+00
323  3.2200000000000D+00  0.0000000000000D+00  0.0000000000000D+00
324  3.2300000000000D+00  0.0000000000000D+00  0.0000000000000D+00
325  3.2400000000000D+00  0.0000000000000D+00  0.0000000000000D+00
326  3.2500000000000D+00  0.0000000000000D+00  0.0000000000000D+00
327  3.2600000000000D+00  0.0000000000000D+00  0.0000000000000D+00
328  3.2700000000000D+00  0.0000000000000D+00  0.0000000000000D+00
329  3.2800000000000D+00  0.0000000000000D+00  0.0000000000000D+00
330  3.2900000000000D+00  0.0000000000000D+00  0.0000000000000D+00
331  3.3000000000000D+00  0.0000000000000D+00  0.0000000000000D+00
332  3.3100000000000D+00  0.0000000000000D+00  0.0000000000000D+00
333  3.3200000000000D+00  0.0000000000000D+00  0.0000000000000D+00
334  3.3300000000000D+00  0.0000000000000D+00  0.0000000000000D+00
335  3.3400000000000D+00  0.0000000000000D+00  0.0000000000000D+00
336  3.3500000000000D+00  0.0000000000000D+00  0.0000000000000D+00
337  3.3600000000000D+00  0.0000000000000D+00  0.0000000000000D+00
338  3.3700000000000D+00  0.0000000000000D+00  0.0000000000000D+00
339  3.3800000000000D+00  0.0000000000000D+00  0.0000000000000D+00
340  3.3900000000000D+00  0.0000000000000D+00  0.0000000000000D+00
341  3.4000000000000D+00  0.0000000000000D+00  0.0000000000000D+00
342  3.4100000000000D+00  0.0000000000000D+00  0.0000000000000D+00
343  3.4200000000000D+00  0.0000000000000D+00  0.0000000000000D+00
344  3.4300000000000D+00  0.0000000000000D+00  0.0000000000000D+00
345  3.4400000000000D+00  0.0000000000000D+00  0.0000000000000D+00
346  3.4500000000000D+00  0.0000000000000D+00  0.0000000000000D+00
347  3.4600000000000D+00  0.0000000000000D+00  0.0000000000000D+00
348  3.4700000000000D+00  0.0000000000000D+00  0.0000000000000D+00
349  3.4800000000000D+00  0.0000000000000D+00  0.0000000000000D+00
350  3.4900000000000D+00  0.0000000000000D+00  0.0000000000000D+00
351  3.5000000000000D+00  0.0000000000000D+00  0.0000000000000D+00
352  3.5100000000000D+00  0.0000000000000D+00  0.0000000000000D+00
353  3.5200000000000D+00  0.0000000000000D+00  0.0000000000000D+00
354  3.5300000000000D+00  0.0000000000000D+00  0.0000000000000D+00
355  3.5400000000000D+00  0.0000000000000D+00  0.0000000000000D+00
356  3.5500000000000D+00  0.0000000000000D+00  0.0000000000000D+00
357  3.5600000000000D+00  0.0000000000000D+00  0.0000000000000D+00
358  3.5700000000000D+00  0.0000000000000D+00  0.0000000000000D+00
359  3.5800000000000D+00  0.0000000000000D+00  0.0000000000000D+00
360  3.5900000000000D+00  0.0000000000000D+00  0.0000000000000D+00
361  3.6000000000000D+00  0.0000000000000D+00  0.0000000000000D+00
362  3.6100000000000D+00  0.0000000000000D+00  0.0000000000000D+00
363  3.6200000000000D+00  0.0000000000000D+00  0.0000000000000D+00
364  3.6300000000000D+00  0.0000000000000D+00  0.0000000000000D+00
365  3.6400000000000D+00  0.0000000000000D+00  0.0000000000000D+00
366  3.6500000000000D+00  0.0000000000000D+00  0.0000000000000D+00
367  3.6600000000000D+00  0.0000000000000D+00  0.0000000000000D+00
368  3.6700000000000D+00  0.0000000000000D+00  0.0000000000000D+00
369  3.6800000000000D+00  0.0000000000000D+00  0.0000000000000D+00
370  3.6900000000000D+00  0.0000000000000D+00  0.0000000000000D+00
371  3.7000000000000D+00  0.0000000000000D+00  0.0000000000000D+00
372  3.7100000000000D+00  0.0000000000000D+00  0.0000000000000D+00
373  3.7200000000000D+00  0.0000000000000D+00  0.0000000000000D+00
374  3.7300000000000D+00  0.0000000000000D+00  0.0000000000000D+00
375  3.7400000000000D+00  0.0000000000000D+00  0.0000000000000D+00
376  3.7500000000000D+00  0.0000000000000D+00  0.0000000000000D+00
377  3.7600000000000D+00  0.0000000000000D+00  0.0000000000000D+00
378  3.7700000000000D+00  0.0000000000000D+00  0.0000000000000D+00
379  3.7800000000000D+00  0.0000000000000D+00  0.0000000000000D+00
380  3.7900000000000D+00  0.0000000000000D+00  0.0000000000000D+00
381  3.8000000000000D+00  0.0000000000000D+00  0.0000000000000D+00
382  3.8100000000000D+00  0.0000000000000D+00  0.0000000000000D+00
383  3.8200000000000D+00  0.0000000000000D+00  0.0000000000000D+00
384  3.8300000000000D+00  0.0000000000000D+00  0.0000000000000D+00
385  3.8400000000000D+00  0.0000000000000D+00  0.0000000000000D+00
386  3.8500000000000D+00  0.0000000000000D+00  0.0000000000000D+00
387  3.8600000000000D+00  0.0000000000000D+00  0.0000000000000D+00
388  3.8700000000000D+00  0.0000000000000D+00  0.0000000000000D+00
389  3.8800000000000D+00  0.0000000000000D+00  0.0000000000000D+00
390  3.8900000000000D+00  0.0000000000000D+00  0.0000000000000D+00
391  3.9000000000000D+00  0.0000000000000D+00  0.0000000000000D+00
392  3.9100000000000D+00  0.0000000000000D+00  0.0000000000000D+00
393  3.9200000000000D+00  0.0000000000000D+00  0.0000000000000D+00
394  3.9300000000000D+00  0.0000000000000D+00  0.0000000000000D+00
395  3.9400000000000D+00  0.0000000000000D+00  0.0000000000000D+00
396  3.9500000000000D+00  0.0000000000000D+00  0.0000000000000D+00
397  3.9600000000000D+00  0.0000000000000D+00  0.0000000000000D+00
398  3.9700000000000D+00  0.0000000000000D+00  0.0000000000000D+00
399  3.9800000000000D+00  0.0000000000000D+00  0.0000000000000D+00
400  3.9900000000000D+00  0.0000000000000D+00  0.0000000000000D+00
1                        -6.5453145441283D+00 -2.5237826015006D+00
1  0.0000000000000D+00  4.8970588695241D-10 -9.8825370109523D-10
2  1.0000000000000D-02  1.9852838061935D-03 -8.7469441708269D-04
3  2.0000000000000D-02  7.9317284593975D-03 -3.4903031528348D-03
4  3.0000000000000D-02  1.7811159148382D-02 -7.8214658556706D-03
5  4.0000000000000D-02  3.1576769208438D-02 -1.3826125382155D-02
6  5.0000000000000D-02  4.9163346236450D-02 -2.1445841075245D-02
7  6.0000000000000D-02  7.0487586828063D-02 -3.0606223603634D-02
8  7.0000000000000D-02  9.5448498131555D-02 -4.1217487661245D-02
9  8.0000000000000D-02  1.2392788392334D-01 -5.3175117837622D-02
10  9.0000000000000D-02  1.5579091243959D-01 -6.6360642032768D-02
11  1.0000000000000D-01  1.9088676275093D-01 -8.0642505913312D-02
12  1.1000000000000D-01  2.2904934604613D-01 -9.5877041100182D-02
13  1.2000000000000D-01  2.7009809779941D-01 -1.1190951904926D-01
14  1.3000000000000D-01  3.1383883643668D-01 -1.2857528194329D-01
15  1.4000000000000D-01  3.6006468379229D-01 -1.4570094136138D-01
16  1.5000000000000D-01  4.0855704236016D-01 -1.6310563503739D-01
17  1.6000000000000D-01  4.5908662409454D-01 -1.8060233166316D-01
18  1.7000000000000D-01  5.1141452530589D-01 -1.9799917344036D-01
19  1.8000000000000D-01  5.6529334202843D-01 -2.1510084593619D-01
20  1.9000000000000D-01  6.2046832010642D-01 -2.3170996475355D-01
21  2.0000000000000D-01  6.7667853415757D-01 -2.4762846858378D-01
22  2.1000000000000D-01  7.3365808952216D-01 -2.6265900836738D-01
23  2.2000000000000D-01  7.9113734129473D-01 -2.7660632254106D-01
24  2.3000000000000D-01  8.4884412456034D-01 -2.8927858869313D-01
25  2.4000000000000D-01  9.0650499001719D-01 -3.0048874237708D-01
26  2.5000000000000D-01  9.6384643925912D-01 -3.1005575433874D-01
27  2.6000000000000D-01  1.0205961541141D+00 -3.1780585798697D-01
28  2.7000000000000D-01  1.0764842145835D+00 -3.2357371957310D-01
29  2.8000000000000D-01  1.1312443001001D+00 -3.2720354423034D-01
30  2.9000000000000D-01  1.1846148690177D+00 -3.2855011175219D-01
31  3.0000000000000D-01  1.2363403114567D+00 -3.2747973674692D-01
32  3.1000000000000D-01  1.2861720708570D+00 -3.2387114858453D-01
33  3.2000000000000D-01  1.3338697298263D+00 -3.1761628734135D-01
34  3.3000000000000D-01  1.3792020561213D+00 -3.0862101273649D-01
35  3.4000000000000D-01  1.4219480048462D+00 -2.9680572383284D-01
36  3.5000000000000D-01  1.4618976732096D+00 -2.8210588803384D-01
37  3.6000000000000D-01  1.4988532044342D+00 -2.6447247863725D-01
38  3.7000000000000D-01  1.5326296376625D+00 -2.4387232089904D-01
39  3.8000000000000D-01  1.5630557009494D+00 -2.2028834720866D-01
40  3.9000000000000D-01  1.5899745446724D+00 -1.9371976257243D-01
41  4.0000000000000D-01  1.6132444129212D+00 -1.6418212214133D-01
42  4.1000000000000D-01  1.6327392506522D+00 -1.3170732299689D-01
43  4.2000000000000D-01  1.6483492446096D+00 -9.6343512821922D-02