Pb    ONCVPSP-3.3.0  r_core=   2.42823   2.42823   2.10438
82.0000     14.0000      171114    zatom,zion,pspd
8   -1012   2     4   600     0    pspcod,pspxc,lmax,lloc,mmax,r2well
5.99000000  6.00000000  0.00000000    rchrg fchrg qchrg
2     2     2     0     0    nproj
1     1           extension_switch
0                         6.2612511360821D+00  1.2101558565630D+00
1  0.0000000000000D+00  2.3375953950300D-12 -5.7489291105384D-12
2  1.0000000000000D-02  5.2048903431738D-03  2.2251020313784D-02
3  2.0000000000000D-02  1.0445266510392D-02  4.4429727047148D-02
4  3.0000000000000D-02  1.5756499692381D-02  6.6464034077086D-02
5  4.0000000000000D-02  2.1173732104509D-02  8.8282309565735D-02
6  5.0000000000000D-02  2.6731763226716D-02  1.0981360153015D-01
7  6.0000000000000D-02  3.2464936914939D-02  1.3098786152879D-01
8  7.0000000000000D-02  3.8407029671815D-02  1.5173616584354D-01
9  8.0000000000000D-02  4.4591140362105D-02  1.7199093354211D-01
10  9.0000000000000D-02  5.1049581655376D-02  1.9168614081244D-01
11  1.0000000000000D-01  5.7813773474989D-02  2.1075753096968D-01
12  1.1000000000000D-01  6.4914138728368D-02  2.2914281954599D-01
13  1.2000000000000D-01  7.2380001588881D-02  2.4678189388499D-01
14  1.3000000000000D-01  8.0239488594471D-02  2.6361700667534D-01
15  1.4000000000000D-01  8.8519432822334D-02  2.7959296287210D-01
16  1.5000000000000D-01  9.7245281392684D-02  2.9465729946987D-01
17  1.6000000000000D-01  1.0644100654761D-01  3.0876045760872D-01
18  1.7000000000000D-01  1.1612902054372D-01  3.2185594651182D-01
19  1.8000000000000D-01  1.2633009458904D-01  3.3390049877316D-01
20  1.9000000000000D-01  1.3706328204633D-01  3.4485421653441D-01
21  2.0000000000000D-01  1.4834584611562D-01  3.5468070811180D-01
22  2.1000000000000D-01  1.6019319219942D-01  3.6334721465709D-01
23  2.2000000000000D-01  1.7261880514355D-01  3.7082472646065D-01
24  2.3000000000000D-01  1.8563419153633D-01  3.7708808853051D-01
25  2.4000000000000D-01  1.9924882723732D-01  3.8211609510720D-01
26  2.5000000000000D-01  2.1347011029547D-01  3.8589157280207D-01
27  2.6000000000000D-01  2.2830331940415D-01  3.8840145207512D-01
28  2.7000000000000D-01  2.4375157802836D-01  3.8963682679777D-01
29  2.8000000000000D-01  2.5981582432603D-01  3.8959300167663D-01
30  2.9000000000000D-01  2.7649478697215D-01  3.8826952734505D-01
31  3.0000000000000D-01  2.9378496698074D-01  3.8567022296182D-01
32  3.1000000000000D-01  3.1168062560513D-01  3.8180318618852D-01
33  3.2000000000000D-01  3.3017377838305D-01  3.7668079045072D-01
34  3.3000000000000D-01  3.4925419537762D-01  3.7031966942219D-01
35  3.4000000000000D-01  3.6890940765052D-01  3.6274068870545D-01
36  3.5000000000000D-01  3.8912471998813D-01  3.5396890471733D-01
37  3.6000000000000D-01  4.0988322988570D-01  3.4403351082305D-01
38  3.7000000000000D-01  4.3116585277883D-01  3.3296777079818D-01
39  3.8000000000000D-01  4.5295135349534D-01  3.2080893973346D-01
40  3.9000000000000D-01  4.7521638388466D-01  3.0759817253329D-01
41  4.0000000000000D-01  4.9793552656535D-01  2.9338042019464D-01
42  4.1000000000000D-01  5.2108134471512D-01  2.7820431408878D-01
43  4.2000000000000D-01  5.4462443781134D-01  2.6212203850403D-01
44  4.3000000000000D-01  5.6853350321361D-01  2.4518919174285D-01
45  4.4000000000000D-01  5.9277540346371D-01  2.2746463610174D-01
46  4.5000000000000D-01  6.1731523916203D-01  2.0901033709677D-01
47  4.6000000000000D-01  6.4211642726346D-01  1.8989119233150D-01
48  4.7000000000000D-01  6.6714078462000D-01  1.7017485043732D-01
49  4.8000000000000D-01  6.9234861658151D-01  1.4993152054864D-01
50  4.9000000000000D-01  7.1769881045097D-01  1.2923377280683D-01
51  5.0000000000000D-01  7.4314893357533D-01  1.0815633041737D-01
52  5.1000000000000D-01  7.6865533583858D-01  8.6775853814240D-02
53  5.2000000000000D-01  7.9417325630949D-01  6.5170717513530D-02
54  5.3000000000000D-01  8.1965693378268D-01  4.3420780265243D-02
55  5.4000000000000D-01  8.4505972093859D-01  2.1607149137846D-02
56  5.5000000000000D-01  8.7033420183527D-01 -1.8806180619724D-04
57  5.6000000000000D-01  8.9543231243303D-01 -2.1881977563127D-02
58  5.7000000000000D-01  9.2030546384156D-01 -4.3391212267609D-02
59  5.8000000000000D-01  9.4490466796874D-01 -6.4632122579474D-02
60  5.9000000000000D-01  9.6918066524041D-01 -8.5521063640528D-02
61  6.0000000000000D-01  9.9308405405146D-01 -1.0597464684968D-01
62  6.1000000000000D-01  1.0165654216005D+00 -1.2590999869195D-01
63  6.2000000000000D-01  1.0395754757528D+00 -1.4524501984595D-01
64  6.3000000000000D-01  1.0620651775709D+00 -1.6389864378642D-01
65  6.4000000000000D-01  1.0839858741450D+00 -1.8179109409201D-01
66  6.5000000000000D-01  1.1052894313531D+00 -1.9884413966469D-01
67  6.6000000000000D-01  1.1259283661766D+00 -2.1498134706597D-01
68  6.7000000000000D-01  1.1458559781938D+00 -2.3012832917607D-01
69  6.8000000000000D-01  1.1650264798750D+00 -2.4421298938571D-01
70  6.9000000000000D-01  1.1833951252998D+00 -2.5716576053620D-01
71  7.0000000000000D-01  1.2009183369220D+00 -2.6891983783240D-01
72  7.1000000000000D-01  1.2175538300058D+00 -2.7941140496383D-01
73  7.2000000000000D-01  1.2332607343636D+00 -2.8857985268334D-01
74  7.3000000000000D-01  1.2479997130285D+00 -2.9636798910875D-01
75  7.4000000000000D-01  1.2617330775004D+00 -3.0272224103191D-01
76  7.5000000000000D-01  1.2744248992139D+00 -3.0759284554066D-01
77  7.6000000000000D-01  1.2860411168792D+00 -3.1093403128343D-01
78  7.7000000000000D-01  1.2965496393631D+00 -3.1270418873209D-01
79  7.8000000000000D-01  1.3059204437818D+00 -3.1286602882766D-01
80  7.9000000000000D-01  1.3141256684915D+00 -3.1138672942442D-01
81  8.0000000000000D-01  1.3211397006766D+00 -3.0823806898110D-01
82  8.1000000000000D-01  1.3269392582451D+00 -3.0339654698382D-01
83  8.2000000000000D-01  1.3315034657602D+00 -2.9684349062244D-01
84  8.3000000000000D-01  1.3348139241491D+00 -2.8856514728216D-01
85  8.4000000000000D-01  1.3368547739502D+00 -2.7855276245344D-01
86  8.5000000000000D-01  1.3376127518738D+00 -2.6680264270681D-01
87  8.6000000000000D-01  1.3370772404741D+00 -2.5331620342394D-01
88  8.7000000000000D-01  1.3352403107469D+00 -2.3810000102322D-01
89  8.8000000000000D-01  1.3320967574887D+00 -2.2116574946569D-01
90  8.9000000000000D-01  1.3276441272746D+00 -2.0253032087651D-01
91  9.0000000000000D-01  1.3218827389321D+00 -1.8221573016753D-01
92  9.1000000000000D-01  1.3148156964128D+00 -1.6024910359756D-01
93  9.2000000000000D-01  1.3064488939846D+00 -1.3666263125898D-01
94  9.3000000000000D-01  1.2967910136923D+00 -1.1149350353216D-01
95  9.4000000000000D-01  1.2858535150549D+00 -8.4783831601586D-02
96  9.5000000000000D-01  1.2736506169973D+00 -5.6580552181596D-02
97  9.6000000000000D-01  1.2601992720315D+00 -2.6935316652152D-02
98  9.7000000000000D-01  1.2455191327338D+00  4.0956351412297D-03
99  9.8000000000000D-01  1.2296325105822D+00  3.6451616116788D-02
100  9.9000000000000D-01  1.2125643272495D+00  7.0067647855735D-02
101  1.0000000000000D+00  1.1943420584646D+00  1.0487463076110D-01
102  1.0100000000000D+00  1.1749956705850D+00  1.4079952801512D-01
103  1.0200000000000D+00  1.1545575500439D+00  1.7776556282380D-01
104  1.0300000000000D+00  1.1330624258591D+00  2.1569242838997D-01
105  1.0400000000000D+00  1.1105472854147D+00  2.5449651000894D-01
106  1.0500000000000D+00  1.0870512837496D+00  2.9409111863540D-01
107  1.0600000000000D+00  1.0626156466062D+00  3.3438673522767D-01
108  1.0700000000000D+00  1.0372835675160D+00  3.7529126513455D-01
109  1.0800000000000D+00  1.0111000992204D+00  4.1671030174906D-01
110  1.0900000000000D+00  9.8411203973923D-01  4.5854739861877D-01
111  1.1000000000000D+00  9.5636781342560D-01  5.0070434916664D-01
112  1.1100000000000D+00  9.2791734735563D-01  5.4308147314727D-01
113  1.1200000000000D+00  8.9881194342347D-01  5.8557790893226D-01
114  1.1300000000000D+00  8.6910414652502D-01  6.2809191069382D-01
115  1.1400000000000D+00  8.3884760922827D-01  6.7052114953267D-01
116  1.1500000000000D+00  8.0809695334031D-01  7.1276301757875D-01
117  1.1600000000000D+00  7.7690762879306D-01  7.5471493407510D-01
118  1.1700000000000D+00  7.4533577028012D-01  7.9627465244257D-01
119  1.1800000000000D+00  7.1343805208525D-01  8.3734056731543D-01
120  1.1900000000000D+00  6.8127154154911D-01  8.7781202053156D-01
121  1.2000000000000D+00  6.4889355162856D-01  9.1758960505741D-01
122  1.2100000000000D+00  6.1636149300531D-01  9.5657546583138D-01
123  1.2200000000000D+00  5.8373272620309D-01  9.9467359651525D-01
124  1.2300000000000D+00  5.5106441417433D-01  1.0317901311467D+00
125  1.2400000000000D+00  5.1841337581643D-01  1.0678336297044D+00
126  1.2500000000000D+00  4.8583594087270D-01  1.1027153566171D+00
127  1.2600000000000D+00  4.5338780667477D-01  1.1363495512489D+00
128  1.2700000000000D+00  4.2112389717241D-01  1.1686536894385D+00
129  1.2800000000000D+00  3.8909822468802D-01  1.1995487351961D+00
130  1.2900000000000D+00  3.5736375483511D-01  1.2289593816605D+00
131  1.3000000000000D+00  3.2597227501678D-01  1.2568142804933D+00
132  1.3100000000000D+00  2.9497426690995D-01  1.2830462589173D+00
133  1.3200000000000D+00  2.6441878334455D-01  1.3075925235975D+00
134  1.3300000000000D+00  2.3435332994638D-01  1.3303948506816D+00
135  1.3400000000000D+00  2.0482375191032D-01  1.3513997613205D+00
136  1.3500000000000D+00  1.7587412626548D-01  1.3705586820051D+00
137  1.3600000000000D+00  1.4754665993948D-01  1.3878280892038D+00
138  1.3700000000000D+00  1.1988159394747D-01  1.4031696377348D+00
139  1.3800000000000D+00  9.2917113996234D-02  1.4165502724016D+00
140  1.3900000000000D+00  6.6689267741011D-02  1.4279423225552D+00
141  1.4000000000000D+00  4.1231888984420D-02  1.4373235791147D+00
142  1.4100000000000D+00  1.6576528991954D-02  1.4446773538716D+00
143  1.4200000000000D+00 -7.2476048636442D-03  1.4499925208024D+00
144  1.4300000000000D+00 -3.0213702941864D-02  1.4532635391818D+00
145  1.4400000000000D+00 -5.2297399572047D-02  1.4544904585357D+00
146  1.4500000000000D+00 -7.3476811494598D-02  1.4536789052061D+00
147  1.4600000000000D+00 -9.3732568494121D-02  1.4508400507466D+00
148  1.4700000000000D+00 -1.1304783611655D-01  1.4459905621282D+00
149  1.4800000000000D+00 -1.3140833044025D-01  1.4391525339296D+00
150  1.4900000000000D+00 -1.4880232494128D-01  1.4303534028386D+00
151  1.5000000000000D+00 -1.6522064938622D-01  1.4196258445554D+00
152  1.5100000000000D+00 -1.8065668092169D-01  1.4070076537192D+00
153  1.5200000000000D+00 -1.9510632731029D-01  1.3925416069860D+00
154  1.5300000000000D+00 -2.0856800253149D-01  1.3762753099901D+00
155  1.5400000000000D+00 -2.2104259479712D-01  1.3582610285422D+00
156  1.5500000000000D+00 -2.3253342717967D-01  1.3385555047468D+00
157  1.5600000000000D+00 -2.4304621103862D-01  1.3172197586899D+00
158  1.5700000000000D+00 -2.5258899240851D-01  1.2943188763065D+00
159  1.5800000000000D+00 -2.6117209166389D-01  1.2699217843484D+00
160  1.5900000000000D+00 -2.6880803659669D-01  1.2441010130109D+00
161  1.6000000000000D+00 -2.7551148933272D-01  1.2169324473571D+00
162  1.6100000000000D+00 -2.8129916721194D-01  1.1884950680885D+00
163  1.6200000000000D+00 -2.8618975813430D-01  1.1588706829333D+00
164  1.6300000000000D+00 -2.9020383052337D-01  1.1281436492700D+00
165  1.6400000000000D+00 -2.9336373843320D-01  1.0964005892832D+00
166  1.6500000000000D+00 -2.9569352201115D-01  1.0637300983974D+00
167  1.6600000000000D+00 -2.9721880383718D-01  1.0302224482532D+00
168  1.6700000000000D+00 -2.9796668141479D-01  9.9596928509915D-01
169  1.6800000000000D+00 -2.9796561632499D-01  9.6106332481899D-01
170  1.6900000000000D+00 -2.9724532036958D-01  9.2559804556881D-01
171  1.7000000000000D+00 -2.9583663920450D-01  8.8966737919104D-01
172  1.7100000000000D+00 -2.9377143383077D-01  8.5336540246345D-01
173  1.7200000000000D+00 -2.9108246042701D-01  8.1678602927171D-01
174  1.7300000000000D+00 -2.8780324892898D-01  7.8002270485010D-01
175  1.7400000000000D+00 -2.8396798080858D-01  7.4316810305260D-01
176  1.7500000000000D+00 -2.7961136650183D-01  7.0631382791314D-01
177  1.7600000000000D+00 -2.7476852288114D-01  6.6955012025483D-01
178  1.7700000000000D+00 -2.6947485128411D-01  6.3296557078039D-01
179  1.7800000000000D+00 -2.6376591639895D-01  5.9664684009698D-01
180  1.7900000000000D+00 -2.5767732660582D-01  5.6067838734507D-01
181  1.8000000000000D+00 -2.5124461595441D-01  5.2514220753199D-01
182  1.8100000000000D+00 -2.4450312845048D-01  4.9011757940775D-01
183  1.8200000000000D+00 -2.3748790474294D-01  4.5568082376268D-01
184  1.8300000000000D+00 -2.3023357188800D-01  4.2190507392349D-01
185  1.8400000000000D+00 -2.2277423626885D-01  3.8886005834543D-01
186  1.8500000000000D+00 -2.1514338025301D-01  3.5661189673556D-01
187  1.8600000000000D+00 -2.0737376275074D-01  3.2522290989601D-01
188  1.8700000000000D+00 -1.9949732404090D-01  2.9475144405939D-01
189  1.8800000000000D+00 -1.9154509523688D-01  2.6525171052268D-01
190  1.8900000000000D+00 -1.8354711240207D-01  2.3677364033131D-01
191  1.9000000000000D+00 -1.7553233602678D-01  2.0936275576083D-01
192  1.9100000000000D+00 -1.6752857541311D-01  1.8306005708375D-01
193  1.9200000000000D+00 -1.5956241900551D-01  1.5790192722949D-01
194  1.9300000000000D+00 -1.5165916998674D-01  1.3392005224659D-01
195  1.9400000000000D+00 -1.4384278801735D-01  1.1114135969777D-01
196  1.9500000000000D+00 -1.3613583677178D-01  8.9587973833219D-02
197  1.9600000000000D+00 -1.2855943753140D-01  6.9277187997486D-02
198  1.9700000000000D+00 -1.2113322913202D-01  5.0221454827288D-02
199  1.9800000000000D+00 -1.1387533370603D-01  3.2428392557975D-02
200  1.9900000000000D+00 -1.0680232918705D-01  1.5900809709684D-02
201  2.0000000000000D+00 -9.9929227509640D-02  6.3674520033821D-04
202  2.0100000000000D+00 -9.3269459437422D-02 -1.3370473974142D-02
203  2.0200000000000D+00 -8.6834865354208D-02 -2.6132159386781D-02
204  2.0300000000000D+00 -8.0635692090325D-02 -3.7664172202732D-02
205  2.0400000000000D+00 -7.4680595159605D-02 -4.7986820925720D-02
206  2.0500000000000D+00 -6.8976651223986D-02 -5.7124730553407D-02
207  2.0600000000000D+00 -6.3529362905001D-02 -6.5106738776506D-02
208  2.0700000000000D+00 -5.8342695481262D-02 -7.1965699429986D-02
209  2.0800000000000D+00 -5.3419097586589D-02 -7.7738336426681D-02
210  2.0900000000000D+00 -4.8759524781200D-02 -8.2465089841850D-02
211  2.1000000000000D+00 -4.4363415536902D-02 -8.6190124070584D-02
212  2.1100000000000D+00 -4.0228860904441D-02 -8.8960730287247D-02
213  2.1200000000000D+00 -3.6352693478743D-02 -9.0826979044038D-02
214  2.1300000000000D+00 -3.2730609546128D-02 -9.1841297978443D-02
215  2.1400000000000D+00 -2.9357281348702D-02 -9.2058099611043D-02
216  2.1500000000000D+00 -2.6226558828560D-02 -9.1533129917920D-02
217  2.1600000000000D+00 -2.3331473653749D-02 -9.0323436038054D-02
218  2.1700000000000D+00 -2.0664319212826D-02 -8.8487110231525D-02
219  2.1800000000000D+00 -1.8216724561225D-02 -8.6083051077463D-02
220  2.1900000000000D+00 -1.5979752291949D-02 -8.3170646371154D-02
221  2.2000000000000D+00 -1.3943969987839D-02 -7.9809546751334D-02
222  2.2100000000000D+00 -1.2099535747084D-02 -7.6059395259321D-02
223  2.2200000000000D+00 -1.0436279696283D-02 -7.1979571648841D-02
224  2.2300000000000D+00 -8.9437853522874D-03 -6.7628938801547D-02
225  2.2400000000000D+00 -7.6114700874808D-03 -6.3065593381720D-02
226  2.2500000000000D+00 -6.4286646745445D-03 -5.8346620728139D-02
227  2.2600000000000D+00 -5.3846910339837D-03 -5.3527856412529D-02
228  2.2700000000000D+00 -4.4689379801693D-03 -4.8663654960687D-02
229  2.2800000000000D+00 -3.6709351942202D-03 -4.3806665071514D-02
230  2.2900000000000D+00 -2.9804239079767D-03 -3.9007615427816D-02
231  2.3000000000000D+00 -2.3874251096777D-03 -3.4315108863760D-02
232  2.3100000000000D+00 -1.8823047090027D-03 -2.9775426389577D-02
233  2.3200000000000D+00 -1.4558345109859D-03 -2.5432344117813D-02
234  2.3300000000000D+00 -1.0992501784484D-03 -2.1326959938327D-02
235  2.3400000000000D+00 -8.0430485578092D-04 -1.7497533444282D-02
236  2.3500000000000D+00 -5.6323569376476D-04 -1.3982481687567D-02
237  2.3600000000000D+00 -3.6910169766772D-04 -1.0809099203717D-02
238  2.3700000000000D+00 -2.1558137146911D-04 -8.0026725131156D-03
239  2.3800000000000D+00 -9.7971745666212D-05 -5.5740339958847D-03
240  2.3900000000000D+00 -9.0542950309447D-06 -3.5842341825631D-03
241  2.4000000000000D+00  5.6549355325304D-05 -2.0715289787883D-03
242  2.4100000000000D+00  1.0523894315671D-04 -1.0621941014685D-03
243  2.4200000000000D+00  1.2837639343408D-04 -4.5559654777997D-04
244  2.4300000000000D+00  1.2092837995058D-04 -1.4591498108998D-04
245  2.4400000000000D+00  8.0301177601719D-05 -1.4605302699626D-05
246  2.4500000000000D+00  3.1082234848084D-05  1.0398022725102D-05
247  2.4600000000000D+00 -5.6206478205653D-06 -3.0145167158714D-06
248  2.4700000000000D+00 -1.4396405908490D-05 -1.0993745738545D-05
249  2.4800000000000D+00 -8.0708441288626D-06 -7.4644450082671D-06
250  2.4900000000000D+00  1.2672034037743D-06  3.1412783501557D-07
251  2.5000000000000D+00  3.2088316335970D-06  1.0645761808908D-06
252  2.5100000000000D+00  1.9110366626930D-06  7.6579989861590D-07
253  2.5200000000000D+00 -1.3821360348387D-07  2.0466198386287D-07
254  2.5300000000000D+00 -3.5480414165434D-07  5.2538185593444D-07
255  2.5400000000000D+00 -2.2262958969600D-07  3.2966229332902D-07
256  2.5500000000000D+00  0.0000000000000D+00  0.0000000000000D+00
257  2.5600000000000D+00  0.0000000000000D+00  0.0000000000000D+00
258  2.5700000000000D+00  0.0000000000000D+00  0.0000000000000D+00
259  2.5800000000000D+00  0.0000000000000D+00  0.0000000000000D+00
260  2.5900000000000D+00  0.0000000000000D+00  0.0000000000000D+00
261  2.6000000000000D+00  0.0000000000000D+00  0.0000000000000D+00
262  2.6100000000000D+00  0.0000000000000D+00  0.0000000000000D+00
263  2.6200000000000D+00  0.0000000000000D+00  0.0000000000000D+00
264  2.6300000000000D+00  0.0000000000000D+00  0.0000000000000D+00
265  2.6400000000000D+00  0.0000000000000D+00  0.0000000000000D+00
266  2.6500000000000D+00  0.0000000000000D+00  0.0000000000000D+00
267  2.6600000000000D+00  0.0000000000000D+00  0.0000000000000D+00
268  2.6700000000000D+00  0.0000000000000D+00  0.0000000000000D+00
269  2.6800000000000D+00  0.0000000000000D+00  0.0000000000000D+00
270  2.6900000000000D+00  0.0000000000000D+00  0.0000000000000D+00
271  2.7000000000000D+00  0.0000000000000D+00  0.0000000000000D+00
272  2.7100000000000D+00  0.0000000000000D+00  0.0000000000000D+00
273  2.7200000000000D+00  0.0000000000000D+00  0.0000000000000D+00
274  2.7300000000000D+00  0.0000000000000D+00  0.0000000000000D+00
275  2.7400000000000D+00  0.0000000000000D+00  0.0000000000000D+00
276  2.7500000000000D+00  0.0000000000000D+00  0.0000000000000D+00
277  2.7600000000000D+00  0.0000000000000D+00  0.0000000000000D+00
278  2.7700000000000D+00  0.0000000000000D+00  0.0000000000000D+00
279  2.7800000000000D+00  0.0000000000000D+00  0.0000000000000D+00
280  2.7900000000000D+00  0.0000000000000D+00  0.0000000000000D+00
281  2.8000000000000D+00  0.0000000000000D+00  0.0000000000000D+00
282  2.8100000000000D+00  0.0000000000000D+00  0.0000000000000D+00
283  2.8200000000000D+00  0.0000000000000D+00  0.0000000000000D+00
284  2.8300000000000D+00  0.0000000000000D+00  0.0000000000000D+00
285  2.8400000000000D+00  0.0000000000000D+00  0.0000000000000D+00
286  2.8500000000000D+00  0.0000000000000D+00  0.0000000000000D+00
287  2.8600000000000D+00  0.0000000000000D+00  0.0000000000000D+00
288  2.8700000000000D+00  0.0000000000000D+00  0.0000000000000D+00
289  2.8800000000000D+00  0.0000000000000D+00  0.0000000000000D+00
290  2.8900000000000D+00  0.0000000000000D+00  0.0000000000000D+00
291  2.9000000000000D+00  0.0000000000000D+00  0.0000000000000D+00
292  2.9100000000000D+00  0.0000000000000D+00  0.0000000000000D+00
293  2.9200000000000D+00  0.0000000000000D+00  0.0000000000000D+00
294  2.9300000000000D+00  0.0000000000000D+00  0.0000000000000D+00
295  2.9400000000000D+00  0.0000000000000D+00  0.0000000000000D+00
296  2.9500000000000D+00  0.0000000000000D+00  0.0000000000000D+00
297  2.9600000000000D+00  0.0000000000000D+00  0.0000000000000D+00
298  2.9700000000000D+00  0.0000000000000D+00  0.0000000000000D+00
299  2.9800000000000D+00  0.0000000000000D+00  0.0000000000000D+00
300  2.9900000000000D+00  0.0000000000000D+00  0.0000000000000D+00
301  3.0000000000000D+00  0.0000000000000D+00  0.0000000000000D+00
302  3.0100000000000D+00  0.0000000000000D+00  0.0000000000000D+00
303  3.0200000000000D+00  0.0000000000000D+00  0.0000000000000D+00
304  3.0300000000000D+00  0.0000000000000D+00  0.0000000000000D+00
305  3.0400000000000D+00  0.0000000000000D+00  0.0000000000000D+00
306  3.0500000000000D+00  0.0000000000000D+00  0.0000000000000D+00
307  3.0600000000000D+00  0.0000000000000D+00  0.0000000000000D+00
308  3.0700000000000D+00  0.0000000000000D+00  0.0000000000000D+00
309  3.0800000000000D+00  0.0000000000000D+00  0.0000000000000D+00
310  3.0900000000000D+00  0.0000000000000D+00  0.0000000000000D+00
311  3.1000000000000D+00  0.0000000000000D+00  0.0000000000000D+00
312  3.1100000000000D+00  0.0000000000000D+00  0.0000000000000D+00
313  3.1200000000000D+00  0.0000000000000D+00  0.0000000000000D+00
314  3.1300000000000D+00  0.0000000000000D+00  0.0000000000000D+00
315  3.1400000000000D+00  0.0000000000000D+00  0.0000000000000D+00
316  3.1500000000000D+00  0.0000000000000D+00  0.0000000000000D+00
317  3.1600000000000D+00  0.0000000000000D+00  0.0000000000000D+00
318  3.1700000000000D+00  0.0000000000000D+00  0.0000000000000D+00
319  3.1800000000000D+00  0.0000000000000D+00  0.0000000000000D+00
320  3.1900000000000D+00  0.0000000000000D+00  0.0000000000000D+00
321  3.2000000000000D+00  0.0000000000000D+00  0.0000000000000D+00
322  3.2100000000000D+00  0.0000000000000D+00  0.0000000000000D+00
323  3.2200000000000D+00  0.0000000000000D+00  0.0000000000000D+00
324  3.2300000000000D+00  0.0000000000000D+00  0.0000000000000D+00
325  3.2400000000000D+00  0.0000000000000D+00  0.0000000000000D+00
326  3.2500000000000D+00  0.0000000000000D+00  0.0000000000000D+00
327  3.2600000000000D+00  0.0000000000000D+00  0.0000000000000D+00
328  3.2700000000000D+00  0.0000000000000D+00  0.0000000000000D+00
329  3.2800000000000D+00  0.0000000000000D+00  0.0000000000000D+00
330  3.2900000000000D+00  0.0000000000000D+00  0.0000000000000D+00
331  3.3000000000000D+00  0.0000000000000D+00  0.0000000000000D+00
332  3.3100000000000D+00  0.0000000000000D+00  0.0000000000000D+00
333  3.3200000000000D+00  0.0000000000000D+00  0.0000000000000D+00
334  3.3300000000000D+00  0.0000000000000D+00  0.0000000000000D+00
335  3.3400000000000D+00  0.0000000000000D+00  0.0000000000000D+00
336  3.3500000000000D+00  0.0000000000000D+00  0.0000000000000D+00
337  3.3600000000000D+00  0.0000000000000D+00  0.0000000000000D+00
338  3.3700000000000D+00  0.0000000000000D+00  0.0000000000000D+00
339  3.3800000000000D+00  0.0000000000000D+00  0.0000000000000D+00
340  3.3900000000000D+00  0.0000000000000D+00  0.0000000000000D+00
341  3.4000000000000D+00  0.0000000000000D+00  0.0000000000000D+00
342  3.4100000000000D+00  0.0000000000000D+00  0.0000000000000D+00
343  3.4200000000000D+00  0.0000000000000D+00  0.0000000000000D+00
344  3.4300000000000D+00  0.0000000000000D+00  0.0000000000000D+00
345  3.4400000000000D+00  0.0000000000000D+00  0.0000000000000D+00
346  3.4500000000000D+00  0.0000000000000D+00  0.0000000000000D+00
347  3.4600000000000D+00  0.0000000000000D+00  0.0000000000000D+00
348  3.4700000000000D+00  0.0000000000000D+00  0.0000000000000D+00
349  3.4800000000000D+00  0.0000000000000D+00  0.0000000000000D+00
350  3.4900000000000D+00  0.0000000000000D+00  0.0000000000000D+00
351  3.5000000000000D+00  0.0000000000000D+00  0.0000000000000D+00
352  3.5100000000000D+00  0.0000000000000D+00  0.0000000000000D+00
353  3.5200000000000D+00  0.0000000000000D+00  0.0000000000000D+00
354  3.5300000000000D+00  0.0000000000000D+00  0.0000000000000D+00
355  3.5400000000000D+00  0.0000000000000D+00  0.0000000000000D+00
356  3.5500000000000D+00  0.0000000000000D+00  0.0000000000000D+00
357  3.5600000000000D+00  0.0000000000000D+00  0.0000000000000D+00
358  3.5700000000000D+00  0.0000000000000D+00  0.0000000000000D+00
359  3.5800000000000D+00  0.0000000000000D+00  0.0000000000000D+00
360  3.5900000000000D+00  0.0000000000000D+00  0.0000000000000D+00
361  3.6000000000000D+00  0.0000000000000D+00  0.0000000000000D+00
362  3.6100000000000D+00  0.0000000000000D+00  0.0000000000000D+00
363  3.6200000000000D+00  0.0000000000000D+00  0.0000000000000D+00
364  3.6300000000000D+00  0.0000000000000D+00  0.0000000000000D+00
365  3.6400000000000D+00  0.0000000000000D+00  0.0000000000000D+00
366  3.6500000000000D+00  0.0000000000000D+00  0.0000000000000D+00
367  3.6600000000000D+00  0.0000000000000D+00  0.0000000000000D+00
368  3.6700000000000D+00  0.0000000000000D+00  0.0000000000000D+00
369  3.6800000000000D+00  0.0000000000000D+00  0.0000000000000D+00
370  3.6900000000000D+00  0.0000000000000D+00  0.0000000000000D+00
371  3.7000000000000D+00  0.0000000000000D+00  0.0000000000000D+00
372  3.7100000000000D+00  0.0000000000000D+00  0.0000000000000D+00
373  3.7200000000000D+00  0.0000000000000D+00  0.0000000000000D+00
374  3.7300000000000D+00  0.0000000000000D+00  0.0000000000000D+00
375  3.7400000000000D+00  0.0000000000000D+00  0.0000000000000D+00
376  3.7500000000000D+00  0.0000000000000D+00  0.0000000000000D+00
377  3.7600000000000D+00  0.0000000000000D+00  0.0000000000000D+00
378  3.7700000000000D+00  0.0000000000000D+00  0.0000000000000D+00
379  3.7800000000000D+00  0.0000000000000D+00  0.0000000000000D+00
380  3.7900000000000D+00  0.0000000000000D+00  0.0000000000000D+00
381  3.8000000000000D+00  0.0000000000000D+00  0.0000000000000D+00
382  3.8100000000000D+00  0.0000000000000D+00  0.0000000000000D+00
383  3.8200000000000D+00  0.0000000000000D+00  0.0000000000000D+00
384  3.8300000000000D+00  0.0000000000000D+00  0.0000000000000D+00
385  3.8400000000000D+00  0.0000000000000D+00  0.0000000000000D+00
386  3.8500000000000D+00  0.0000000000000D+00  0.0000000000000D+00
387  3.8600000000000D+00  0.0000000000000D+00  0.0000000000000D+00
388  3.8700000000000D+00  0.0000000000000D+00  0.0000000000000D+00
389  3.8800000000000D+00  0.0000000000000D+00  0.0000000000000D+00
390  3.8900000000000D+00  0.0000000000000D+00  0.0000000000000D+00
391  3.9000000000000D+00  0.0000000000000D+00  0.0000000000000D+00
392  3.9100000000000D+00  0.0000000000000D+00  0.0000000000000D+00
393  3.9200000000000D+00  0.0000000000000D+00  0.0000000000000D+00
394  3.9300000000000D+00  0.0000000000000D+00  0.0000000000000D+00
395  3.9400000000000D+00  0.0000000000000D+00  0.0000000000000D+00
396  3.9500000000000D+00  0.0000000000000D+00  0.0000000000000D+00
397  3.9600000000000D+00  0.0000000000000D+00  0.0000000000000D+00
398  3.9700000000000D+00  0.0000000000000D+00  0.0000000000000D+00
399  3.9800000000000D+00  0.0000000000000D+00  0.0000000000000D+00
400  3.9900000000000D+00  0.0000000000000D+00  0.0000000000000D+00
401  4.0000000000000D+00  0.0000000000000D+00  0.0000000000000D+00
402  4.0100000000000D+00  0.0000000000000D+00  0.0000000000000D+00
403  4.0200000000000D+00  0.0000000000000D+00  0.0000000000000D+00
404  4.0300000000000D+00  0.0000000000000D+00  0.0000000000000D+00
405  4.0400000000000D+00  0.0000000000000D+00  0.0000000000000D+00
406  4.0500000000000D+00  0.0000000000000D+00  0.0000000000000D+00
407  4.0600000000000D+00  0.0000000000000D+00  0.0000000000000D+00
408  4.0700000000000D+00  0.0000000000000D+00  0.0000000000000D+00
409  4.0800000000000D+00  0.0000000000000D+00  0.0000000000000D+00
410  4.0900000000000D+00  0.0000000000000D+00  0.0000000000000D+00
411  4.1000000000000D+00  0.0000000000000D+00  0.0000000000000D+00
412  4.1100000000000D+00  0.0000000000000D+00  0.0000000000000D+00
413  4.1200000000000D+00  0.0000000000000D+00  0.0000000000000D+00
414  4.1300000000000D+00  0.0000000000000D+00  0.0000000000000D+00
415  4.1400000000000D+00  0.0000000000000D+00  0.0000000000000D+00
416  4.1500000000000D+00  0.0000000000000D+00  0.0000000000000D+00
417  4.1600000000000D+00  0.0000000000000D+00  0.0000000000000D+00
418  4.1700000000000D+00  0.0000000000000D+00  0.0000000000000D+00
419  4.1800000000000D+00  0.0000000000000D+00  0.0000000000000D+00
420  4.1900000000000D+00  0.0000000000000D+00  0.0000000000000D+00
421  4.2000000000000D+00  0.0000000000000D+00  0.0000000000000D+00
422  4.2100000000000D+00  0.0000000000000D+00  0.0000000000000D+00
423  4.2200000000000D+00  0.0000000000000D+00  0.0000000000000D+00
424  4.2300000000000D+00  0.0000000000000D+00  0.0000000000000D+00
425  4.2400000000000D+00  0.0000000000000D+00  0.0000000000000D+00
426  4.2500000000000D+00  0.0000000000000D+00  0.0000000000000D+00
427  4.2600000000000D+00  0.0000000000000D+00  0.0000000000000D+00
428  4.2700000000000D+00  0.0000000000000D+00  0.0000000000000D+00
429  4.2800000000000D+00  0.0000000000000D+00  0.0000000000000D+00
430  4.2900000000000D+00  0.0000000000000D+00  0.0000000000000D+00
431  4.3000000000000D+00  0.0000000000000D+00  0.0000000000000D+00
432  4.3100000000000D+00  0.0000000000000D+00  0.0000000000000D+00
433  4.3200000000000D+00  0.0000000000000D+00  0.0000000000000D+00
434  4.3300000000000D+00  0.0000000000000D+00  0.0000000000000D+00
435  4.3400000000000D+00  0.0000000000000D+00  0.0000000000000D+00
436  4.3500000000000D+00  0.0000000000000D+00  0.0000000000000D+00
437  4.3600000000000D+00  0.0000000000000D+00  0.0000000000000D+00
438  4.3700000000000D+00  0.0000000000000D+00  0.0000000000000D+00
439  4.3800000000000D+00  0.0000000000000D+00  0.0000000000000D+00
440  4.3900000000000D+00  0.0000000000000D+00  0.0000000000000D+00
441  4.4000000000000D+00  0.0000000000000D+00  0.0000000000000D+00
442  4.4100000000000D+00  0.0000000000000D+00  0.0000000000000D+00
443  4.4200000000000D+00  0.0000000000000D+00  0.0000000000000D+00