
.Version 9.0.0 of ABINIT 
.(MPI version, prepared for a x86_64_linux_gnu9.2 computer) 

.Copyright (C) 1998-2020 ABINIT group . 
 ABINIT comes with ABSOLUTELY NO WARRANTY.
 It is free software, and you are welcome to redistribute it
 under certain conditions (GNU General Public License,
 see ~abinit/COPYING or http://www.gnu.org/copyleft/gpl.txt).

 ABINIT is a project of the Universite Catholique de Louvain,
 Corning Inc. and other collaborators, see ~abinit/doc/developers/contributors.txt .
 Please read https://docs.abinit.org/theory/acknowledgments for suggested
 acknowledgments of the ABINIT effort.
 For more information, see https://www.abinit.org .

.Starting date : Mon 24 Feb 2020.
- ( at 16h14 )
  
- input  file    -> /home/gmatteo/git_repos/abinit/_abiref_gnu9.2_openmpi/tests/Test_suite/v1_t40/t40.in
- output file    -> t40.out
- root for input  files -> t40i
- root for output files -> t40o

================================================================================

--ingeobld: echo values of variables connected to objects --------

 vacnum        1
 vaclst   1
 
   nobj        1
 
  objan        8
 objaat   1  2  3  4  5  6  7  8
 objarf   2  2  2
 objaro    0.000000000       0.000000000       0.000000000    
           0.000000000    
 objatr    0.000000000       0.000000000       0.000000000    
           6.800000000       0.000000000       0.000000000    
           0.000000000       6.800000000       0.000000000    
           0.000000000       0.000000000       6.800000000    

 Cartesian coordinates of the primitive atoms 
           0.000000000       0.000000000       0.000000000    
           1.700000000       1.700000000       1.700000000    
           3.400000000       3.400000000       0.000000000    
           3.400000000       0.000000000       3.400000000    
           0.000000000       3.400000000       3.400000000    
           5.100000000       5.100000000       1.700000000    
           5.100000000       1.700000000       5.100000000    
           1.700000000       5.100000000       5.100000000    

 Symmetries : space group P2 2 2 (# 16); Bravais oP (primitive ortho.)
================================================================================
 Values of the parameters that define the memory need of the present run
     intxc =       1    ionmov =       0      iscf =       7    lmnmax =       1
     lnmax =       1     mgfft =      40  mpssoang =       2    mqgrid =    3001
     natom =      63  nloc_mem =       1    nspden =       1   nspinor =       1
    nsppol =       1      nsym =       4    n1xccc =    2501    ntypat =       1
    occopt =       1   xclevel =       1
-    mband =         130        mffmem =           1         mkmem =           1
       mpw =        3824          nfft =       64000          nkpt =           1
================================================================================
P This job should need less than                      28.304 Mbytes of memory.
P Max. in main chain + fourwf.f
P            6 blocks of mpw  integer numbers, for      0.088 Mbytes.
P          297 blocks of mpw  real(dp)  numbers, for      8.665 Mbytes.
P            2 blocks of nfft integer numbers, for      0.488 Mbytes.
P           35 blocks of nfft real(dp)  numbers, for     17.090 Mbytes.
P              Additional     integer numbers, for      0.004 Mbytes.
P              Additional     real(dp)  numbers, for      1.375 Mbytes.
P              With residue estimated to be             0.595 Mbytes.
P
P Comparison of the memory needs of different chains
P Main chain + fourwf.f                28.304 Mbytes.
P Main chain + nonlop.f + opernl.f     26.368 Mbytes.
P XC chain                             26.344 Mbytes.
P mkrho chain                          24.011 Mbytes.
P fourdp chain                         23.953 Mbytes.
- parallel k-point chain               22.881 Mbytes.
P newvtr chain                         23.853 Mbytes.
  Rough estimation (10% accuracy) of disk space for files :
_ WF disk file :      7.587 Mbytes ; DEN or POT disk file :      0.490 Mbytes.
================================================================================

--------------------------------------------------------------------------------
------------- Echo of variables that govern the present computation ------------
--------------------------------------------------------------------------------
-
- outvars: echo of selected default values                                      
-   iomode0 =  0 , fftalg0 =312 , wfoptalg0 =  0
-
- outvars: echo of global parameters not present in the input file              
-  max_nthreads =    0
-
 -outvars: echo values of preprocessed input variables --------
            acell      1.3600000000E+01  1.3600000000E+01  1.3600000000E+01 Bohr
              amu      1.20110000E+01
           diemac      1.00000000E+00
           diemix      3.33333333E-01
             ecut      1.00000000E+01 Hartree
           enunit           2
-          fftalg         312
            intxc           1
              kpt      1.00000000E+00  1.00000000E+00  1.00000000E+00
           kptnrm      4.00000000E+00
           kptopt           0
P           mkmem           1
            natom          63
            nband         130
            ngfft          40      40      40
             nkpt           1
            nline           1
           nnsclo           1
            nstep           1
             nsym           4
           ntypat           1
              occ      2.000000  2.000000  2.000000  2.000000  2.000000  2.000000
                       2.000000  2.000000  2.000000  2.000000  2.000000  2.000000
                       2.000000  2.000000  2.000000  2.000000  2.000000  2.000000
                       2.000000  2.000000  2.000000  2.000000  2.000000  2.000000
                       2.000000  2.000000  2.000000  2.000000  2.000000  2.000000
                       2.000000  2.000000  2.000000  2.000000  2.000000  2.000000
                       2.000000  2.000000  2.000000  2.000000  2.000000  2.000000
                       2.000000  2.000000  2.000000  2.000000  2.000000  2.000000
                       2.000000  2.000000  2.000000  2.000000  2.000000  2.000000
                       2.000000  2.000000  2.000000  2.000000  2.000000  2.000000
                       2.000000  2.000000  2.000000  2.000000  2.000000  2.000000
                       2.000000  2.000000  2.000000  2.000000  2.000000  2.000000
                       2.000000  2.000000  2.000000  2.000000  2.000000  2.000000
                       2.000000  2.000000  2.000000  2.000000  2.000000  2.000000
                       2.000000  2.000000  2.000000  2.000000  2.000000  2.000000
                       2.000000  2.000000  2.000000  2.000000  2.000000  2.000000
                       2.000000  2.000000  2.000000  2.000000  2.000000  2.000000
                       2.000000  2.000000  2.000000  2.000000  2.000000  2.000000
                       2.000000  2.000000  2.000000  2.000000  2.000000  2.000000
                       2.000000  2.000000  2.000000  2.000000  2.000000  2.000000
                       2.000000  2.000000  2.000000  2.000000  2.000000  2.000000
                       0.000000  0.000000  0.000000  0.000000
           ortalg          -2
           prtden           0
           prteig           0
           prtvol          10
            prtwf           0
          spgroup          16
           symrel      1  0  0   0  1  0   0  0  1      -1  0  0   0 -1  0   0  0  1
                      -1  0  0   0  1  0   0  0 -1       1  0  0   0 -1  0   0  0 -1
           toldfe      1.00000000E-06 Hartree
            typat      1  1  1  1  1  1  1  1  1  1  1  1  1  1  1  1  1  1  1  1
                       1  1  1  1  1  1  1  1  1  1  1  1  1  1  1  1  1  1  1  1
                       1  1  1  1  1  1  1  1  1  1  1  1  1  1  1  1  1  1  1  1
                       1  1  1
           xangst      3.5984050184E+00  0.0000000000E+00  0.0000000000E+00
                       0.0000000000E+00  3.5984050184E+00  0.0000000000E+00
                       3.5984050184E+00  3.5984050184E+00  0.0000000000E+00
                       0.0000000000E+00  0.0000000000E+00  3.5984050184E+00
                       3.5984050184E+00  0.0000000000E+00  3.5984050184E+00
                       0.0000000000E+00  3.5984050184E+00  3.5984050184E+00
                       3.5984050184E+00  3.5984050184E+00  3.5984050184E+00
                       8.9960125460E-01  8.9960125460E-01  8.9960125460E-01
                       4.4980062730E+00  8.9960125460E-01  8.9960125460E-01
                       8.9960125460E-01  4.4980062730E+00  8.9960125460E-01
                       4.4980062730E+00  4.4980062730E+00  8.9960125460E-01
                       8.9960125460E-01  8.9960125460E-01  4.4980062730E+00
                       4.4980062730E+00  8.9960125460E-01  4.4980062730E+00
                       8.9960125460E-01  4.4980062730E+00  4.4980062730E+00
                       4.4980062730E+00  4.4980062730E+00  4.4980062730E+00
                       1.7992025092E+00  1.7992025092E+00  0.0000000000E+00
                       5.3976075276E+00  1.7992025092E+00  0.0000000000E+00
                       1.7992025092E+00  5.3976075276E+00  0.0000000000E+00
                       5.3976075276E+00  5.3976075276E+00  0.0000000000E+00
                       1.7992025092E+00  1.7992025092E+00  3.5984050184E+00
                       5.3976075276E+00  1.7992025092E+00  3.5984050184E+00
                       1.7992025092E+00  5.3976075276E+00  3.5984050184E+00
                       5.3976075276E+00  5.3976075276E+00  3.5984050184E+00
                       1.7992025092E+00  0.0000000000E+00  1.7992025092E+00
                       5.3976075276E+00  0.0000000000E+00  1.7992025092E+00
                       1.7992025092E+00  3.5984050184E+00  1.7992025092E+00
                       5.3976075276E+00  3.5984050184E+00  1.7992025092E+00
                       1.7992025092E+00  0.0000000000E+00  5.3976075276E+00
                       5.3976075276E+00  0.0000000000E+00  5.3976075276E+00
                       1.7992025092E+00  3.5984050184E+00  5.3976075276E+00
                       5.3976075276E+00  3.5984050184E+00  5.3976075276E+00
                       0.0000000000E+00  1.7992025092E+00  1.7992025092E+00
                       3.5984050184E+00  1.7992025092E+00  1.7992025092E+00
                       0.0000000000E+00  5.3976075276E+00  1.7992025092E+00
                       3.5984050184E+00  5.3976075276E+00  1.7992025092E+00
                       0.0000000000E+00  1.7992025092E+00  5.3976075276E+00
                       3.5984050184E+00  1.7992025092E+00  5.3976075276E+00
                       0.0000000000E+00  5.3976075276E+00  5.3976075276E+00
                       3.5984050184E+00  5.3976075276E+00  5.3976075276E+00
                       2.6988037638E+00  2.6988037638E+00  8.9960125460E-01
                       6.2972087822E+00  2.6988037638E+00  8.9960125460E-01
                       2.6988037638E+00  6.2972087822E+00  8.9960125460E-01
                       6.2972087822E+00  6.2972087822E+00  8.9960125460E-01
                       2.6988037638E+00  2.6988037638E+00  4.4980062730E+00
                       6.2972087822E+00  2.6988037638E+00  4.4980062730E+00
                       2.6988037638E+00  6.2972087822E+00  4.4980062730E+00
                       6.2972087822E+00  6.2972087822E+00  4.4980062730E+00
                       2.6988037638E+00  8.9960125460E-01  2.6988037638E+00
                       6.2972087822E+00  8.9960125460E-01  2.6988037638E+00
                       2.6988037638E+00  4.4980062730E+00  2.6988037638E+00
                       6.2972087822E+00  4.4980062730E+00  2.6988037638E+00
                       2.6988037638E+00  8.9960125460E-01  6.2972087822E+00
                       6.2972087822E+00  8.9960125460E-01  6.2972087822E+00
                       2.6988037638E+00  4.4980062730E+00  6.2972087822E+00
                       6.2972087822E+00  4.4980062730E+00  6.2972087822E+00
                       8.9960125460E-01  2.6988037638E+00  2.6988037638E+00
                       4.4980062730E+00  2.6988037638E+00  2.6988037638E+00
                       8.9960125460E-01  6.2972087822E+00  2.6988037638E+00
                       4.4980062730E+00  6.2972087822E+00  2.6988037638E+00
                       8.9960125460E-01  2.6988037638E+00  6.2972087822E+00
                       4.4980062730E+00  2.6988037638E+00  6.2972087822E+00
                       8.9960125460E-01  6.2972087822E+00  6.2972087822E+00
                       4.4980062730E+00  6.2972087822E+00  6.2972087822E+00
            xcart      6.8000000000E+00  0.0000000000E+00  0.0000000000E+00
                       0.0000000000E+00  6.8000000000E+00  0.0000000000E+00
                       6.8000000000E+00  6.8000000000E+00  0.0000000000E+00
                       0.0000000000E+00  0.0000000000E+00  6.8000000000E+00
                       6.8000000000E+00  0.0000000000E+00  6.8000000000E+00
                       0.0000000000E+00  6.8000000000E+00  6.8000000000E+00
                       6.8000000000E+00  6.8000000000E+00  6.8000000000E+00
                       1.7000000000E+00  1.7000000000E+00  1.7000000000E+00
                       8.5000000000E+00  1.7000000000E+00  1.7000000000E+00
                       1.7000000000E+00  8.5000000000E+00  1.7000000000E+00
                       8.5000000000E+00  8.5000000000E+00  1.7000000000E+00
                       1.7000000000E+00  1.7000000000E+00  8.5000000000E+00
                       8.5000000000E+00  1.7000000000E+00  8.5000000000E+00
                       1.7000000000E+00  8.5000000000E+00  8.5000000000E+00
                       8.5000000000E+00  8.5000000000E+00  8.5000000000E+00
                       3.4000000000E+00  3.4000000000E+00  0.0000000000E+00
                       1.0200000000E+01  3.4000000000E+00  0.0000000000E+00
                       3.4000000000E+00  1.0200000000E+01  0.0000000000E+00
                       1.0200000000E+01  1.0200000000E+01  0.0000000000E+00
                       3.4000000000E+00  3.4000000000E+00  6.8000000000E+00
                       1.0200000000E+01  3.4000000000E+00  6.8000000000E+00
                       3.4000000000E+00  1.0200000000E+01  6.8000000000E+00
                       1.0200000000E+01  1.0200000000E+01  6.8000000000E+00
                       3.4000000000E+00  0.0000000000E+00  3.4000000000E+00
                       1.0200000000E+01  0.0000000000E+00  3.4000000000E+00
                       3.4000000000E+00  6.8000000000E+00  3.4000000000E+00
                       1.0200000000E+01  6.8000000000E+00  3.4000000000E+00
                       3.4000000000E+00  0.0000000000E+00  1.0200000000E+01
                       1.0200000000E+01  0.0000000000E+00  1.0200000000E+01
                       3.4000000000E+00  6.8000000000E+00  1.0200000000E+01
                       1.0200000000E+01  6.8000000000E+00  1.0200000000E+01
                       0.0000000000E+00  3.4000000000E+00  3.4000000000E+00
                       6.8000000000E+00  3.4000000000E+00  3.4000000000E+00
                       0.0000000000E+00  1.0200000000E+01  3.4000000000E+00
                       6.8000000000E+00  1.0200000000E+01  3.4000000000E+00
                       0.0000000000E+00  3.4000000000E+00  1.0200000000E+01
                       6.8000000000E+00  3.4000000000E+00  1.0200000000E+01
                       0.0000000000E+00  1.0200000000E+01  1.0200000000E+01
                       6.8000000000E+00  1.0200000000E+01  1.0200000000E+01
                       5.1000000000E+00  5.1000000000E+00  1.7000000000E+00
                       1.1900000000E+01  5.1000000000E+00  1.7000000000E+00
                       5.1000000000E+00  1.1900000000E+01  1.7000000000E+00
                       1.1900000000E+01  1.1900000000E+01  1.7000000000E+00
                       5.1000000000E+00  5.1000000000E+00  8.5000000000E+00
                       1.1900000000E+01  5.1000000000E+00  8.5000000000E+00
                       5.1000000000E+00  1.1900000000E+01  8.5000000000E+00
                       1.1900000000E+01  1.1900000000E+01  8.5000000000E+00
                       5.1000000000E+00  1.7000000000E+00  5.1000000000E+00
                       1.1900000000E+01  1.7000000000E+00  5.1000000000E+00
                       5.1000000000E+00  8.5000000000E+00  5.1000000000E+00
                       1.1900000000E+01  8.5000000000E+00  5.1000000000E+00
                       5.1000000000E+00  1.7000000000E+00  1.1900000000E+01
                       1.1900000000E+01  1.7000000000E+00  1.1900000000E+01
                       5.1000000000E+00  8.5000000000E+00  1.1900000000E+01
                       1.1900000000E+01  8.5000000000E+00  1.1900000000E+01
                       1.7000000000E+00  5.1000000000E+00  5.1000000000E+00
                       8.5000000000E+00  5.1000000000E+00  5.1000000000E+00
                       1.7000000000E+00  1.1900000000E+01  5.1000000000E+00
                       8.5000000000E+00  1.1900000000E+01  5.1000000000E+00
                       1.7000000000E+00  5.1000000000E+00  1.1900000000E+01
                       8.5000000000E+00  5.1000000000E+00  1.1900000000E+01
                       1.7000000000E+00  1.1900000000E+01  1.1900000000E+01
                       8.5000000000E+00  1.1900000000E+01  1.1900000000E+01
             xred      5.0000000000E-01  0.0000000000E+00  0.0000000000E+00
                       0.0000000000E+00  5.0000000000E-01  0.0000000000E+00
                       5.0000000000E-01  5.0000000000E-01  0.0000000000E+00
                       0.0000000000E+00  0.0000000000E+00  5.0000000000E-01
                       5.0000000000E-01  0.0000000000E+00  5.0000000000E-01
                       0.0000000000E+00  5.0000000000E-01  5.0000000000E-01
                       5.0000000000E-01  5.0000000000E-01  5.0000000000E-01
                       1.2500000000E-01  1.2500000000E-01  1.2500000000E-01
                       6.2500000000E-01  1.2500000000E-01  1.2500000000E-01
                       1.2500000000E-01  6.2500000000E-01  1.2500000000E-01
                       6.2500000000E-01  6.2500000000E-01  1.2500000000E-01
                       1.2500000000E-01  1.2500000000E-01  6.2500000000E-01
                       6.2500000000E-01  1.2500000000E-01  6.2500000000E-01
                       1.2500000000E-01  6.2500000000E-01  6.2500000000E-01
                       6.2500000000E-01  6.2500000000E-01  6.2500000000E-01
                       2.5000000000E-01  2.5000000000E-01  0.0000000000E+00
                       7.5000000000E-01  2.5000000000E-01  0.0000000000E+00
                       2.5000000000E-01  7.5000000000E-01  0.0000000000E+00
                       7.5000000000E-01  7.5000000000E-01  0.0000000000E+00
                       2.5000000000E-01  2.5000000000E-01  5.0000000000E-01
                       7.5000000000E-01  2.5000000000E-01  5.0000000000E-01
                       2.5000000000E-01  7.5000000000E-01  5.0000000000E-01
                       7.5000000000E-01  7.5000000000E-01  5.0000000000E-01
                       2.5000000000E-01  0.0000000000E+00  2.5000000000E-01
                       7.5000000000E-01  0.0000000000E+00  2.5000000000E-01
                       2.5000000000E-01  5.0000000000E-01  2.5000000000E-01
                       7.5000000000E-01  5.0000000000E-01  2.5000000000E-01
                       2.5000000000E-01  0.0000000000E+00  7.5000000000E-01
                       7.5000000000E-01  0.0000000000E+00  7.5000000000E-01
                       2.5000000000E-01  5.0000000000E-01  7.5000000000E-01
                       7.5000000000E-01  5.0000000000E-01  7.5000000000E-01
                       0.0000000000E+00  2.5000000000E-01  2.5000000000E-01
                       5.0000000000E-01  2.5000000000E-01  2.5000000000E-01
                       0.0000000000E+00  7.5000000000E-01  2.5000000000E-01
                       5.0000000000E-01  7.5000000000E-01  2.5000000000E-01
                       0.0000000000E+00  2.5000000000E-01  7.5000000000E-01
                       5.0000000000E-01  2.5000000000E-01  7.5000000000E-01
                       0.0000000000E+00  7.5000000000E-01  7.5000000000E-01
                       5.0000000000E-01  7.5000000000E-01  7.5000000000E-01
                       3.7500000000E-01  3.7500000000E-01  1.2500000000E-01
                       8.7500000000E-01  3.7500000000E-01  1.2500000000E-01
                       3.7500000000E-01  8.7500000000E-01  1.2500000000E-01
                       8.7500000000E-01  8.7500000000E-01  1.2500000000E-01
                       3.7500000000E-01  3.7500000000E-01  6.2500000000E-01
                       8.7500000000E-01  3.7500000000E-01  6.2500000000E-01
                       3.7500000000E-01  8.7500000000E-01  6.2500000000E-01
                       8.7500000000E-01  8.7500000000E-01  6.2500000000E-01
                       3.7500000000E-01  1.2500000000E-01  3.7500000000E-01
                       8.7500000000E-01  1.2500000000E-01  3.7500000000E-01
                       3.7500000000E-01  6.2500000000E-01  3.7500000000E-01
                       8.7500000000E-01  6.2500000000E-01  3.7500000000E-01
                       3.7500000000E-01  1.2500000000E-01  8.7500000000E-01
                       8.7500000000E-01  1.2500000000E-01  8.7500000000E-01
                       3.7500000000E-01  6.2500000000E-01  8.7500000000E-01
                       8.7500000000E-01  6.2500000000E-01  8.7500000000E-01
                       1.2500000000E-01  3.7500000000E-01  3.7500000000E-01
                       6.2500000000E-01  3.7500000000E-01  3.7500000000E-01
                       1.2500000000E-01  8.7500000000E-01  3.7500000000E-01
                       6.2500000000E-01  8.7500000000E-01  3.7500000000E-01
                       1.2500000000E-01  3.7500000000E-01  8.7500000000E-01
                       6.2500000000E-01  3.7500000000E-01  8.7500000000E-01
                       1.2500000000E-01  8.7500000000E-01  8.7500000000E-01
                       6.2500000000E-01  8.7500000000E-01  8.7500000000E-01
            znucl        6.00000

================================================================================

 chkinp: Checking input parameters for consistency.

================================================================================
== DATASET  1 ==================================================================
-   mpi_nproc: 1, omp_nthreads: -1 (-1 if OMP is not activated)


--- !DatasetInfo
iteration_state: {dtset: 1, }
dimensions: {natom: 63, nkpt: 1, mband: 130, nsppol: 1, nspinor: 1, nspden: 1, mpw: 3824, }
cutoff_energies: {ecut:  10.0, pawecutdg:  -1.0, }
electrons: {nelect:   2.52000000E+02, charge:   0.00000000E+00, occopt:   1.00000000E+00, tsmear:   1.00000000E-02, }
meta: {optdriver: 0, ionmov: 0, optcell: 0, iscf: 7, paral_kgb: 0, }
...

 Exchange-correlation functional for the present dataset will be:
  LDA: new Teter (4/93) with spin-polarized option - ixc=1
 Citation for XC functional:
  S. Goedecker, M. Teter, J. Huetter, PRB 54, 1703 (1996)

 Real(R)+Recip(G) space primitive vectors, cartesian coordinates (Bohr,Bohr^-1):
 R(1)= 13.6000000  0.0000000  0.0000000  G(1)=  0.0735294  0.0000000  0.0000000
 R(2)=  0.0000000 13.6000000  0.0000000  G(2)=  0.0000000  0.0735294  0.0000000
 R(3)=  0.0000000  0.0000000 13.6000000  G(3)=  0.0000000  0.0000000  0.0735294
 Unit cell volume ucvol=  2.5154560E+03 bohr^3
 Angles (23,13,12)=  9.00000000E+01  9.00000000E+01  9.00000000E+01 degrees

 getcut: wavevector=  0.0000  0.0000  0.0000  ngfft=  40  40  40
         ecut(hartree)=     10.000   => boxcut(ratio)=   2.06612

--- Pseudopotential description ------------------------------------------------
- pspini: atom type   1  psp file is /home/gmatteo/git_repos/abinit/tests/Psps_for_tests/6c.pspnc
- pspatm: opening atomic psp file    /home/gmatteo/git_repos/abinit/tests/Psps_for_tests/6c.pspnc
-  Troullier-Martins psp for element  C         Thu Oct 27 17:29:33 EDT 1994
-  6.00000   4.00000    940714                znucl, zion, pspdat
    1    1    1    1      2001   0.00000      pspcod,pspxc,lmax,lloc,mmax,r2well
    0  10.372  24.987    1   1.4850707        l,e99.0,e99.9,nproj,rcpsp
   0.00000000   0.00000000   0.00000000   0.00000000     rms, ekb1, ekb2, epsatm
    1  15.431  21.987    0   1.4850707        l,e99.0,e99.9,nproj,rcpsp
   0.00000000   0.00000000   0.00000000   0.00000000     rms, ekb1, ekb2, epsatm
    0.83985002509544    0.99012430797080    0.51184907750884   rchrg,fchrg,qchrg
  pspatm : epsatm=    0.92590353
         --- l  ekb(1:nproj) -->
             0    4.921466
 pspatm: atomic psp has been read  and splines computed

   1.46996444E+04                                ecore*ucvol(ha*bohr**3)
--------------------------------------------------------------------------------

P newkpt: treating    130 bands with npw=    3824 for ikpt=   1 by node    0
_setup2: Arith. and geom. avg. npw (full set) are    3824.000    3824.000

================================================================================

--- !BeginCycle
iteration_state: {dtset: 1, }
solver: {iscf: 7, nstep: 1, nline: 1, wfoptalg: 0, }
tolerances: {toldfe: 1.00E-06, }
...

     iter   Etot(hartree)      deltaE(h)  residm     vres2

 ETOT  1  -331.01273288484    -3.310E+02 6.524E-01 1.417E+03

 Fermi (or HOMO) energy (hartree) =   0.88199   Average Vxc (hartree)=  -0.51750
 Eigenvalues (hartree) for nkpt=   1  k points:
 kpt#   1, nband=130, wtk=  1.00000, kpt=  0.2500  0.2500  0.2500 (reduced coord)
  -0.29143   -0.25392   -0.24839   -0.23704   -0.20405   -0.20231   -0.19524   -0.16331
  -0.15966   -0.15384   -0.14697   -0.13222   -0.12919   -0.12781   -0.12019   -0.11712
  -0.10867   -0.09851   -0.08997   -0.08158   -0.06175   -0.05536   -0.04754   -0.04176
  -0.03789   -0.03364   -0.02474   -0.01714   -0.01436   -0.01069   -0.00401    0.02217
   0.06161    0.06450    0.07086    0.08295    0.08674    0.09045    0.09509    0.09732
   0.09849    0.10355    0.10749    0.11327    0.11958    0.12097    0.13976    0.15487
   0.15735    0.16487    0.16831    0.17407    0.18457    0.21217    0.22549    0.23312
   0.23736    0.24020    0.24280    0.24681    0.24981    0.25979    0.26340    0.26631
   0.27295    0.28454    0.28660    0.29112    0.29584    0.30294    0.30818    0.31413
   0.31901    0.32591    0.32964    0.33453    0.33995    0.34262    0.34747    0.35469
   0.36408    0.36765    0.37243    0.37552    0.38392    0.39025    0.39815    0.40488
   0.41306    0.42715    0.43268    0.43983    0.44512    0.45712    0.46478    0.47036
   0.48895    0.50220    0.50897    0.51902    0.52917    0.54266    0.55423    0.56034
   0.58168    0.59473    0.60473    0.61898    0.62231    0.64800    0.65291    0.67428
   0.69091    0.70065    0.72294    0.73951    0.75871    0.76552    0.77902    0.79619
   0.80865    0.83058    0.84249    0.85376    0.87002    0.88199    0.90216    0.93943
   0.95632    0.96522
 Fermi (or HOMO) energy (eV) =  24.00025   Average Vxc (eV)= -14.08182
 Eigenvalues (   eV  ) for nkpt=   1  k points:
 kpt#   1, nband=130, wtk=  1.00000, kpt=  0.2500  0.2500  0.2500 (reduced coord)
  -7.93033   -6.90955   -6.75909   -6.45010   -5.55252   -5.50502   -5.31275   -4.44399
  -4.34457   -4.18623   -3.99935   -3.59786   -3.51540   -3.47788   -3.27066   -3.18710
  -2.95694   -2.68070   -2.44824   -2.21994   -1.68037   -1.50646   -1.29368   -1.13639
  -1.03102   -0.91543   -0.67329   -0.46646   -0.39075   -0.29099   -0.10908    0.60330
   1.67646    1.75526    1.92809    2.25707    2.36029    2.46120    2.58750    2.64824
   2.68013    2.81767    2.92496    3.08212    3.25389    3.29175    3.80315    4.21418
   4.28161    4.48625    4.57990    4.73673    5.02228    5.77347    6.13587    6.34359
   6.45891    6.53613    6.60692    6.71600    6.79780    7.06918    7.16737    7.24656
   7.42738    7.74274    7.79865    7.92171    8.05014    8.24345    8.38596    8.54788
   8.68066    8.86859    8.96993    9.10306    9.25054    9.32323    9.45509    9.65147
   9.90700   10.00440   10.13429   10.21837   10.44692   10.61928   10.83419   11.01747
  11.23986   11.62345   11.77376   11.96849   12.11224   12.43889   12.64725   12.79911
  13.30511   13.66563   13.84969   14.12329   14.39949   14.76644   15.08150   15.24760
  15.82844   16.18340   16.45545   16.84334   16.93384   17.63304   17.76649   18.34810
  18.80059   19.06562   19.67216   20.12304   20.64557   20.83097   21.19822   21.66544
  22.00446   22.60120   22.92532   23.23188   23.67439   24.00025   24.54915   25.56323
  26.02289   26.26500

 Cartesian components of stress tensor (hartree/bohr^3)
  sigma(1 1)= -1.91722259E-03  sigma(3 2)=  0.00000000E+00
  sigma(2 2)= -2.00940022E-03  sigma(3 1)=  0.00000000E+00
  sigma(3 3)= -1.85200967E-03  sigma(2 1)=  0.00000000E+00


 scprqt:  WARNING -
  nstep=    1 was not enough SCF cycles to converge;
  maximum energy difference=  3.310E+02 exceeds toldfe=  1.000E-06


--- !ResultsGS
iteration_state: {dtset: 1, }
comment   : Summary of ground state results
lattice_vectors:
- [ 13.6000000,   0.0000000,   0.0000000, ]
- [  0.0000000,  13.6000000,   0.0000000, ]
- [  0.0000000,   0.0000000,  13.6000000, ]
lattice_lengths: [  13.60000,   13.60000,   13.60000, ]
lattice_angles: [ 90.000,  90.000,  90.000, ] # degrees, (23, 13, 12)
lattice_volume:   2.5154560E+03
convergence: {deltae: -3.310E+02, res2:  1.417E+03, residm:  6.524E-01, diffor: null, }
etotal    :  -3.31012733E+02
entropy   :   0.00000000E+00
fermie    :   8.81992850E-01
cartesian_stress_tensor: # hartree/bohr^3
- [ -1.91722259E-03,   0.00000000E+00,   0.00000000E+00, ]
- [  0.00000000E+00,  -2.00940022E-03,   0.00000000E+00, ]
- [  0.00000000E+00,   0.00000000E+00,  -1.85200967E-03, ]
pressure_GPa:   5.6671E+01
xred      :
- [  5.0000E-01,   0.0000E+00,   0.0000E+00,  C]
- [  0.0000E+00,   5.0000E-01,   0.0000E+00,  C]
- [  5.0000E-01,   5.0000E-01,   0.0000E+00,  C]
- [  0.0000E+00,   0.0000E+00,   5.0000E-01,  C]
- [  5.0000E-01,   0.0000E+00,   5.0000E-01,  C]
- [  0.0000E+00,   5.0000E-01,   5.0000E-01,  C]
- [  5.0000E-01,   5.0000E-01,   5.0000E-01,  C]
- [  1.2500E-01,   1.2500E-01,   1.2500E-01,  C]
- [  6.2500E-01,   1.2500E-01,   1.2500E-01,  C]
- [  1.2500E-01,   6.2500E-01,   1.2500E-01,  C]
- [  6.2500E-01,   6.2500E-01,   1.2500E-01,  C]
- [  1.2500E-01,   1.2500E-01,   6.2500E-01,  C]
- [  6.2500E-01,   1.2500E-01,   6.2500E-01,  C]
- [  1.2500E-01,   6.2500E-01,   6.2500E-01,  C]
- [  6.2500E-01,   6.2500E-01,   6.2500E-01,  C]
- [  2.5000E-01,   2.5000E-01,   0.0000E+00,  C]
- [  7.5000E-01,   2.5000E-01,   0.0000E+00,  C]
- [  2.5000E-01,   7.5000E-01,   0.0000E+00,  C]
- [  7.5000E-01,   7.5000E-01,   0.0000E+00,  C]
- [  2.5000E-01,   2.5000E-01,   5.0000E-01,  C]
- [  7.5000E-01,   2.5000E-01,   5.0000E-01,  C]
- [  2.5000E-01,   7.5000E-01,   5.0000E-01,  C]
- [  7.5000E-01,   7.5000E-01,   5.0000E-01,  C]
- [  2.5000E-01,   0.0000E+00,   2.5000E-01,  C]
- [  7.5000E-01,   0.0000E+00,   2.5000E-01,  C]
- [  2.5000E-01,   5.0000E-01,   2.5000E-01,  C]
- [  7.5000E-01,   5.0000E-01,   2.5000E-01,  C]
- [  2.5000E-01,   0.0000E+00,   7.5000E-01,  C]
- [  7.5000E-01,   0.0000E+00,   7.5000E-01,  C]
- [  2.5000E-01,   5.0000E-01,   7.5000E-01,  C]
- [  7.5000E-01,   5.0000E-01,   7.5000E-01,  C]
- [  0.0000E+00,   2.5000E-01,   2.5000E-01,  C]
- [  5.0000E-01,   2.5000E-01,   2.5000E-01,  C]
- [  0.0000E+00,   7.5000E-01,   2.5000E-01,  C]
- [  5.0000E-01,   7.5000E-01,   2.5000E-01,  C]
- [  0.0000E+00,   2.5000E-01,   7.5000E-01,  C]
- [  5.0000E-01,   2.5000E-01,   7.5000E-01,  C]
- [  0.0000E+00,   7.5000E-01,   7.5000E-01,  C]
- [  5.0000E-01,   7.5000E-01,   7.5000E-01,  C]
- [  3.7500E-01,   3.7500E-01,   1.2500E-01,  C]
- [  8.7500E-01,   3.7500E-01,   1.2500E-01,  C]
- [  3.7500E-01,   8.7500E-01,   1.2500E-01,  C]
- [  8.7500E-01,   8.7500E-01,   1.2500E-01,  C]
- [  3.7500E-01,   3.7500E-01,   6.2500E-01,  C]
- [  8.7500E-01,   3.7500E-01,   6.2500E-01,  C]
- [  3.7500E-01,   8.7500E-01,   6.2500E-01,  C]
- [  8.7500E-01,   8.7500E-01,   6.2500E-01,  C]
- [  3.7500E-01,   1.2500E-01,   3.7500E-01,  C]
- [  8.7500E-01,   1.2500E-01,   3.7500E-01,  C]
- [  3.7500E-01,   6.2500E-01,   3.7500E-01,  C]
- [  8.7500E-01,   6.2500E-01,   3.7500E-01,  C]
- [  3.7500E-01,   1.2500E-01,   8.7500E-01,  C]
- [  8.7500E-01,   1.2500E-01,   8.7500E-01,  C]
- [  3.7500E-01,   6.2500E-01,   8.7500E-01,  C]
- [  8.7500E-01,   6.2500E-01,   8.7500E-01,  C]
- [  1.2500E-01,   3.7500E-01,   3.7500E-01,  C]
- [  6.2500E-01,   3.7500E-01,   3.7500E-01,  C]
- [  1.2500E-01,   8.7500E-01,   3.7500E-01,  C]
- [  6.2500E-01,   8.7500E-01,   3.7500E-01,  C]
- [  1.2500E-01,   3.7500E-01,   8.7500E-01,  C]
- [  6.2500E-01,   3.7500E-01,   8.7500E-01,  C]
- [  1.2500E-01,   8.7500E-01,   8.7500E-01,  C]
- [  6.2500E-01,   8.7500E-01,   8.7500E-01,  C]
cartesian_forces: # hartree/bohr
- [ -4.40564692E-19,   4.68099986E-19,   5.50705865E-20, ]
- [ -4.40564692E-19,   4.68099986E-19,   5.50705865E-20, ]
- [ -4.40564692E-19,   4.68099986E-19,   5.50705865E-20, ]
- [ -4.40564692E-19,   4.68099986E-19,   5.50705865E-20, ]
- [ -4.40564692E-19,   4.68099986E-19,   5.50705865E-20, ]
- [ -4.40564692E-19,   4.68099986E-19,   5.50705865E-20, ]
- [ -4.40564692E-19,   4.68099986E-19,   5.50705865E-20, ]
- [ -1.25746207E-01,  -1.23906706E-01,  -1.38067851E-01, ]
- [ -2.33357059E-02,   1.10241226E-02,   1.72191548E-02, ]
- [  9.63320965E-03,  -2.67559593E-02,  -7.99658326E-03, ]
- [ -3.55907640E-02,   2.12282853E-02,   1.08266598E-03, ]
- [  4.91533214E-02,  -1.25036720E-02,   1.33118221E-02, ]
- [ -2.64359666E-02,   1.39177294E-02,   1.03962129E-02, ]
- [  7.56645170E-03,  -1.76027068E-02,   1.55328453E-02, ]
- [  4.87329457E-03,  -1.37764498E-02,   1.51007621E-02, ]
- [  4.06357480E-02,  -9.11928830E-03,   9.53930052E-03, ]
- [ -4.06357480E-02,  -9.11928830E-03,  -9.53930052E-03, ]
- [  4.06357480E-02,   9.11928830E-03,  -9.53930052E-03, ]
- [ -4.06357480E-02,   9.11928830E-03,   9.53930052E-03, ]
- [  7.29324449E-02,  -1.29503725E-02,  -5.99964672E-03, ]
- [ -7.29324449E-02,  -1.29503725E-02,   5.99964672E-03, ]
- [  7.29324449E-02,   1.29503725E-02,   5.99964672E-03, ]
- [ -7.29324449E-02,   1.29503725E-02,  -5.99964672E-03, ]
- [  2.27933027E-02,  -1.14934203E-02,  -6.85285580E-03, ]
- [ -2.27933027E-02,   1.14934203E-02,  -6.85285580E-03, ]
- [  5.93352327E-02,   1.47094024E-04,  -4.09002193E-03, ]
- [ -5.93352327E-02,  -1.47094024E-04,  -4.09002193E-03, ]
- [  2.27933027E-02,   1.14934203E-02,   6.85285580E-03, ]
- [ -2.27933027E-02,  -1.14934203E-02,   6.85285580E-03, ]
- [  5.93352327E-02,  -1.47094024E-04,   4.09002193E-03, ]
- [ -5.93352327E-02,   1.47094024E-04,   4.09002193E-03, ]
- [  3.75158839E-03,   2.01907778E-02,  -1.92057204E-02, ]
- [  4.94831075E-03,  -1.07380263E-02,  -1.77413034E-02, ]
- [ -3.75158839E-03,  -2.01907778E-02,  -1.92057204E-02, ]
- [ -4.94831075E-03,   1.07380263E-02,  -1.77413034E-02, ]
- [ -3.75158839E-03,   2.01907778E-02,   1.92057204E-02, ]
- [ -4.94831075E-03,  -1.07380263E-02,   1.77413034E-02, ]
- [  3.75158839E-03,  -2.01907778E-02,   1.92057204E-02, ]
- [  4.94831075E-03,   1.07380263E-02,   1.77413034E-02, ]
- [  3.55907640E-02,  -2.12282853E-02,   1.08266598E-03, ]
- [ -9.63320965E-03,   2.67559593E-02,  -7.99658326E-03, ]
- [  2.33357059E-02,  -1.10241226E-02,   1.72191548E-02, ]
- [  1.25746207E-01,   1.23906706E-01,  -1.38067851E-01, ]
- [ -4.87329457E-03,   1.37764498E-02,   1.51007621E-02, ]
- [ -7.56645170E-03,   1.76027068E-02,   1.55328453E-02, ]
- [  2.64359666E-02,  -1.39177294E-02,   1.03962129E-02, ]
- [ -4.91533214E-02,   1.25036720E-02,   1.33118221E-02, ]
- [  2.64359666E-02,   1.39177294E-02,  -1.03962129E-02, ]
- [ -4.91533214E-02,  -1.25036720E-02,  -1.33118221E-02, ]
- [ -4.87329457E-03,  -1.37764498E-02,  -1.51007621E-02, ]
- [ -7.56645170E-03,  -1.76027068E-02,  -1.55328453E-02, ]
- [  2.33357059E-02,   1.10241226E-02,  -1.72191548E-02, ]
- [  1.25746207E-01,  -1.23906706E-01,   1.38067851E-01, ]
- [  3.55907640E-02,   2.12282853E-02,  -1.08266598E-03, ]
- [ -9.63320965E-03,  -2.67559593E-02,   7.99658326E-03, ]
- [  7.56645170E-03,   1.76027068E-02,  -1.55328453E-02, ]
- [  4.87329457E-03,   1.37764498E-02,  -1.51007621E-02, ]
- [  4.91533214E-02,   1.25036720E-02,  -1.33118221E-02, ]
- [ -2.64359666E-02,  -1.39177294E-02,  -1.03962129E-02, ]
- [  9.63320965E-03,   2.67559593E-02,   7.99658326E-03, ]
- [ -3.55907640E-02,  -2.12282853E-02,  -1.08266598E-03, ]
- [ -1.25746207E-01,   1.23906706E-01,   1.38067851E-01, ]
- [ -2.33357059E-02,  -1.10241226E-02,  -1.72191548E-02, ]
force_length_stats: {min:   6.45172546E-19, max:   2.24115399E-01, mean:   4.49695452E-02, }
...

 Integrated electronic density in atomic spheres:
 ------------------------------------------------
 Atom  Sphere_radius  Integrated_density
    1        2.00000          4.35592296
    2        2.00000          4.09602372
    3        2.00000          4.28593789
    4        2.00000          3.96598881
    5        2.00000          4.32123545
    6        2.00000          4.06512570
    7        2.00000          4.21489639
    8        2.00000          3.88227226
    9        2.00000          4.29031492
   10        2.00000          4.07751995
   11        2.00000          4.26256900
   12        2.00000          4.09307182
   13        2.00000          4.23509346
   14        2.00000          4.05337163
   15        2.00000          4.24485341
   16        2.00000          4.15101420
   17        2.00000          4.15101420
   18        2.00000          4.15101420
   19        2.00000          4.15101420
   20        2.00000          4.16824937
   21        2.00000          4.16824937
   22        2.00000          4.16824937
   23        2.00000          4.16824937
   24        2.00000          4.16170550
   25        2.00000          4.16170550
   26        2.00000          4.17095668
   27        2.00000          4.17095668
   28        2.00000          4.16170550
   29        2.00000          4.16170550
   30        2.00000          4.17095668
   31        2.00000          4.17095668
   32        2.00000          4.02331337
   33        2.00000          4.27919925
   34        2.00000          4.02331337
   35        2.00000          4.27919925
   36        2.00000          4.02331337
   37        2.00000          4.27919925
   38        2.00000          4.02331337
   39        2.00000          4.27919925
   40        2.00000          4.26256900
   41        2.00000          4.07751995
   42        2.00000          4.29031492
   43        2.00000          3.88227226
   44        2.00000          4.24485341
   45        2.00000          4.05337163
   46        2.00000          4.23509346
   47        2.00000          4.09307182
   48        2.00000          4.23509346
   49        2.00000          4.09307182
   50        2.00000          4.24485341
   51        2.00000          4.05337163
   52        2.00000          4.29031492
   53        2.00000          3.88227226
   54        2.00000          4.26256900
   55        2.00000          4.07751995
   56        2.00000          4.05337163
   57        2.00000          4.24485341
   58        2.00000          4.09307182
   59        2.00000          4.23509346
   60        2.00000          4.07751995
   61        2.00000          4.26256900
   62        2.00000          3.88227226
   63        2.00000          4.29031492
================================================================================

 ----iterations are completed or convergence reached----

 Mean square residual over all n,k,spin=   55.187E-02; max=  65.239E-02
   0.2500  0.2500  0.2500    1  6.52394E-01 kpt; spin; max resid(k); each band:
  4.13E-01 4.61E-01 4.44E-01 4.73E-01 4.58E-01 4.67E-01 4.71E-01 4.55E-01
  4.59E-01 4.77E-01 4.56E-01 4.71E-01 4.55E-01 4.94E-01 4.70E-01 4.67E-01
  4.59E-01 4.79E-01 4.81E-01 4.78E-01 4.84E-01 4.86E-01 4.75E-01 4.78E-01
  4.87E-01 5.09E-01 4.96E-01 4.97E-01 4.91E-01 5.15E-01 4.94E-01 5.20E-01
  5.11E-01 5.55E-01 5.25E-01 5.07E-01 5.31E-01 5.14E-01 5.17E-01 5.25E-01
  5.25E-01 5.04E-01 5.21E-01 5.40E-01 5.19E-01 5.26E-01 5.07E-01 5.26E-01
  5.36E-01 5.15E-01 5.65E-01 5.54E-01 5.20E-01 5.25E-01 5.22E-01 5.56E-01
  5.32E-01 5.31E-01 5.84E-01 5.69E-01 5.65E-01 5.42E-01 5.60E-01 5.60E-01
  5.60E-01 5.65E-01 5.55E-01 5.62E-01 5.40E-01 5.35E-01 5.42E-01 5.76E-01
  5.57E-01 6.01E-01 5.77E-01 6.06E-01 5.47E-01 5.42E-01 5.72E-01 5.70E-01
  5.66E-01 5.66E-01 5.60E-01 5.72E-01 5.85E-01 6.05E-01 5.75E-01 6.06E-01
  6.05E-01 5.87E-01 6.02E-01 5.87E-01 5.89E-01 5.86E-01 5.87E-01 5.81E-01
  6.24E-01 5.95E-01 6.30E-01 6.19E-01 6.03E-01 6.04E-01 5.91E-01 5.94E-01
  6.15E-01 6.30E-01 6.25E-01 6.03E-01 6.32E-01 6.12E-01 6.27E-01 5.82E-01
  6.21E-01 6.37E-01 6.19E-01 6.31E-01 6.18E-01 6.23E-01 6.26E-01 6.38E-01
  6.24E-01 6.44E-01 6.13E-01 6.16E-01 6.16E-01 6.33E-01 6.28E-01 6.52E-01
  6.26E-01 6.14E-01
 reduced coordinates (array xred) for   63 atoms
       0.500000000000      0.000000000000      0.000000000000
       0.000000000000      0.500000000000      0.000000000000
       0.500000000000      0.500000000000      0.000000000000
       0.000000000000      0.000000000000      0.500000000000
       0.500000000000      0.000000000000      0.500000000000
       0.000000000000      0.500000000000      0.500000000000
       0.500000000000      0.500000000000      0.500000000000
       0.125000000000      0.125000000000      0.125000000000
       0.625000000000      0.125000000000      0.125000000000
       0.125000000000      0.625000000000      0.125000000000
       0.625000000000      0.625000000000      0.125000000000
       0.125000000000      0.125000000000      0.625000000000
       0.625000000000      0.125000000000      0.625000000000
       0.125000000000      0.625000000000      0.625000000000
       0.625000000000      0.625000000000      0.625000000000
       0.250000000000      0.250000000000      0.000000000000
       0.750000000000      0.250000000000      0.000000000000
       0.250000000000      0.750000000000      0.000000000000
       0.750000000000      0.750000000000      0.000000000000
       0.250000000000      0.250000000000      0.500000000000
       0.750000000000      0.250000000000      0.500000000000
       0.250000000000      0.750000000000      0.500000000000
       0.750000000000      0.750000000000      0.500000000000
       0.250000000000      0.000000000000      0.250000000000
       0.750000000000      0.000000000000      0.250000000000
       0.250000000000      0.500000000000      0.250000000000
       0.750000000000      0.500000000000      0.250000000000
       0.250000000000      0.000000000000      0.750000000000
       0.750000000000      0.000000000000      0.750000000000
       0.250000000000      0.500000000000      0.750000000000
       0.750000000000      0.500000000000      0.750000000000
       0.000000000000      0.250000000000      0.250000000000
       0.500000000000      0.250000000000      0.250000000000
       0.000000000000      0.750000000000      0.250000000000
       0.500000000000      0.750000000000      0.250000000000
       0.000000000000      0.250000000000      0.750000000000
       0.500000000000      0.250000000000      0.750000000000
       0.000000000000      0.750000000000      0.750000000000
       0.500000000000      0.750000000000      0.750000000000
       0.375000000000      0.375000000000      0.125000000000
       0.875000000000      0.375000000000      0.125000000000
       0.375000000000      0.875000000000      0.125000000000
       0.875000000000      0.875000000000      0.125000000000
       0.375000000000      0.375000000000      0.625000000000
       0.875000000000      0.375000000000      0.625000000000
       0.375000000000      0.875000000000      0.625000000000
       0.875000000000      0.875000000000      0.625000000000
       0.375000000000      0.125000000000      0.375000000000
       0.875000000000      0.125000000000      0.375000000000
       0.375000000000      0.625000000000      0.375000000000
       0.875000000000      0.625000000000      0.375000000000
       0.375000000000      0.125000000000      0.875000000000
       0.875000000000      0.125000000000      0.875000000000
       0.375000000000      0.625000000000      0.875000000000
       0.875000000000      0.625000000000      0.875000000000
       0.125000000000      0.375000000000      0.375000000000
       0.625000000000      0.375000000000      0.375000000000
       0.125000000000      0.875000000000      0.375000000000
       0.625000000000      0.875000000000      0.375000000000
       0.125000000000      0.375000000000      0.875000000000
       0.625000000000      0.375000000000      0.875000000000
       0.125000000000      0.875000000000      0.875000000000
       0.625000000000      0.875000000000      0.875000000000
 rms dE/dt=  5.2871E-01; max dE/dt=  1.8777E+00; dE/dt below (all hartree)
    1       0.000000000000      0.000000000000      0.000000000000
    2       0.000000000000      0.000000000000      0.000000000000
    3       0.000000000000      0.000000000000      0.000000000000
    4       0.000000000000      0.000000000000      0.000000000000
    5       0.000000000000      0.000000000000      0.000000000000
    6       0.000000000000      0.000000000000      0.000000000000
    7       0.000000000000      0.000000000000      0.000000000000
    8       1.710148417039      1.685131207273      1.877722778728
    9       0.317365599940     -0.149928066917     -0.234180504895
   10      -0.131011651258      0.363881046972      0.108753532402
   11       0.484034390325     -0.288704680450     -0.014724257373
   12      -0.668485171557      0.170049938621     -0.181040780125
   13       0.359529146093     -0.189281119570     -0.141388495421
   14      -0.102903743130      0.239396812415     -0.211246696169
   15      -0.066276806168      0.187359716670     -0.205370363932
   16      -0.552646173161      0.124022320822     -0.129734487005
   17       0.552646173161      0.124022320822      0.129734487005
   18      -0.552646173161     -0.124022320822      0.129734487005
   19       0.552646173161     -0.124022320822     -0.129734487005
   20      -0.991881251257      0.176125065724      0.081595195434
   21       0.991881251257      0.176125065724     -0.081595195434
   22      -0.991881251257     -0.176125065724     -0.081595195434
   23       0.991881251257     -0.176125065724      0.081595195434
   24      -0.309988917085      0.156310515553      0.093198838938
   25       0.309988917085     -0.156310515553      0.093198838938
   26      -0.806959165273     -0.002000478728      0.055624298296
   27       0.806959165273      0.002000478728      0.055624298296
   28      -0.309988917085     -0.156310515553     -0.093198838938
   29       0.309988917085      0.156310515553     -0.093198838938
   30      -0.806959165273      0.002000478728     -0.055624298296
   31       0.806959165273     -0.002000478728     -0.055624298296
   32      -0.051021602078     -0.274594577687      0.261197796920
   33      -0.067297026182      0.146037157212      0.241281726102
   34       0.051021602078      0.274594577687      0.261197796920
   35       0.067297026182     -0.146037157212      0.241281726102
   36       0.051021602078     -0.274594577687     -0.261197796920
   37       0.067297026182      0.146037157212     -0.241281726102
   38      -0.051021602078      0.274594577687     -0.261197796920
   39      -0.067297026182     -0.146037157212     -0.241281726102
   40      -0.484034390325      0.288704680450     -0.014724257373
   41       0.131011651258     -0.363881046972      0.108753532402
   42      -0.317365599940      0.149928066917     -0.234180504895
   43      -1.710148417039     -1.685131207273      1.877722778728
   44       0.066276806168     -0.187359716670     -0.205370363932
   45       0.102903743130     -0.239396812415     -0.211246696169
   46      -0.359529146093      0.189281119570     -0.141388495421
   47       0.668485171557     -0.170049938621     -0.181040780125
   48      -0.359529146093     -0.189281119570      0.141388495421
   49       0.668485171557      0.170049938621      0.181040780125
   50       0.066276806168      0.187359716670      0.205370363932
   51       0.102903743130      0.239396812415      0.211246696169
   52      -0.317365599940     -0.149928066917      0.234180504895
   53      -1.710148417039      1.685131207273     -1.877722778728
   54      -0.484034390325     -0.288704680450      0.014724257373
   55       0.131011651258      0.363881046972     -0.108753532402
   56      -0.102903743130     -0.239396812415      0.211246696169
   57      -0.066276806168     -0.187359716670      0.205370363932
   58      -0.668485171557     -0.170049938621      0.181040780125
   59       0.359529146093      0.189281119570      0.141388495421
   60      -0.131011651258     -0.363881046972     -0.108753532402
   61       0.484034390325      0.288704680450      0.014724257373
   62       1.710148417039     -1.685131207273     -1.877722778728
   63       0.317365599940      0.149928066917      0.234180504895

 cartesian coordinates (angstrom) at end:
    1      3.59840501841200     0.00000000000000     0.00000000000000
    2      0.00000000000000     3.59840501841200     0.00000000000000
    3      3.59840501841200     3.59840501841200     0.00000000000000
    4      0.00000000000000     0.00000000000000     3.59840501841200
    5      3.59840501841200     0.00000000000000     3.59840501841200
    6      0.00000000000000     3.59840501841200     3.59840501841200
    7      3.59840501841200     3.59840501841200     3.59840501841200
    8      0.89960125460300     0.89960125460300     0.89960125460300
    9      4.49800627301500     0.89960125460300     0.89960125460300
   10      0.89960125460300     4.49800627301500     0.89960125460300
   11      4.49800627301500     4.49800627301500     0.89960125460300
   12      0.89960125460300     0.89960125460300     4.49800627301500
   13      4.49800627301500     0.89960125460300     4.49800627301500
   14      0.89960125460300     4.49800627301500     4.49800627301500
   15      4.49800627301500     4.49800627301500     4.49800627301500
   16      1.79920250920600     1.79920250920600     0.00000000000000
   17      5.39760752761800     1.79920250920600     0.00000000000000
   18      1.79920250920600     5.39760752761800     0.00000000000000
   19      5.39760752761800     5.39760752761800     0.00000000000000
   20      1.79920250920600     1.79920250920600     3.59840501841200
   21      5.39760752761800     1.79920250920600     3.59840501841200
   22      1.79920250920600     5.39760752761800     3.59840501841200
   23      5.39760752761800     5.39760752761800     3.59840501841200
   24      1.79920250920600     0.00000000000000     1.79920250920600
   25      5.39760752761800     0.00000000000000     1.79920250920600
   26      1.79920250920600     3.59840501841200     1.79920250920600
   27      5.39760752761800     3.59840501841200     1.79920250920600
   28      1.79920250920600     0.00000000000000     5.39760752761800
   29      5.39760752761800     0.00000000000000     5.39760752761800
   30      1.79920250920600     3.59840501841200     5.39760752761800
   31      5.39760752761800     3.59840501841200     5.39760752761800
   32      0.00000000000000     1.79920250920600     1.79920250920600
   33      3.59840501841200     1.79920250920600     1.79920250920600
   34      0.00000000000000     5.39760752761800     1.79920250920600
   35      3.59840501841200     5.39760752761800     1.79920250920600
   36      0.00000000000000     1.79920250920600     5.39760752761800
   37      3.59840501841200     1.79920250920600     5.39760752761800
   38      0.00000000000000     5.39760752761800     5.39760752761800
   39      3.59840501841200     5.39760752761800     5.39760752761800
   40      2.69880376380900     2.69880376380900     0.89960125460300
   41      6.29720878222100     2.69880376380900     0.89960125460300
   42      2.69880376380900     6.29720878222100     0.89960125460300
   43      6.29720878222100     6.29720878222100     0.89960125460300
   44      2.69880376380900     2.69880376380900     4.49800627301500
   45      6.29720878222100     2.69880376380900     4.49800627301500
   46      2.69880376380900     6.29720878222100     4.49800627301500
   47      6.29720878222100     6.29720878222100     4.49800627301500
   48      2.69880376380900     0.89960125460300     2.69880376380900
   49      6.29720878222100     0.89960125460300     2.69880376380900
   50      2.69880376380900     4.49800627301500     2.69880376380900
   51      6.29720878222100     4.49800627301500     2.69880376380900
   52      2.69880376380900     0.89960125460300     6.29720878222100
   53      6.29720878222100     0.89960125460300     6.29720878222100
   54      2.69880376380900     4.49800627301500     6.29720878222100
   55      6.29720878222100     4.49800627301500     6.29720878222100
   56      0.89960125460300     2.69880376380900     2.69880376380900
   57      4.49800627301500     2.69880376380900     2.69880376380900
   58      0.89960125460300     6.29720878222100     2.69880376380900
   59      4.49800627301500     6.29720878222100     2.69880376380900
   60      0.89960125460300     2.69880376380900     6.29720878222100
   61      4.49800627301500     2.69880376380900     6.29720878222100
   62      0.89960125460300     6.29720878222100     6.29720878222100
   63      4.49800627301500     6.29720878222100     6.29720878222100

 cartesian forces (hartree/bohr) at end:
    1     -0.00000000000000     0.00000000000000     0.00000000000000
    2     -0.00000000000000     0.00000000000000     0.00000000000000
    3     -0.00000000000000     0.00000000000000     0.00000000000000
    4     -0.00000000000000     0.00000000000000     0.00000000000000
    5     -0.00000000000000     0.00000000000000     0.00000000000000
    6     -0.00000000000000     0.00000000000000     0.00000000000000
    7     -0.00000000000000     0.00000000000000     0.00000000000000
    8     -0.12574620713524    -0.12390670641715    -0.13806785137707
    9     -0.02333570587794     0.01102412256742     0.01721915477170
   10      0.00963320965130    -0.02675595933615    -0.00799658326484
   11     -0.03559076399448     0.02122828532722     0.00108266598333
   12      0.04915332143800    -0.01250367195746     0.01331182206803
   13     -0.02643596662447     0.01391772938017     0.01039621289863
   14      0.00756645170074    -0.01760270679520     0.01553284530651
   15      0.00487329457119    -0.01377644975514     0.01510076205382
   16      0.04063574802652    -0.00911928829572     0.00953930051508
   17     -0.04063574802652    -0.00911928829572    -0.00953930051508
   18      0.04063574802652     0.00911928829572    -0.00953930051508
   19     -0.04063574802652     0.00911928829572     0.00953930051508
   20      0.07293244494535    -0.01295037247969    -0.00599964672310
   21     -0.07293244494535    -0.01295037247969     0.00599964672310
   22      0.07293244494535     0.01295037247969     0.00599964672310
   23     -0.07293244494535     0.01295037247969    -0.00599964672310
   24      0.02279330272684    -0.01149342026126    -0.00685285580429
   25     -0.02279330272684     0.01149342026126    -0.00685285580429
   26      0.05933523274069     0.00014709402415    -0.00409002193350
   27     -0.05933523274069    -0.00014709402415    -0.00409002193350
   28      0.02279330272684     0.01149342026126     0.00685285580429
   29     -0.02279330272684    -0.01149342026126     0.00685285580429
   30      0.05933523274069    -0.00014709402415     0.00409002193350
   31     -0.05933523274069     0.00014709402415     0.00409002193350
   32      0.00375158838807     0.02019077777113    -0.01920572036178
   33      0.00494831074867    -0.01073802626559    -0.01774130338982
   34     -0.00375158838807    -0.02019077777113    -0.01920572036178
   35     -0.00494831074867     0.01073802626559    -0.01774130338982
   36     -0.00375158838807     0.02019077777113     0.01920572036178
   37     -0.00494831074867    -0.01073802626559     0.01774130338982
   38      0.00375158838807    -0.02019077777113     0.01920572036178
   39      0.00494831074867     0.01073802626559     0.01774130338982
   40      0.03559076399448    -0.02122828532722     0.00108266598333
   41     -0.00963320965130     0.02675595933615    -0.00799658326484
   42      0.02333570587794    -0.01102412256742     0.01721915477170
   43      0.12574620713524     0.12390670641715    -0.13806785137707
   44     -0.00487329457119     0.01377644975514     0.01510076205382
   45     -0.00756645170074     0.01760270679520     0.01553284530651
   46      0.02643596662447    -0.01391772938017     0.01039621289863
   47     -0.04915332143800     0.01250367195746     0.01331182206803
   48      0.02643596662447     0.01391772938017    -0.01039621289863
   49     -0.04915332143800    -0.01250367195746    -0.01331182206803
   50     -0.00487329457119    -0.01377644975514    -0.01510076205382
   51     -0.00756645170074    -0.01760270679520    -0.01553284530651
   52      0.02333570587794     0.01102412256742    -0.01721915477170
   53      0.12574620713524    -0.12390670641715     0.13806785137707
   54      0.03559076399448     0.02122828532722    -0.00108266598333
   55     -0.00963320965130    -0.02675595933615     0.00799658326484
   56      0.00756645170074     0.01760270679520    -0.01553284530651
   57      0.00487329457119     0.01377644975514    -0.01510076205382
   58      0.04915332143800     0.01250367195746    -0.01331182206803
   59     -0.02643596662447    -0.01391772938017    -0.01039621289863
   60      0.00963320965130     0.02675595933615     0.00799658326484
   61     -0.03559076399448    -0.02122828532722    -0.00108266598333
   62     -0.12574620713524     0.12390670641715     0.13806785137707
   63     -0.02333570587794    -0.01102412256742    -0.01721915477170
 frms,max,avg= 3.8876024E-02 1.3806785E-01   0.000E+00  0.000E+00  0.000E+00 h/b

 cartesian forces (eV/Angstrom) at end:
    1     -0.00000000000000     0.00000000000000     0.00000000000000
    2     -0.00000000000000     0.00000000000000     0.00000000000000
    3     -0.00000000000000     0.00000000000000     0.00000000000000
    4     -0.00000000000000     0.00000000000000     0.00000000000000
    5     -0.00000000000000     0.00000000000000     0.00000000000000
    6     -0.00000000000000     0.00000000000000     0.00000000000000
    7     -0.00000000000000     0.00000000000000     0.00000000000000
    8     -6.46612940949090    -6.37153848732288    -7.09973377832622
    9     -1.19997014229038     0.56688312730066     0.88544446478701
   10      0.49535951543315    -1.37584663175233    -0.41120080996627
   11     -1.83015051518348     1.09160222955898     0.05567291861095
   12      2.52756520109236    -0.64296460953115     0.68452135558595
   13     -1.35939194631096     0.71567835967949     0.53459471663300
   14      0.38908255749649    -0.90516750117707     0.79873095290654
   15      0.25059486139408    -0.70841346987318     0.77651234058220
   16      2.08957400288319    -0.46893261901053     0.49053051389594
   17     -2.08957400288319    -0.46893261901053    -0.49053051389594
   18      2.08957400288319     0.46893261901053    -0.49053051389594
   19     -2.08957400288319     0.46893261901053     0.49053051389594
   20      3.75033679274319    -0.66593487201329    -0.30851421292634
   21     -3.75033679274319    -0.66593487201329     0.30851421292634
   22      3.75033679274319     0.66593487201329     0.30851421292634
   23     -3.75033679274319     0.66593487201329    -0.30851421292634
   24      1.17207865317912    -0.59101538296952    -0.35238798421521
   25     -1.17207865317912     0.59101538296952    -0.35238798421521
   26      3.05114008751727     0.00756387820481    -0.21031736632228
   27     -3.05114008751727    -0.00756387820481    -0.21031736632228
   28      1.17207865317912     0.59101538296952     0.35238798421521
   29     -1.17207865317912    -0.59101538296952     0.35238798421521
   30      3.05114008751727    -0.00756387820481     0.21031736632228
   31     -3.05114008751727     0.00756387820481     0.21031736632228
   32      0.19291441516237     1.03825145044708    -0.98759776609572
   33      0.25445234801298    -0.55217146518869    -0.91229442402374
   34     -0.19291441516237    -1.03825145044708    -0.98759776609572
   35     -0.25445234801298     0.55217146518869    -0.91229442402374
   36     -0.19291441516237     1.03825145044708     0.98759776609572
   37     -0.25445234801298    -0.55217146518869     0.91229442402374
   38      0.19291441516237    -1.03825145044708     0.98759776609572
   39      0.25445234801298     0.55217146518869     0.91229442402374
   40      1.83015051518348    -1.09160222955898     0.05567291861095
   41     -0.49535951543315     1.37584663175233    -0.41120080996627
   42      1.19997014229038    -0.56688312730066     0.88544446478701
   43      6.46612940949090     6.37153848732288    -7.09973377832622
   44     -0.25059486139408     0.70841346987318     0.77651234058220
   45     -0.38908255749649     0.90516750117707     0.79873095290654
   46      1.35939194631096    -0.71567835967949     0.53459471663300
   47     -2.52756520109236     0.64296460953115     0.68452135558595
   48      1.35939194631096     0.71567835967949    -0.53459471663300
   49     -2.52756520109236    -0.64296460953115    -0.68452135558595
   50     -0.25059486139408    -0.70841346987318    -0.77651234058220
   51     -0.38908255749649    -0.90516750117707    -0.79873095290654
   52      1.19997014229038     0.56688312730066    -0.88544446478701
   53      6.46612940949090    -6.37153848732288     7.09973377832622
   54      1.83015051518348     1.09160222955898    -0.05567291861095
   55     -0.49535951543315    -1.37584663175233     0.41120080996627
   56      0.38908255749649     0.90516750117707    -0.79873095290654
   57      0.25059486139408     0.70841346987318    -0.77651234058220
   58      2.52756520109236     0.64296460953115    -0.68452135558595
   59     -1.35939194631096    -0.71567835967949    -0.53459471663300
   60      0.49535951543315     1.37584663175233     0.41120080996627
   61     -1.83015051518348    -1.09160222955898    -0.05567291861095
   62     -6.46612940949090     6.37153848732288     7.09973377832622
   63     -1.19997014229038    -0.56688312730066    -0.88544446478701
 frms,max,avg= 1.9990853E+00 7.0997338E+00   0.000E+00  0.000E+00  0.000E+00 e/A
 length scales= 13.600000000000 13.600000000000 13.600000000000 bohr
              =  7.196810036824  7.196810036824  7.196810036824 angstroms
 Fermi (or HOMO) energy (hartree) =   0.88199   Average Vxc (hartree)=  -0.51750
 Eigenvalues (hartree) for nkpt=   1  k points:
 kpt#   1, nband=130, wtk=  1.00000, kpt=  0.2500  0.2500  0.2500 (reduced coord)
  -0.29143   -0.25392   -0.24839   -0.23704   -0.20405   -0.20231   -0.19524   -0.16331
  -0.15966   -0.15384   -0.14697   -0.13222   -0.12919   -0.12781   -0.12019   -0.11712
  -0.10867   -0.09851   -0.08997   -0.08158   -0.06175   -0.05536   -0.04754   -0.04176
  -0.03789   -0.03364   -0.02474   -0.01714   -0.01436   -0.01069   -0.00401    0.02217
   0.06161    0.06450    0.07086    0.08295    0.08674    0.09045    0.09509    0.09732
   0.09849    0.10355    0.10749    0.11327    0.11958    0.12097    0.13976    0.15487
   0.15735    0.16487    0.16831    0.17407    0.18457    0.21217    0.22549    0.23312
   0.23736    0.24020    0.24280    0.24681    0.24981    0.25979    0.26340    0.26631
   0.27295    0.28454    0.28660    0.29112    0.29584    0.30294    0.30818    0.31413
   0.31901    0.32591    0.32964    0.33453    0.33995    0.34262    0.34747    0.35469
   0.36408    0.36765    0.37243    0.37552    0.38392    0.39025    0.39815    0.40488
   0.41306    0.42715    0.43268    0.43983    0.44512    0.45712    0.46478    0.47036
   0.48895    0.50220    0.50897    0.51902    0.52917    0.54266    0.55423    0.56034
   0.58168    0.59473    0.60473    0.61898    0.62231    0.64800    0.65291    0.67428
   0.69091    0.70065    0.72294    0.73951    0.75871    0.76552    0.77902    0.79619
   0.80865    0.83058    0.84249    0.85376    0.87002    0.88199    0.90216    0.93943
   0.95632    0.96522
 Fermi (or HOMO) energy (eV) =  24.00025   Average Vxc (eV)= -14.08182
 Eigenvalues (   eV  ) for nkpt=   1  k points:
 kpt#   1, nband=130, wtk=  1.00000, kpt=  0.2500  0.2500  0.2500 (reduced coord)
  -7.93033   -6.90955   -6.75909   -6.45010   -5.55252   -5.50502   -5.31275   -4.44399
  -4.34457   -4.18623   -3.99935   -3.59786   -3.51540   -3.47788   -3.27066   -3.18710
  -2.95694   -2.68070   -2.44824   -2.21994   -1.68037   -1.50646   -1.29368   -1.13639
  -1.03102   -0.91543   -0.67329   -0.46646   -0.39075   -0.29099   -0.10908    0.60330
   1.67646    1.75526    1.92809    2.25707    2.36029    2.46120    2.58750    2.64824
   2.68013    2.81767    2.92496    3.08212    3.25389    3.29175    3.80315    4.21418
   4.28161    4.48625    4.57990    4.73673    5.02228    5.77347    6.13587    6.34359
   6.45891    6.53613    6.60692    6.71600    6.79780    7.06918    7.16737    7.24656
   7.42738    7.74274    7.79865    7.92171    8.05014    8.24345    8.38596    8.54788
   8.68066    8.86859    8.96993    9.10306    9.25054    9.32323    9.45509    9.65147
   9.90700   10.00440   10.13429   10.21837   10.44692   10.61928   10.83419   11.01747
  11.23986   11.62345   11.77376   11.96849   12.11224   12.43889   12.64725   12.79911
  13.30511   13.66563   13.84969   14.12329   14.39949   14.76644   15.08150   15.24760
  15.82844   16.18340   16.45545   16.84334   16.93384   17.63304   17.76649   18.34810
  18.80059   19.06562   19.67216   20.12304   20.64557   20.83097   21.19822   21.66544
  22.00446   22.60120   22.92532   23.23188   23.67439   24.00025   24.54915   25.56323
  26.02289   26.26500
 Total charge density [el/Bohr^3]
      Maximum=    1.9104E-01  at reduced coord.    0.5750    0.9250    0.9250
 Next maximum=    1.9104E-01  at reduced coord.    0.4250    0.0750    0.9250
      Minimum=    3.2871E-02  at reduced coord.    0.9000    0.1000    0.1000
 Next minimum=    3.2871E-02  at reduced coord.    0.1000    0.9000    0.1000
   Integrated=    2.5200E+02

--- !EnergyTerms
iteration_state     : {dtset: 1, }
comment             : Components of total free energy in Hartree
kinetic             :  2.06941840340351E+02
hartree             :  1.22449726637052E+01
xc                  : -1.27001079426705E+02
Ewald energy        : -3.94588385266524E+02
psp_core            :  5.84372950134201E+00
local_psp           : -9.55258585244304E+01
non_local_psp       :  6.10720478274209E+01
total_energy        : -3.31012732884840E+02
total_energy_eV     : -9.00731453707703E+03
band_energy         :  6.68938475408333E+01
...


          ===> extra information on forces <===
 ewald contribution to reduced grads
    1       0.000000000000     -0.000000000000     -0.000000000000
    2      -0.000000000000      0.000000000000     -0.000000000000
    3       0.000000000000      0.000000000000      0.000000000000
    4      -0.000000000000     -0.000000000000      0.000000000000
    5       0.000000000000     -0.000000000000      0.000000000000
    6      -0.000000000000      0.000000000000      0.000000000000
    7       0.000000000000      0.000000000000      0.000000000000
    8      13.929415743720     13.929415743720     13.929415743720
    9      -3.852595256157      1.861308853015      1.861308853015
   10       1.861308853015     -3.852595256157      1.861308853015
   11      -1.391369961725     -1.391369961726      0.830125176181
   12       1.861308853015      1.861308853015     -3.852595256157
   13      -1.391369961726      0.830125176181     -1.391369961726
   14       0.830125176181     -1.391369961726     -1.391369961726
   15      -0.747313916782     -0.747313916782     -0.747313916782
   16       5.554747265579      5.554747265579     -0.000000000000
   17      -5.554747265579      5.554747265579     -0.000000000000
   18       5.554747265579     -5.554747265579     -0.000000000000
   19      -5.554747265579     -5.554747265579     -0.000000000000
   20       1.254848845239      1.254848845239      0.000000000000
   21      -1.254848845239      1.254848845239      0.000000000000
   22       1.254848845239     -1.254848845239      0.000000000000
   23      -1.254848845239     -1.254848845239      0.000000000000
   24       5.554747265579     -0.000000000000      5.554747265579
   25      -5.554747265579     -0.000000000000      5.554747265579
   26       1.254848845239      0.000000000000      1.254848845239
   27      -1.254848845239      0.000000000000      1.254848845239
   28       5.554747265579     -0.000000000000     -5.554747265579
   29      -5.554747265579     -0.000000000000     -5.554747265579
   30       1.254848845239      0.000000000000     -1.254848845239
   31      -1.254848845239      0.000000000000     -1.254848845239
   32      -0.000000000000      5.554747265579      5.554747265579
   33       0.000000000000      1.254848845239      1.254848845239
   34      -0.000000000000     -5.554747265579      5.554747265579
   35       0.000000000000     -1.254848845239      1.254848845239
   36      -0.000000000000      5.554747265579     -5.554747265579
   37       0.000000000000      1.254848845239     -1.254848845239
   38      -0.000000000000     -5.554747265579     -5.554747265579
   39       0.000000000000     -1.254848845239     -1.254848845239
   40       1.391369961726      1.391369961726      0.830125176181
   41      -1.861308853015      3.852595256157      1.861308853015
   42       3.852595256157     -1.861308853015      1.861308853015
   43     -13.929415743720    -13.929415743720     13.929415743720
   44       0.747313916783      0.747313916783     -0.747313916783
   45      -0.830125176181      1.391369961726     -1.391369961725
   46       1.391369961726     -0.830125176181     -1.391369961726
   47      -1.861308853015     -1.861308853015     -3.852595256157
   48       1.391369961726      0.830125176181      1.391369961726
   49      -1.861308853015      1.861308853015      3.852595256157
   50       0.747313916783     -0.747313916783      0.747313916783
   51      -0.830125176181     -1.391369961725      1.391369961726
   52       3.852595256157      1.861308853015     -1.861308853015
   53     -13.929415743720     13.929415743720    -13.929415743720
   54       1.391369961726     -1.391369961726     -0.830125176181
   55      -1.861308853015     -3.852595256157     -1.861308853015
   56       0.830125176181      1.391369961726      1.391369961726
   57      -0.747313916783      0.747313916783      0.747313916783
   58       1.861308853015     -1.861308853015      3.852595256157
   59      -1.391369961725     -0.830125176181      1.391369961726
   60       1.861308853015      3.852595256157     -1.861308853015
   61      -1.391369961725      1.391369961726     -0.830125176181
   62      13.929415743720    -13.929415743720    -13.929415743720
   63      -3.852595256157     -1.861308853015     -1.861308853015
 nonlocal contribution to red. grads
    1       0.000000000000      0.000000000000      0.000000000000
    2       0.000000000000      0.000000000000      0.000000000000
    3       0.000000000000      0.000000000000      0.000000000000
    4       0.000000000000      0.000000000000      0.000000000000
    5       0.000000000000      0.000000000000      0.000000000000
    6       0.000000000000      0.000000000000      0.000000000000
    7       0.000000000000      0.000000000000      0.000000000000
    8       0.094590950167     -1.247378479974     -0.826138087711
    9      -0.214691915133     -0.902893821691     -0.947249022109
   10      -0.647852493650     -0.703689023905     -0.036837147695
   11       0.504425431427      0.290798846063      0.243511684740
   12       0.484069368530     -0.831263343081      0.154287661748
   13      -0.317068850879     -0.697730612665     -1.208986447197
   14       0.146975936289      0.753468361748      0.354575061419
   15       0.125894026601      0.373394278316     -0.551352299633
   16       0.139442206902     -0.213637464131      0.077843874693
   17      -0.139442206902     -0.213637464131     -0.077843874693
   18       0.139442206902      0.213637464131     -0.077843874693
   19      -0.139442206902      0.213637464131      0.077843874693
   20       0.786376321854     -0.002591976433     -0.002329435763
   21      -0.786376321854     -0.002591976433      0.002329435763
   22       0.786376321854      0.002591976433      0.002329435763
   23      -0.786376321854      0.002591976433     -0.002329435763
   24       0.839706341770      0.362257810442     -0.041578763575
   25      -0.839706341770     -0.362257810442     -0.041578763575
   26      -0.364320431022      0.142926039378     -0.079492181325
   27       0.364320431022     -0.142926039378     -0.079492181325
   28       0.839706341770     -0.362257810442      0.041578763575
   29      -0.839706341770      0.362257810442      0.041578763575
   30      -0.364320431022     -0.142926039378      0.079492181325
   31       0.364320431022      0.142926039378      0.079492181325
   32       0.414401777908     -0.455382724110     -0.263558692172
   33       0.114317679863     -1.051468251192     -0.153099418866
   34      -0.414401777908      0.455382724110     -0.263558692172
   35      -0.114317679863      1.051468251192     -0.153099418866
   36      -0.414401777908     -0.455382724110      0.263558692172
   37      -0.114317679863     -1.051468251192      0.153099418866
   38       0.414401777908      0.455382724110      0.263558692172
   39       0.114317679863      1.051468251192      0.153099418866
   40      -0.504425431427     -0.290798846063      0.243511684740
   41       0.647852493650      0.703689023905     -0.036837147695
   42       0.214691915133      0.902893821691     -0.947249022109
   43      -0.094590950167      1.247378479974     -0.826138087711
   44      -0.125894026601     -0.373394278316     -0.551352299633
   45      -0.146975936289     -0.753468361748      0.354575061419
   46       0.317068850879      0.697730612665     -1.208986447197
   47      -0.484069368530      0.831263343081      0.154287661748
   48       0.317068850879     -0.697730612665      1.208986447197
   49      -0.484069368530     -0.831263343081     -0.154287661748
   50      -0.125894026601      0.373394278316      0.551352299633
   51      -0.146975936289      0.753468361748     -0.354575061419
   52       0.214691915133     -0.902893821691      0.947249022109
   53      -0.094590950167     -1.247378479974      0.826138087711
   54      -0.504425431427      0.290798846063     -0.243511684740
   55       0.647852493650     -0.703689023905      0.036837147695
   56       0.146975936289     -0.753468361748     -0.354575061419
   57       0.125894026601     -0.373394278316      0.551352299633
   58       0.484069368530      0.831263343081     -0.154287661748
   59      -0.317068850879      0.697730612665      1.208986447197
   60      -0.647852493650      0.703689023905      0.036837147695
   61       0.504425431427     -0.290798846063     -0.243511684740
   62       0.094590950167      1.247378479974      0.826138087711
   63      -0.214691915133      0.902893821691      0.947249022109
 local psp contribution to red. grads
    1      -0.000000000000     -0.000000000000     -0.000000000000
    2      -0.000000000000      0.000000000000      0.000000000000
    3      -0.000000000000     -0.000000000000     -0.000000000000
    4      -0.000000000000     -0.000000000000     -0.000000000000
    5      -0.000000000000     -0.000000000000     -0.000000000000
    6      -0.000000000000      0.000000000000     -0.000000000000
    7      -0.000000000000     -0.000000000000      0.000000000000
    8     -11.526253447074     -7.064543517547     -6.698691959403
    9       6.084912439627      0.133082244495     -0.044132083110
   10      -3.100137723881      3.699772511348     -0.629851633908
   11       3.631059611835     -0.062430499765     -0.479810194988
   12      -5.584726279571     -0.110129312142      1.509271978377
   13       4.768062880464      0.356036166826      1.476768640010
   14      -3.532054131382      0.617479338751     -0.300699347912
   15       2.849121481132      0.060088949397      0.382929055446
   16      -8.230695630349     -2.721251242369     -0.315149365664
   17       8.230695630349     -2.721251242369      0.315149365664
   18      -8.230695630349      2.721251242369      0.315149365664
   19       8.230695630349      2.721251242369     -0.315149365664
   20      -6.926619505299     -0.480575446711     -0.062748723051
   21       6.926619505299     -0.480575446711      0.062748723051
   22      -6.926619505299      0.480575446711      0.062748723051
   23       6.926619505299      0.480575446711     -0.062748723051
   24      -9.091083525106     -0.053710871305     -2.550630815430
   25       9.091083525106      0.053710871305     -2.550630815430
   26      -5.009138407953     -0.089723581225     -0.094207327846
   27       5.009138407953      0.089723581225     -0.094207327846
   28      -9.091083525106      0.053710871305      2.550630815430
   29       9.091083525106     -0.053710871305      2.550630815430
   30      -5.009138407953      0.089723581225      0.094207327846
   31       5.009138407953     -0.089723581225      0.094207327846
   32      -0.515816672071     -3.593042361285     -2.170089533238
   33      -0.284786551016      1.063882094892      0.410110403895
   34       0.515816672071      3.593042361285     -2.170089533238
   35       0.284786551016     -1.063882094892      0.410110403895
   36       0.515816672071     -3.593042361285      2.170089533238
   37       0.284786551016      1.063882094892     -0.410110403895
   38      -0.515816672071      3.593042361285      2.170089533238
   39      -0.284786551016     -1.063882094892     -0.410110403895
   40      -3.631059611835      0.062430499765     -0.479810194988
   41       3.100137723881     -3.699772511348     -0.629851633908
   42      -6.084912439627     -0.133082244495     -0.044132083110
   43      11.526253447074      7.064543517547     -6.698691959403
   44      -2.849121481132     -0.060088949397      0.382929055446
   45       3.532054131383     -0.617479338751     -0.300699347912
   46      -4.768062880464     -0.356036166826      1.476768640010
   47       5.584726279571      0.110129312142      1.509271978376
   48      -4.768062880464      0.356036166826     -1.476768640010
   49       5.584726279571     -0.110129312142     -1.509271978377
   50      -2.849121481132      0.060088949397     -0.382929055446
   51       3.532054131383      0.617479338751      0.300699347912
   52      -6.084912439627      0.133082244495      0.044132083110
   53      11.526253447074     -7.064543517547      6.698691959403
   54      -3.631059611835     -0.062430499765      0.479810194988
   55       3.100137723881      3.699772511348      0.629851633908
   56      -3.532054131382     -0.617479338751      0.300699347912
   57       2.849121481132     -0.060088949397     -0.382929055446
   58      -5.584726279571      0.110129312142     -1.509271978377
   59       4.768062880464     -0.356036166826     -1.476768640010
   60      -3.100137723881     -3.699772511348      0.629851633908
[...]
                       1  1  1
           xangst      3.5984050184E+00  0.0000000000E+00  0.0000000000E+00
                       0.0000000000E+00  3.5984050184E+00  0.0000000000E+00
                       3.5984050184E+00  3.5984050184E+00  0.0000000000E+00
                       0.0000000000E+00  0.0000000000E+00  3.5984050184E+00
                       3.5984050184E+00  0.0000000000E+00  3.5984050184E+00
                       0.0000000000E+00  3.5984050184E+00  3.5984050184E+00
                       3.5984050184E+00  3.5984050184E+00  3.5984050184E+00
                       8.9960125460E-01  8.9960125460E-01  8.9960125460E-01
                       4.4980062730E+00  8.9960125460E-01  8.9960125460E-01
                       8.9960125460E-01  4.4980062730E+00  8.9960125460E-01
                       4.4980062730E+00  4.4980062730E+00  8.9960125460E-01
                       8.9960125460E-01  8.9960125460E-01  4.4980062730E+00
                       4.4980062730E+00  8.9960125460E-01  4.4980062730E+00
                       8.9960125460E-01  4.4980062730E+00  4.4980062730E+00
                       4.4980062730E+00  4.4980062730E+00  4.4980062730E+00
                       1.7992025092E+00  1.7992025092E+00  0.0000000000E+00
                       5.3976075276E+00  1.7992025092E+00  0.0000000000E+00
                       1.7992025092E+00  5.3976075276E+00  0.0000000000E+00
                       5.3976075276E+00  5.3976075276E+00  0.0000000000E+00
                       1.7992025092E+00  1.7992025092E+00  3.5984050184E+00
                       5.3976075276E+00  1.7992025092E+00  3.5984050184E+00
                       1.7992025092E+00  5.3976075276E+00  3.5984050184E+00
                       5.3976075276E+00  5.3976075276E+00  3.5984050184E+00
                       1.7992025092E+00  0.0000000000E+00  1.7992025092E+00
                       5.3976075276E+00  0.0000000000E+00  1.7992025092E+00
                       1.7992025092E+00  3.5984050184E+00  1.7992025092E+00
                       5.3976075276E+00  3.5984050184E+00  1.7992025092E+00
                       1.7992025092E+00  0.0000000000E+00  5.3976075276E+00
                       5.3976075276E+00  0.0000000000E+00  5.3976075276E+00
                       1.7992025092E+00  3.5984050184E+00  5.3976075276E+00
                       5.3976075276E+00  3.5984050184E+00  5.3976075276E+00
                       0.0000000000E+00  1.7992025092E+00  1.7992025092E+00
                       3.5984050184E+00  1.7992025092E+00  1.7992025092E+00
                       0.0000000000E+00  5.3976075276E+00  1.7992025092E+00
                       3.5984050184E+00  5.3976075276E+00  1.7992025092E+00
                       0.0000000000E+00  1.7992025092E+00  5.3976075276E+00
                       3.5984050184E+00  1.7992025092E+00  5.3976075276E+00
                       0.0000000000E+00  5.3976075276E+00  5.3976075276E+00
                       3.5984050184E+00  5.3976075276E+00  5.3976075276E+00
                       2.6988037638E+00  2.6988037638E+00  8.9960125460E-01
                       6.2972087822E+00  2.6988037638E+00  8.9960125460E-01
                       2.6988037638E+00  6.2972087822E+00  8.9960125460E-01
                       6.2972087822E+00  6.2972087822E+00  8.9960125460E-01
                       2.6988037638E+00  2.6988037638E+00  4.4980062730E+00
                       6.2972087822E+00  2.6988037638E+00  4.4980062730E+00
                       2.6988037638E+00  6.2972087822E+00  4.4980062730E+00
                       6.2972087822E+00  6.2972087822E+00  4.4980062730E+00
                       2.6988037638E+00  8.9960125460E-01  2.6988037638E+00
                       6.2972087822E+00  8.9960125460E-01  2.6988037638E+00
                       2.6988037638E+00  4.4980062730E+00  2.6988037638E+00
                       6.2972087822E+00  4.4980062730E+00  2.6988037638E+00
                       2.6988037638E+00  8.9960125460E-01  6.2972087822E+00
                       6.2972087822E+00  8.9960125460E-01  6.2972087822E+00
                       2.6988037638E+00  4.4980062730E+00  6.2972087822E+00
                       6.2972087822E+00  4.4980062730E+00  6.2972087822E+00
                       8.9960125460E-01  2.6988037638E+00  2.6988037638E+00
                       4.4980062730E+00  2.6988037638E+00  2.6988037638E+00
                       8.9960125460E-01  6.2972087822E+00  2.6988037638E+00
                       4.4980062730E+00  6.2972087822E+00  2.6988037638E+00
                       8.9960125460E-01  2.6988037638E+00  6.2972087822E+00
                       4.4980062730E+00  2.6988037638E+00  6.2972087822E+00
                       8.9960125460E-01  6.2972087822E+00  6.2972087822E+00
                       4.4980062730E+00  6.2972087822E+00  6.2972087822E+00
            xcart      6.8000000000E+00  0.0000000000E+00  0.0000000000E+00
                       0.0000000000E+00  6.8000000000E+00  0.0000000000E+00
                       6.8000000000E+00  6.8000000000E+00  0.0000000000E+00
                       0.0000000000E+00  0.0000000000E+00  6.8000000000E+00
                       6.8000000000E+00  0.0000000000E+00  6.8000000000E+00
                       0.0000000000E+00  6.8000000000E+00  6.8000000000E+00
                       6.8000000000E+00  6.8000000000E+00  6.8000000000E+00
                       1.7000000000E+00  1.7000000000E+00  1.7000000000E+00
                       8.5000000000E+00  1.7000000000E+00  1.7000000000E+00
                       1.7000000000E+00  8.5000000000E+00  1.7000000000E+00
                       8.5000000000E+00  8.5000000000E+00  1.7000000000E+00
                       1.7000000000E+00  1.7000000000E+00  8.5000000000E+00
                       8.5000000000E+00  1.7000000000E+00  8.5000000000E+00
                       1.7000000000E+00  8.5000000000E+00  8.5000000000E+00
                       8.5000000000E+00  8.5000000000E+00  8.5000000000E+00
                       3.4000000000E+00  3.4000000000E+00  0.0000000000E+00
                       1.0200000000E+01  3.4000000000E+00  0.0000000000E+00
                       3.4000000000E+00  1.0200000000E+01  0.0000000000E+00
                       1.0200000000E+01  1.0200000000E+01  0.0000000000E+00
                       3.4000000000E+00  3.4000000000E+00  6.8000000000E+00
                       1.0200000000E+01  3.4000000000E+00  6.8000000000E+00
                       3.4000000000E+00  1.0200000000E+01  6.8000000000E+00
                       1.0200000000E+01  1.0200000000E+01  6.8000000000E+00
                       3.4000000000E+00  0.0000000000E+00  3.4000000000E+00
                       1.0200000000E+01  0.0000000000E+00  3.4000000000E+00
                       3.4000000000E+00  6.8000000000E+00  3.4000000000E+00
                       1.0200000000E+01  6.8000000000E+00  3.4000000000E+00
                       3.4000000000E+00  0.0000000000E+00  1.0200000000E+01
                       1.0200000000E+01  0.0000000000E+00  1.0200000000E+01
                       3.4000000000E+00  6.8000000000E+00  1.0200000000E+01
                       1.0200000000E+01  6.8000000000E+00  1.0200000000E+01
                       0.0000000000E+00  3.4000000000E+00  3.4000000000E+00
                       6.8000000000E+00  3.4000000000E+00  3.4000000000E+00
                       0.0000000000E+00  1.0200000000E+01  3.4000000000E+00
                       6.8000000000E+00  1.0200000000E+01  3.4000000000E+00
                       0.0000000000E+00  3.4000000000E+00  1.0200000000E+01
                       6.8000000000E+00  3.4000000000E+00  1.0200000000E+01
                       0.0000000000E+00  1.0200000000E+01  1.0200000000E+01
                       6.8000000000E+00  1.0200000000E+01  1.0200000000E+01
                       5.1000000000E+00  5.1000000000E+00  1.7000000000E+00
                       1.1900000000E+01  5.1000000000E+00  1.7000000000E+00
                       5.1000000000E+00  1.1900000000E+01  1.7000000000E+00
                       1.1900000000E+01  1.1900000000E+01  1.7000000000E+00
                       5.1000000000E+00  5.1000000000E+00  8.5000000000E+00
                       1.1900000000E+01  5.1000000000E+00  8.5000000000E+00
                       5.1000000000E+00  1.1900000000E+01  8.5000000000E+00
                       1.1900000000E+01  1.1900000000E+01  8.5000000000E+00
                       5.1000000000E+00  1.7000000000E+00  5.1000000000E+00
                       1.1900000000E+01  1.7000000000E+00  5.1000000000E+00
                       5.1000000000E+00  8.5000000000E+00  5.1000000000E+00
                       1.1900000000E+01  8.5000000000E+00  5.1000000000E+00
                       5.1000000000E+00  1.7000000000E+00  1.1900000000E+01
                       1.1900000000E+01  1.7000000000E+00  1.1900000000E+01
                       5.1000000000E+00  8.5000000000E+00  1.1900000000E+01
                       1.1900000000E+01  8.5000000000E+00  1.1900000000E+01
                       1.7000000000E+00  5.1000000000E+00  5.1000000000E+00
                       8.5000000000E+00  5.1000000000E+00  5.1000000000E+00
                       1.7000000000E+00  1.1900000000E+01  5.1000000000E+00
                       8.5000000000E+00  1.1900000000E+01  5.1000000000E+00
                       1.7000000000E+00  5.1000000000E+00  1.1900000000E+01
                       8.5000000000E+00  5.1000000000E+00  1.1900000000E+01
                       1.7000000000E+00  1.1900000000E+01  1.1900000000E+01
                       8.5000000000E+00  1.1900000000E+01  1.1900000000E+01
             xred      5.0000000000E-01  0.0000000000E+00  0.0000000000E+00
                       0.0000000000E+00  5.0000000000E-01  0.0000000000E+00
                       5.0000000000E-01  5.0000000000E-01  0.0000000000E+00
                       0.0000000000E+00  0.0000000000E+00  5.0000000000E-01
                       5.0000000000E-01  0.0000000000E+00  5.0000000000E-01
                       0.0000000000E+00  5.0000000000E-01  5.0000000000E-01
                       5.0000000000E-01  5.0000000000E-01  5.0000000000E-01
                       1.2500000000E-01  1.2500000000E-01  1.2500000000E-01
                       6.2500000000E-01  1.2500000000E-01  1.2500000000E-01
                       1.2500000000E-01  6.2500000000E-01  1.2500000000E-01
                       6.2500000000E-01  6.2500000000E-01  1.2500000000E-01
                       1.2500000000E-01  1.2500000000E-01  6.2500000000E-01
                       6.2500000000E-01  1.2500000000E-01  6.2500000000E-01
                       1.2500000000E-01  6.2500000000E-01  6.2500000000E-01
                       6.2500000000E-01  6.2500000000E-01  6.2500000000E-01
                       2.5000000000E-01  2.5000000000E-01  0.0000000000E+00
                       7.5000000000E-01  2.5000000000E-01  0.0000000000E+00
                       2.5000000000E-01  7.5000000000E-01  0.0000000000E+00
                       7.5000000000E-01  7.5000000000E-01  0.0000000000E+00
                       2.5000000000E-01  2.5000000000E-01  5.0000000000E-01
                       7.5000000000E-01  2.5000000000E-01  5.0000000000E-01
                       2.5000000000E-01  7.5000000000E-01  5.0000000000E-01
                       7.5000000000E-01  7.5000000000E-01  5.0000000000E-01
                       2.5000000000E-01  0.0000000000E+00  2.5000000000E-01
                       7.5000000000E-01  0.0000000000E+00  2.5000000000E-01
                       2.5000000000E-01  5.0000000000E-01  2.5000000000E-01
                       7.5000000000E-01  5.0000000000E-01  2.5000000000E-01
                       2.5000000000E-01  0.0000000000E+00  7.5000000000E-01
                       7.5000000000E-01  0.0000000000E+00  7.5000000000E-01
                       2.5000000000E-01  5.0000000000E-01  7.5000000000E-01
                       7.5000000000E-01  5.0000000000E-01  7.5000000000E-01
                       0.0000000000E+00  2.5000000000E-01  2.5000000000E-01
                       5.0000000000E-01  2.5000000000E-01  2.5000000000E-01
                       0.0000000000E+00  7.5000000000E-01  2.5000000000E-01
                       5.0000000000E-01  7.5000000000E-01  2.5000000000E-01
                       0.0000000000E+00  2.5000000000E-01  7.5000000000E-01
                       5.0000000000E-01  2.5000000000E-01  7.5000000000E-01
                       0.0000000000E+00  7.5000000000E-01  7.5000000000E-01
                       5.0000000000E-01  7.5000000000E-01  7.5000000000E-01
                       3.7500000000E-01  3.7500000000E-01  1.2500000000E-01
                       8.7500000000E-01  3.7500000000E-01  1.2500000000E-01
                       3.7500000000E-01  8.7500000000E-01  1.2500000000E-01
                       8.7500000000E-01  8.7500000000E-01  1.2500000000E-01
                       3.7500000000E-01  3.7500000000E-01  6.2500000000E-01
                       8.7500000000E-01  3.7500000000E-01  6.2500000000E-01
                       3.7500000000E-01  8.7500000000E-01  6.2500000000E-01
                       8.7500000000E-01  8.7500000000E-01  6.2500000000E-01
                       3.7500000000E-01  1.2500000000E-01  3.7500000000E-01
                       8.7500000000E-01  1.2500000000E-01  3.7500000000E-01
                       3.7500000000E-01  6.2500000000E-01  3.7500000000E-01
                       8.7500000000E-01  6.2500000000E-01  3.7500000000E-01
                       3.7500000000E-01  1.2500000000E-01  8.7500000000E-01
                       8.7500000000E-01  1.2500000000E-01  8.7500000000E-01
                       3.7500000000E-01  6.2500000000E-01  8.7500000000E-01
                       8.7500000000E-01  6.2500000000E-01  8.7500000000E-01
                       1.2500000000E-01  3.7500000000E-01  3.7500000000E-01
                       6.2500000000E-01  3.7500000000E-01  3.7500000000E-01
                       1.2500000000E-01  8.7500000000E-01  3.7500000000E-01
                       6.2500000000E-01  8.7500000000E-01  3.7500000000E-01
                       1.2500000000E-01  3.7500000000E-01  8.7500000000E-01
                       6.2500000000E-01  3.7500000000E-01  8.7500000000E-01
                       1.2500000000E-01  8.7500000000E-01  8.7500000000E-01
                       6.2500000000E-01  8.7500000000E-01  8.7500000000E-01
            znucl        6.00000

================================================================================


- Timing analysis has been suppressed with timopt=0



================================================================================

 Suggested references for the acknowledgment of ABINIT usage.

 The users of ABINIT have little formal obligations with respect to the ABINIT group
 (those specified in the GNU General Public License, http://www.gnu.org/copyleft/gpl.txt).
 However, it is common practice in the scientific literature,
 to acknowledge the efforts of people that have made the research possible.
 In this spirit, please find below suggested citations of work written by ABINIT developers,
 corresponding to implementations inside of ABINIT that you have used in the present run.
 Note also that it will be of great value to readers of publications presenting these results,
 to read papers enabling them to understand the theoretical formalism and details
 of the ABINIT implementation.
 For information on why they are suggested, see also https://docs.abinit.org/theory/acknowledgments.
-
- [1] The Abinit project: Impact, environment and recent developments.
- Computer Phys. Comm. 248, 107042 (2020).
- X.Gonze, B. Amadon, G. Antonius, F.Arnardi, L.Baguet, J.-M.Beuken,
- J.Bieder, F.Bottin, J.Bouchet, E.Bousquet, N.Brouwer, F.Bruneval,
- G.Brunin, T.Cavignac, J.-B. Charraud, Wei Chen, M.Cote, S.Cottenier,
- J.Denier, G.Geneste, Ph.Ghosez, M.Giantomassi, Y.Gillet, O.Gingras,
- D.R.Hamann, G.Hautier, Xu He, N.Helbig, N.Holzwarth, Y.Jia, F.Jollet,
- W.Lafargue-Dit-Hauret, K.Lejaeghere, M.A.L.Marques, A.Martin, C.Martins,
- H.P.C. Miranda, F.Naccarato, K. Persson, G.Petretto, V.Planes, Y.Pouillon,
- S.Prokhorenko, F.Ricci, G.-M.Rignanese, A.H.Romero, M.M.Schmitt, M.Torrent,
- M.J.van Setten, B.Van Troeye, M.J.Verstraete, G.Zerah and J.W.Zwanzig
- Comment: the fifth generic paper describing the ABINIT project.
- Note that a version of this paper, that is not formatted for Computer Phys. Comm. 
- is available at https://www.abinit.org/sites/default/files/ABINIT20.pdf .
- The licence allows the authors to put it on the Web.
- DOI and bibtex: see https://docs.abinit.org/theory/bibliography/#gonze2020
-
- [2] Recent developments in the ABINIT software package.
- Computer Phys. Comm. 205, 106 (2016).
- X.Gonze, F.Jollet, F.Abreu Araujo, D.Adams, B.Amadon, T.Applencourt,
- C.Audouze, J.-M.Beuken, J.Bieder, A.Bokhanchuk, E.Bousquet, F.Bruneval
- D.Caliste, M.Cote, F.Dahm, F.Da Pieve, M.Delaveau, M.Di Gennaro,
- B.Dorado, C.Espejo, G.Geneste, L.Genovese, A.Gerossier, M.Giantomassi,
- Y.Gillet, D.R.Hamann, L.He, G.Jomard, J.Laflamme Janssen, S.Le Roux,
- A.Levitt, A.Lherbier, F.Liu, I.Lukacevic, A.Martin, C.Martins,
- M.J.T.Oliveira, S.Ponce, Y.Pouillon, T.Rangel, G.-M.Rignanese,
- A.H.Romero, B.Rousseau, O.Rubel, A.A.Shukri, M.Stankovski, M.Torrent,
- M.J.Van Setten, B.Van Troeye, M.J.Verstraete, D.Waroquier, J.Wiktor,
- B.Xu, A.Zhou, J.W.Zwanziger.
- Comment: the fourth generic paper describing the ABINIT project.
- Note that a version of this paper, that is not formatted for Computer Phys. Comm. 
- is available at https://www.abinit.org/sites/default/files/ABINIT16.pdf .
- The licence allows the authors to put it on the Web.
- DOI and bibtex: see https://docs.abinit.org/theory/bibliography/#gonze2016
-
- [3] ABINIT: First-principles approach of materials and nanosystem properties.
- Computer Phys. Comm. 180, 2582-2615 (2009).
- X. Gonze, B. Amadon, P.-M. Anglade, J.-M. Beuken, F. Bottin, P. Boulanger, F. Bruneval,
- D. Caliste, R. Caracas, M. Cote, T. Deutsch, L. Genovese, Ph. Ghosez, M. Giantomassi
- S. Goedecker, D.R. Hamann, P. Hermet, F. Jollet, G. Jomard, S. Leroux, M. Mancini, S. Mazevet,
- M.J.T. Oliveira, G. Onida, Y. Pouillon, T. Rangel, G.-M. Rignanese, D. Sangalli, R. Shaltaf,
- M. Torrent, M.J. Verstraete, G. Zerah, J.W. Zwanziger
- Comment: the third generic paper describing the ABINIT project.
- Note that a version of this paper, that is not formatted for Computer Phys. Comm. 
- is available at https://www.abinit.org/sites/default/files/ABINIT_CPC_v10.pdf .
- The licence allows the authors to put it on the Web.
- DOI and bibtex: see https://docs.abinit.org/theory/bibliography/#gonze2009
-
- And optionally:
-
- [4] A brief introduction to the ABINIT software package.
- Z. Kristallogr. 220, 558-562 (2005).
- X. Gonze, G.-M. Rignanese, M. Verstraete, J.-M. Beuken, Y. Pouillon, R. Caracas, F. Jollet,
- M. Torrent, G. Zerah, M. Mikami, Ph. Ghosez, M. Veithen, J.-Y. Raty, V. Olevano, F. Bruneval,
- L. Reining, R. Godby, G. Onida, D.R. Hamann, and D.C. Allan.
- Comment: the second generic paper describing the ABINIT project. Note that this paper
- should be cited especially if you are using the GW part of ABINIT, as several authors
- of this part are not in the list of authors of the first or third paper.
- The .pdf of the latter paper is available at https://www.abinit.org/sites/default/files/zfk_0505-06_558-562.pdf.
- Note that it should not redistributed (Copyright by Oldenburg Wissenschaftverlag,
- the licence allows the authors to put it on the Web).
- DOI and bibtex: see https://docs.abinit.org/theory/bibliography/#gonze2005
-
- Proc.   0 individual time (sec): cpu=         26.1  wall=         27.1

================================================================================

 Calculation completed.
.Delivered   1 WARNINGs and   3 COMMENTs to log file.
+Overall time at end (sec) : cpu=         26.1  wall=         27.1
