
.Version 9.0.0 of ABINIT 
.(MPI version, prepared for a x86_64_linux_gnu9.2 computer) 

.Copyright (C) 1998-2020 ABINIT group . 
 ABINIT comes with ABSOLUTELY NO WARRANTY.
 It is free software, and you are welcome to redistribute it
 under certain conditions (GNU General Public License,
 see ~abinit/COPYING or http://www.gnu.org/copyleft/gpl.txt).

 ABINIT is a project of the Universite Catholique de Louvain,
 Corning Inc. and other collaborators, see ~abinit/doc/developers/contributors.txt .
 Please read https://docs.abinit.org/theory/acknowledgments for suggested
 acknowledgments of the ABINIT effort.
 For more information, see https://www.abinit.org .

.Starting date : Mon 24 Feb 2020.
- ( at 16h14 )
  
- input  file    -> /home/gmatteo/git_repos/abinit/_abiref_gnu9.2_openmpi/tests/Test_suite/v1_t48/t48.in
- output file    -> t48.out
- root for input  files -> t48i
- root for output files -> t48o


 Symmetries : space group P1 (#  1); Bravais aP (primitive triclinic)
================================================================================
 Values of the parameters that define the memory need of the present run
     intxc =       1    ionmov =       4      iscf =       2    lmnmax =       2
     lnmax =       2     mgfft =      30  mpssoang =       3    mqgrid =    3001
     natom =       2  nloc_mem =       1    nspden =       2   nspinor =       1
    nsppol =       2      nsym =       1    n1xccc =    2501    ntypat =       1
    occopt =       2   xclevel =       1
-    mband =           5        mffmem =           1         mkmem =           1
       mpw =         338          nfft =       12000          nkpt =           1
================================================================================
P This job should need less than                       3.358 Mbytes of memory.
P Max. in XC chain
P            3 blocks of mpw  integer numbers, for      0.004 Mbytes.
P           20 blocks of mpw  real(dp)  numbers, for      0.052 Mbytes.
P           30 blocks of nfft real(dp)  numbers, for      2.747 Mbytes.
P              Additional     real(dp)  numbers, for      0.319 Mbytes.
P              With residue estimated to be             0.237 Mbytes.
P
P Comparison of the memory needs of different chains
P Main chain + fourwf.f                 3.165 Mbytes.
P Main chain + nonlop.f + opernl.f      2.849 Mbytes.
P XC chain                              3.358 Mbytes.
P mkrho chain                           2.555 Mbytes.
P fourdp chain                          2.351 Mbytes.
- parallel k-point chain                2.519 Mbytes.
P newvtr chain                          3.068 Mbytes.
  Rough estimation (10% accuracy) of disk space for files :
_ WF disk file :      0.043 Mbytes ; DEN or POT disk file :      0.185 Mbytes.
================================================================================

--------------------------------------------------------------------------------
------------- Echo of variables that govern the present computation ------------
--------------------------------------------------------------------------------
-
- outvars: echo of selected default values                                      
-   iomode0 =  0 , fftalg0 =312 , wfoptalg0 =  0
-
- outvars: echo of global parameters not present in the input file              
-  max_nthreads =    0
-
 -outvars: echo values of preprocessed input variables --------
            acell      1.2000000000E+01  8.0000000000E+00  8.0000000000E+00 Bohr
              amu      2.80855000E+01
           diemac      1.00000000E+00
           diemix      3.33333333E-01
             ecut      7.00000000E+00 Hartree
           enunit           2
-          fftalg         312
            intxc           1
           ionmov           4
           iprcfc           1
             iscf           2
           istwfk        2
           kptopt           0
P           mkmem           1
            natom           2
            nband           5       3
            ngfft          30      20      20
             nkpt           1
            nline           3
           nspden           2
           nsppol           2
            nstep          17
             nsym           1
            ntime          10
           ntypat           1
              occ      1.000000  1.000000  1.000000  1.000000  1.000000
                       1.000000  1.000000  1.000000
           occopt           2
        optforces           1
           prtvol          10
          spgroup           1
           toldff      1.00000000E-05
           tolmxf      1.00000000E-05
            typat      1  1
           xangst     -1.1229140366E+00  0.0000000000E+00  0.0000000000E+00
                       1.1229140366E+00  0.0000000000E+00  0.0000000000E+00
            xcart     -2.1220000000E+00  0.0000000000E+00  0.0000000000E+00
                       2.1220000000E+00  0.0000000000E+00  0.0000000000E+00
             xred     -1.7683333333E-01  0.0000000000E+00  0.0000000000E+00
                       1.7683333333E-01  0.0000000000E+00  0.0000000000E+00
            znucl       14.00000

================================================================================

 chkinp: Checking input parameters for consistency.

================================================================================
== DATASET  1 ==================================================================
-   mpi_nproc: 1, omp_nthreads: -1 (-1 if OMP is not activated)


--- !DatasetInfo
iteration_state: {dtset: 1, }
dimensions: {natom: 2, nkpt: 1, mband: 5, nsppol: 2, nspinor: 1, nspden: 2, mpw: 338, }
cutoff_energies: {ecut:   7.0, pawecutdg:  -1.0, }
electrons: {nelect:   8.00000000E+00, charge:   0.00000000E+00, occopt:   2.00000000E+00, tsmear:   1.00000000E-02, }
meta: {optdriver: 0, ionmov: 4, optcell: 0, iscf: 2, paral_kgb: 0, }
...

 Exchange-correlation functional for the present dataset will be:
  LDA: new Teter (4/93) with spin-polarized option - ixc=1
 Citation for XC functional:
  S. Goedecker, M. Teter, J. Huetter, PRB 54, 1703 (1996)

 Real(R)+Recip(G) space primitive vectors, cartesian coordinates (Bohr,Bohr^-1):
 R(1)= 12.0000000  0.0000000  0.0000000  G(1)=  0.0833333  0.0000000  0.0000000
 R(2)=  0.0000000  8.0000000  0.0000000  G(2)=  0.0000000  0.1250000  0.0000000
 R(3)=  0.0000000  0.0000000  8.0000000  G(3)=  0.0000000  0.0000000  0.1250000
 Unit cell volume ucvol=  7.6800000E+02 bohr^3
 Angles (23,13,12)=  9.00000000E+01  9.00000000E+01  9.00000000E+01 degrees

 getcut: wavevector=  0.0000  0.0000  0.0000  ngfft=  30  20  20
         ecut(hartree)=      7.000   => boxcut(ratio)=   2.09906

--- Pseudopotential description ------------------------------------------------
- pspini: atom type   1  psp file is /home/gmatteo/git_repos/abinit/tests/Psps_for_tests/PseudosTM_pwteter/14si.pspnc
- pspatm: opening atomic psp file    /home/gmatteo/git_repos/abinit/tests/Psps_for_tests/PseudosTM_pwteter/14si.pspnc
-  Troullier-Martins psp for element  Si        Thu Oct 27 17:31:21 EDT 1994
- 14.00000   4.00000    940714                znucl, zion, pspdat
    1    1    2    2      2001   0.00000      pspcod,pspxc,lmax,lloc,mmax,r2well
    0   5.907  14.692    1   2.0872718        l,e99.0,e99.9,nproj,rcpsp
   0.00000000   0.00000000   0.00000000   0.00000000     rms, ekb1, ekb2, epsatm
    1   2.617   4.181    1   2.0872718        l,e99.0,e99.9,nproj,rcpsp
   0.00000000   0.00000000   0.00000000   0.00000000     rms, ekb1, ekb2, epsatm
    2   0.000   0.000    0   2.0872718        l,e99.0,e99.9,nproj,rcpsp
   0.00000000   0.00000000   0.00000000   0.00000000     rms, ekb1, ekb2, epsatm
    1.80626423934776    0.22824404341771    1.17378968127746   rchrg,fchrg,qchrg
  pspatm : epsatm=    1.43386982
         --- l  ekb(1:nproj) -->
             0    3.287949
             1    1.849886
 pspatm: atomic psp has been read  and splines computed

   2.29419171E+01                                ecore*ucvol(ha*bohr**3)
--------------------------------------------------------------------------------

P newkpt: treating      5 bands with npw=     338 for ikpt=   1 by node    0
P newkpt: treating      3 bands with npw=     338 for ikpt=   1 by node    0
_setup2: Arith. and geom. avg. npw (full set) are     675.000     675.000

================================================================================

=== [ionmov= 4] Conjugate gradient of potential and ionic degrees of freedom
================================================================================

--- Iteration: ( 1/10) Internal Cycle: (1/1)
--------------------------------------------------------------------------------

---SELF-CONSISTENT-FIELD CONVERGENCE--------------------------------------------

--- !BeginCycle
iteration_state: {dtset: 1, itime: 1, icycle: 1, }
solver: {iscf: 2, nstep: 17, nline: 3, wfoptalg: 0, }
tolerances: {toldff: 1.00E-05, }
...

     iter   Etot(hartree)      deltaE(h)  residm     vres2    diffor    maxfor

 ETOT  1  -8.6426609862881    -8.643E+00 9.683E-03 1.793E+01 9.812E-03 9.812E-03

 cartesian forces (ha/bohr); non-corrected avg=  3.22E-03  2.38E-03 -3.12E-05
    1     6.37057077564E-03   -4.66970327838E-03   -9.81215197977E-03
    2    -6.37057077564E-03    4.66970327838E-03    9.81215197977E-03
 prteigrs : about to open file t48o_TIM1_EIG
 Fermi (or HOMO) energy (hartree) =  -0.03936   Average Vxc (hartree)=  -0.22084
 Eigenvalues (hartree) for nkpt=   1  k points, SPIN UP:
 kpt#   1, nband=  5, wtk=  1.00000, kpt=  0.0000  0.0000  0.0000 (reduced coord)
  -0.38167   -0.21316   -0.11372   -0.03985   -0.03936
 Eigenvalues (hartree) for nkpt=   1  k points, SPIN DOWN:
 kpt#   1, nband=  3, wtk=  1.00000, kpt=  0.0000  0.0000  0.0000 (reduced coord)
  -0.38109   -0.21246   -0.09602
 Fermi (or HOMO) energy (eV) =  -1.07116   Average Vxc (eV)=  -6.00930
 Eigenvalues (   eV  ) for nkpt=   1  k points, SPIN UP:
 kpt#   1, nband=  5, wtk=  1.00000, kpt=  0.0000  0.0000  0.0000 (reduced coord)
 -10.38582   -5.80036   -3.09436   -1.08441   -1.07116
 Eigenvalues (   eV  ) for nkpt=   1  k points, SPIN DOWN:
 kpt#   1, nband=  3, wtk=  1.00000, kpt=  0.0000  0.0000  0.0000 (reduced coord)
 -10.36994   -5.78127   -2.61295

 ETOT  2  -8.6689911792905    -2.633E-02 4.935E-05 5.462E+00 1.077E-02 4.397E-03

 cartesian forces (ha/bohr); non-corrected avg=  2.02E-04  2.70E-06 -1.21E-04
    1    -4.39725201373E-03   -6.22726369858E-05   -8.43801989305E-05
    2     4.39725201373E-03    6.22726369858E-05    8.43801989305E-05
 prteigrs : about to open file t48o_TIM1_EIG
 Fermi (or HOMO) energy (hartree) =  -0.04023   Average Vxc (hartree)=  -0.22152
 Eigenvalues (hartree) for nkpt=   1  k points, SPIN UP:
 kpt#   1, nband=  5, wtk=  1.00000, kpt=  0.0000  0.0000  0.0000 (reduced coord)
  -0.37279   -0.21617   -0.10885   -0.04070   -0.04023
 Eigenvalues (hartree) for nkpt=   1  k points, SPIN DOWN:
 kpt#   1, nband=  3, wtk=  1.00000, kpt=  0.0000  0.0000  0.0000 (reduced coord)
  -0.34949   -0.19573   -0.09188
 Fermi (or HOMO) energy (eV) =  -1.09478   Average Vxc (eV)=  -6.02775
 Eigenvalues (   eV  ) for nkpt=   1  k points, SPIN UP:
 kpt#   1, nband=  5, wtk=  1.00000, kpt=  0.0000  0.0000  0.0000 (reduced coord)
 -10.14413   -5.88217   -2.96202   -1.10741   -1.09478
 Eigenvalues (   eV  ) for nkpt=   1  k points, SPIN DOWN:
 kpt#   1, nband=  3, wtk=  1.00000, kpt=  0.0000  0.0000  0.0000 (reduced coord)
  -9.51013   -5.32605   -2.50026

 ETOT  3  -8.6707821519898    -1.791E-03 2.185E-05 2.002E+00 6.512E-03 1.091E-02

 cartesian forces (ha/bohr); non-corrected avg= -4.81E-05 -1.13E-05 -2.97E-05
    1    -1.09090353869E-02   -1.98330446085E-05   -4.40059307742E-05
    2     1.09090353869E-02    1.98330446085E-05    4.40059307742E-05
 prteigrs : about to open file t48o_TIM1_EIG
 Fermi (or HOMO) energy (hartree) =  -0.04218   Average Vxc (hartree)=  -0.22224
 Eigenvalues (hartree) for nkpt=   1  k points, SPIN UP:
 kpt#   1, nband=  5, wtk=  1.00000, kpt=  0.0000  0.0000  0.0000 (reduced coord)
  -0.37031   -0.21685   -0.10392   -0.04247   -0.04218
 Eigenvalues (hartree) for nkpt=   1  k points, SPIN DOWN:
 kpt#   1, nband=  3, wtk=  1.00000, kpt=  0.0000  0.0000  0.0000 (reduced coord)
  -0.34158   -0.19279   -0.08599
 Fermi (or HOMO) energy (eV) =  -1.14782   Average Vxc (eV)=  -6.04752
 Eigenvalues (   eV  ) for nkpt=   1  k points, SPIN UP:
 kpt#   1, nband=  5, wtk=  1.00000, kpt=  0.0000  0.0000  0.0000 (reduced coord)
 -10.07669   -5.90083   -2.82791   -1.15577   -1.14782
 Eigenvalues (   eV  ) for nkpt=   1  k points, SPIN DOWN:
 kpt#   1, nband=  3, wtk=  1.00000, kpt=  0.0000  0.0000  0.0000 (reduced coord)
  -9.29494   -5.24606   -2.33999

 ETOT  4  -8.6713263797414    -5.442E-04 5.324E-06 7.740E-01 3.071E-03 1.398E-02

 cartesian forces (ha/bohr); non-corrected avg= -2.57E-05 -6.67E-06 -1.38E-05
    1    -1.39803836069E-02   -2.44522410339E-05   -4.90822564239E-05
    2     1.39803836069E-02    2.44522410339E-05    4.90822564239E-05
 prteigrs : about to open file t48o_TIM1_EIG
 Fermi (or HOMO) energy (hartree) =  -0.04389   Average Vxc (hartree)=  -0.22259
 Eigenvalues (hartree) for nkpt=   1  k points, SPIN UP:
 kpt#   1, nband=  5, wtk=  1.00000, kpt=  0.0000  0.0000  0.0000 (reduced coord)
  -0.36980   -0.21747   -0.10109   -0.04407   -0.04389
 Eigenvalues (hartree) for nkpt=   1  k points, SPIN DOWN:
 kpt#   1, nband=  3, wtk=  1.00000, kpt=  0.0000  0.0000  0.0000 (reduced coord)
  -0.33848   -0.19201   -0.08366
 Fermi (or HOMO) energy (eV) =  -1.19428   Average Vxc (eV)=  -6.05689
 Eigenvalues (   eV  ) for nkpt=   1  k points, SPIN UP:
 kpt#   1, nband=  5, wtk=  1.00000, kpt=  0.0000  0.0000  0.0000 (reduced coord)
 -10.06284   -5.91763   -2.75091   -1.19930   -1.19428
 Eigenvalues (   eV  ) for nkpt=   1  k points, SPIN DOWN:
 kpt#   1, nband=  3, wtk=  1.00000, kpt=  0.0000  0.0000  0.0000 (reduced coord)
  -9.21039   -5.22477   -2.27661

 ETOT  5  -8.6715111991922    -1.848E-04 1.581E-06 3.157E-01 1.651E-03 1.563E-02

 cartesian forces (ha/bohr); non-corrected avg= -6.85E-06 -2.34E-06 -6.28E-06
    1    -1.56318323274E-02   -2.39745027478E-05   -4.42785359693E-05
    2     1.56318323274E-02    2.39745027478E-05    4.42785359693E-05
 prteigrs : about to open file t48o_TIM1_EIG
 Fermi (or HOMO) energy (hartree) =  -0.04504   Average Vxc (hartree)=  -0.22275
 Eigenvalues (hartree) for nkpt=   1  k points, SPIN UP:
 kpt#   1, nband=  5, wtk=  1.00000, kpt=  0.0000  0.0000  0.0000 (reduced coord)
  -0.36975   -0.21791   -0.09942   -0.04516   -0.04504
 Eigenvalues (hartree) for nkpt=   1  k points, SPIN DOWN:
 kpt#   1, nband=  3, wtk=  1.00000, kpt=  0.0000  0.0000  0.0000 (reduced coord)
  -0.33665   -0.19150   -0.08239
 Fermi (or HOMO) energy (eV) =  -1.22573   Average Vxc (eV)=  -6.06133
 Eigenvalues (   eV  ) for nkpt=   1  k points, SPIN UP:
 kpt#   1, nband=  5, wtk=  1.00000, kpt=  0.0000  0.0000  0.0000 (reduced coord)
 -10.06129   -5.92972   -2.70525   -1.22894   -1.22573
 Eigenvalues (   eV  ) for nkpt=   1  k points, SPIN DOWN:
 kpt#   1, nband=  3, wtk=  1.00000, kpt=  0.0000  0.0000  0.0000 (reduced coord)
  -9.16070   -5.21087   -2.24202

 ETOT  6  -8.6715812775210    -7.008E-05 5.632E-07 1.351E-01 9.261E-04 1.656E-02

 cartesian forces (ha/bohr); non-corrected avg= -4.22E-06 -7.06E-08 -2.98E-06
    1    -1.65579390859E-02   -2.26609263659E-05   -3.92922119295E-05
    2     1.65579390859E-02    2.26609263659E-05    3.92922119295E-05
 prteigrs : about to open file t48o_TIM1_EIG
 Fermi (or HOMO) energy (hartree) =  -0.04580   Average Vxc (hartree)=  -0.22283
 Eigenvalues (hartree) for nkpt=   1  k points, SPIN UP:
 kpt#   1, nband=  5, wtk=  1.00000, kpt=  0.0000  0.0000  0.0000 (reduced coord)
  -0.36980   -0.21821   -0.09840   -0.04587   -0.04580
 Eigenvalues (hartree) for nkpt=   1  k points, SPIN DOWN:
 kpt#   1, nband=  3, wtk=  1.00000, kpt=  0.0000  0.0000  0.0000 (reduced coord)
  -0.33548   -0.19113   -0.08168
 Fermi (or HOMO) energy (eV) =  -1.24618   Average Vxc (eV)=  -6.06364
 Eigenvalues (   eV  ) for nkpt=   1  k points, SPIN UP:
 kpt#   1, nband=  5, wtk=  1.00000, kpt=  0.0000  0.0000  0.0000 (reduced coord)
 -10.06282   -5.93791   -2.67765   -1.24825   -1.24618
 Eigenvalues (   eV  ) for nkpt=   1  k points, SPIN DOWN:
 kpt#   1, nband=  3, wtk=  1.00000, kpt=  0.0000  0.0000  0.0000 (reduced coord)
  -9.12884   -5.20098   -2.22275

 ETOT  7  -8.6716095311298    -2.825E-05 2.365E-07 6.015E-02 5.204E-04 1.708E-02

 cartesian forces (ha/bohr); non-corrected avg= -3.65E-06  3.94E-07 -1.77E-06
    1    -1.70783561360E-02   -1.91916231258E-05   -3.21234210502E-05
    2     1.70783561360E-02    1.91916231258E-05    3.21234210502E-05
 prteigrs : about to open file t48o_TIM1_EIG
 Fermi (or HOMO) energy (hartree) =  -0.04629   Average Vxc (hartree)=  -0.22288
 Eigenvalues (hartree) for nkpt=   1  k points, SPIN UP:
 kpt#   1, nband=  5, wtk=  1.00000, kpt=  0.0000  0.0000  0.0000 (reduced coord)
  -0.36989   -0.21842   -0.09779   -0.04634   -0.04629
 Eigenvalues (hartree) for nkpt=   1  k points, SPIN DOWN:
 kpt#   1, nband=  3, wtk=  1.00000, kpt=  0.0000  0.0000  0.0000 (reduced coord)
  -0.33471   -0.19088   -0.08130
 Fermi (or HOMO) energy (eV) =  -1.25958   Average Vxc (eV)=  -6.06488
 Eigenvalues (   eV  ) for nkpt=   1  k points, SPIN UP:
 kpt#   1, nband=  5, wtk=  1.00000, kpt=  0.0000  0.0000  0.0000 (reduced coord)
 -10.06509   -5.94347   -2.66088   -1.26093   -1.25958
 Eigenvalues (   eV  ) for nkpt=   1  k points, SPIN DOWN:
 kpt#   1, nband=  3, wtk=  1.00000, kpt=  0.0000  0.0000  0.0000 (reduced coord)
  -9.10794   -5.19408   -2.21228

 ETOT  8  -8.6716215429912    -1.201E-05 1.046E-07 2.760E-02 2.957E-04 1.737E-02

 cartesian forces (ha/bohr); non-corrected avg= -3.50E-06  2.14E-07 -1.39E-06
    1    -1.73740894363E-02   -1.53124009589E-05   -2.50673887280E-05
    2     1.73740894363E-02    1.53124009589E-05    2.50673887280E-05
 prteigrs : about to open file t48o_TIM1_EIG
 Fermi (or HOMO) energy (hartree) =  -0.04661   Average Vxc (hartree)=  -0.22291
 Eigenvalues (hartree) for nkpt=   1  k points, SPIN UP:
 kpt#   1, nband=  5, wtk=  1.00000, kpt=  0.0000  0.0000  0.0000 (reduced coord)
  -0.36996   -0.21855   -0.09740   -0.04664   -0.04661
 Eigenvalues (hartree) for nkpt=   1  k points, SPIN DOWN:
 kpt#   1, nband=  3, wtk=  1.00000, kpt=  0.0000  0.0000  0.0000 (reduced coord)
  -0.33420   -0.19070   -0.08109
 Fermi (or HOMO) energy (eV) =  -1.26835   Average Vxc (eV)=  -6.06557
 Eigenvalues (   eV  ) for nkpt=   1  k points, SPIN UP:
 kpt#   1, nband=  5, wtk=  1.00000, kpt=  0.0000  0.0000  0.0000 (reduced coord)
 -10.06718   -5.94713   -2.65048   -1.26924   -1.26835
 Eigenvalues (   eV  ) for nkpt=   1  k points, SPIN DOWN:
 kpt#   1, nband=  3, wtk=  1.00000, kpt=  0.0000  0.0000  0.0000 (reduced coord)
  -9.09392   -5.18916   -2.20662

 ETOT  9  -8.6716268793207    -5.336E-06 4.776E-08 1.293E-02 1.685E-04 1.754E-02

 cartesian forces (ha/bohr); non-corrected avg= -2.02E-06  4.84E-09 -1.16E-06
    1    -1.75426354895E-02   -1.18724580654E-05   -1.91526223377E-05
    2     1.75426354895E-02    1.18724580654E-05    1.91526223377E-05
 prteigrs : about to open file t48o_TIM1_EIG
 Fermi (or HOMO) energy (hartree) =  -0.04682   Average Vxc (hartree)=  -0.22292
 Eigenvalues (hartree) for nkpt=   1  k points, SPIN UP:
 kpt#   1, nband=  5, wtk=  1.00000, kpt=  0.0000  0.0000  0.0000 (reduced coord)
  -0.37002   -0.21864   -0.09716   -0.04684   -0.04682
 Eigenvalues (hartree) for nkpt=   1  k points, SPIN DOWN:
 kpt#   1, nband=  3, wtk=  1.00000, kpt=  0.0000  0.0000  0.0000 (reduced coord)
  -0.33384   -0.19057   -0.08098
 Fermi (or HOMO) energy (eV) =  -1.27412   Average Vxc (eV)=  -6.06597
 Eigenvalues (   eV  ) for nkpt=   1  k points, SPIN UP:
 kpt#   1, nband=  5, wtk=  1.00000, kpt=  0.0000  0.0000  0.0000 (reduced coord)
 -10.06887   -5.94951   -2.64393   -1.27471   -1.27412
 Eigenvalues (   eV  ) for nkpt=   1  k points, SPIN DOWN:
 kpt#   1, nband=  3, wtk=  1.00000, kpt=  0.0000  0.0000  0.0000 (reduced coord)
  -9.08438   -5.18564   -2.20362

 ETOT 10  -8.6716293368771    -2.458E-06 2.220E-08 6.144E-03 9.504E-05 1.764E-02

 cartesian forces (ha/bohr); non-corrected avg= -1.63E-06 -7.96E-08 -8.94E-07
    1    -1.76376798698E-02   -9.13731350959E-06   -1.45622223414E-05
    2     1.76376798698E-02    9.13731350959E-06    1.45622223414E-05
 prteigrs : about to open file t48o_TIM1_EIG
 Fermi (or HOMO) energy (hartree) =  -0.04696   Average Vxc (hartree)=  -0.22293
 Eigenvalues (hartree) for nkpt=   1  k points, SPIN UP:
 kpt#   1, nband=  5, wtk=  1.00000, kpt=  0.0000  0.0000  0.0000 (reduced coord)
  -0.37007   -0.21870   -0.09701   -0.04698   -0.04696
 Eigenvalues (hartree) for nkpt=   1  k points, SPIN DOWN:
 kpt#   1, nband=  3, wtk=  1.00000, kpt=  0.0000  0.0000  0.0000 (reduced coord)
  -0.33360   -0.19048   -0.08092
 Fermi (or HOMO) energy (eV) =  -1.27794   Average Vxc (eV)=  -6.06621
 Eigenvalues (   eV  ) for nkpt=   1  k points, SPIN UP:
 kpt#   1, nband=  5, wtk=  1.00000, kpt=  0.0000  0.0000  0.0000 (reduced coord)
 -10.07017   -5.95103   -2.63972   -1.27833   -1.27794
 Eigenvalues (   eV  ) for nkpt=   1  k points, SPIN DOWN:
 kpt#   1, nband=  3, wtk=  1.00000, kpt=  0.0000  0.0000  0.0000 (reduced coord)
  -9.07785   -5.18312   -2.20206

 ETOT 11  -8.6716304990539    -1.162E-06 1.048E-08 2.947E-03 5.280E-05 1.769E-02

 cartesian forces (ha/bohr); non-corrected avg= -1.01E-06 -9.16E-08 -6.59E-07
    1    -1.76904753463E-02   -6.99592278247E-06   -1.10304866951E-05
    2     1.76904753463E-02    6.99592278247E-06    1.10304866951E-05
 prteigrs : about to open file t48o_TIM1_EIG
 Fermi (or HOMO) energy (hartree) =  -0.04706   Average Vxc (hartree)=  -0.22293
 Eigenvalues (hartree) for nkpt=   1  k points, SPIN UP:
 kpt#   1, nband=  5, wtk=  1.00000, kpt=  0.0000  0.0000  0.0000 (reduced coord)
  -0.37011   -0.21873   -0.09691   -0.04707   -0.04706
 Eigenvalues (hartree) for nkpt=   1  k points, SPIN DOWN:
 kpt#   1, nband=  3, wtk=  1.00000, kpt=  0.0000  0.0000  0.0000 (reduced coord)
  -0.33344   -0.19041   -0.08090
 Fermi (or HOMO) energy (eV) =  -1.28049   Average Vxc (eV)=  -6.06635
 Eigenvalues (   eV  ) for nkpt=   1  k points, SPIN UP:
 kpt#   1, nband=  5, wtk=  1.00000, kpt=  0.0000  0.0000  0.0000 (reduced coord)
 -10.07113   -5.95200   -2.63697   -1.28076   -1.28049
 Eigenvalues (   eV  ) for nkpt=   1  k points, SPIN DOWN:
 kpt#   1, nband=  3, wtk=  1.00000, kpt=  0.0000  0.0000  0.0000 (reduced coord)
  -9.07335   -5.18131   -2.20129

 ETOT 12  -8.6716310602587    -5.612E-07 5.011E-09 1.423E-03 2.929E-05 1.772E-02

 cartesian forces (ha/bohr); non-corrected avg= -8.23E-07 -9.03E-08 -4.90E-07
    1    -1.77197647263E-02   -5.33508309758E-06   -8.33151234479E-06
    2     1.77197647263E-02    5.33508309758E-06    8.33151234479E-06
 prteigrs : about to open file t48o_TIM1_EIG
 Fermi (or HOMO) energy (hartree) =  -0.04712   Average Vxc (hartree)=  -0.22294
 Eigenvalues (hartree) for nkpt=   1  k points, SPIN UP:
 kpt#   1, nband=  5, wtk=  1.00000, kpt=  0.0000  0.0000  0.0000 (reduced coord)
  -0.37013   -0.21875   -0.09684   -0.04713   -0.04712
 Eigenvalues (hartree) for nkpt=   1  k points, SPIN DOWN:
 kpt#   1, nband=  3, wtk=  1.00000, kpt=  0.0000  0.0000  0.0000 (reduced coord)
  -0.33333   -0.19036   -0.08088
 Fermi (or HOMO) energy (eV) =  -1.28221   Average Vxc (eV)=  -6.06645
 Eigenvalues (   eV  ) for nkpt=   1  k points, SPIN UP:
 kpt#   1, nband=  5, wtk=  1.00000, kpt=  0.0000  0.0000  0.0000 (reduced coord)
 -10.07183   -5.95262   -2.63516   -1.28239   -1.28221
 Eigenvalues (   eV  ) for nkpt=   1  k points, SPIN DOWN:
 kpt#   1, nband=  3, wtk=  1.00000, kpt=  0.0000  0.0000  0.0000 (reduced coord)
  -9.07025   -5.18003   -2.20094

 ETOT 13  -8.6716313355339    -2.753E-07 2.424E-09 6.901E-04 1.601E-05 1.774E-02

 cartesian forces (ha/bohr); non-corrected avg= -5.03E-07 -8.42E-08 -3.69E-07
    1    -1.77357789458E-02   -4.05057503565E-06   -6.27225851360E-06
    2     1.77357789458E-02    4.05057503565E-06    6.27225851360E-06
 prteigrs : about to open file t48o_TIM1_EIG
 Fermi (or HOMO) energy (hartree) =  -0.04716   Average Vxc (hartree)=  -0.22294
 Eigenvalues (hartree) for nkpt=   1  k points, SPIN UP:
 kpt#   1, nband=  5, wtk=  1.00000, kpt=  0.0000  0.0000  0.0000 (reduced coord)
  -0.37015   -0.21877   -0.09680   -0.04717   -0.04716
 Eigenvalues (hartree) for nkpt=   1  k points, SPIN DOWN:
 kpt#   1, nband=  3, wtk=  1.00000, kpt=  0.0000  0.0000  0.0000 (reduced coord)
  -0.33325   -0.19033   -0.08088
 Fermi (or HOMO) energy (eV) =  -1.28338   Average Vxc (eV)=  -6.06651
 Eigenvalues (   eV  ) for nkpt=   1  k points, SPIN UP:
 kpt#   1, nband=  5, wtk=  1.00000, kpt=  0.0000  0.0000  0.0000 (reduced coord)
 -10.07234   -5.95301   -2.63394   -1.28350   -1.28338
 Eigenvalues (   eV  ) for nkpt=   1  k points, SPIN DOWN:
 kpt#   1, nband=  3, wtk=  1.00000, kpt=  0.0000  0.0000  0.0000 (reduced coord)
  -9.06810   -5.17912   -2.20082

 ETOT 14  -8.6716314723143    -1.368E-07 1.185E-09 3.357E-04 8.624E-06 1.774E-02

 cartesian forces (ha/bohr); non-corrected avg= -3.98E-07 -7.86E-08 -2.83E-07
    1    -1.77444025046E-02   -3.06801193040E-06   -4.71450855903E-06
    2     1.77444025046E-02    3.06801193040E-06    4.71450855903E-06
 prteigrs : about to open file t48o_TIM1_EIG
 Fermi (or HOMO) energy (hartree) =  -0.04719   Average Vxc (hartree)=  -0.22294
 Eigenvalues (hartree) for nkpt=   1  k points, SPIN UP:
 kpt#   1, nband=  5, wtk=  1.00000, kpt=  0.0000  0.0000  0.0000 (reduced coord)
  -0.37017   -0.21878   -0.09676   -0.04720   -0.04719
 Eigenvalues (hartree) for nkpt=   1  k points, SPIN DOWN:
 kpt#   1, nband=  3, wtk=  1.00000, kpt=  0.0000  0.0000  0.0000 (reduced coord)
  -0.33319   -0.19031   -0.08088
 Fermi (or HOMO) energy (eV) =  -1.28417   Average Vxc (eV)=  -6.06654
 Eigenvalues (   eV  ) for nkpt=   1  k points, SPIN UP:
 kpt#   1, nband=  5, wtk=  1.00000, kpt=  0.0000  0.0000  0.0000 (reduced coord)
 -10.07271   -5.95326   -2.63311   -1.28425   -1.28417
 Eigenvalues (   eV  ) for nkpt=   1  k points, SPIN DOWN:
 kpt#   1, nband=  3, wtk=  1.00000, kpt=  0.0000  0.0000  0.0000 (reduced coord)
  -9.06661   -5.17848   -2.20080

 ETOT 15  -8.6716315409417    -6.863E-08 5.848E-10 1.638E-04 4.464E-06 1.775E-02

 cartesian forces (ha/bohr); non-corrected avg= -2.44E-07 -6.96E-08 -2.17E-07
    1    -1.77488665747E-02   -2.31900113758E-06   -3.53916270472E-06
    2     1.77488665747E-02    2.31900113758E-06    3.53916270472E-06
 prteigrs : about to open file t48o_TIM1_EIG
 Fermi (or HOMO) energy (hartree) =  -0.04721   Average Vxc (hartree)=  -0.22294
 Eigenvalues (hartree) for nkpt=   1  k points, SPIN UP:
 kpt#   1, nband=  5, wtk=  1.00000, kpt=  0.0000  0.0000  0.0000 (reduced coord)
  -0.37017   -0.21878   -0.09674   -0.04721   -0.04721
 Eigenvalues (hartree) for nkpt=   1  k points, SPIN DOWN:
 kpt#   1, nband=  3, wtk=  1.00000, kpt=  0.0000  0.0000  0.0000 (reduced coord)
  -0.33315   -0.19029   -0.08088
 Fermi (or HOMO) energy (eV) =  -1.28471   Average Vxc (eV)=  -6.06657
 Eigenvalues (   eV  ) for nkpt=   1  k points, SPIN UP:
 kpt#   1, nband=  5, wtk=  1.00000, kpt=  0.0000  0.0000  0.0000 (reduced coord)
 -10.07297   -5.95341   -2.63254   -1.28477   -1.28471
 Eigenvalues (   eV  ) for nkpt=   1  k points, SPIN DOWN:
 kpt#   1, nband=  3, wtk=  1.00000, kpt=  0.0000  0.0000  0.0000 (reduced coord)
  -9.06558   -5.17804   -2.20083

 At SCF step   15, forces are converged : 
  for the second time, max diff in force=  4.464E-06 < toldff=  1.000E-05

 Cartesian components of stress tensor (hartree/bohr^3)
  sigma(1 1)=  1.36871894E-04  sigma(3 2)= -1.91452067E-09
  sigma(2 2)=  1.10417578E-04  sigma(3 1)= -1.89394417E-08
  sigma(3 3)=  1.10411942E-04  sigma(2 1)= -1.24359081E-08


--- !ResultsGS
iteration_state: {dtset: 1, itime: 1, icycle: 1, }
comment   : Summary of ground state results
lattice_vectors:
- [ 12.0000000,   0.0000000,   0.0000000, ]
- [  0.0000000,   8.0000000,   0.0000000, ]
- [  0.0000000,   0.0000000,   8.0000000, ]
lattice_lengths: [  12.00000,    8.00000,    8.00000, ]
lattice_angles: [ 90.000,  90.000,  90.000, ] # degrees, (23, 13, 12)
lattice_volume:   7.6800000E+02
convergence: {deltae: -6.863E-08, res2:  1.638E-04, residm:  5.848E-10, diffor:  4.464E-06, }
etotal    :  -8.67163154E+00
entropy   :   0.00000000E+00
fermie    :  -4.72123034E-02
cartesian_stress_tensor: # hartree/bohr^3
- [  1.36871894E-04,  -1.24359081E-08,  -1.89394417E-08, ]
- [ -1.24359081E-08,   1.10417578E-04,  -1.91452067E-09, ]
- [ -1.89394417E-08,  -1.91452067E-09,   1.10411942E-04, ]
pressure_GPa:  -3.5080E+00
xred      :
- [ -1.7683E-01,   0.0000E+00,   0.0000E+00, Si]
- [  1.7683E-01,   0.0000E+00,   0.0000E+00, Si]
cartesian_forces: # hartree/bohr
- [ -1.77488666E-02,  -2.31900114E-06,  -3.53916270E-06, ]
- [  1.77488666E-02,   2.31900114E-06,   3.53916270E-06, ]
force_length_stats: {min:   1.77488671E-02, max:   1.77488671E-02, mean:   1.77488671E-02, }
...

 Integrated electronic and magnetization densities in atomic spheres:
 ---------------------------------------------------------------------
 Radius=ratsph(iatom), smearing ratsm=  0.0000. Diff(up-dn)=approximate z local magnetic moment.
 Atom    Radius    up_density   dn_density  Total(up+dn)  Diff(up-dn)
    1   2.00000     0.951584     0.610110      1.561693     0.341474
    2   2.00000     0.951533     0.610161      1.561693     0.341372
 ---------------------------------------------------------------------
  Sum:              1.903116     1.220271      3.123387     0.682845
 Total magnetization (from the atomic spheres):             0.682845
 Total magnetization (exact up - dn):                       2.000000

---OUTPUT-----------------------------------------------------------------------

 Cartesian coordinates (xcart) [bohr]
 -2.12200000000000E+00  0.00000000000000E+00  0.00000000000000E+00
  2.12200000000000E+00  0.00000000000000E+00  0.00000000000000E+00
 Reduced coordinates (xred)
 -1.76833333333333E-01  0.00000000000000E+00  0.00000000000000E+00
  1.76833333333333E-01  0.00000000000000E+00  0.00000000000000E+00
 Cartesian forces (fcart) [Ha/bohr]; max,rms= 1.77489E-02 1.02473E-02 (free atoms)
 -1.77488665747302E-02 -2.31900113757501E-06 -3.53916270472157E-06
  1.77488665747302E-02  2.31900113757501E-06  3.53916270472157E-06
 Reduced forces (fred)
  2.12986398896762E-01  1.85520091006000E-05  2.83133016377725E-05
 -2.12986398896762E-01 -1.85520091006000E-05 -2.83133016377725E-05
 Total energy (etotal) [Ha]= -8.67163154094171E+00

--- Iteration: ( 2/10) Internal Cycle: (1/1)
--------------------------------------------------------------------------------

---SELF-CONSISTENT-FIELD CONVERGENCE--------------------------------------------

--- !BeginCycle
iteration_state: {dtset: 1, itime: 2, icycle: 1, }
solver: {iscf: 2, nstep: 17, nline: 3, wfoptalg: 0, }
tolerances: {toldff: 1.00E-05, }
...

     iter   Etot(hartree)      deltaE(h)  residm     vres2    diffor    maxfor

 ETOT  1  -8.6716316100602    -8.672E+00 1.748E-11 2.237E-06 6.299E-06 1.776E-02

 reduced coordinates :
    1    -1.76833333333E-01    0.00000000000E+00    0.00000000000E+00
    2     1.76833333333E-01    0.00000000000E+00    0.00000000000E+00
 cartesian forces (ha/bohr); non-corrected avg=  1.64E-09  8.10E-09  6.92E-09
    1    -1.77551659102E-02   -6.05736393524E-07   -8.68033370502E-07
    2     1.77551659102E-02    6.05736393524E-07    8.68033370502E-07
 prteigrs : about to open file t48o_TIM2_EIG
 Fermi (or HOMO) energy (hartree) =  -0.04725   Average Vxc (hartree)=  -0.22294
 Eigenvalues (hartree) for nkpt=   1  k points, SPIN UP:
 kpt#   1, nband=  5, wtk=  1.00000, kpt=  0.0000  0.0000  0.0000 (reduced coord)
  -0.37019   -0.21879   -0.09670   -0.04725   -0.04725
 Eigenvalues (hartree) for nkpt=   1  k points, SPIN DOWN:
 kpt#   1, nband=  3, wtk=  1.00000, kpt=  0.0000  0.0000  0.0000 (reduced coord)
  -0.33307   -0.19025   -0.08088
 Fermi (or HOMO) energy (eV) =  -1.28580   Average Vxc (eV)=  -6.06662
 Eigenvalues (   eV  ) for nkpt=   1  k points, SPIN UP:
 kpt#   1, nband=  5, wtk=  1.00000, kpt=  0.0000  0.0000  0.0000 (reduced coord)
 -10.07350   -5.95368   -2.63134   -1.28581   -1.28580
 Eigenvalues (   eV  ) for nkpt=   1  k points, SPIN DOWN:
 kpt#   1, nband=  3, wtk=  1.00000, kpt=  0.0000  0.0000  0.0000 (reduced coord)
  -9.06334   -5.17703   -2.20090

 ETOT  2  -8.6725907504880    -9.591E-04 6.946E-08 4.591E-02 6.959E-03 1.080E-02

 reduced coordinates :
    1    -1.79792527652E-01   -1.51434098381E-07   -2.17008342626E-07
    2     1.79792527652E-01    1.51434098381E-07    2.17008342626E-07
 cartesian forces (ha/bohr); non-corrected avg= -1.05E-08 -6.34E-09 -1.56E-08
    1    -1.07963234564E-02   -4.31117760324E-07   -6.24914756366E-07
    2     1.07963234564E-02    4.31117760324E-07    6.24914756366E-07
 prteigrs : about to open file t48o_TIM2_EIG
 Fermi (or HOMO) energy (hartree) =  -0.04364   Average Vxc (hartree)=  -0.22336
 Eigenvalues (hartree) for nkpt=   1  k points, SPIN UP:
 kpt#   1, nband=  5, wtk=  1.00000, kpt=  0.0000  0.0000  0.0000 (reduced coord)
  -0.36480   -0.22041   -0.09643   -0.04364   -0.04364
 Eigenvalues (hartree) for nkpt=   1  k points, SPIN DOWN:
 kpt#   1, nband=  3, wtk=  1.00000, kpt=  0.0000  0.0000  0.0000 (reduced coord)
  -0.32804   -0.19166   -0.08037
 Fermi (or HOMO) energy (eV) =  -1.18748   Average Vxc (eV)=  -6.07800
 Eigenvalues (   eV  ) for nkpt=   1  k points, SPIN UP:
 kpt#   1, nband=  5, wtk=  1.00000, kpt=  0.0000  0.0000  0.0000 (reduced coord)
  -9.92673   -5.99760   -2.62398   -1.18749   -1.18748
 Eigenvalues (   eV  ) for nkpt=   1  k points, SPIN DOWN:
 kpt#   1, nband=  3, wtk=  1.00000, kpt=  0.0000  0.0000  0.0000 (reduced coord)
  -8.92632   -5.21520   -2.18685

 ETOT  3  -8.6729389767383    -3.482E-04 1.252E-05 4.982E-02 4.177E-03 6.619E-03

 reduced coordinates :
    1    -1.81591914894E-01   -2.59213538462E-07   -3.73237031717E-07
    2     1.81591914894E-01    2.59213538462E-07    3.73237031717E-07
 cartesian forces (ha/bohr); non-corrected avg= -2.05E-09 -1.48E-08 -2.67E-08
    1    -6.61937962715E-03   -2.70172413619E-07   -3.91421223477E-07
    2     6.61937962715E-03    2.70172413619E-07    3.91421223477E-07
 prteigrs : about to open file t48o_TIM2_EIG
 Fermi (or HOMO) energy (hartree) =  -0.04191   Average Vxc (hartree)=  -0.22355
 Eigenvalues (hartree) for nkpt=   1  k points, SPIN UP:
 kpt#   1, nband=  5, wtk=  1.00000, kpt=  0.0000  0.0000  0.0000 (reduced coord)
  -0.36239   -0.22146   -0.09667   -0.04191   -0.04191
 Eigenvalues (hartree) for nkpt=   1  k points, SPIN DOWN:
 kpt#   1, nband=  3, wtk=  1.00000, kpt=  0.0000  0.0000  0.0000 (reduced coord)
  -0.32591   -0.19250   -0.08048
 Fermi (or HOMO) energy (eV) =  -1.14051   Average Vxc (eV)=  -6.08318
 Eigenvalues (   eV  ) for nkpt=   1  k points, SPIN UP:
 kpt#   1, nband=  5, wtk=  1.00000, kpt=  0.0000  0.0000  0.0000 (reduced coord)
  -9.86108   -6.02621   -2.63041   -1.14051   -1.14051
 Eigenvalues (   eV  ) for nkpt=   1  k points, SPIN DOWN:
 kpt#   1, nband=  3, wtk=  1.00000, kpt=  0.0000  0.0000  0.0000 (reduced coord)
  -8.86854   -5.23818   -2.18994

 ETOT  4  -8.6730750360260    -1.361E-04 4.219E-06 3.917E-02 2.421E-03 4.198E-03

 reduced coordinates :
    1    -1.82695144832E-01   -3.26756641867E-07   -4.71092337586E-07
    2     1.82695144832E-01    3.26756641867E-07    4.71092337586E-07
 cartesian forces (ha/bohr); non-corrected avg= -3.87E-09 -1.09E-08 -1.98E-08
    1    -4.19811012927E-03   -1.70106832209E-07   -2.46113939737E-07
    2     4.19811012927E-03    1.70106832209E-07    2.46113939737E-07
 prteigrs : about to open file t48o_TIM2_EIG
 Fermi (or HOMO) energy (hartree) =  -0.04080   Average Vxc (hartree)=  -0.22367
 Eigenvalues (hartree) for nkpt=   1  k points, SPIN UP:
 kpt#   1, nband=  5, wtk=  1.00000, kpt=  0.0000  0.0000  0.0000 (reduced coord)
  -0.36098   -0.22198   -0.09688   -0.04080   -0.04080
 Eigenvalues (hartree) for nkpt=   1  k points, SPIN DOWN:
 kpt#   1, nband=  3, wtk=  1.00000, kpt=  0.0000  0.0000  0.0000 (reduced coord)
  -0.32475   -0.19288   -0.08066
 Fermi (or HOMO) energy (eV) =  -1.11009   Average Vxc (eV)=  -6.08626
 Eigenvalues (   eV  ) for nkpt=   1  k points, SPIN UP:
 kpt#   1, nband=  5, wtk=  1.00000, kpt=  0.0000  0.0000  0.0000 (reduced coord)
  -9.82271   -6.04028   -2.63632   -1.11010   -1.11009
 Eigenvalues (   eV  ) for nkpt=   1  k points, SPIN DOWN:
 kpt#   1, nband=  3, wtk=  1.00000, kpt=  0.0000  0.0000  0.0000 (reduced coord)
  -8.83693   -5.24854   -2.19490

 ETOT  5  -8.6731318425027    -5.681E-05 1.579E-06 2.650E-02 1.548E-03 2.650E-03

 reduced coordinates :
    1    -1.83394829854E-01   -3.69283349919E-07   -5.32620822521E-07
    2     1.83394829854E-01    3.69283349919E-07    5.32620822521E-07
 cartesian forces (ha/bohr); non-corrected avg= -4.01E-09 -8.18E-09 -1.49E-08
    1    -2.64963160069E-03   -8.31066813606E-08   -1.20045763113E-07
    2     2.64963160069E-03    8.31066813606E-08    1.20045763113E-07
 prteigrs : about to open file t48o_TIM2_EIG
 Fermi (or HOMO) energy (hartree) =  -0.04006   Average Vxc (hartree)=  -0.22373
 Eigenvalues (hartree) for nkpt=   1  k points, SPIN UP:
 kpt#   1, nband=  5, wtk=  1.00000, kpt=  0.0000  0.0000  0.0000 (reduced coord)
  -0.36011   -0.22227   -0.09709   -0.04006   -0.04006
 Eigenvalues (hartree) for nkpt=   1  k points, SPIN DOWN:
 kpt#   1, nband=  3, wtk=  1.00000, kpt=  0.0000  0.0000  0.0000 (reduced coord)
  -0.32408   -0.19307   -0.08086
 Fermi (or HOMO) energy (eV) =  -1.09016   Average Vxc (eV)=  -6.08808
 Eigenvalues (   eV  ) for nkpt=   1  k points, SPIN UP:
 kpt#   1, nband=  5, wtk=  1.00000, kpt=  0.0000  0.0000  0.0000 (reduced coord)
  -9.79919   -6.04825   -2.64194   -1.09016   -1.09016
 Eigenvalues (   eV  ) for nkpt=   1  k points, SPIN DOWN:
 kpt#   1, nband=  3, wtk=  1.00000, kpt=  0.0000  0.0000  0.0000 (reduced coord)
  -8.81868   -5.25379   -2.20025

 ETOT  6  -8.6731559332590    -2.409E-05 6.279E-07 1.637E-02 9.521E-04 1.698E-03

 reduced coordinates :
    1    -1.83836435121E-01   -3.90060020259E-07   -5.62632263299E-07
    2     1.83836435121E-01    3.90060020259E-07    5.62632263299E-07
 cartesian forces (ha/bohr); non-corrected avg= -2.19E-09 -5.58E-09 -1.03E-08
    1    -1.69751304359E-03   -2.99027858186E-08   -4.30409700245E-08
    2     1.69751304359E-03    2.99027858186E-08    4.30409700245E-08
 prteigrs : about to open file t48o_TIM2_EIG
 Fermi (or HOMO) energy (hartree) =  -0.03956   Average Vxc (hartree)=  -0.22378
 Eigenvalues (hartree) for nkpt=   1  k points, SPIN UP:
 kpt#   1, nband=  5, wtk=  1.00000, kpt=  0.0000  0.0000  0.0000 (reduced coord)
  -0.35956   -0.22243   -0.09725   -0.03956   -0.03956
 Eigenvalues (hartree) for nkpt=   1  k points, SPIN DOWN:
 kpt#   1, nband=  3, wtk=  1.00000, kpt=  0.0000  0.0000  0.0000 (reduced coord)
  -0.32368   -0.19316   -0.08103
 Fermi (or HOMO) energy (eV) =  -1.07662   Average Vxc (eV)=  -6.08926
 Eigenvalues (   eV  ) for nkpt=   1  k points, SPIN UP:
 kpt#   1, nband=  5, wtk=  1.00000, kpt=  0.0000  0.0000  0.0000 (reduced coord)
  -9.78401   -6.05251   -2.64638   -1.07662   -1.07662
 Eigenvalues (   eV  ) for nkpt=   1  k points, SPIN DOWN:
 kpt#   1, nband=  3, wtk=  1.00000, kpt=  0.0000  0.0000  0.0000 (reduced coord)
  -8.80768   -5.25620   -2.20485

 ETOT  7  -8.6731664866917    -1.055E-05 2.592E-07 9.516E-03 5.958E-04 1.102E-03

 reduced coordinates :
    1    -1.84119353961E-01   -3.97535716714E-07   -5.73392505805E-07
    2     1.84119353961E-01    3.97535716714E-07    5.73392505805E-07
 cartesian forces (ha/bohr); non-corrected avg= -1.34E-09 -4.18E-09 -7.69E-09
    1    -1.10168806566E-03    1.15431371402E-08    1.68779582748E-08
    2     1.10168806566E-03   -1.15431371402E-08   -1.68779582748E-08
 prteigrs : about to open file t48o_TIM2_EIG
 Fermi (or HOMO) energy (hartree) =  -0.03923   Average Vxc (hartree)=  -0.22380
 Eigenvalues (hartree) for nkpt=   1  k points, SPIN UP:
 kpt#   1, nband=  5, wtk=  1.00000, kpt=  0.0000  0.0000  0.0000 (reduced coord)
  -0.35919   -0.22252   -0.09738   -0.03923   -0.03923
 Eigenvalues (hartree) for nkpt=   1  k points, SPIN DOWN:
 kpt#   1, nband=  3, wtk=  1.00000, kpt=  0.0000  0.0000  0.0000 (reduced coord)
  -0.32343   -0.19320   -0.08116
 Fermi (or HOMO) energy (eV) =  -1.06752   Average Vxc (eV)=  -6.08999
 Eigenvalues (   eV  ) for nkpt=   1  k points, SPIN UP:
 kpt#   1, nband=  5, wtk=  1.00000, kpt=  0.0000  0.0000  0.0000 (reduced coord)
  -9.77417   -6.05494   -2.64979   -1.06752   -1.06752
 Eigenvalues (   eV  ) for nkpt=   1  k points, SPIN DOWN:
 kpt#   1, nband=  3, wtk=  1.00000, kpt=  0.0000  0.0000  0.0000 (reduced coord)
  -8.80101   -5.25731   -2.20850

 ETOT  8  -8.6731712453225    -4.759E-06 1.110E-07 5.307E-03 3.769E-04 7.248E-04

 reduced coordinates :
    1    -1.84302968639E-01   -3.94649932429E-07   -5.69173016236E-07
    2     1.84302968639E-01    3.94649932429E-07    5.69173016236E-07
 cartesian forces (ha/bohr); non-corrected avg= -9.89E-10 -2.94E-09 -5.46E-09
    1    -7.24810706095E-04    3.72308337704E-08    5.39486502798E-08
    2     7.24810706095E-04   -3.72308337704E-08   -5.39486502798E-08
 prteigrs : about to open file t48o_TIM2_EIG
 Fermi (or HOMO) energy (hartree) =  -0.03900   Average Vxc (hartree)=  -0.22382
 Eigenvalues (hartree) for nkpt=   1  k points, SPIN UP:
 kpt#   1, nband=  5, wtk=  1.00000, kpt=  0.0000  0.0000  0.0000 (reduced coord)
  -0.35895   -0.22257   -0.09747   -0.03900   -0.03900
 Eigenvalues (hartree) for nkpt=   1  k points, SPIN DOWN:
 kpt#   1, nband=  3, wtk=  1.00000, kpt=  0.0000  0.0000  0.0000 (reduced coord)
  -0.32328   -0.19322   -0.08126
 Fermi (or HOMO) energy (eV) =  -1.06130   Average Vxc (eV)=  -6.09049
 Eigenvalues (   eV  ) for nkpt=   1  k points, SPIN UP:
 kpt#   1, nband=  5, wtk=  1.00000, kpt=  0.0000  0.0000  0.0000 (reduced coord)
  -9.76759   -6.05631   -2.65221   -1.06130   -1.06130
 Eigenvalues (   eV  ) for nkpt=   1  k points, SPIN DOWN:
 kpt#   1, nband=  3, wtk=  1.00000, kpt=  0.0000  0.0000  0.0000 (reduced coord)
  -8.79686   -5.25774   -2.21120

 ETOT  9  -8.6731734340822    -2.189E-06 4.881E-08 2.881E-03 2.410E-04 4.838E-04

 reduced coordinates :
    1    -1.84423770423E-01   -3.85342223986E-07   -5.55685853666E-07
    2     1.84423770423E-01    3.85342223986E-07    5.55685853666E-07
 cartesian forces (ha/bohr); non-corrected avg= -6.00E-10 -2.27E-09 -4.16E-09
    1    -4.83803158862E-04    5.56031584225E-08    8.04349953079E-08
    2     4.83803158862E-04   -5.56031584225E-08   -8.04349953079E-08
 prteigrs : about to open file t48o_TIM2_EIG
 Fermi (or HOMO) energy (hartree) =  -0.03885   Average Vxc (hartree)=  -0.22383
 Eigenvalues (hartree) for nkpt=   1  k points, SPIN UP:
 kpt#   1, nband=  5, wtk=  1.00000, kpt=  0.0000  0.0000  0.0000 (reduced coord)
  -0.35879   -0.22260   -0.09753   -0.03885   -0.03885
 Eigenvalues (hartree) for nkpt=   1  k points, SPIN DOWN:
 kpt#   1, nband=  3, wtk=  1.00000, kpt=  0.0000  0.0000  0.0000 (reduced coord)
  -0.32318   -0.19322   -0.08133
 Fermi (or HOMO) energy (eV) =  -1.05708   Average Vxc (eV)=  -6.09082
 Eigenvalues (   eV  ) for nkpt=   1  k points, SPIN UP:
 kpt#   1, nband=  5, wtk=  1.00000, kpt=  0.0000  0.0000  0.0000 (reduced coord)
  -9.76318   -6.05713   -2.65393   -1.05708   -1.05708
 Eigenvalues (   eV  ) for nkpt=   1  k points, SPIN DOWN:
 kpt#   1, nband=  3, wtk=  1.00000, kpt=  0.0000  0.0000  0.0000 (reduced coord)
  -8.79429   -5.25789   -2.21317

 ETOT 10  -8.6731744655915    -1.032E-06 2.226E-08 1.536E-03 1.561E-04 3.277E-04

 reduced coordinates :
    1    -1.84504404283E-01   -3.71441434381E-07   -5.35577104839E-07
    2     1.84504404283E-01    3.71441434381E-07    5.35577104839E-07
 cartesian forces (ha/bohr); non-corrected avg= -4.51E-10 -1.69E-09 -3.08E-09
    1    -3.27677449027E-04    6.63786166606E-08    9.59340905841E-08
    2     3.27677449027E-04   -6.63786166606E-08   -9.59340905841E-08
 prteigrs : about to open file t48o_TIM2_EIG
 Fermi (or HOMO) energy (hartree) =  -0.03874   Average Vxc (hartree)=  -0.22384
 Eigenvalues (hartree) for nkpt=   1  k points, SPIN UP:
 kpt#   1, nband=  5, wtk=  1.00000, kpt=  0.0000  0.0000  0.0000 (reduced coord)
  -0.35868   -0.22261   -0.09757   -0.03874   -0.03874
 Eigenvalues (hartree) for nkpt=   1  k points, SPIN DOWN:
 kpt#   1, nband=  3, wtk=  1.00000, kpt=  0.0000  0.0000  0.0000 (reduced coord)
  -0.32312   -0.19322   -0.08138
 Fermi (or HOMO) energy (eV) =  -1.05418   Average Vxc (eV)=  -6.09105
 Eigenvalues (   eV  ) for nkpt=   1  k points, SPIN UP:
 kpt#   1, nband=  5, wtk=  1.00000, kpt=  0.0000  0.0000  0.0000 (reduced coord)
  -9.76016   -6.05763   -2.65512   -1.05418   -1.05418
 Eigenvalues (   eV  ) for nkpt=   1  k points, SPIN DOWN:
 kpt#   1, nband=  3, wtk=  1.00000, kpt=  0.0000  0.0000  0.0000 (reduced coord)
  -8.79265   -5.25792   -2.21456

 ETOT 11  -8.6731749604679    -4.949E-07 1.046E-08 8.096E-04 1.022E-04 2.254E-04

 reduced coordinates :
    1    -1.84559017191E-01   -3.54846780215E-07   -5.11593582193E-07
    2     1.84559017191E-01    3.54846780215E-07    5.11593582193E-07
 cartesian forces (ha/bohr); non-corrected avg= -2.36E-10 -1.33E-09 -2.38E-09
    1    -2.25449271390E-04    7.29480567694E-08    1.05366799050E-07
    2     2.25449271390E-04   -7.29480567694E-08   -1.05366799050E-07
 prteigrs : about to open file t48o_TIM2_EIG
 Fermi (or HOMO) energy (hartree) =  -0.03867   Average Vxc (hartree)=  -0.22385
 Eigenvalues (hartree) for nkpt=   1  k points, SPIN UP:
 kpt#   1, nband=  5, wtk=  1.00000, kpt=  0.0000  0.0000  0.0000 (reduced coord)
  -0.35860   -0.22263   -0.09760   -0.03867   -0.03867
 Eigenvalues (hartree) for nkpt=   1  k points, SPIN DOWN:
 kpt#   1, nband=  3, wtk=  1.00000, kpt=  0.0000  0.0000  0.0000 (reduced coord)
  -0.32309   -0.19322   -0.08142
 Fermi (or HOMO) energy (eV) =  -1.05219   Average Vxc (eV)=  -6.09120
 Eigenvalues (   eV  ) for nkpt=   1  k points, SPIN UP:
 kpt#   1, nband=  5, wtk=  1.00000, kpt=  0.0000  0.0000  0.0000 (reduced coord)
  -9.75807   -6.05796   -2.65593   -1.05219   -1.05219
 Eigenvalues (   eV  ) for nkpt=   1  k points, SPIN DOWN:
 kpt#   1, nband=  3, wtk=  1.00000, kpt=  0.0000  0.0000  0.0000 (reduced coord)
  -8.79161   -5.25790   -2.21554

 ETOT 12  -8.6731752035278    -2.431E-07 5.095E-09 4.239E-04 6.803E-05 1.574E-04

 reduced coordinates :
    1    -1.84596592070E-01   -3.36609766023E-07   -4.85251882431E-07
    2     1.84596592070E-01    3.36609766023E-07    4.85251882431E-07
 cartesian forces (ha/bohr); non-corrected avg= -1.91E-10 -1.00E-09 -1.78E-09
    1    -1.57420614851E-04    7.58205055232E-08    1.09466172582E-07
    2     1.57420614851E-04   -7.58205055232E-08   -1.09466172582E-07
 prteigrs : about to open file t48o_TIM2_EIG
 Fermi (or HOMO) energy (hartree) =  -0.03862   Average Vxc (hartree)=  -0.22385
 Eigenvalues (hartree) for nkpt=   1  k points, SPIN UP:
 kpt#   1, nband=  5, wtk=  1.00000, kpt=  0.0000  0.0000  0.0000 (reduced coord)
  -0.35855   -0.22263   -0.09762   -0.03862   -0.03862
 Eigenvalues (hartree) for nkpt=   1  k points, SPIN DOWN:
 kpt#   1, nband=  3, wtk=  1.00000, kpt=  0.0000  0.0000  0.0000 (reduced coord)
  -0.32306   -0.19322   -0.08144
 Fermi (or HOMO) energy (eV) =  -1.05080   Average Vxc (eV)=  -6.09131
 Eigenvalues (   eV  ) for nkpt=   1  k points, SPIN UP:
 kpt#   1, nband=  5, wtk=  1.00000, kpt=  0.0000  0.0000  0.0000 (reduced coord)
  -9.75660   -6.05818   -2.65649   -1.05080   -1.05080
 Eigenvalues (   eV  ) for nkpt=   1  k points, SPIN DOWN:
 kpt#   1, nband=  3, wtk=  1.00000, kpt=  0.0000  0.0000  0.0000 (reduced coord)
  -8.79092   -5.25787   -2.21623

 ETOT 13  -8.6731753250983    -1.216E-07 2.554E-09 2.213E-04 4.587E-05 1.116E-04

 reduced coordinates :
    1    -1.84622828839E-01   -3.17654639642E-07   -4.57885339285E-07
    2     1.84622828839E-01    3.17654639642E-07    4.57885339285E-07
 cartesian forces (ha/bohr); non-corrected avg= -9.35E-11 -7.75E-10 -1.36E-09
    1    -1.11551982744E-04    7.64646892774E-08    1.10358118082E-07
    2     1.11551982744E-04   -7.64646892774E-08   -1.10358118082E-07
 prteigrs : about to open file t48o_TIM2_EIG
 Fermi (or HOMO) energy (hartree) =  -0.03858   Average Vxc (hartree)=  -0.22385
 Eigenvalues (hartree) for nkpt=   1  k points, SPIN UP:
 kpt#   1, nband=  5, wtk=  1.00000, kpt=  0.0000  0.0000  0.0000 (reduced coord)
  -0.35851   -0.22264   -0.09764   -0.03858   -0.03858
 Eigenvalues (hartree) for nkpt=   1  k points, SPIN DOWN:
 kpt#   1, nband=  3, wtk=  1.00000, kpt=  0.0000  0.0000  0.0000 (reduced coord)
  -0.32304   -0.19322   -0.08146
 Fermi (or HOMO) energy (eV) =  -1.04982   Average Vxc (eV)=  -6.09139
 Eigenvalues (   eV  ) for nkpt=   1  k points, SPIN UP:
 kpt#   1, nband=  5, wtk=  1.00000, kpt=  0.0000  0.0000  0.0000 (reduced coord)
  -9.75556   -6.05833   -2.65686   -1.04982   -1.04982
 Eigenvalues (   eV  ) for nkpt=   1  k points, SPIN DOWN:
 kpt#   1, nband=  3, wtk=  1.00000, kpt=  0.0000  0.0000  0.0000 (reduced coord)
  -8.79046   -5.25784   -2.21671

 ETOT 14  -8.6731753872521    -6.215E-08 1.320E-09 1.155E-04 3.150E-05 8.006E-05

 reduced coordinates :
    1    -1.84641420836E-01   -2.98538467323E-07   -4.30295809765E-07
    2     1.84641420836E-01    2.98538467323E-07    4.30295809765E-07
 cartesian forces (ha/bohr); non-corrected avg= -7.50E-11 -5.75E-10 -1.01E-09
    1    -8.00556241800E-05    7.53853565945E-08    1.08769278291E-07
    2     8.00556241800E-05   -7.53853565945E-08   -1.08769278291E-07
 prteigrs : about to open file t48o_TIM2_EIG
 Fermi (or HOMO) energy (hartree) =  -0.03855   Average Vxc (hartree)=  -0.22386
 Eigenvalues (hartree) for nkpt=   1  k points, SPIN UP:
 kpt#   1, nband=  5, wtk=  1.00000, kpt=  0.0000  0.0000  0.0000 (reduced coord)
  -0.35848   -0.22264   -0.09765   -0.03855   -0.03855
 Eigenvalues (hartree) for nkpt=   1  k points, SPIN DOWN:
 kpt#   1, nband=  3, wtk=  1.00000, kpt=  0.0000  0.0000  0.0000 (reduced coord)
  -0.32303   -0.19322   -0.08147
 Fermi (or HOMO) energy (eV) =  -1.04913   Average Vxc (eV)=  -6.09145
 Eigenvalues (   eV  ) for nkpt=   1  k points, SPIN UP:
 kpt#   1, nband=  5, wtk=  1.00000, kpt=  0.0000  0.0000  0.0000 (reduced coord)
  -9.75481   -6.05844   -2.65712   -1.04913   -1.04913
 Eigenvalues (   eV  ) for nkpt=   1  k points, SPIN DOWN:
 kpt#   1, nband=  3, wtk=  1.00000, kpt=  0.0000  0.0000  0.0000 (reduced coord)
  -8.79015   -5.25783   -2.21704

 ETOT 15  -8.6731754195605    -3.231E-08 6.974E-10 6.033E-05 2.194E-05 5.812E-05

 reduced coordinates :
    1    -1.84654763440E-01   -2.79692128174E-07   -4.03103490192E-07
    2     1.84654763440E-01    2.79692128174E-07    4.03103490192E-07
 cartesian forces (ha/bohr); non-corrected avg= -3.62E-11 -4.33E-10 -7.57E-10
    1    -5.81172437735E-05    7.32293246581E-08    1.05633603888E-07
    2     5.81172437735E-05   -7.32293246581E-08   -1.05633603888E-07
 prteigrs : about to open file t48o_TIM2_EIG
 Fermi (or HOMO) energy (hartree) =  -0.03854   Average Vxc (hartree)=  -0.22386
 Eigenvalues (hartree) for nkpt=   1  k points, SPIN UP:
 kpt#   1, nband=  5, wtk=  1.00000, kpt=  0.0000  0.0000  0.0000 (reduced coord)
  -0.35846   -0.22265   -0.09765   -0.03854   -0.03854
 Eigenvalues (hartree) for nkpt=   1  k points, SPIN DOWN:
 kpt#   1, nband=  3, wtk=  1.00000, kpt=  0.0000  0.0000  0.0000 (reduced coord)
  -0.32302   -0.19322   -0.08148
 Fermi (or HOMO) energy (eV) =  -1.04864   Average Vxc (eV)=  -6.09149
 Eigenvalues (   eV  ) for nkpt=   1  k points, SPIN UP:
 kpt#   1, nband=  5, wtk=  1.00000, kpt=  0.0000  0.0000  0.0000 (reduced coord)
  -9.75426   -6.05853   -2.65730   -1.04864   -1.04864
 Eigenvalues (   eV  ) for nkpt=   1  k points, SPIN DOWN:
 kpt#   1, nband=  3, wtk=  1.00000, kpt=  0.0000  0.0000  0.0000 (reduced coord)
  -8.78993   -5.25782   -2.21727

 ETOT 16  -8.6731754366605    -1.710E-08 3.765E-10 3.162E-05 1.555E-05 4.257E-05

 reduced coordinates :
    1    -1.84664449647E-01   -2.61384797010E-07   -3.76695089220E-07
    2     1.84664449647E-01    2.61384797010E-07    3.76695089220E-07
 cartesian forces (ha/bohr); non-corrected avg= -2.53E-11 -3.15E-10 -5.52E-10
    1    -4.25722222239E-05    7.03510798459E-08    1.01461545409E-07
    2     4.25722222239E-05   -7.03510798459E-08   -1.01461545409E-07
 prteigrs : about to open file t48o_TIM2_EIG
 Fermi (or HOMO) energy (hartree) =  -0.03852   Average Vxc (hartree)=  -0.22386
 Eigenvalues (hartree) for nkpt=   1  k points, SPIN UP:
 kpt#   1, nband=  5, wtk=  1.00000, kpt=  0.0000  0.0000  0.0000 (reduced coord)
  -0.35845   -0.22265   -0.09766   -0.03852   -0.03852
 Eigenvalues (hartree) for nkpt=   1  k points, SPIN DOWN:
 kpt#   1, nband=  3, wtk=  1.00000, kpt=  0.0000  0.0000  0.0000 (reduced coord)
  -0.32302   -0.19322   -0.08149
 Fermi (or HOMO) energy (eV) =  -1.04828   Average Vxc (eV)=  -6.09152
 Eigenvalues (   eV  ) for nkpt=   1  k points, SPIN UP:
 kpt#   1, nband=  5, wtk=  1.00000, kpt=  0.0000  0.0000  0.0000 (reduced coord)
  -9.75386   -6.05859   -2.65742   -1.04828   -1.04828
 Eigenvalues (   eV  ) for nkpt=   1  k points, SPIN DOWN:
 kpt#   1, nband=  3, wtk=  1.00000, kpt=  0.0000  0.0000  0.0000 (reduced coord)
  -8.78977   -5.25781   -2.21744

 ETOT 17  -8.6731754458267    -9.166E-09 2.061E-10 1.663E-05 1.115E-05 3.142E-05

 reduced coordinates :
    1    -1.84671545018E-01   -2.43797027048E-07   -3.51329702868E-07
    2     1.84671545018E-01    2.43797027048E-07    3.51329702868E-07
 cartesian forces (ha/bohr); non-corrected avg= -1.38E-11 -2.33E-10 -4.09E-10
    1    -3.14188831783E-05    6.70232726624E-08    9.66457843896E-08
    2     3.14188831783E-05   -6.70232726624E-08   -9.66457843896E-08
 prteigrs : about to open file t48o_TIM2_EIG
 Fermi (or HOMO) energy (hartree) =  -0.03851   Average Vxc (hartree)=  -0.22386
 Eigenvalues (hartree) for nkpt=   1  k points, SPIN UP:
 kpt#   1, nband=  5, wtk=  1.00000, kpt=  0.0000  0.0000  0.0000 (reduced coord)
  -0.35844   -0.22265   -0.09766   -0.03851   -0.03851
 Eigenvalues (hartree) for nkpt=   1  k points, SPIN DOWN:
 kpt#   1, nband=  3, wtk=  1.00000, kpt=  0.0000  0.0000  0.0000 (reduced coord)
  -0.32301   -0.19322   -0.08149
 Fermi (or HOMO) energy (eV) =  -1.04802   Average Vxc (eV)=  -6.09154
 Eigenvalues (   eV  ) for nkpt=   1  k points, SPIN UP:
 kpt#   1, nband=  5, wtk=  1.00000, kpt=  0.0000  0.0000  0.0000 (reduced coord)
  -9.75357   -6.05865   -2.65750   -1.04802   -1.04802
 Eigenvalues (   eV  ) for nkpt=   1  k points, SPIN DOWN:
 kpt#   1, nband=  3, wtk=  1.00000, kpt=  0.0000  0.0000  0.0000 (reduced coord)
  -8.78966   -5.25781   -2.21755

 Cartesian components of stress tensor (hartree/bohr^3)
  sigma(1 1)=  2.53665561E-04  sigma(3 2)=  8.49329141E-14
  sigma(2 2)=  1.11207632E-04  sigma(3 1)=  5.31829472E-10
  sigma(3 3)=  1.11207610E-04  sigma(2 1)=  3.68690299E-10


 scprqt:  WARNING -
  nstep=   17 was not enough SCF cycles to converge;
  maximum force difference=  1.115E-05 exceeds toldff=  1.000E-05


--- !ResultsGS
iteration_state: {dtset: 1, itime: 2, icycle: 1, }
comment   : Summary of ground state results
lattice_vectors:
- [ 12.0000000,   0.0000000,   0.0000000, ]
- [  0.0000000,   8.0000000,   0.0000000, ]
- [  0.0000000,   0.0000000,   8.0000000, ]
lattice_lengths: [  12.00000,    8.00000,    8.00000, ]
lattice_angles: [ 90.000,  90.000,  90.000, ] # degrees, (23, 13, 12)
lattice_volume:   7.6800000E+02
convergence: {deltae: -9.166E-09, res2:  1.663E-05, residm:  2.061E-10, diffor:  1.115E-05, }
etotal    :  -8.67317545E+00
entropy   :   0.00000000E+00
fermie    :  -3.85141796E-02
cartesian_stress_tensor: # hartree/bohr^3
- [  2.53665561E-04,   3.68690299E-10,   5.31829472E-10, ]
- [  3.68690299E-10,   1.11207632E-04,   8.49329141E-14, ]
- [  5.31829472E-10,   8.49329141E-14,   1.11207610E-04, ]
pressure_GPa:  -4.6689E+00
xred      :
- [ -1.8468E-01,  -2.2704E-07,  -3.2717E-07, Si]
- [  1.8468E-01,   2.2704E-07,   3.2717E-07, Si]
cartesian_forces: # hartree/bohr
- [ -3.14188832E-05,   6.70232727E-08,   9.66457844E-08, ]
- [  3.14188832E-05,  -6.70232727E-08,  -9.66457844E-08, ]
force_length_stats: {min:   3.14191033E-05, max:   3.14191033E-05, mean:   3.14191033E-05, }
...

 Integrated electronic and magnetization densities in atomic spheres:
 ---------------------------------------------------------------------
 Radius=ratsph(iatom), smearing ratsm=  0.0000. Diff(up-dn)=approximate z local magnetic moment.
 Atom    Radius    up_density   dn_density  Total(up+dn)  Diff(up-dn)
    1   2.00000     0.941832     0.605257      1.547089     0.336575
    2   2.00000     0.941832     0.605257      1.547089     0.336575
 ---------------------------------------------------------------------
  Sum:              1.883664     1.210515      3.094179     0.673149
 Total magnetization (from the atomic spheres):             0.673149
 Total magnetization (exact up - dn):                       2.000000

---OUTPUT-----------------------------------------------------------------------

 Cartesian coordinates (xcart) [bohr]
 -2.21612137797845E+00 -1.81632967106166E-06 -2.61734605416123E-06
  2.21612137797845E+00  1.81632967106166E-06  2.61734605416123E-06
 Reduced coordinates (xred)
 -1.84676781498204E-01 -2.27041208882708E-07 -3.27168256770154E-07
  1.84676781498204E-01  2.27041208882708E-07  3.27168256770154E-07
 Cartesian forces (fcart) [Ha/bohr]; max,rms= 3.14189E-05 1.81398E-05 (free atoms)
 -3.14188831782685E-05  6.70232726624104E-08  9.66457843895631E-08
  3.14188831782685E-05 -6.70232726624104E-08 -9.66457843895631E-08
 Reduced forces (fred)
  3.77026598139222E-04 -5.36186181299283E-07 -7.73166275116505E-07
 -3.77026598139222E-04  5.36186181299283E-07  7.73166275116505E-07
 Total energy (etotal) [Ha]= -8.67317544582666E+00

 Difference of energy with previous step (new-old):
           Absolute (Ha)=-1.54390E-03
           Relative     =-1.78025E-04

--- Iteration: ( 3/10) Internal Cycle: (1/1)
--------------------------------------------------------------------------------

---SELF-CONSISTENT-FIELD CONVERGENCE--------------------------------------------

--- !BeginCycle
iteration_state: {dtset: 1, itime: 3, icycle: 1, }
solver: {iscf: 2, nstep: 17, nline: 3, wfoptalg: 0, }
tolerances: {toldff: 1.00E-05, }
...

     iter   Etot(hartree)      deltaE(h)  residm     vres2    diffor    maxfor

 ETOT  1  -8.6731754475510    -8.673E+00 3.070E-13 1.584E-05 1.300E-06 3.012E-05

 cartesian forces (ha/bohr); non-corrected avg= -1.65E-11 -1.17E-10 -2.01E-10
    1    -3.01189012054E-05    7.09973105752E-08    1.02340346568E-07
    2     3.01189012054E-05   -7.09973105752E-08   -1.02340346568E-07
 prteigrs : about to open file t48o_TIM3_EIG
 Fermi (or HOMO) energy (hartree) =  -0.03849   Average Vxc (hartree)=  -0.22386
 Eigenvalues (hartree) for nkpt=   1  k points, SPIN UP:
 kpt#   1, nband=  5, wtk=  1.00000, kpt=  0.0000  0.0000  0.0000 (reduced coord)
  -0.35841   -0.22265   -0.09767   -0.03849   -0.03849
 Eigenvalues (hartree) for nkpt=   1  k points, SPIN DOWN:
 kpt#   1, nband=  3, wtk=  1.00000, kpt=  0.0000  0.0000  0.0000 (reduced coord)
  -0.32301   -0.19322   -0.08150
 Fermi (or HOMO) energy (eV) =  -1.04744   Average Vxc (eV)=  -6.09158
 Eigenvalues (   eV  ) for nkpt=   1  k points, SPIN UP:
 kpt#   1, nband=  5, wtk=  1.00000, kpt=  0.0000  0.0000  0.0000 (reduced coord)
  -9.75295   -6.05853   -2.65768   -1.04744   -1.04744
 Eigenvalues (   eV  ) for nkpt=   1  k points, SPIN DOWN:
 kpt#   1, nband=  3, wtk=  1.00000, kpt=  0.0000  0.0000  0.0000 (reduced coord)
  -8.78945   -5.25765   -2.21785

 ETOT  2  -8.6731754516365    -4.085E-09 2.241E-14 1.280E-06 3.159E-06 2.696E-05

 cartesian forces (ha/bohr); non-corrected avg= -1.80E-11 -3.62E-11 -6.04E-11
    1    -2.69594786024E-05    7.19670219079E-08    1.03726995768E-07
    2     2.69594786024E-05   -7.19670219079E-08   -1.03726995768E-07
 prteigrs : about to open file t48o_TIM3_EIG
 Fermi (or HOMO) energy (hartree) =  -0.03850   Average Vxc (hartree)=  -0.22386
 Eigenvalues (hartree) for nkpt=   1  k points, SPIN UP:
 kpt#   1, nband=  5, wtk=  1.00000, kpt=  0.0000  0.0000  0.0000 (reduced coord)
  -0.35843   -0.22265   -0.09767   -0.03850   -0.03850
 Eigenvalues (hartree) for nkpt=   1  k points, SPIN DOWN:
 kpt#   1, nband=  3, wtk=  1.00000, kpt=  0.0000  0.0000  0.0000 (reduced coord)
  -0.32302   -0.19322   -0.08151
 Fermi (or HOMO) energy (eV) =  -1.04769   Average Vxc (eV)=  -6.09156
 Eigenvalues (   eV  ) for nkpt=   1  k points, SPIN UP:
 kpt#   1, nband=  5, wtk=  1.00000, kpt=  0.0000  0.0000  0.0000 (reduced coord)
  -9.75326   -6.05862   -2.65772   -1.04769   -1.04769
 Eigenvalues (   eV  ) for nkpt=   1  k points, SPIN DOWN:
 kpt#   1, nband=  3, wtk=  1.00000, kpt=  0.0000  0.0000  0.0000 (reduced coord)
  -8.78975   -5.25770   -2.21787

 ETOT  3  -8.6731754519042    -2.677E-10 7.489E-12 1.443E-07 6.074E-07 2.635E-05

 cartesian forces (ha/bohr); non-corrected avg=  2.15E-11 -5.73E-11 -8.80E-11
    1    -2.63520431131E-05    7.21605405181E-08    1.03999882335E-07
    2     2.63520431131E-05   -7.21605405181E-08   -1.03999882335E-07
 prteigrs : about to open file t48o_TIM3_EIG
 Fermi (or HOMO) energy (hartree) =  -0.03850   Average Vxc (hartree)=  -0.22386
 Eigenvalues (hartree) for nkpt=   1  k points, SPIN UP:
 kpt#   1, nband=  5, wtk=  1.00000, kpt=  0.0000  0.0000  0.0000 (reduced coord)
  -0.35843   -0.22265   -0.09767   -0.03850   -0.03850
 Eigenvalues (hartree) for nkpt=   1  k points, SPIN DOWN:
 kpt#   1, nband=  3, wtk=  1.00000, kpt=  0.0000  0.0000  0.0000 (reduced coord)
  -0.32302   -0.19322   -0.08150
 Fermi (or HOMO) energy (eV) =  -1.04772   Average Vxc (eV)=  -6.09156
 Eigenvalues (   eV  ) for nkpt=   1  k points, SPIN UP:
 kpt#   1, nband=  5, wtk=  1.00000, kpt=  0.0000  0.0000  0.0000 (reduced coord)
  -9.75329   -6.05861   -2.65769   -1.04772   -1.04772
 Eigenvalues (   eV  ) for nkpt=   1  k points, SPIN DOWN:
 kpt#   1, nband=  3, wtk=  1.00000, kpt=  0.0000  0.0000  0.0000 (reduced coord)
  -8.78980   -5.25769   -2.21784

 At SCF step    3, forces are converged : 
  for the second time, max diff in force=  6.074E-07 < toldff=  1.000E-05

 Cartesian components of stress tensor (hartree/bohr^3)
  sigma(1 1)=  2.53815100E-04  sigma(3 2)= -5.65165543E-15
  sigma(2 2)=  1.11131745E-04  sigma(3 1)=  3.35809422E-10
  sigma(3 3)=  1.11131746E-04  sigma(2 1)=  2.32981891E-10


--- !ResultsGS
iteration_state: {dtset: 1, itime: 3, icycle: 1, }
comment   : Summary of ground state results
lattice_vectors:
- [ 12.0000000,   0.0000000,   0.0000000, ]
- [  0.0000000,   8.0000000,   0.0000000, ]
- [  0.0000000,   0.0000000,   8.0000000, ]
lattice_lengths: [  12.00000,    8.00000,    8.00000, ]
lattice_angles: [ 90.000,  90.000,  90.000, ] # degrees, (23, 13, 12)
lattice_volume:   7.6800000E+02
convergence: {deltae: -2.677E-10, res2:  1.443E-07, residm:  7.489E-12, diffor:  6.074E-07, }
etotal    :  -8.67317545E+00
entropy   :   0.00000000E+00
fermie    :  -3.85028302E-02
cartesian_stress_tensor: # hartree/bohr^3
- [  2.53815100E-04,   2.32981891E-10,   3.35809422E-10, ]
- [  2.32981891E-10,   1.11131745E-04,  -5.65165543E-15, ]
- [  3.35809422E-10,  -5.65165543E-15,   1.11131746E-04, ]
pressure_GPa:  -4.6689E+00
xred      :
- [ -1.8468E-01,  -2.2704E-07,  -3.2717E-07, Si]
- [  1.8468E-01,   2.2704E-07,   3.2717E-07, Si]
cartesian_forces: # hartree/bohr
- [ -2.63520431E-05,   7.21605405E-08,   1.03999882E-07, ]
- [  2.63520431E-05,  -7.21605405E-08,  -1.03999882E-07, ]
force_length_stats: {min:   2.63523471E-05, max:   2.63523471E-05, mean:   2.63523471E-05, }
...

 Integrated electronic and magnetization densities in atomic spheres:
 ---------------------------------------------------------------------
 Radius=ratsph(iatom), smearing ratsm=  0.0000. Diff(up-dn)=approximate z local magnetic moment.
 Atom    Radius    up_density   dn_density  Total(up+dn)  Diff(up-dn)
    1   2.00000     0.941827     0.605256      1.547083     0.336570
    2   2.00000     0.941827     0.605256      1.547083     0.336570
 ---------------------------------------------------------------------
  Sum:              1.883653     1.210512      3.094165     0.673141
 Total magnetization (from the atomic spheres):             0.673141
 Total magnetization (exact up - dn):                       2.000000

---OUTPUT-----------------------------------------------------------------------

 Cartesian coordinates (xcart) [bohr]
 -2.21612137797845E+00 -1.81632967106166E-06 -2.61734605416123E-06
  2.21612137797845E+00  1.81632967106166E-06  2.61734605416123E-06
 Reduced coordinates (xred)
 -1.84676781498204E-01 -2.27041208882708E-07 -3.27168256770154E-07
  1.84676781498204E-01  2.27041208882708E-07  3.27168256770154E-07
 Cartesian forces (fcart) [Ha/bohr]; max,rms= 2.63520E-05 1.52145E-05 (free atoms)
 -2.63520431130964E-05  7.21605405181468E-08  1.03999882334600E-07
  2.63520431130964E-05 -7.21605405181468E-08 -1.03999882334600E-07
 Reduced forces (fred)
  3.16224517357156E-04 -5.77284324145174E-07 -8.31999058676800E-07
 -3.16224517357156E-04  5.77284324145174E-07  8.31999058676800E-07
 Total energy (etotal) [Ha]= -8.67317545190415E+00

 Difference of energy with previous step (new-old):
           Absolute (Ha)=-6.07750E-09
           Relative     =-7.00723E-10

--- Iteration: ( 4/10) Internal Cycle: (1/1)
--------------------------------------------------------------------------------

---SELF-CONSISTENT-FIELD CONVERGENCE--------------------------------------------

--- !BeginCycle
iteration_state: {dtset: 1, itime: 4, icycle: 1, }
solver: {iscf: 2, nstep: 17, nline: 3, wfoptalg: 0, }
tolerances: {toldff: 1.00E-05, }
...

     iter   Etot(hartree)      deltaE(h)  residm     vres2    diffor    maxfor

 ETOT  1  -8.6731754519112    -8.673E+00 2.299E-15 8.561E-08 3.606E-07 2.671E-05

 reduced coordinates :
    1    -1.84676781498E-01   -2.27041208883E-07   -3.27168256770E-07
    2     1.84676781498E-01    2.27041208883E-07    3.27168256770E-07
 cartesian forces (ha/bohr); non-corrected avg= -9.21E-12 -3.13E-11 -4.84E-11
    1    -2.67126148268E-05    7.30058903421E-08    1.05206684583E-07
    2     2.67126148268E-05   -7.30058903421E-08   -1.05206684583E-07
 prteigrs : about to open file t48o_TIM4_EIG
 Fermi (or HOMO) energy (hartree) =  -0.03850   Average Vxc (hartree)=  -0.22386
 Eigenvalues (hartree) for nkpt=   1  k points, SPIN UP:
 kpt#   1, nband=  5, wtk=  1.00000, kpt=  0.0000  0.0000  0.0000 (reduced coord)
  -0.35843   -0.22265   -0.09767   -0.03850   -0.03850
 Eigenvalues (hartree) for nkpt=   1  k points, SPIN DOWN:
 kpt#   1, nband=  3, wtk=  1.00000, kpt=  0.0000  0.0000  0.0000 (reduced coord)
  -0.32302   -0.19322   -0.08150
 Fermi (or HOMO) energy (eV) =  -1.04775   Average Vxc (eV)=  -6.09155
 Eigenvalues (   eV  ) for nkpt=   1  k points, SPIN UP:
 kpt#   1, nband=  5, wtk=  1.00000, kpt=  0.0000  0.0000  0.0000 (reduced coord)
  -9.75332   -6.05862   -2.65766   -1.04775   -1.04775
 Eigenvalues (   eV  ) for nkpt=   1  k points, SPIN DOWN:
 kpt#   1, nband=  3, wtk=  1.00000, kpt=  0.0000  0.0000  0.0000 (reduced coord)
  -8.78986   -5.25769   -2.21782

 ETOT  2  -8.6731754543718    -2.461E-09 9.638E-14 7.278E-08 7.058E-06 1.965E-05

 reduced coordinates :
    1    -1.84681233601E-01   -2.08789736297E-07   -3.00866585624E-07
    2     1.84681233601E-01    2.08789736297E-07    3.00866585624E-07
 cartesian forces (ha/bohr); non-corrected avg=  4.47E-12 -5.00E-12 -8.29E-12
    1    -1.96547252972E-05    6.54977504210E-08    9.43863044713E-08
    2     1.96547252972E-05   -6.54977504210E-08   -9.43863044713E-08
 prteigrs : about to open file t48o_TIM4_EIG
 Fermi (or HOMO) energy (hartree) =  -0.03850   Average Vxc (hartree)=  -0.22386
 Eigenvalues (hartree) for nkpt=   1  k points, SPIN UP:
 kpt#   1, nband=  5, wtk=  1.00000, kpt=  0.0000  0.0000  0.0000 (reduced coord)
  -0.35842   -0.22265   -0.09767   -0.03850   -0.03850
 Eigenvalues (hartree) for nkpt=   1  k points, SPIN DOWN:
 kpt#   1, nband=  3, wtk=  1.00000, kpt=  0.0000  0.0000  0.0000 (reduced coord)
  -0.32301   -0.19322   -0.08150
 Fermi (or HOMO) energy (eV) =  -1.04761   Average Vxc (eV)=  -6.09157
 Eigenvalues (   eV  ) for nkpt=   1  k points, SPIN UP:
 kpt#   1, nband=  5, wtk=  1.00000, kpt=  0.0000  0.0000  0.0000 (reduced coord)
  -9.75310   -6.05868   -2.65765   -1.04761   -1.04761
 Eigenvalues (   eV  ) for nkpt=   1  k points, SPIN DOWN:
 kpt#   1, nband=  3, wtk=  1.00000, kpt=  0.0000  0.0000  0.0000 (reduced coord)
  -8.78966   -5.25774   -2.21780

 ETOT  3  -8.6731754556335    -1.262E-09 4.745E-11 1.251E-07 5.661E-06 1.399E-05

 reduced coordinates :
    1    -1.84684509388E-01   -1.92415298692E-07   -2.77270009507E-07
    2     1.84684509388E-01    1.92415298692E-07    2.77270009507E-07
 cartesian forces (ha/bohr); non-corrected avg=  0.00E+00 -6.33E-12 -1.00E-11
    1    -1.39939873860E-05    5.96654506026E-08    8.59806257107E-08
    2     1.39939873860E-05   -5.96654506026E-08   -8.59806257107E-08
 prteigrs : about to open file t48o_TIM4_EIG
 Fermi (or HOMO) energy (hartree) =  -0.03850   Average Vxc (hartree)=  -0.22386
 Eigenvalues (hartree) for nkpt=   1  k points, SPIN UP:
 kpt#   1, nband=  5, wtk=  1.00000, kpt=  0.0000  0.0000  0.0000 (reduced coord)
  -0.35842   -0.22265   -0.09767   -0.03850   -0.03850
 Eigenvalues (hartree) for nkpt=   1  k points, SPIN DOWN:
 kpt#   1, nband=  3, wtk=  1.00000, kpt=  0.0000  0.0000  0.0000 (reduced coord)
  -0.32301   -0.19322   -0.08150
 Fermi (or HOMO) energy (eV) =  -1.04752   Average Vxc (eV)=  -6.09158
 Eigenvalues (   eV  ) for nkpt=   1  k points, SPIN UP:
 kpt#   1, nband=  5, wtk=  1.00000, kpt=  0.0000  0.0000  0.0000 (reduced coord)
  -9.75298   -6.05873   -2.65766   -1.04752   -1.04752
 Eigenvalues (   eV  ) for nkpt=   1  k points, SPIN DOWN:
 kpt#   1, nband=  3, wtk=  1.00000, kpt=  0.0000  0.0000  0.0000 (reduced coord)
  -8.78954   -5.25778   -2.21780

 At SCF step    3, forces are converged : 
  for the second time, max diff in force=  5.661E-06 < toldff=  1.000E-05

 Cartesian components of stress tensor (hartree/bohr^3)
  sigma(1 1)=  2.53884639E-04  sigma(3 2)=  0.00000000E+00
  sigma(2 2)=  1.11146841E-04  sigma(3 1)=  2.90784323E-10
  sigma(3 3)=  1.11146828E-04  sigma(2 1)=  2.01782186E-10


--- !ResultsGS
iteration_state: {dtset: 1, itime: 4, icycle: 1, }
comment   : Summary of ground state results
lattice_vectors:
- [ 12.0000000,   0.0000000,   0.0000000, ]
- [  0.0000000,   8.0000000,   0.0000000, ]
- [  0.0000000,   0.0000000,   8.0000000, ]
lattice_lengths: [  12.00000,    8.00000,    8.00000, ]
lattice_angles: [ 90.000,  90.000,  90.000, ] # degrees, (23, 13, 12)
lattice_volume:   7.6800000E+02
convergence: {deltae: -1.262E-09, res2:  1.251E-07, residm:  4.745E-11, diffor:  5.661E-06, }
etotal    :  -8.67317546E+00
entropy   :   0.00000000E+00
fermie    :  -3.84955829E-02
cartesian_stress_tensor: # hartree/bohr^3
- [  2.53884639E-04,   2.01782186E-10,   2.90784323E-10, ]
- [  2.01782186E-10,   1.11146841E-04,   0.00000000E+00, ]
- [  2.90784323E-10,   0.00000000E+00,   1.11146828E-04, ]
pressure_GPa:  -4.6699E+00
xred      :
- [ -1.8468E-01,  -1.9242E-07,  -2.7727E-07, Si]
- [  1.8468E-01,   1.9242E-07,   2.7727E-07, Si]
cartesian_forces: # hartree/bohr
- [ -1.39939874E-05,   5.96654506E-08,   8.59806257E-08, ]
- [  1.39939874E-05,  -5.96654506E-08,  -8.59806257E-08, ]
force_length_stats: {min:   1.39943787E-05, max:   1.39943787E-05, mean:   1.39943787E-05, }
...

 Integrated electronic and magnetization densities in atomic spheres:
 ---------------------------------------------------------------------
 Radius=ratsph(iatom), smearing ratsm=  0.0000. Diff(up-dn)=approximate z local magnetic moment.
 Atom    Radius    up_density   dn_density  Total(up+dn)  Diff(up-dn)
    1   2.00000     0.941823     0.605249      1.547072     0.336573
    2   2.00000     0.941823     0.605249      1.547072     0.336573
 ---------------------------------------------------------------------
  Sum:              1.883646     1.210499      3.094145     0.673147
 Total magnetization (from the atomic spheres):             0.673147
 Total magnetization (exact up - dn):                       2.000000

---OUTPUT-----------------------------------------------------------------------

 Cartesian coordinates (xcart) [bohr]
 -2.21621411265870E+00 -1.53932238953545E-06 -2.21816007605333E-06
  2.21621411265870E+00  1.53932238953545E-06  2.21816007605333E-06
 Reduced coordinates (xred)
 -1.84684509388225E-01 -1.92415298691931E-07 -2.77270009506666E-07
  1.84684509388225E-01  1.92415298691931E-07  2.77270009506666E-07
 Cartesian forces (fcart) [Ha/bohr]; max,rms= 1.39940E-05 8.07966E-06 (free atoms)
 -1.39939873860368E-05  5.96654506025581E-08  8.59806257107413E-08
  1.39939873860368E-05 -5.96654506025581E-08 -8.59806257107413E-08
 Reduced forces (fred)
  1.67927848632441E-04 -4.77323604820465E-07 -6.87845005685931E-07
 -1.67927848632441E-04  4.77323604820465E-07  6.87845005685931E-07
 Total energy (etotal) [Ha]= -8.67317545563347E+00

 Difference of energy with previous step (new-old):
           Absolute (Ha)=-3.72932E-09
           Relative     =-4.29983E-10

--- Iteration: ( 5/10) Internal Cycle: (1/1)
--------------------------------------------------------------------------------

---SELF-CONSISTENT-FIELD CONVERGENCE--------------------------------------------

--- !BeginCycle
iteration_state: {dtset: 1, itime: 5, icycle: 1, }
solver: {iscf: 2, nstep: 17, nline: 3, wfoptalg: 0, }
tolerances: {toldff: 1.00E-05, }
...

     iter   Etot(hartree)      deltaE(h)  residm     vres2    diffor    maxfor

 ETOT  1  -8.6731754556549    -8.673E+00 9.870E-15 4.895E-08 1.358E-06 1.264E-05

 cartesian forces (ha/bohr); non-corrected avg= -1.07E-12 -2.83E-12 -4.61E-12
    1    -1.26358487549E-05    6.20331153248E-08    8.93904437583E-08
    2     1.26358487549E-05   -6.20331153248E-08   -8.93904437583E-08
 prteigrs : about to open file t48o_TIM5_EIG
 Fermi (or HOMO) energy (hartree) =  -0.03850   Average Vxc (hartree)=  -0.22386
 Eigenvalues (hartree) for nkpt=   1  k points, SPIN UP:
 kpt#   1, nband=  5, wtk=  1.00000, kpt=  0.0000  0.0000  0.0000 (reduced coord)
  -0.35842   -0.22265   -0.09767   -0.03850   -0.03850
 Eigenvalues (hartree) for nkpt=   1  k points, SPIN DOWN:
 kpt#   1, nband=  3, wtk=  1.00000, kpt=  0.0000  0.0000  0.0000 (reduced coord)
  -0.32301   -0.19322   -0.08150
 Fermi (or HOMO) energy (eV) =  -1.04753   Average Vxc (eV)=  -6.09158
 Eigenvalues (   eV  ) for nkpt=   1  k points, SPIN UP:
 kpt#   1, nband=  5, wtk=  1.00000, kpt=  0.0000  0.0000  0.0000 (reduced coord)
  -9.75303   -6.05872   -2.65770   -1.04753   -1.04753
 Eigenvalues (   eV  ) for nkpt=   1  k points, SPIN DOWN:
 kpt#   1, nband=  3, wtk=  1.00000, kpt=  0.0000  0.0000  0.0000 (reduced coord)
  -8.78961   -5.25777   -2.21785

 ETOT  2  -8.6731754556764    -2.158E-11 3.331E-16 2.730E-09 4.376E-07 1.307E-05

 cartesian forces (ha/bohr); non-corrected avg=  4.13E-13 -5.08E-13 -8.79E-13
    1    -1.30734511068E-05    6.20875310743E-08    8.94686728731E-08
    2     1.30734511068E-05   -6.20875310743E-08   -8.94686728731E-08
 prteigrs : about to open file t48o_TIM5_EIG
 Fermi (or HOMO) energy (hartree) =  -0.03850   Average Vxc (hartree)=  -0.22386
 Eigenvalues (hartree) for nkpt=   1  k points, SPIN UP:
 kpt#   1, nband=  5, wtk=  1.00000, kpt=  0.0000  0.0000  0.0000 (reduced coord)
  -0.35842   -0.22265   -0.09767   -0.03850   -0.03850
 Eigenvalues (hartree) for nkpt=   1  k points, SPIN DOWN:
 kpt#   1, nband=  3, wtk=  1.00000, kpt=  0.0000  0.0000  0.0000 (reduced coord)
  -0.32301   -0.19322   -0.08150
 Fermi (or HOMO) energy (eV) =  -1.04751   Average Vxc (eV)=  -6.09158
 Eigenvalues (   eV  ) for nkpt=   1  k points, SPIN UP:
 kpt#   1, nband=  5, wtk=  1.00000, kpt=  0.0000  0.0000  0.0000 (reduced coord)
  -9.75300   -6.05871   -2.65769   -1.04751   -1.04751
 Eigenvalues (   eV  ) for nkpt=   1  k points, SPIN DOWN:
 kpt#   1, nband=  3, wtk=  1.00000, kpt=  0.0000  0.0000  0.0000 (reduced coord)
  -8.78959   -5.25776   -2.21784

 ETOT  3  -8.6731754556781    -1.659E-12 3.706E-14 4.066E-10 1.666E-07 1.324E-05

 cartesian forces (ha/bohr); non-corrected avg=  0.00E+00 -1.59E-12 -2.36E-12
    1    -1.32400170504E-05    6.21249585207E-08    8.95224212746E-08
    2     1.32400170504E-05   -6.21249585207E-08   -8.95224212746E-08
 prteigrs : about to open file t48o_TIM5_EIG
 Fermi (or HOMO) energy (hartree) =  -0.03850   Average Vxc (hartree)=  -0.22386
 Eigenvalues (hartree) for nkpt=   1  k points, SPIN UP:
 kpt#   1, nband=  5, wtk=  1.00000, kpt=  0.0000  0.0000  0.0000 (reduced coord)
  -0.35842   -0.22265   -0.09767   -0.03850   -0.03850
 Eigenvalues (hartree) for nkpt=   1  k points, SPIN DOWN:
 kpt#   1, nband=  3, wtk=  1.00000, kpt=  0.0000  0.0000  0.0000 (reduced coord)
  -0.32301   -0.19322   -0.08150
 Fermi (or HOMO) energy (eV) =  -1.04751   Average Vxc (eV)=  -6.09158
 Eigenvalues (   eV  ) for nkpt=   1  k points, SPIN UP:
 kpt#   1, nband=  5, wtk=  1.00000, kpt=  0.0000  0.0000  0.0000 (reduced coord)
  -9.75300   -6.05872   -2.65769   -1.04751   -1.04751
 Eigenvalues (   eV  ) for nkpt=   1  k points, SPIN DOWN:
 kpt#   1, nband=  3, wtk=  1.00000, kpt=  0.0000  0.0000  0.0000 (reduced coord)
  -8.78958   -5.25776   -2.21784

 At SCF step    3, forces are converged : 
  for the second time, max diff in force=  1.666E-07 < toldff=  1.000E-05

 Cartesian components of stress tensor (hartree/bohr^3)
  sigma(1 1)=  2.53903839E-04  sigma(3 2)=  0.00000000E+00
  sigma(2 2)=  1.11135379E-04  sigma(3 1)=  2.98381981E-10
  sigma(3 3)=  1.11135380E-04  sigma(2 1)=  2.07064451E-10


--- !ResultsGS
iteration_state: {dtset: 1, itime: 5, icycle: 1, }
comment   : Summary of ground state results
lattice_vectors:
- [ 12.0000000,   0.0000000,   0.0000000, ]
- [  0.0000000,   8.0000000,   0.0000000, ]
- [  0.0000000,   0.0000000,   8.0000000, ]
lattice_lengths: [  12.00000,    8.00000,    8.00000, ]
lattice_angles: [ 90.000,  90.000,  90.000, ] # degrees, (23, 13, 12)
lattice_volume:   7.6800000E+02
convergence: {deltae: -1.659E-12, res2:  4.066E-10, residm:  3.706E-14, diffor:  1.666E-07, }
etotal    :  -8.67317546E+00
entropy   :   0.00000000E+00
fermie    :  -3.84952873E-02
cartesian_stress_tensor: # hartree/bohr^3
- [  2.53903839E-04,   2.07064451E-10,   2.98381981E-10, ]
- [  2.07064451E-10,   1.11135379E-04,   0.00000000E+00, ]
- [  2.98381981E-10,   0.00000000E+00,   1.11135380E-04, ]
pressure_GPa:  -4.6698E+00
xred      :
- [ -1.8468E-01,  -1.9242E-07,  -2.7727E-07, Si]
- [  1.8468E-01,   1.9242E-07,   2.7727E-07, Si]
cartesian_forces: # hartree/bohr
- [ -1.32400171E-05,   6.21249585E-08,   8.95224213E-08, ]
- [  1.32400171E-05,  -6.21249585E-08,  -8.95224213E-08, ]
force_length_stats: {min:   1.32404654E-05, max:   1.32404654E-05, mean:   1.32404654E-05, }
...

 Integrated electronic and magnetization densities in atomic spheres:
 ---------------------------------------------------------------------
 Radius=ratsph(iatom), smearing ratsm=  0.0000. Diff(up-dn)=approximate z local magnetic moment.
 Atom    Radius    up_density   dn_density  Total(up+dn)  Diff(up-dn)
    1   2.00000     0.941823     0.605250      1.547073     0.336573
    2   2.00000     0.941823     0.605250      1.547073     0.336573
 ---------------------------------------------------------------------
  Sum:              1.883647     1.210500      3.094147     0.673146
 Total magnetization (from the atomic spheres):             0.673146
 Total magnetization (exact up - dn):                       2.000000

---OUTPUT-----------------------------------------------------------------------

 Cartesian coordinates (xcart) [bohr]
 -2.21621411265870E+00 -1.53932238953545E-06 -2.21816007605333E-06
[...]
 Fermi (or HOMO) energy (hartree) =  -0.03849   Average Vxc (hartree)=  -0.22386
 Eigenvalues (hartree) for nkpt=   1  k points, SPIN UP:
 kpt#   1, nband=  5, wtk=  1.00000, kpt=  0.0000  0.0000  0.0000 (reduced coord)
  -0.35841   -0.22266   -0.09767   -0.03849   -0.03849
 Eigenvalues (hartree) for nkpt=   1  k points, SPIN DOWN:
 kpt#   1, nband=  3, wtk=  1.00000, kpt=  0.0000  0.0000  0.0000 (reduced coord)
  -0.32301   -0.19322   -0.08150
 Fermi (or HOMO) energy (eV) =  -1.04740   Average Vxc (eV)=  -6.09159
 Eigenvalues (   eV  ) for nkpt=   1  k points, SPIN UP:
 kpt#   1, nband=  5, wtk=  1.00000, kpt=  0.0000  0.0000  0.0000 (reduced coord)
  -9.75285   -6.05877   -2.65770   -1.04740   -1.04740
 Eigenvalues (   eV  ) for nkpt=   1  k points, SPIN DOWN:
 kpt#   1, nband=  3, wtk=  1.00000, kpt=  0.0000  0.0000  0.0000 (reduced coord)
  -8.78946   -5.25780   -2.21785

 ETOT  3  -8.6731754566048    -4.921E-13 1.009E-14 9.335E-11 8.451E-08 6.523E-06

 cartesian forces (ha/bohr); non-corrected avg=  0.00E+00  0.00E+00  0.00E+00
    1    -6.52290392043E-06    5.26302484905E-08    7.58400618492E-08
    2     6.52290392043E-06   -5.26302484905E-08   -7.58400618492E-08
 prteigrs : about to open file t48o_TIM7_EIG
 Fermi (or HOMO) energy (hartree) =  -0.03849   Average Vxc (hartree)=  -0.22386
 Eigenvalues (hartree) for nkpt=   1  k points, SPIN UP:
 kpt#   1, nband=  5, wtk=  1.00000, kpt=  0.0000  0.0000  0.0000 (reduced coord)
  -0.35841   -0.22266   -0.09767   -0.03849   -0.03849
 Eigenvalues (hartree) for nkpt=   1  k points, SPIN DOWN:
 kpt#   1, nband=  3, wtk=  1.00000, kpt=  0.0000  0.0000  0.0000 (reduced coord)
  -0.32301   -0.19322   -0.08150
 Fermi (or HOMO) energy (eV) =  -1.04740   Average Vxc (eV)=  -6.09159
 Eigenvalues (   eV  ) for nkpt=   1  k points, SPIN UP:
 kpt#   1, nband=  5, wtk=  1.00000, kpt=  0.0000  0.0000  0.0000 (reduced coord)
  -9.75285   -6.05877   -2.65770   -1.04740   -1.04740
 Eigenvalues (   eV  ) for nkpt=   1  k points, SPIN DOWN:
 kpt#   1, nband=  3, wtk=  1.00000, kpt=  0.0000  0.0000  0.0000 (reduced coord)
  -8.78946   -5.25780   -2.21785

 At SCF step    3, forces are converged : 
  for the second time, max diff in force=  8.451E-08 < toldff=  1.000E-05

 Cartesian components of stress tensor (hartree/bohr^3)
  sigma(1 1)=  2.53952393E-04  sigma(3 2)=  0.00000000E+00
  sigma(2 2)=  1.11136401E-04  sigma(3 1)=  2.52966715E-10
  sigma(3 3)=  1.11136402E-04  sigma(2 1)=  1.75549692E-10


--- !ResultsGS
iteration_state: {dtset: 1, itime: 7, icycle: 1, }
comment   : Summary of ground state results
lattice_vectors:
- [ 12.0000000,   0.0000000,   0.0000000, ]
- [  0.0000000,   8.0000000,   0.0000000, ]
- [  0.0000000,   0.0000000,   8.0000000, ]
lattice_lengths: [  12.00000,    8.00000,    8.00000, ]
lattice_angles: [ 90.000,  90.000,  90.000, ] # degrees, (23, 13, 12)
lattice_volume:   7.6800000E+02
convergence: {deltae: -4.921E-13, res2:  9.335E-11, residm:  1.009E-14, diffor:  8.451E-08, }
etotal    :  -8.67317546E+00
entropy   :   0.00000000E+00
fermie    :  -3.84912949E-02
cartesian_stress_tensor: # hartree/bohr^3
- [  2.53952393E-04,   1.75549692E-10,   2.52966715E-10, ]
- [  1.75549692E-10,   1.11136401E-04,   0.00000000E+00, ]
- [  2.52966715E-10,   0.00000000E+00,   1.11136402E-04, ]
pressure_GPa:  -4.6703E+00
xred      :
- [ -1.8469E-01,  -1.6292E-07,  -2.3477E-07, Si]
- [  1.8469E-01,   1.6292E-07,   2.3477E-07, Si]
cartesian_forces: # hartree/bohr
- [ -6.52290392E-06,   5.26302485E-08,   7.58400618E-08, ]
- [  6.52290392E-06,  -5.26302485E-08,  -7.58400618E-08, ]
force_length_stats: {min:   6.52355710E-06, max:   6.52355710E-06, mean:   6.52355710E-06, }
...

 Integrated electronic and magnetization densities in atomic spheres:
 ---------------------------------------------------------------------
 Radius=ratsph(iatom), smearing ratsm=  0.0000. Diff(up-dn)=approximate z local magnetic moment.
 Atom    Radius    up_density   dn_density  Total(up+dn)  Diff(up-dn)
    1   2.00000     0.941822     0.605247      1.547069     0.336575
    2   2.00000     0.941822     0.605247      1.547069     0.336575
 ---------------------------------------------------------------------
  Sum:              1.883643     1.210494      3.094137     0.673150
 Total magnetization (from the atomic spheres):             0.673150
 Total magnetization (exact up - dn):                       2.000000

---OUTPUT-----------------------------------------------------------------------

 Cartesian coordinates (xcart) [bohr]
 -2.21626047774977E+00 -1.30338260109436E-06 -1.87817089511873E-06
  2.21626047774977E+00  1.30338260109436E-06  1.87817089511873E-06
 Reduced coordinates (xred)
 -1.84688373145814E-01 -1.62922825136795E-07 -2.34771361889842E-07
  1.84688373145814E-01  1.62922825136795E-07  2.34771361889842E-07
 Cartesian forces (fcart) [Ha/bohr]; max,rms= 6.52290E-06 3.76638E-06 (free atoms)
 -6.52290392043125E-06  5.26302484905261E-08  7.58400618491896E-08
  6.52290392043125E-06 -5.26302484905261E-08 -7.58400618491896E-08
 Reduced forces (fred)
  7.82748470451750E-05 -4.21041987924209E-07 -6.06720494793517E-07
 -7.82748470451750E-05  4.21041987924209E-07  6.06720494793517E-07
 Total energy (etotal) [Ha]= -8.67317545660478E+00

 Difference of energy with previous step (new-old):
           Absolute (Ha)=-1.10543E-11
           Relative     =-1.27454E-12

 At Broyd/MD step   7, gradients are converged : 
  max grad (force/stress) = 6.5229E-06 < tolmxf= 1.0000E-05 ha/bohr (free atoms)

================================================================================

 ----iterations are completed or convergence reached----

 Mean square residual over all n,k,spin=   50.899E-16; max=  10.088E-15
   0.0000  0.0000  0.0000    1  1.00881E-14 kpt; spin; max resid(k); each band:
  1.01E-14 2.77E-16 1.01E-14 5.30E-16 5.30E-16
   0.0000  0.0000  0.0000    2  9.52137E-15 kpt; spin; max resid(k); each band:
  9.52E-15 2.31E-16 9.46E-15
 reduced coordinates (array xred) for    2 atoms
      -0.184688373146     -0.000000162923     -0.000000234771
       0.184688373146      0.000000162923      0.000000234771
 rms dE/dt=  4.5194E-05; max dE/dt=  7.8275E-05; dE/dt below (all hartree)
    1       0.000078274847     -0.000000421042     -0.000000606720
    2      -0.000078274847      0.000000421042      0.000000606721

 cartesian coordinates (angstrom) at end:
    1     -1.17279453312396    -0.00000068972037    -0.00000099388523
    2      1.17279453312396     0.00000068972037     0.00000099388523

 cartesian forces (hartree/bohr) at end:
    1     -0.00000652290392     0.00000005263025     0.00000007584006
    2      0.00000652290392    -0.00000005263025    -0.00000007584006
 frms,max,avg= 3.7663774E-06 6.5229039E-06   0.000E+00 -4.458E-14 -6.506E-14 h/b

 cartesian forces (eV/Angstrom) at end:
    1     -0.00033542117759     0.00000270635596     0.00000389985245
    2      0.00033542117759    -0.00000270635596    -0.00000389985245
 frms,max,avg= 1.9367490E-04 3.3542118E-04   0.000E+00 -2.292E-12 -3.345E-12 e/A
 length scales= 12.000000000000  8.000000000000  8.000000000000 bohr
              =  6.350126503080  4.233417668720  4.233417668720 angstroms
 prteigrs : about to open file t48o_EIG
 Fermi (or HOMO) energy (hartree) =  -0.03849   Average Vxc (hartree)=  -0.22386
 Eigenvalues (hartree) for nkpt=   1  k points, SPIN UP:
 kpt#   1, nband=  5, wtk=  1.00000, kpt=  0.0000  0.0000  0.0000 (reduced coord)
  -0.35841   -0.22266   -0.09767   -0.03849   -0.03849
 Eigenvalues (hartree) for nkpt=   1  k points, SPIN DOWN:
 kpt#   1, nband=  3, wtk=  1.00000, kpt=  0.0000  0.0000  0.0000 (reduced coord)
  -0.32301   -0.19322   -0.08150
 Fermi (or HOMO) energy (eV) =  -1.04740   Average Vxc (eV)=  -6.09159
 Eigenvalues (   eV  ) for nkpt=   1  k points, SPIN UP:
 kpt#   1, nband=  5, wtk=  1.00000, kpt=  0.0000  0.0000  0.0000 (reduced coord)
  -9.75285   -6.05877   -2.65770   -1.04740   -1.04740
 Eigenvalues (   eV  ) for nkpt=   1  k points, SPIN DOWN:
 kpt#   1, nband=  3, wtk=  1.00000, kpt=  0.0000  0.0000  0.0000 (reduced coord)
  -8.78946   -5.25780   -2.21785
 Total charge density [el/Bohr^3]
      Maximum=    8.1287E-02  at reduced coord.    0.9667    0.0000    0.0000
 Next maximum=    8.1287E-02  at reduced coord.    0.0333    0.0000    0.0000
      Minimum=    1.5936E-04  at reduced coord.    0.0000    0.5000    0.5000
 Next minimum=    1.6658E-04  at reduced coord.    0.0333    0.5000    0.5000
   Integrated=    8.0000E+00
 Spin up density      [el/Bohr^3]
      Maximum=    4.0110E-02  at reduced coord.    0.9667    0.0000    0.0000
 Next maximum=    4.0110E-02  at reduced coord.    0.0333    0.0000    0.0000
      Minimum=    7.4252E-05  at reduced coord.    0.0000    0.5000    0.5000
 Next minimum=    7.7825E-05  at reduced coord.    0.0333    0.5000    0.5000
   Integrated=    5.0000E+00
 Spin down density    [el/Bohr^3]
      Maximum=    4.1177E-02  at reduced coord.    0.9667    0.0000    0.0000
 Next maximum=    4.1177E-02  at reduced coord.    0.0333    0.0000    0.0000
      Minimum=    8.5111E-05  at reduced coord.    0.0000    0.5000    0.5000
 Next minimum=    8.8756E-05  at reduced coord.    0.0333    0.5000    0.5000
   Integrated=    3.0000E+00
 Magnetization (spin up - spin down) [el/Bohr^3]
      Maximum=    1.8769E-02  at reduced coord.    0.8667    0.9000    0.8500
 Next maximum=    1.8769E-02  at reduced coord.    0.1333    0.1000    0.1500
      Minimum=   -1.8051E-03  at reduced coord.    0.3000    0.0000    0.0000
 Next minimum=   -1.8051E-03  at reduced coord.    0.7000    0.0000    0.0000
   Integrated=    2.0000E+00
 Relative magnetization (=zeta, between -1 and 1)
      Maximum=    6.2766E-01  at reduced coord.    0.0000    0.3500    0.3000
 Next maximum=    6.2766E-01  at reduced coord.    0.0000    0.6500    0.3000
      Minimum=   -6.8137E-02  at reduced coord.    0.0000    0.5000    0.5000
 Next minimum=   -6.7220E-02  at reduced coord.    0.5000    0.5000    0.5000

--- !EnergyTerms
iteration_state     : {dtset: 1, itime: 7, icycle: 1, }
comment             : Components of total free energy in Hartree
kinetic             :  2.53917295910779E+00
hartree             :  1.45930961799800E+00
xc                  : -3.21819313748285E+00
Ewald energy        : -5.59010278084875E+00
psp_core            :  2.98722879456821E-02
local_psp           : -5.84102917056583E+00
non_local_psp       :  1.94779476724118E+00
total_energy        : -8.67317545660478E+00
total_energy_eV     : -2.36009106634803E+02
band_energy         : -1.35344908770407E+00
...


          ===> extra information on forces <===
 ewald contribution to reduced grads
    1       7.721072586796      0.000002477773      0.000003570465
    2      -7.721072586796     -0.000002477773     -0.000003570465
 nonlocal contribution to red. grads
    1       0.436171080964     -0.000000182968     -0.000000263656
    2      -0.436171080965      0.000000182980      0.000000263672
 local psp contribution to red. grads
    1      -8.071168889674     -0.000002697943     -0.000003887729
    2       8.071168889674      0.000002697940      0.000003887725
 core charge xc contribution to reduced grads
    1      -0.085997319208     -0.000000017752     -0.000000025580
    2       0.085997319208      0.000000017749      0.000000025576
 residual contribution to red. grads
    1       0.000000815969     -0.000000000152     -0.000000000219
    2      -0.000000815969      0.000000000148      0.000000000213
 rms coord change=  4.5351E-03   atom, delta coord (reduced):
     1       -0.007855039812     -0.000000162923     -0.000000234771
     2        0.007855039812      0.000000162923      0.000000234771

 Cartesian components of stress tensor (hartree/bohr^3)
  sigma(1 1)=  2.53952393E-04  sigma(3 2)=  0.00000000E+00
  sigma(2 2)=  1.11136401E-04  sigma(3 1)=  2.52966715E-10
  sigma(3 3)=  1.11136402E-04  sigma(2 1)=  1.75549692E-10

-Cartesian components of stress tensor (GPa)         [Pressure= -4.6703E+00 GPa]
- sigma(1 1)=  7.47153609E+00  sigma(3 2)=  0.00000000E+00
- sigma(2 2)=  3.26974524E+00  sigma(3 1)=  7.44253647E-06
- sigma(3 3)=  3.26974527E+00  sigma(2 1)=  5.16484939E-06

== END DATASET(S) ==============================================================
================================================================================
  
 -outvars: echo values of variables after computation  --------
            acell      1.2000000000E+01  8.0000000000E+00  8.0000000000E+00 Bohr
              amu      2.80855000E+01
           diemac      1.00000000E+00
           diemix      3.33333333E-01
             ecut      7.00000000E+00 Hartree
           enunit           2
           etotal     -8.6731754566E+00
            fcart     -6.5229039204E-06  5.2630248491E-08  7.5840061849E-08
                       6.5229039204E-06 -5.2630248491E-08 -7.5840061849E-08
-          fftalg         312
            intxc           1
           ionmov           4
           iprcfc           1
             iscf           2
           istwfk        2
           kptopt           0
P           mkmem           1
            natom           2
            nband           5       3
            ngfft          30      20      20
             nkpt           1
            nline           3
           nspden           2
           nsppol           2
            nstep          17
             nsym           1
            ntime          10
           ntypat           1
              occ      1.000000  1.000000  1.000000  1.000000  1.000000
                       1.000000  1.000000  1.000000
           occopt           2
        optforces           1
           prtvol          10
          spgroup           1
           strten      2.5395239289E-04  1.1113640056E-04  1.1113640151E-04
                       0.0000000000E+00  2.5296671546E-10  1.7554969218E-10
           toldff      1.00000000E-05
           tolmxf      1.00000000E-05
            typat      1  1
           xangst     -1.1727945331E+00 -6.8972036657E-07 -9.9388523153E-07
                       1.1727945331E+00  6.8972036657E-07  9.9388523153E-07
            xcart     -2.2162604777E+00 -1.3033826011E-06 -1.8781708951E-06
                       2.2162604777E+00  1.3033826011E-06  1.8781708951E-06
             xred     -1.8468837315E-01 -1.6292282514E-07 -2.3477136189E-07
                       1.8468837315E-01  1.6292282514E-07  2.3477136189E-07
            znucl       14.00000

================================================================================


- Timing analysis has been suppressed with timopt=0



================================================================================

 Suggested references for the acknowledgment of ABINIT usage.

 The users of ABINIT have little formal obligations with respect to the ABINIT group
 (those specified in the GNU General Public License, http://www.gnu.org/copyleft/gpl.txt).
 However, it is common practice in the scientific literature,
 to acknowledge the efforts of people that have made the research possible.
 In this spirit, please find below suggested citations of work written by ABINIT developers,
 corresponding to implementations inside of ABINIT that you have used in the present run.
 Note also that it will be of great value to readers of publications presenting these results,
 to read papers enabling them to understand the theoretical formalism and details
 of the ABINIT implementation.
 For information on why they are suggested, see also https://docs.abinit.org/theory/acknowledgments.
-
- [1] The Abinit project: Impact, environment and recent developments.
- Computer Phys. Comm. 248, 107042 (2020).
- X.Gonze, B. Amadon, G. Antonius, F.Arnardi, L.Baguet, J.-M.Beuken,
- J.Bieder, F.Bottin, J.Bouchet, E.Bousquet, N.Brouwer, F.Bruneval,
- G.Brunin, T.Cavignac, J.-B. Charraud, Wei Chen, M.Cote, S.Cottenier,
- J.Denier, G.Geneste, Ph.Ghosez, M.Giantomassi, Y.Gillet, O.Gingras,
- D.R.Hamann, G.Hautier, Xu He, N.Helbig, N.Holzwarth, Y.Jia, F.Jollet,
- W.Lafargue-Dit-Hauret, K.Lejaeghere, M.A.L.Marques, A.Martin, C.Martins,
- H.P.C. Miranda, F.Naccarato, K. Persson, G.Petretto, V.Planes, Y.Pouillon,
- S.Prokhorenko, F.Ricci, G.-M.Rignanese, A.H.Romero, M.M.Schmitt, M.Torrent,
- M.J.van Setten, B.Van Troeye, M.J.Verstraete, G.Zerah and J.W.Zwanzig
- Comment: the fifth generic paper describing the ABINIT project.
- Note that a version of this paper, that is not formatted for Computer Phys. Comm. 
- is available at https://www.abinit.org/sites/default/files/ABINIT20.pdf .
- The licence allows the authors to put it on the Web.
- DOI and bibtex: see https://docs.abinit.org/theory/bibliography/#gonze2020
-
- [2] Recent developments in the ABINIT software package.
- Computer Phys. Comm. 205, 106 (2016).
- X.Gonze, F.Jollet, F.Abreu Araujo, D.Adams, B.Amadon, T.Applencourt,
- C.Audouze, J.-M.Beuken, J.Bieder, A.Bokhanchuk, E.Bousquet, F.Bruneval
- D.Caliste, M.Cote, F.Dahm, F.Da Pieve, M.Delaveau, M.Di Gennaro,
- B.Dorado, C.Espejo, G.Geneste, L.Genovese, A.Gerossier, M.Giantomassi,
- Y.Gillet, D.R.Hamann, L.He, G.Jomard, J.Laflamme Janssen, S.Le Roux,
- A.Levitt, A.Lherbier, F.Liu, I.Lukacevic, A.Martin, C.Martins,
- M.J.T.Oliveira, S.Ponce, Y.Pouillon, T.Rangel, G.-M.Rignanese,
- A.H.Romero, B.Rousseau, O.Rubel, A.A.Shukri, M.Stankovski, M.Torrent,
- M.J.Van Setten, B.Van Troeye, M.J.Verstraete, D.Waroquier, J.Wiktor,
- B.Xu, A.Zhou, J.W.Zwanziger.
- Comment: the fourth generic paper describing the ABINIT project.
- Note that a version of this paper, that is not formatted for Computer Phys. Comm. 
- is available at https://www.abinit.org/sites/default/files/ABINIT16.pdf .
- The licence allows the authors to put it on the Web.
- DOI and bibtex: see https://docs.abinit.org/theory/bibliography/#gonze2016
-
- [3] ABINIT: First-principles approach of materials and nanosystem properties.
- Computer Phys. Comm. 180, 2582-2615 (2009).
- X. Gonze, B. Amadon, P.-M. Anglade, J.-M. Beuken, F. Bottin, P. Boulanger, F. Bruneval,
- D. Caliste, R. Caracas, M. Cote, T. Deutsch, L. Genovese, Ph. Ghosez, M. Giantomassi
- S. Goedecker, D.R. Hamann, P. Hermet, F. Jollet, G. Jomard, S. Leroux, M. Mancini, S. Mazevet,
- M.J.T. Oliveira, G. Onida, Y. Pouillon, T. Rangel, G.-M. Rignanese, D. Sangalli, R. Shaltaf,
- M. Torrent, M.J. Verstraete, G. Zerah, J.W. Zwanziger
- Comment: the third generic paper describing the ABINIT project.
- Note that a version of this paper, that is not formatted for Computer Phys. Comm. 
- is available at https://www.abinit.org/sites/default/files/ABINIT_CPC_v10.pdf .
- The licence allows the authors to put it on the Web.
- DOI and bibtex: see https://docs.abinit.org/theory/bibliography/#gonze2009
-
- And optionally:
-
- [4] A brief introduction to the ABINIT software package.
- Z. Kristallogr. 220, 558-562 (2005).
- X. Gonze, G.-M. Rignanese, M. Verstraete, J.-M. Beuken, Y. Pouillon, R. Caracas, F. Jollet,
- M. Torrent, G. Zerah, M. Mikami, Ph. Ghosez, M. Veithen, J.-Y. Raty, V. Olevano, F. Bruneval,
- L. Reining, R. Godby, G. Onida, D.R. Hamann, and D.C. Allan.
- Comment: the second generic paper describing the ABINIT project. Note that this paper
- should be cited especially if you are using the GW part of ABINIT, as several authors
- of this part are not in the list of authors of the first or third paper.
- The .pdf of the latter paper is available at https://www.abinit.org/sites/default/files/zfk_0505-06_558-562.pdf.
- Note that it should not redistributed (Copyright by Oldenburg Wissenschaftverlag,
- the licence allows the authors to put it on the Web).
- DOI and bibtex: see https://docs.abinit.org/theory/bibliography/#gonze2005
-
- Proc.   0 individual time (sec): cpu=          7.8  wall=         11.0

================================================================================

 Calculation completed.
.Delivered  11 WARNINGs and   3 COMMENTs to log file.
+Overall time at end (sec) : cpu=          7.8  wall=         11.0
