
.Version 10.1.4.5 of ABINIT, released Sep 2024.
.(MPI version, prepared for a x86_64_linux_gnu13.2 computer) 

.Copyright (C) 1998-2025 ABINIT group . 
 ABINIT comes with ABSOLUTELY NO WARRANTY.
 It is free software, and you are welcome to redistribute it
 under certain conditions (GNU General Public License,
 see ~abinit/COPYING or http://www.gnu.org/copyleft/gpl.txt).

 ABINIT is a project of the Universite Catholique de Louvain,
 Corning Inc. and other collaborators, see ~abinit/doc/developers/contributors.txt .
 Please read https://docs.abinit.org/theory/acknowledgments for suggested
 acknowledgments of the ABINIT effort.
 For more information, see https://www.abinit.org .

.Starting date : Fri 13 Sep 2024.
- ( at 19h08 )
  
- input  file    -> /home/buildbot/ABINIT3/eos_gnu_13.2_mpich/trunk_merge-10.0/tests/TestBot_MPI1/v1_t82/t82.abi
- output file    -> t82.abo
- root for input  files -> t82i
- root for output files -> t82o

 Symmetries : space group P1 (#  1); Bravais aP (primitive triclinic)
================================================================================
 Values of the parameters that define the memory need of the present run
     intxc =       1    ionmov =       2      iscf =       7    lmnmax =       2
     lnmax =       2     mgfft =      18  mpssoang =       3    mqgrid =    3001
     natom =       1  nloc_mem =       1    nspden =       1   nspinor =       1
    nsppol =       1      nsym =       1    n1xccc =    2501    ntypat =       1
    occopt =       1   xclevel =       1
-    mband =           1        mffmem =           1         mkmem =           1
       mpw =          30          nfft =        1800          nkpt =           1
================================================================================
P This job should need less than                       1.055 Mbytes of memory.
  Rough estimation (10% accuracy) of disk space for files :
_ WF disk file :      0.002 Mbytes ; DEN or POT disk file :      0.016 Mbytes.
================================================================================

--------------------------------------------------------------------------------
------------- Echo of variables that govern the present computation ------------
--------------------------------------------------------------------------------
-
- outvars: echo of selected default values
-   iomode0 =  0 , fftalg0 =512 , wfoptalg0 =  0
-
- outvars: echo of global parameters not present in the input file
-  max_nthreads =    0
-
 -outvars: echo values of preprocessed input variables --------
            acell      1.0000000000E+01  5.0000000000E+00  5.2000000000E+00 Bohr
              amu      2.43050000E+01
          dilatmx      1.05000000E+00
             ecut      3.00000000E+00 Hartree
           ecutsm      1.00000000E+00 Hartree
-          fftalg         512
            intxc           1
           ionmov           2
           istwfk        2
           kptopt           0
P           mkmem           1
            natom           1
            nband           1
            ngfft          18      10      10
             nkpt           1
            nline           3
            nstep           8
             nsym           1
            ntime          15
           ntypat           1
              occ      2.000000
          optcell           7
            rprim      1.0000000000E+00  0.0000000000E+00  0.0000000000E+00
                       0.0000000000E+00  1.0000000000E+00  0.0000000000E+00
                       0.0000000000E+00 -6.0000000000E-01  8.0000000000E-01
          spgroup           1
           toldfe      1.00000000E-10 Hartree
           tolmxf      5.00000000E-06
            typat      1
            znucl       12.00000

================================================================================

 chkinp: Checking input parameters for consistency.

================================================================================
== DATASET  1 ==================================================================
-   mpi_nproc: 1, omp_nthreads: -1 (-1 if OMP is not activated)


--- !DatasetInfo
iteration_state: {dtset: 1, }
dimensions: {natom: 1, nkpt: 1, mband: 1, nsppol: 1, nspinor: 1, nspden: 1, mpw: 30, }
cutoff_energies: {ecut:   3.0, pawecutdg:  -1.0, }
electrons: {nelect:   2.00000000E+00, charge:   0.00000000E+00, occopt:   1.00000000E+00, tsmear:   1.00000000E-02, }
meta: {optdriver: 0, ionmov: 2, optcell: 7, iscf: 7, paral_kgb: 0, }
...

 Exchange-correlation functional for the present dataset will be:
  LDA: new Teter (4/93) with spin-polarized option - ixc=1
 Citation for XC functional:
  S. Goedecker, M. Teter, J. Huetter, PRB 54, 1703 (1996)

 Real(R)+Recip(G) space primitive vectors, cartesian coordinates (Bohr,Bohr^-1):
 R(1)= 10.0000000  0.0000000  0.0000000  G(1)=  0.1000000  0.0000000  0.0000000
 R(2)=  0.0000000  5.0000000  0.0000000  G(2)=  0.0000000  0.2000000  0.1500000
 R(3)=  0.0000000 -3.1200000  4.1600000  G(3)=  0.0000000  0.0000000  0.2403846
 Unit cell volume ucvol=  2.0800000E+02 bohr^3
 Angles (23,13,12)=  1.26869898E+02  9.00000000E+01  9.00000000E+01 degrees

 getcut: wavevector=  0.0000  0.0000  0.0000  ngfft=  18  10  10
         ecut(hartree)=      3.308   => boxcut(ratio)=   2.19866

--- Pseudopotential description ------------------------------------------------
- pspini: atom type   1  psp file is /home/buildbot/ABINIT3/eos_gnu_13.2_mpich/trunk_merge-10.0/tests/Pspdir/PseudosTM_pwteter/12mg.pspnc
- pspatm: opening atomic psp file    /home/buildbot/ABINIT3/eos_gnu_13.2_mpich/trunk_merge-10.0/tests/Pspdir/PseudosTM_pwteter/12mg.pspnc
-  Troullier-Martins psp for element  Mg        Thu Oct 27 17:30:49 EDT 1994
- 12.00000   2.00000    940714                znucl, zion, pspdat
    1    1    2    2      2001   0.00000      pspcod,pspxc,lmax,lloc,mmax,r2well
    0   3.352   8.820    1   2.5922174        l,e99.0,e99.9,nproj,rcpsp
   0.00000000   0.00000000   0.00000000   0.00000000     rms, ekb1, ekb2, epsatm
    1   1.127   1.670    1   2.5922174        l,e99.0,e99.9,nproj,rcpsp
   0.00000000   0.00000000   0.00000000   0.00000000     rms, ekb1, ekb2, epsatm
    2   0.000   0.000    0   2.5922174        l,e99.0,e99.9,nproj,rcpsp
   0.00000000   0.00000000   0.00000000   0.00000000     rms, ekb1, ekb2, epsatm
    2.54196289048337    0.05499530377757    0.78827945413088   rchrg,fchrg,qchrg
  pspatm : epsatm=   -1.54393848
         --- l  ekb(1:nproj) -->
             0    1.755924
             1    0.853613
 pspatm: atomic psp has been read  and splines computed

  -3.08787695E+00                                ecore*ucvol(ha*bohr**3)
--------------------------------------------------------------------------------

_setup2: Arith. and geom. avg. npw (full set) are      59.000      59.000

================================================================================

=== [ionmov= 2] Broyden-Fletcher-Goldfarb-Shanno method (forces)            
================================================================================

--- Iteration: ( 1/15) Internal Cycle: (1/1)
--------------------------------------------------------------------------------

---SELF-CONSISTENT-FIELD CONVERGENCE--------------------------------------------

--- !BeginCycle
iteration_state: {dtset: 1, itime: 1, icycle: 1, }
solver: {iscf: 7, nstep: 8, nline: 3, wfoptalg: 0, }
tolerances: {toldfe: 1.00E-10, }
...

     iter   Etot(hartree)      deltaE(h)  residm     vres2
 ETOT  1  -1.3098980976846    -1.310E+00 3.116E-05 1.229E+01
 ETOT  2  -1.3208436085783    -1.095E-02 2.676E-08 2.931E+00
 ETOT  3  -1.3236383043946    -2.795E-03 5.191E-06 1.263E-01
 ETOT  4  -1.3237068970423    -6.859E-05 2.298E-07 6.456E-03
 ETOT  5  -1.3237122750932    -5.378E-06 1.122E-08 3.519E-04
 ETOT  6  -1.3237127014213    -4.263E-07 9.370E-10 5.061E-06
 ETOT  7  -1.3237127072128    -5.791E-09 7.882E-12 4.132E-08
 ETOT  8  -1.3237127072536    -4.084E-11 7.633E-14 1.711E-09

 Cartesian components of stress tensor (hartree/bohr^3)
  sigma(1 1)=  3.58393359E-04  sigma(3 2)= -2.14322471E-04
  sigma(2 2)=  4.05780359E-04  sigma(3 1)= -6.99078004E-15
  sigma(3 3)=  1.48027542E-04  sigma(2 1)=  1.27205331E-14


--- !ResultsGS
iteration_state: {dtset: 1, itime: 1, icycle: 1, }
comment   : Summary of ground state results
lattice_vectors:
- [ 10.0000000,   0.0000000,   0.0000000, ]
- [  0.0000000,   5.0000000,   0.0000000, ]
- [  0.0000000,  -3.1200000,   4.1600000, ]
lattice_lengths: [  10.00000,    5.00000,    5.20000, ]
lattice_angles: [126.870,  90.000,  90.000, ] # degrees, (23, 13, 12)
lattice_volume:   2.0800000E+02
convergence: {deltae: -4.084E-11, res2:  1.711E-09, residm:  7.633E-14, diffor: null, }
etotal    :  -1.32371271E+00
entropy   :   0.00000000E+00
fermie    :  -1.66872254E-01
cartesian_stress_tensor: # hartree/bohr^3
- [  3.58393359E-04,   1.27205331E-14,  -6.99078004E-15, ]
- [  1.27205331E-14,   4.05780359E-04,  -2.14322471E-04, ]
- [ -6.99078004E-15,  -2.14322471E-04,   1.48027542E-04, ]
pressure_GPa:  -8.9460E+00
xred      :
- [  0.0000E+00,   0.0000E+00,   0.0000E+00, Mg]
cartesian_forces: # hartree/bohr
- [  0.00000000E+00,   0.00000000E+00,   0.00000000E+00, ]
force_length_stats: {min:   0.00000000E+00, max:   0.00000000E+00, mean:   0.00000000E+00, }
...

 Integrated electronic density in atomic spheres:
 ------------------------------------------------
 Atom  Sphere_radius  Integrated_density
    1        2.00000          0.49670417

---OUTPUT-----------------------------------------------------------------------

 Cartesian coordinates (xcart) [bohr]
  0.00000000000000E+00  0.00000000000000E+00  0.00000000000000E+00
 Reduced coordinates (xred)
  0.00000000000000E+00  0.00000000000000E+00  0.00000000000000E+00
 Cartesian forces (fcart) [Ha/bohr]; max,rms= 0.00000E+00 0.00000E+00 (free atoms)
  0.00000000000000E+00  0.00000000000000E+00  0.00000000000000E+00
 Gradient of E wrt nuclear positions in reduced coordinates (gred)
 -0.00000000000000E+00 -0.00000000000000E+00 -0.00000000000000E+00
 Scale of Primitive Cell (acell) [bohr]
  1.00000000000000E+01  5.00000000000000E+00  5.20000000000000E+00
 Real space primitive translations (rprimd) [bohr]
  1.00000000000000E+01  0.00000000000000E+00  0.00000000000000E+00
  0.00000000000000E+00  5.00000000000000E+00  0.00000000000000E+00
  0.00000000000000E+00 -3.12000000000000E+00  4.16000000000000E+00
 Unitary Cell Volume (ucvol) [Bohr^3]=  2.08000000000000E+02
 Angles (23,13,12)= [degrees]
  1.26869897645844E+02  9.00000000000000E+01  9.00000000000000E+01
 Lengths [Bohr]
  1.00000000000000E+01  5.00000000000000E+00  5.20000000000000E+00
 Stress tensor in cartesian coordinates (strten) [Ha/bohr^3]
  3.58393359067115E-04  1.27205330952553E-14 -6.99078003893408E-15
  1.27205330952553E-14  4.05780358761286E-04 -2.14322471002918E-04
 -6.99078003893408E-15 -2.14322471002918E-04  1.48027542036072E-04
 Total energy (etotal) [Ha]= -1.32371270725362E+00

--- Iteration: ( 2/15) Internal Cycle: (1/1)
--------------------------------------------------------------------------------

---SELF-CONSISTENT-FIELD CONVERGENCE--------------------------------------------

--- !BeginCycle
iteration_state: {dtset: 1, itime: 2, icycle: 1, }
solver: {iscf: 7, nstep: 8, nline: 3, wfoptalg: 0, }
tolerances: {toldfe: 1.00E-10, }
...

     iter   Etot(hartree)      deltaE(h)  residm     vres2
 ETOT  1  -1.3257567787590    -1.326E+00 4.415E-10 9.771E-02
 ETOT  2  -1.3258579182817    -1.011E-04 1.637E-10 1.757E-02
 ETOT  3  -1.3258749460497    -1.703E-05 2.009E-08 8.172E-04
 ETOT  4  -1.3258754836759    -5.376E-07 7.524E-10 2.089E-06
 ETOT  5  -1.3258754843878    -7.119E-10 4.882E-13 2.200E-08
 ETOT  6  -1.3258754844091    -2.124E-11 2.121E-14 1.112E-10
 ETOT  7  -1.3258754844092    -9.148E-14 8.657E-16 1.203E-12

 At SCF step    7, etot is converged : 
  for the second time, diff in etot=  9.148E-14 < toldfe=  1.000E-10

 Cartesian components of stress tensor (hartree/bohr^3)
  sigma(1 1)=  3.68696099E-04  sigma(3 2)= -1.82506092E-04
  sigma(2 2)=  3.47185963E-04  sigma(3 1)=  0.00000000E+00
  sigma(3 3)=  1.42991331E-04  sigma(2 1)=  0.00000000E+00


--- !ResultsGS
iteration_state: {dtset: 1, itime: 2, icycle: 1, }
comment   : Summary of ground state results
lattice_vectors:
- [ 10.0000000,   0.0000000,   0.0000000, ]
- [  0.0000000,   4.9391329,   0.0642967, ]
- [  0.0000000,  -3.0285241,   4.1014050, ]
lattice_lengths: [  10.00000,    4.93955,    5.09838, ]
lattice_angles: [125.697,  90.000,  90.000, ] # degrees, (23, 13, 12)
lattice_volume:   2.0452109E+02
convergence: {deltae: -9.148E-14, res2:  1.203E-12, residm:  8.657E-16, diffor: null, }
etotal    :  -1.32587548E+00
entropy   :   0.00000000E+00
fermie    :  -1.66554280E-01
cartesian_stress_tensor: # hartree/bohr^3
- [  3.68696099E-04,   0.00000000E+00,   0.00000000E+00, ]
- [  0.00000000E+00,   3.47185963E-04,  -1.82506092E-04, ]
- [  0.00000000E+00,  -1.82506092E-04,   1.42991331E-04, ]
pressure_GPa:  -8.4230E+00
xred      :
- [  0.0000E+00,   0.0000E+00,   0.0000E+00, Mg]
cartesian_forces: # hartree/bohr
- [  0.00000000E+00,   0.00000000E+00,   0.00000000E+00, ]
force_length_stats: {min:   0.00000000E+00, max:   0.00000000E+00, mean:   0.00000000E+00, }
...

 Integrated electronic density in atomic spheres:
 ------------------------------------------------
 Atom  Sphere_radius  Integrated_density
    1        2.00000          0.49487638

---OUTPUT-----------------------------------------------------------------------

 Cartesian coordinates (xcart) [bohr]
  0.00000000000000E+00  0.00000000000000E+00  0.00000000000000E+00
 Reduced coordinates (xred)
  0.00000000000000E+00  0.00000000000000E+00  0.00000000000000E+00
 Cartesian forces (fcart) [Ha/bohr]; max,rms= 0.00000E+00 0.00000E+00 (free atoms)
  0.00000000000000E+00  0.00000000000000E+00  0.00000000000000E+00
 Gradient of E wrt nuclear positions in reduced coordinates (gred)
 -0.00000000000000E+00 -0.00000000000000E+00 -0.00000000000000E+00
 Scale of Primitive Cell (acell) [bohr]
  1.00000000000000E+01  4.93955143014424E+00  5.09838023132871E+00
 Real space primitive translations (rprimd) [bohr]
  1.00000000000000E+01  0.00000000000000E+00  0.00000000000000E+00
  0.00000000000000E+00  4.93913294618581E+00  6.42967413008756E-02
  0.00000000000000E+00 -3.02852406965761E+00  4.10140499618215E+00
 Unitary Cell Volume (ucvol) [Bohr^3]=  2.04521087709246E+02
 Angles (23,13,12)= [degrees]
  1.25696757522029E+02  9.00000000000000E+01  9.00000000000000E+01
 Lengths [Bohr]
  1.00000000000000E+01  4.93955143014424E+00  5.09838023132871E+00
 Stress tensor in cartesian coordinates (strten) [Ha/bohr^3]
  3.68696099205978E-04  0.00000000000000E+00  0.00000000000000E+00
  0.00000000000000E+00  3.47185963480119E-04 -1.82506091934494E-04
  0.00000000000000E+00 -1.82506091934494E-04  1.42991330990889E-04
 Total energy (etotal) [Ha]= -1.32587548440917E+00

 Difference of energy with previous step (new-old):
           Absolute (Ha)=-2.16278E-03
           Relative     =-1.63254E-03

--- Iteration: ( 3/15) Internal Cycle: (1/1)
--------------------------------------------------------------------------------

---SELF-CONSISTENT-FIELD CONVERGENCE--------------------------------------------

--- !BeginCycle
iteration_state: {dtset: 1, itime: 3, icycle: 1, }
solver: {iscf: 7, nstep: 8, nline: 3, wfoptalg: 0, }
tolerances: {toldfe: 1.00E-10, }
...

     iter   Etot(hartree)      deltaE(h)  residm     vres2
 ETOT  1  -1.3261784306295    -1.326E+00 2.919E-08 3.999E+00
 ETOT  2  -1.3296314003483    -3.453E-03 3.874E-09 7.994E-01
 ETOT  3  -1.3303004748758    -6.691E-04 9.002E-07 3.462E-02
 ETOT  4  -1.3303192447860    -1.877E-05 4.301E-08 4.805E-04
 ETOT  5  -1.3303195669885    -3.222E-07 7.420E-10 2.914E-05
 ETOT  6  -1.3303195972377    -3.025E-08 6.527E-11 4.447E-07
 ETOT  7  -1.3303195976962    -4.585E-10 5.862E-13 1.231E-09
 ETOT  8  -1.3303195976973    -1.094E-12 8.978E-16 9.789E-12

 Cartesian components of stress tensor (hartree/bohr^3)
  sigma(1 1)=  4.33327570E-04  sigma(3 2)=  6.57990521E-05
  sigma(2 2)= -8.56771143E-05  sigma(3 1)=  0.00000000E+00
  sigma(3 3)= -9.32801740E-05  sigma(2 1)=  0.00000000E+00


--- !ResultsGS
iteration_state: {dtset: 1, itime: 3, icycle: 1, }
comment   : Summary of ground state results
lattice_vectors:
- [ 10.0000000,   0.0000000,   0.0000000, ]
- [  0.0000000,   4.6054382,   0.4151338, ]
- [  0.0000000,  -2.5284021,   3.7682055, ]
lattice_lengths: [  10.00000,    4.62411,    4.53786, ]
lattice_angles: [118.710,  90.000,  90.000, ] # degrees, (23, 13, 12)
lattice_volume:   1.8403862E+02
convergence: {deltae: -1.094E-12, res2:  9.789E-12, residm:  8.978E-16, diffor: null, }
etotal    :  -1.33031960E+00
entropy   :   0.00000000E+00
fermie    :  -1.63476395E-01
cartesian_stress_tensor: # hartree/bohr^3
- [  4.33327570E-04,   0.00000000E+00,   0.00000000E+00, ]
- [  0.00000000E+00,  -8.56771143E-05,   6.57990521E-05, ]
- [  0.00000000E+00,   6.57990521E-05,  -9.32801740E-05, ]
pressure_GPa:  -2.4946E+00
xred      :
- [  0.0000E+00,   0.0000E+00,   0.0000E+00, Mg]
cartesian_forces: # hartree/bohr
- [  0.00000000E+00,   0.00000000E+00,   0.00000000E+00, ]
force_length_stats: {min:   0.00000000E+00, max:   0.00000000E+00, mean:   0.00000000E+00, }
...

 Integrated electronic density in atomic spheres:
 ------------------------------------------------
 Atom  Sphere_radius  Integrated_density
    1        2.00000          0.57057146

---OUTPUT-----------------------------------------------------------------------

 Cartesian coordinates (xcart) [bohr]
  0.00000000000000E+00  0.00000000000000E+00  0.00000000000000E+00
 Reduced coordinates (xred)
  0.00000000000000E+00  0.00000000000000E+00  0.00000000000000E+00
 Cartesian forces (fcart) [Ha/bohr]; max,rms= 0.00000E+00 0.00000E+00 (free atoms)
  0.00000000000000E+00  0.00000000000000E+00  0.00000000000000E+00
 Gradient of E wrt nuclear positions in reduced coordinates (gred)
 -0.00000000000000E+00 -0.00000000000000E+00 -0.00000000000000E+00
 Scale of Primitive Cell (acell) [bohr]
  1.00000000000000E+01  4.62411037749325E+00  4.53786178064571E+00
 Real space primitive translations (rprimd) [bohr]
  1.00000000000000E+01  0.00000000000000E+00  0.00000000000000E+00
  0.00000000000000E+00  4.60543816682105E+00  4.15133803524516E-01
  0.00000000000000E+00 -2.52840209156393E+00  3.76820546196995E+00
 Unitary Cell Volume (ucvol) [Bohr^3]=  1.84038624320902E+02
 Angles (23,13,12)= [degrees]
  1.18710226057213E+02  9.00000000000000E+01  9.00000000000000E+01
 Lengths [Bohr]
  1.00000000000000E+01  4.62411037749325E+00  4.53786178064571E+00
 Stress tensor in cartesian coordinates (strten) [Ha/bohr^3]
  4.33327570488211E-04  0.00000000000000E+00  0.00000000000000E+00
  0.00000000000000E+00 -8.56771143452735E-05  6.57990521184187E-05
  0.00000000000000E+00  6.57990521184187E-05 -9.32801740045177E-05
 Total energy (etotal) [Ha]= -1.33031959769727E+00

 Difference of energy with previous step (new-old):
           Absolute (Ha)=-4.44411E-03
           Relative     =-3.34623E-03

--- Iteration: ( 4/15) Internal Cycle: (1/1)
--------------------------------------------------------------------------------

---SELF-CONSISTENT-FIELD CONVERGENCE--------------------------------------------

--- !BeginCycle
iteration_state: {dtset: 1, itime: 4, icycle: 1, }
solver: {iscf: 7, nstep: 8, nline: 3, wfoptalg: 0, }
tolerances: {toldfe: 1.00E-10, }
...

     iter   Etot(hartree)      deltaE(h)  residm     vres2
 ETOT  1  -1.3303110016541    -1.330E+00 5.753E-08 3.055E-01
 ETOT  2  -1.3306277292786    -3.167E-04 7.772E-10 4.498E-02
 ETOT  3  -1.3306675264943    -3.980E-05 3.957E-08 2.675E-03
 ETOT  4  -1.3306692499572    -1.723E-06 1.499E-09 3.072E-06
 ETOT  5  -1.3306692510565    -1.099E-09 3.715E-12 3.982E-08
 ETOT  6  -1.3306692510972    -4.065E-11 7.800E-14 3.216E-10
 ETOT  7  -1.3306692510975    -2.998E-13 5.829E-16 7.040E-13

 At SCF step    7, etot is converged : 
  for the second time, diff in etot=  2.998E-13 < toldfe=  1.000E-10

 Cartesian components of stress tensor (hartree/bohr^3)
  sigma(1 1)=  4.23908140E-04  sigma(3 2)= -4.94118483E-06
  sigma(2 2)=  3.20331211E-05  sigma(3 1)=  0.00000000E+00
  sigma(3 3)=  6.94381802E-07  sigma(2 1)=  0.00000000E+00


--- !ResultsGS
iteration_state: {dtset: 1, itime: 4, icycle: 1, }
comment   : Summary of ground state results
lattice_vectors:
- [ 10.0000000,   0.0000000,   0.0000000, ]
- [  0.0000000,   4.6789409,   0.3336101, ]
- [  0.0000000,  -2.6420956,   3.8491568, ]
lattice_lengths: [  10.00000,    4.69082,    4.66869, ]
lattice_angles: [120.388,  90.000,  90.000, ] # degrees, (23, 13, 12)
lattice_volume:   1.8891407E+02
convergence: {deltae: -2.998E-13, res2:  7.040E-13, residm:  5.829E-16, diffor: null, }
etotal    :  -1.33066925E+00
entropy   :   0.00000000E+00
fermie    :  -1.64437110E-01
cartesian_stress_tensor: # hartree/bohr^3
- [  4.23908140E-04,   0.00000000E+00,   0.00000000E+00, ]
- [  0.00000000E+00,   3.20331211E-05,  -4.94118483E-06, ]
- [  0.00000000E+00,  -4.94118483E-06,   6.94381802E-07, ]
pressure_GPa:  -4.4782E+00
xred      :
- [  0.0000E+00,   0.0000E+00,   0.0000E+00, Mg]
cartesian_forces: # hartree/bohr
- [  0.00000000E+00,   0.00000000E+00,   0.00000000E+00, ]
force_length_stats: {min:   0.00000000E+00, max:   0.00000000E+00, mean:   0.00000000E+00, }
...

 Integrated electronic density in atomic spheres:
 ------------------------------------------------
 Atom  Sphere_radius  Integrated_density
    1        2.00000          0.52538958

---OUTPUT-----------------------------------------------------------------------

 Cartesian coordinates (xcart) [bohr]
  0.00000000000000E+00  0.00000000000000E+00  0.00000000000000E+00
 Reduced coordinates (xred)
  0.00000000000000E+00  0.00000000000000E+00  0.00000000000000E+00
 Cartesian forces (fcart) [Ha/bohr]; max,rms= 0.00000E+00 0.00000E+00 (free atoms)
  0.00000000000000E+00  0.00000000000000E+00  0.00000000000000E+00
 Gradient of E wrt nuclear positions in reduced coordinates (gred)
 -0.00000000000000E+00 -0.00000000000000E+00 -0.00000000000000E+00
 Scale of Primitive Cell (acell) [bohr]
  1.00000000000000E+01  4.69081911794567E+00  4.66869118895151E+00
 Real space primitive translations (rprimd) [bohr]
  1.00000000000000E+01  0.00000000000000E+00  0.00000000000000E+00
  0.00000000000000E+00  4.67894093952604E+00  3.33610074355970E-01
  0.00000000000000E+00 -2.64209556440008E+00  3.84915684876194E+00
 Unitary Cell Volume (ucvol) [Bohr^3]=  1.88914072600243E+02
 Angles (23,13,12)= [degrees]
  1.20387744211017E+02  9.00000000000000E+01  9.00000000000000E+01
 Lengths [Bohr]
  1.00000000000000E+01  4.69081911794567E+00  4.66869118895151E+00
 Stress tensor in cartesian coordinates (strten) [Ha/bohr^3]
  4.23908140272069E-04  0.00000000000000E+00  0.00000000000000E+00
  0.00000000000000E+00  3.20331211107494E-05 -4.94118482583169E-06
  0.00000000000000E+00 -4.94118482583169E-06  6.94381802438952E-07
 Total energy (etotal) [Ha]= -1.33066925109746E+00

 Difference of energy with previous step (new-old):
           Absolute (Ha)=-3.49653E-04
           Relative     =-2.62800E-04

--- Iteration: ( 5/15) Internal Cycle: (1/1)
--------------------------------------------------------------------------------

---SELF-CONSISTENT-FIELD CONVERGENCE--------------------------------------------

--- !BeginCycle
iteration_state: {dtset: 1, itime: 5, icycle: 1, }
solver: {iscf: 7, nstep: 8, nline: 3, wfoptalg: 0, }
tolerances: {toldfe: 1.00E-10, }
...

     iter   Etot(hartree)      deltaE(h)  residm     vres2
 ETOT  1  -1.3306753466202    -1.331E+00 2.006E-09 5.853E-03
 ETOT  2  -1.3306811770672    -5.830E-06 3.498E-12 9.390E-04
 ETOT  3  -1.3306820014836    -8.244E-07 8.996E-10 5.137E-05
 ETOT  4  -1.3306820335099    -3.203E-08 3.557E-11 8.403E-08
 ETOT  5  -1.3306820335277    -1.778E-11 2.897E-14 1.779E-10
 ETOT  6  -1.3306820335278    -1.190E-13 4.648E-16 2.033E-12

 At SCF step    6, etot is converged : 
  for the second time, diff in etot=  1.190E-13 < toldfe=  1.000E-10

 Cartesian components of stress tensor (hartree/bohr^3)
  sigma(1 1)=  4.26651238E-04  sigma(3 2)=  3.19617101E-06
  sigma(2 2)=  1.51355488E-05  sigma(3 1)=  0.00000000E+00
  sigma(3 3)= -9.49341489E-06  sigma(2 1)=  0.00000000E+00


--- !ResultsGS
iteration_state: {dtset: 1, itime: 5, icycle: 1, }
comment   : Summary of ground state results
lattice_vectors:
- [ 10.0000000,   0.0000000,   0.0000000, ]
- [  0.0000000,   4.6663476,   0.3438589, ]
- [  0.0000000,  -2.6257104,   3.8398943, ]
lattice_lengths: [  10.00000,    4.67900,    4.65179, ]
lattice_angles: [120.150,  90.000,  90.000, ] # degrees, (23, 13, 12)
lattice_volume:   1.8821155E+02
convergence: {deltae: -1.190E-13, res2:  2.033E-12, residm:  4.648E-16, diffor: null, }
etotal    :  -1.33068203E+00
entropy   :   0.00000000E+00
fermie    :  -1.64309625E-01
cartesian_stress_tensor: # hartree/bohr^3
- [  4.26651238E-04,   0.00000000E+00,   0.00000000E+00, ]
- [  0.00000000E+00,   1.51355488E-05,   3.19617101E-06, ]
- [  0.00000000E+00,   3.19617101E-06,  -9.49341489E-06, ]
pressure_GPa:  -4.2395E+00
xred      :
- [  0.0000E+00,   0.0000E+00,   0.0000E+00, Mg]
cartesian_forces: # hartree/bohr
- [  0.00000000E+00,   0.00000000E+00,   0.00000000E+00, ]
force_length_stats: {min:   0.00000000E+00, max:   0.00000000E+00, mean:   0.00000000E+00, }
...

 Integrated electronic density in atomic spheres:
 ------------------------------------------------
 Atom  Sphere_radius  Integrated_density
    1        2.00000          0.52516154

---OUTPUT-----------------------------------------------------------------------

 Cartesian coordinates (xcart) [bohr]
  0.00000000000000E+00  0.00000000000000E+00  0.00000000000000E+00
 Reduced coordinates (xred)
  0.00000000000000E+00  0.00000000000000E+00  0.00000000000000E+00
 Cartesian forces (fcart) [Ha/bohr]; max,rms= 0.00000E+00 0.00000E+00 (free atoms)
  0.00000000000000E+00  0.00000000000000E+00  0.00000000000000E+00
 Gradient of E wrt nuclear positions in reduced coordinates (gred)
 -0.00000000000000E+00 -0.00000000000000E+00 -0.00000000000000E+00
 Scale of Primitive Cell (acell) [bohr]
  1.00000000000000E+01  4.67899979681477E+00  4.65178924925847E+00
 Real space primitive translations (rprimd) [bohr]
  1.00000000000000E+01  0.00000000000000E+00  0.00000000000000E+00
  0.00000000000000E+00  4.66634762839666E+00  3.43858851201405E-01
  0.00000000000000E+00 -2.62571035591995E+00  3.83989431447422E+00
 Unitary Cell Volume (ucvol) [Bohr^3]=  1.88211554742149E+02
 Angles (23,13,12)= [degrees]
  1.20149769266666E+02  9.00000000000000E+01  9.00000000000000E+01
 Lengths [Bohr]
  1.00000000000000E+01  4.67899979681477E+00  4.65178924925847E+00
 Stress tensor in cartesian coordinates (strten) [Ha/bohr^3]
  4.26651237910160E-04  0.00000000000000E+00  0.00000000000000E+00
  0.00000000000000E+00  1.51355488217336E-05  3.19617100522658E-06
  0.00000000000000E+00  3.19617100522658E-06 -9.49341488765744E-06
 Total energy (etotal) [Ha]= -1.33068203352781E+00

 Difference of energy with previous step (new-old):
           Absolute (Ha)=-1.27824E-05
           Relative     =-9.60597E-06

--- Iteration: ( 6/15) Internal Cycle: (1/1)
--------------------------------------------------------------------------------

---SELF-CONSISTENT-FIELD CONVERGENCE--------------------------------------------

--- !BeginCycle
iteration_state: {dtset: 1, itime: 6, icycle: 1, }
solver: {iscf: 7, nstep: 8, nline: 3, wfoptalg: 0, }
tolerances: {toldfe: 1.00E-10, }
...

     iter   Etot(hartree)      deltaE(h)  residm     vres2
 ETOT  1  -1.3306840449983    -1.331E+00 1.353E-10 3.554E-04
 ETOT  2  -1.3306844001778    -3.552E-07 7.050E-14 5.649E-05
 ETOT  3  -1.3306844497443    -4.957E-08 5.348E-11 3.121E-06
 ETOT  4  -1.3306844516947    -1.950E-09 2.111E-12 4.837E-09
 ETOT  5  -1.3306844516957    -9.817E-13 1.848E-15 6.726E-12
 ETOT  6  -1.3306844516957    -5.107E-15 3.688E-17 1.314E-13

 At SCF step    6, etot is converged : 
  for the second time, diff in etot=  5.107E-15 < toldfe=  1.000E-10

 Cartesian components of stress tensor (hartree/bohr^3)
  sigma(1 1)=  4.27340144E-04  sigma(3 2)=  4.14331596E-06
  sigma(2 2)=  9.74576719E-06  sigma(3 1)=  0.00000000E+00
  sigma(3 3)= -1.07856319E-05  sigma(2 1)=  0.00000000E+00


--- !ResultsGS
iteration_state: {dtset: 1, itime: 6, icycle: 1, }
comment   : Summary of ground state results
lattice_vectors:
- [ 10.0000000,   0.0000000,   0.0000000, ]
- [  0.0000000,   4.6614852,   0.3449579, ]
- [  0.0000000,  -2.6217618,   3.8398858, ]
lattice_lengths: [  10.00000,    4.67423,    4.64955, ]
lattice_angles: [120.092,  90.000,  90.000, ] # degrees, (23, 13, 12)
lattice_volume:   1.8803968E+02
convergence: {deltae: -5.107E-15, res2:  1.314E-13, residm:  3.688E-17, diffor: null, }
etotal    :  -1.33068445E+00
entropy   :   0.00000000E+00
fermie    :  -1.64278076E-01
cartesian_stress_tensor: # hartree/bohr^3
- [  4.27340144E-04,   0.00000000E+00,   0.00000000E+00, ]
- [  0.00000000E+00,   9.74576719E-06,   4.14331596E-06, ]
- [  0.00000000E+00,   4.14331596E-06,  -1.07856319E-05, ]
pressure_GPa:  -4.1807E+00
xred      :
- [  0.0000E+00,   0.0000E+00,   0.0000E+00, Mg]
cartesian_forces: # hartree/bohr
- [  0.00000000E+00,   0.00000000E+00,   0.00000000E+00, ]
force_length_stats: {min:   0.00000000E+00, max:   0.00000000E+00, mean:   0.00000000E+00, }
...

 Integrated electronic density in atomic spheres:
 ------------------------------------------------
 Atom  Sphere_radius  Integrated_density
    1        2.00000          0.52510557

---OUTPUT-----------------------------------------------------------------------

 Cartesian coordinates (xcart) [bohr]
  0.00000000000000E+00  0.00000000000000E+00  0.00000000000000E+00
 Reduced coordinates (xred)
  0.00000000000000E+00  0.00000000000000E+00  0.00000000000000E+00
 Cartesian forces (fcart) [Ha/bohr]; max,rms= 0.00000E+00 0.00000E+00 (free atoms)
  0.00000000000000E+00  0.00000000000000E+00  0.00000000000000E+00
 Gradient of E wrt nuclear positions in reduced coordinates (gred)
 -0.00000000000000E+00 -0.00000000000000E+00 -0.00000000000000E+00
 Scale of Primitive Cell (acell) [bohr]
  1.00000000000000E+01  4.67423155448182E+00  4.64955457469295E+00
 Real space primitive translations (rprimd) [bohr]
  1.00000000000000E+01  0.00000000000000E+00  0.00000000000000E+00
  0.00000000000000E+00  4.66148524038930E+00  3.44957937358003E-01
  0.00000000000000E+00 -2.62176178612106E+00  3.83988578995306E+00
 Unitary Cell Volume (ucvol) [Bohr^3]=  1.88039684726311E+02
 Angles (23,13,12)= [degrees]
  1.20091847221909E+02  9.00000000000000E+01  9.00000000000000E+01
 Lengths [Bohr]
  1.00000000000000E+01  4.67423155448182E+00  4.64955457469295E+00
 Stress tensor in cartesian coordinates (strten) [Ha/bohr^3]
  4.27340143969442E-04  0.00000000000000E+00  0.00000000000000E+00
  0.00000000000000E+00  9.74576718766699E-06  4.14331595710551E-06
  0.00000000000000E+00  4.14331595710551E-06 -1.07856319384136E-05
 Total energy (etotal) [Ha]= -1.33068445169567E+00

 Difference of energy with previous step (new-old):
           Absolute (Ha)=-2.41817E-06
           Relative     =-1.81724E-06

--- Iteration: ( 7/15) Internal Cycle: (1/1)
--------------------------------------------------------------------------------

---SELF-CONSISTENT-FIELD CONVERGENCE--------------------------------------------

--- !BeginCycle
iteration_state: {dtset: 1, itime: 7, icycle: 1, }
solver: {iscf: 7, nstep: 8, nline: 3, wfoptalg: 0, }
tolerances: {toldfe: 1.00E-10, }
...

     iter   Etot(hartree)      deltaE(h)  residm     vres2
 ETOT  1  -1.3306880427153    -1.331E+00 1.098E-09 6.076E-04
 ETOT  2  -1.3306886494413    -6.067E-07 1.369E-13 9.647E-05
 ETOT  3  -1.3306887339482    -8.451E-08 9.124E-11 5.350E-06
 ETOT  4  -1.3306887372891    -3.341E-09 3.598E-12 8.331E-09
 ETOT  5  -1.3306887372908    -1.709E-12 3.391E-15 1.185E-11
 ETOT  6  -1.3306887372909    -9.548E-15 6.788E-17 2.213E-13

 At SCF step    6, etot is converged : 
  for the second time, diff in etot=  9.548E-15 < toldfe=  1.000E-10

 Cartesian components of stress tensor (hartree/bohr^3)
  sigma(1 1)=  4.28264060E-04  sigma(3 2)=  3.29174549E-06
  sigma(2 2)= -1.41552051E-07  sigma(3 1)=  0.00000000E+00
  sigma(3 3)= -9.60970343E-06  sigma(2 1)=  0.00000000E+00


--- !ResultsGS
iteration_state: {dtset: 1, itime: 7, icycle: 1, }
comment   : Summary of ground state results
lattice_vectors:
- [ 10.0000000,   0.0000000,   0.0000000, ]
- [  0.0000000,   4.6511587,   0.3436136, ]
- [  0.0000000,  -2.6164365,   3.8447448, ]
lattice_lengths: [  10.00000,    4.66383,    4.65057, ]
lattice_angles: [120.011,  90.000,  90.000, ] # degrees, (23, 13, 12)
lattice_volume:   1.8781561E+02
convergence: {deltae: -9.548E-15, res2:  2.213E-13, residm:  6.788E-17, diffor: null, }
etotal    :  -1.33068874E+00
entropy   :   0.00000000E+00
fermie    :  -1.64236937E-01
cartesian_stress_tensor: # hartree/bohr^3
- [  4.28264060E-04,   0.00000000E+00,   0.00000000E+00, ]
- [  0.00000000E+00,  -1.41552051E-07,   3.29174549E-06, ]
- [  0.00000000E+00,   3.29174549E-06,  -9.60970343E-06, ]
pressure_GPa:  -4.1044E+00
xred      :
- [  0.0000E+00,   0.0000E+00,   0.0000E+00, Mg]
cartesian_forces: # hartree/bohr
- [  0.00000000E+00,   0.00000000E+00,   0.00000000E+00, ]
force_length_stats: {min:   0.00000000E+00, max:   0.00000000E+00, mean:   0.00000000E+00, }
...

 Integrated electronic density in atomic spheres:
 ------------------------------------------------
 Atom  Sphere_radius  Integrated_density
    1        2.00000          0.52503192

---OUTPUT-----------------------------------------------------------------------

 Cartesian coordinates (xcart) [bohr]
  0.00000000000000E+00  0.00000000000000E+00  0.00000000000000E+00
 Reduced coordinates (xred)
  0.00000000000000E+00  0.00000000000000E+00  0.00000000000000E+00
 Cartesian forces (fcart) [Ha/bohr]; max,rms= 0.00000E+00 0.00000E+00 (free atoms)
  0.00000000000000E+00  0.00000000000000E+00  0.00000000000000E+00
 Gradient of E wrt nuclear positions in reduced coordinates (gred)
 -0.00000000000000E+00 -0.00000000000000E+00 -0.00000000000000E+00
 Scale of Primitive Cell (acell) [bohr]
  1.00000000000000E+01  4.66383396016002E+00  4.65057011722483E+00
 Real space primitive translations (rprimd) [bohr]
  1.00000000000000E+01  0.00000000000000E+00  0.00000000000000E+00
  0.00000000000000E+00  4.65115866159147E+00  3.43613609515956E-01
  0.00000000000000E+00 -2.61643648171580E+00  3.84474479678056E+00
 Unitary Cell Volume (ucvol) [Bohr^3]=  1.87815612467062E+02
 Angles (23,13,12)= [degrees]
  1.20011015687471E+02  9.00000000000000E+01  9.00000000000000E+01
 Lengths [Bohr]
  1.00000000000000E+01  4.66383396016002E+00  4.65057011722483E+00
 Stress tensor in cartesian coordinates (strten) [Ha/bohr^3]
  4.28264059985111E-04  0.00000000000000E+00  0.00000000000000E+00
  0.00000000000000E+00 -1.41552051186202E-07  3.29174549344799E-06
  0.00000000000000E+00  3.29174549344799E-06 -9.60970342690968E-06
 Total energy (etotal) [Ha]= -1.33068873729086E+00

 Difference of energy with previous step (new-old):
           Absolute (Ha)=-4.28560E-06
           Relative     =-3.22059E-06

--- Iteration: ( 8/15) Internal Cycle: (1/1)
--------------------------------------------------------------------------------

---SELF-CONSISTENT-FIELD CONVERGENCE--------------------------------------------

--- !BeginCycle
iteration_state: {dtset: 1, itime: 8, icycle: 1, }
solver: {iscf: 7, nstep: 8, nline: 3, wfoptalg: 0, }
tolerances: {toldfe: 1.00E-10, }
...

     iter   Etot(hartree)      deltaE(h)  residm     vres2
 ETOT  1  -1.3306904781452    -1.331E+00 7.571E-12 7.444E-06
 ETOT  2  -1.3306904855754    -7.430E-09 1.101E-15 1.171E-06
 ETOT  3  -1.3306904865977    -1.022E-09 1.166E-12 6.918E-08
 ETOT  4  -1.3306904866416    -4.391E-11 4.204E-14 1.314E-10
 ETOT  5  -1.3306904866416    -4.396E-14 1.832E-16 1.666E-13

 At SCF step    5, etot is converged : 
  for the second time, diff in etot=  4.396E-14 < toldfe=  1.000E-10

 Cartesian components of stress tensor (hartree/bohr^3)
  sigma(1 1)=  4.28187779E-04  sigma(3 2)=  8.74341967E-07
  sigma(2 2)= -2.94009131E-06  sigma(3 1)=  0.00000000E+00
  sigma(3 3)= -5.79133165E-06  sigma(2 1)=  0.00000000E+00


--- !ResultsGS
iteration_state: {dtset: 1, itime: 8, icycle: 1, }
comment   : Summary of ground state results
lattice_vectors:
- [ 10.0000000,   0.0000000,   0.0000000, ]
- [  0.0000000,   4.6468447,   0.3403810, ]
- [  0.0000000,  -2.6164341,   3.8506675, ]
lattice_lengths: [  10.00000,    4.65929,    4.65547, ]
lattice_angles: [120.006,  90.000,  90.000, ] # degrees, (23, 13, 12)
lattice_volume:   1.8784038E+02
convergence: {deltae: -4.396E-14, res2:  1.666E-13, residm:  1.832E-16, diffor: null, }
etotal    :  -1.33069049E+00
entropy   :   0.00000000E+00
fermie    :  -1.64241690E-01
cartesian_stress_tensor: # hartree/bohr^3
- [  4.28187779E-04,   0.00000000E+00,   0.00000000E+00, ]
- [  0.00000000E+00,  -2.94009131E-06,   8.74341967E-07, ]
- [  0.00000000E+00,   8.74341967E-07,  -5.79133165E-06, ]
pressure_GPa:  -4.1136E+00
xred      :
- [  0.0000E+00,   0.0000E+00,   0.0000E+00, Mg]
cartesian_forces: # hartree/bohr
- [  0.00000000E+00,   0.00000000E+00,   0.00000000E+00, ]
force_length_stats: {min:   0.00000000E+00, max:   0.00000000E+00, mean:   0.00000000E+00, }
...

 Integrated electronic density in atomic spheres:
 ------------------------------------------------
 Atom  Sphere_radius  Integrated_density
    1        2.00000          0.52503933

---OUTPUT-----------------------------------------------------------------------

 Cartesian coordinates (xcart) [bohr]
  0.00000000000000E+00  0.00000000000000E+00  0.00000000000000E+00
 Reduced coordinates (xred)
  0.00000000000000E+00  0.00000000000000E+00  0.00000000000000E+00
 Cartesian forces (fcart) [Ha/bohr]; max,rms= 0.00000E+00 0.00000E+00 (free atoms)
  0.00000000000000E+00  0.00000000000000E+00  0.00000000000000E+00
 Gradient of E wrt nuclear positions in reduced coordinates (gred)
 -0.00000000000000E+00 -0.00000000000000E+00 -0.00000000000000E+00
 Scale of Primitive Cell (acell) [bohr]
  1.00000000000000E+01  4.65929445156237E+00  4.65546645212427E+00
 Real space primitive translations (rprimd) [bohr]
  1.00000000000000E+01  0.00000000000000E+00  0.00000000000000E+00
  0.00000000000000E+00  4.64684468901493E+00  3.40380996140584E-01
  0.00000000000000E+00 -2.61643409715635E+00  3.85066753980296E+00
 Unitary Cell Volume (ucvol) [Bohr^3]=  1.87840384508218E+02
 Angles (23,13,12)= [degrees]
  1.20005716988932E+02  9.00000000000000E+01  9.00000000000000E+01
 Lengths [Bohr]
  1.00000000000000E+01  4.65929445156237E+00  4.65546645212427E+00
 Stress tensor in cartesian coordinates (strten) [Ha/bohr^3]
  4.28187778634618E-04  0.00000000000000E+00  0.00000000000000E+00
  0.00000000000000E+00 -2.94009130511162E-06  8.74341967049059E-07
  0.00000000000000E+00  8.74341967049059E-07 -5.79133164660128E-06
 Total energy (etotal) [Ha]= -1.33069048664164E+00

 Difference of energy with previous step (new-old):
           Absolute (Ha)=-1.74935E-06
           Relative     =-1.31462E-06

--- Iteration: ( 9/15) Internal Cycle: (1/1)
--------------------------------------------------------------------------------

---SELF-CONSISTENT-FIELD CONVERGENCE--------------------------------------------

--- !BeginCycle
iteration_state: {dtset: 1, itime: 9, icycle: 1, }
solver: {iscf: 7, nstep: 8, nline: 3, wfoptalg: 0, }
tolerances: {toldfe: 1.00E-10, }
...

     iter   Etot(hartree)      deltaE(h)  residm     vres2
 ETOT  1  -1.3306907943124    -1.331E+00 1.217E-10 1.407E-04
 ETOT  2  -1.3306909350950    -1.408E-07 2.046E-14 2.226E-05
 ETOT  3  -1.3306909546035    -1.951E-08 2.085E-11 1.239E-06
 ETOT  4  -1.3306909553794    -7.759E-10 8.187E-13 1.827E-09
 ETOT  5  -1.3306909553797    -3.624E-13 7.875E-16 1.826E-12
 ETOT  6  -1.3306909553797     1.332E-15 1.880E-17 5.886E-14

 At SCF step    6, etot is converged : 
  for the second time, diff in etot=  1.332E-15 < toldfe=  1.000E-10

 Cartesian components of stress tensor (hartree/bohr^3)
  sigma(1 1)=  4.27768879E-04  sigma(3 2)= -7.04807009E-07
  sigma(2 2)= -1.79194141E-06  sigma(3 1)=  0.00000000E+00
  sigma(3 3)= -2.68633846E-06  sigma(2 1)=  0.00000000E+00


--- !ResultsGS
iteration_state: {dtset: 1, itime: 9, icycle: 1, }
comment   : Summary of ground state results
lattice_vectors:
- [ 10.0000000,   0.0000000,   0.0000000, ]
- [  0.0000000,   4.6467352,   0.3383325, ]
- [  0.0000000,  -2.6180701,   3.8541138, ]
lattice_lengths: [  10.00000,    4.65904,    4.65924, ]
lattice_angles: [120.024,  90.000,  90.000, ] # degrees, (23, 13, 12)
lattice_volume:   1.8794824E+02
convergence: {deltae:  1.332E-15, res2:  5.886E-14, residm:  1.880E-17, diffor: null, }
etotal    :  -1.33069096E+00
entropy   :   0.00000000E+00
fermie    :  -1.64261704E-01
cartesian_stress_tensor: # hartree/bohr^3
- [  4.27768879E-04,   0.00000000E+00,   0.00000000E+00, ]
- [  0.00000000E+00,  -1.79194141E-06,  -7.04807009E-07, ]
- [  0.00000000E+00,  -7.04807009E-07,  -2.68633846E-06, ]
pressure_GPa:  -4.1512E+00
xred      :
- [  0.0000E+00,   0.0000E+00,   0.0000E+00, Mg]
cartesian_forces: # hartree/bohr
- [  0.00000000E+00,   0.00000000E+00,   0.00000000E+00, ]
force_length_stats: {min:   0.00000000E+00, max:   0.00000000E+00, mean:   0.00000000E+00, }
...

 Integrated electronic density in atomic spheres:
 ------------------------------------------------
 Atom  Sphere_radius  Integrated_density
    1        2.00000          0.52507393

---OUTPUT-----------------------------------------------------------------------

 Cartesian coordinates (xcart) [bohr]
  0.00000000000000E+00  0.00000000000000E+00  0.00000000000000E+00
 Reduced coordinates (xred)
  0.00000000000000E+00  0.00000000000000E+00  0.00000000000000E+00
 Cartesian forces (fcart) [Ha/bohr]; max,rms= 0.00000E+00 0.00000E+00 (free atoms)
  0.00000000000000E+00  0.00000000000000E+00  0.00000000000000E+00
 Gradient of E wrt nuclear positions in reduced coordinates (gred)
 -0.00000000000000E+00 -0.00000000000000E+00 -0.00000000000000E+00
 Scale of Primitive Cell (acell) [bohr]
  1.00000000000000E+01  4.65903605806660E+00  4.65923645312639E+00
 Real space primitive translations (rprimd) [bohr]
  1.00000000000000E+01  0.00000000000000E+00  0.00000000000000E+00
  0.00000000000000E+00  4.64673520952046E+00  3.38332503563524E-01
  0.00000000000000E+00 -2.61807012777592E+00  3.85411379336278E+00
 Unitary Cell Volume (ucvol) [Bohr^3]=  1.87948244859526E+02
 Angles (23,13,12)= [degrees]
  1.20023566138482E+02  9.00000000000000E+01  9.00000000000000E+01
 Lengths [Bohr]
  1.00000000000000E+01  4.65903605806660E+00  4.65923645312639E+00
 Stress tensor in cartesian coordinates (strten) [Ha/bohr^3]
  4.27768878615624E-04  0.00000000000000E+00  0.00000000000000E+00
  0.00000000000000E+00 -1.79194140605486E-06 -7.04807009214409E-07
  0.00000000000000E+00 -7.04807009214409E-07 -2.68633846229082E-06
 Total energy (etotal) [Ha]= -1.33069095537972E+00

 Difference of energy with previous step (new-old):
           Absolute (Ha)=-4.68738E-07
           Relative     =-3.52252E-07

--- Iteration: (10/15) Internal Cycle: (1/1)
--------------------------------------------------------------------------------

---SELF-CONSISTENT-FIELD CONVERGENCE--------------------------------------------

--- !BeginCycle
iteration_state: {dtset: 1, itime: 10, icycle: 1, }
solver: {iscf: 7, nstep: 8, nline: 3, wfoptalg: 0, }
tolerances: {toldfe: 1.00E-10, }
...

     iter   Etot(hartree)      deltaE(h)  residm     vres2
 ETOT  1  -1.3306909905078    -1.331E+00 3.203E-12 3.949E-05
 ETOT  2  -1.3306910300202    -3.951E-08 5.805E-15 6.252E-06
 ETOT  3  -1.3306910355034    -5.483E-09 5.857E-12 3.473E-07
 ETOT  4  -1.3306910357207    -2.173E-10 2.308E-13 5.159E-10
 ETOT  5  -1.3306910357208    -1.010E-13 2.079E-16 5.368E-13
 ETOT  6  -1.3306910357208    -8.882E-16 4.957E-18 1.618E-14

 At SCF step    6, etot is converged : 
  for the second time, diff in etot=  8.882E-16 < toldfe=  1.000E-10

 Cartesian components of stress tensor (hartree/bohr^3)
  sigma(1 1)=  4.27545154E-04  sigma(3 2)= -9.11638480E-07
  sigma(2 2)= -7.23919459E-07  sigma(3 1)=  0.00000000E+00
  sigma(3 3)= -1.50772524E-06  sigma(2 1)=  0.00000000E+00


--- !ResultsGS
iteration_state: {dtset: 1, itime: 10, icycle: 1, }
comment   : Summary of ground state results
lattice_vectors:
- [ 10.0000000,   0.0000000,   0.0000000, ]
- [  0.0000000,   4.6473495,   0.3381007, ]
- [  0.0000000,  -2.6186463,   3.8549237, ]
lattice_lengths: [  10.00000,    4.65963,    4.66023, ]
lattice_angles: [120.027,  90.000,  90.000, ] # degrees, (23, 13, 12)
lattice_volume:   1.8800544E+02
convergence: {deltae: -8.882E-16, res2:  1.618E-14, residm:  4.957E-18, diffor: null, }
etotal    :  -1.33069104E+00
entropy   :   0.00000000E+00
fermie    :  -1.64272295E-01
cartesian_stress_tensor: # hartree/bohr^3
- [  4.27545154E-04,   0.00000000E+00,   0.00000000E+00, ]
- [  0.00000000E+00,  -7.23919459E-07,  -9.11638480E-07, ]
- [  0.00000000E+00,  -9.11638480E-07,  -1.50772524E-06, ]
pressure_GPa:  -4.1711E+00
xred      :
- [  0.0000E+00,   0.0000E+00,   0.0000E+00, Mg]
cartesian_forces: # hartree/bohr
- [  0.00000000E+00,   0.00000000E+00,   0.00000000E+00, ]
force_length_stats: {min:   0.00000000E+00, max:   0.00000000E+00, mean:   0.00000000E+00, }
...

 Integrated electronic density in atomic spheres:
 ------------------------------------------------
 Atom  Sphere_radius  Integrated_density
    1        2.00000          0.52509231

---OUTPUT-----------------------------------------------------------------------

 Cartesian coordinates (xcart) [bohr]
  0.00000000000000E+00  0.00000000000000E+00  0.00000000000000E+00
 Reduced coordinates (xred)
  0.00000000000000E+00  0.00000000000000E+00  0.00000000000000E+00
 Cartesian forces (fcart) [Ha/bohr]; max,rms= 0.00000E+00 0.00000E+00 (free atoms)
  0.00000000000000E+00  0.00000000000000E+00  0.00000000000000E+00
 Gradient of E wrt nuclear positions in reduced coordinates (gred)
 -0.00000000000000E+00 -0.00000000000000E+00 -0.00000000000000E+00
 Scale of Primitive Cell (acell) [bohr]
  1.00000000000000E+01  4.65963188407509E+00  4.66023017136662E+00
 Real space primitive translations (rprimd) [bohr]
  1.00000000000000E+01  0.00000000000000E+00  0.00000000000000E+00
  0.00000000000000E+00  4.64734948463875E+00  3.38100669501118E-01
  0.00000000000000E+00 -2.61864632138965E+00  3.85492369491125E+00
 Unitary Cell Volume (ucvol) [Bohr^3]=  1.88005437213160E+02
 Angles (23,13,12)= [degrees]
  1.20027222561909E+02  9.00000000000000E+01  9.00000000000000E+01
 Lengths [Bohr]
  1.00000000000000E+01  4.65963188407509E+00  4.66023017136662E+00
 Stress tensor in cartesian coordinates (strten) [Ha/bohr^3]
  4.27545153729852E-04  0.00000000000000E+00  0.00000000000000E+00
  0.00000000000000E+00 -7.23919459404460E-07 -9.11638479911122E-07
  0.00000000000000E+00 -9.11638479911122E-07 -1.50772523544223E-06
 Total energy (etotal) [Ha]= -1.33069103572082E+00

 Difference of energy with previous step (new-old):
           Absolute (Ha)=-8.03411E-08
           Relative     =-6.03755E-08

--- Iteration: (11/15) Internal Cycle: (1/1)
--------------------------------------------------------------------------------

---SELF-CONSISTENT-FIELD CONVERGENCE--------------------------------------------

--- !BeginCycle
iteration_state: {dtset: 1, itime: 11, icycle: 1, }
solver: {iscf: 7, nstep: 8, nline: 3, wfoptalg: 0, }
tolerances: {toldfe: 1.00E-10, }
...

     iter   Etot(hartree)      deltaE(h)  residm     vres2
 ETOT  1  -1.3306910595519    -1.331E+00 2.725E-12 2.503E-05
 ETOT  2  -1.3306910845985    -2.505E-08 3.712E-15 3.966E-06
 ETOT  3  -1.3306910880784    -3.480E-09 3.722E-12 2.200E-07
 ETOT  4  -1.3306910882161    -1.377E-10 1.468E-13 3.287E-10
 ETOT  5  -1.3306910882161    -5.418E-14 1.310E-16 3.548E-13
 ETOT  6  -1.3306910882161    -4.663E-15 3.046E-18 1.008E-14

 At SCF step    6, etot is converged : 
  for the second time, diff in etot=  4.663E-15 < toldfe=  1.000E-10

 Cartesian components of stress tensor (hartree/bohr^3)
  sigma(1 1)=  4.27366957E-04  sigma(3 2)= -6.95807334E-07
  sigma(2 2)=  7.85874396E-08  sigma(3 1)=  0.00000000E+00
  sigma(3 3)= -5.22574053E-07  sigma(2 1)=  0.00000000E+00


--- !ResultsGS
iteration_state: {dtset: 1, itime: 11, icycle: 1, }
comment   : Summary of ground state results
lattice_vectors:
- [ 10.0000000,   0.0000000,   0.0000000, ]
- [  0.0000000,   4.6478127,   0.3384356, ]
- [  0.0000000,  -2.6186567,   3.8553305, ]
lattice_lengths: [  10.00000,    4.66012,    4.66057, ]
lattice_angles: [120.021,  90.000,  90.000, ] # degrees, (23, 13, 12)
lattice_volume:   1.8805101E+02
convergence: {deltae: -4.663E-15, res2:  1.008E-14, residm:  3.046E-18, diffor: null, }
etotal    :  -1.33069109E+00
entropy   :   0.00000000E+00
fermie    :  -1.64280724E-01
cartesian_stress_tensor: # hartree/bohr^3
- [  4.27366957E-04,   0.00000000E+00,   0.00000000E+00, ]
- [  0.00000000E+00,   7.85874396E-08,  -6.95807334E-07, ]
- [  0.00000000E+00,  -6.95807334E-07,  -5.22574053E-07, ]
pressure_GPa:  -4.1868E+00
xred      :
- [  0.0000E+00,   0.0000E+00,   0.0000E+00, Mg]
cartesian_forces: # hartree/bohr
- [  0.00000000E+00,   0.00000000E+00,   0.00000000E+00, ]
force_length_stats: {min:   0.00000000E+00, max:   0.00000000E+00, mean:   0.00000000E+00, }
...

 Integrated electronic density in atomic spheres:
 ------------------------------------------------
 Atom  Sphere_radius  Integrated_density
    1        2.00000          0.52510694

---OUTPUT-----------------------------------------------------------------------

 Cartesian coordinates (xcart) [bohr]
  0.00000000000000E+00  0.00000000000000E+00  0.00000000000000E+00
 Reduced coordinates (xred)
  0.00000000000000E+00  0.00000000000000E+00  0.00000000000000E+00
 Cartesian forces (fcart) [Ha/bohr]; max,rms= 0.00000E+00 0.00000E+00 (free atoms)
  0.00000000000000E+00  0.00000000000000E+00  0.00000000000000E+00
 Gradient of E wrt nuclear positions in reduced coordinates (gred)
 -0.00000000000000E+00 -0.00000000000000E+00 -0.00000000000000E+00
 Scale of Primitive Cell (acell) [bohr]
  1.00000000000000E+01  4.66011823122413E+00  4.66057249644659E+00
 Real space primitive translations (rprimd) [bohr]
  1.00000000000000E+01  0.00000000000000E+00  0.00000000000000E+00
  0.00000000000000E+00  4.64781274026806E+00  3.38435607449035E-01
  0.00000000000000E+00 -2.61865672452967E+00  3.85533045972844E+00
 Unitary Cell Volume (ucvol) [Bohr^3]=  1.88051007079361E+02
 Angles (23,13,12)= [degrees]
  1.20020824516275E+02  9.00000000000000E+01  9.00000000000000E+01
 Lengths [Bohr]
  1.00000000000000E+01  4.66011823122413E+00  4.66057249644659E+00
 Stress tensor in cartesian coordinates (strten) [Ha/bohr^3]
  4.27366957433965E-04  0.00000000000000E+00  0.00000000000000E+00
  0.00000000000000E+00  7.85874396382692E-08 -6.95807333793014E-07
  0.00000000000000E+00 -6.95807333793014E-07 -5.22574052507589E-07
 Total energy (etotal) [Ha]= -1.33069108821611E+00

 Difference of energy with previous step (new-old):
           Absolute (Ha)=-5.24953E-08
           Relative     =-3.94496E-08

--- Iteration: (12/15) Internal Cycle: (1/1)
--------------------------------------------------------------------------------

---SELF-CONSISTENT-FIELD CONVERGENCE--------------------------------------------

--- !BeginCycle
iteration_state: {dtset: 1, itime: 12, icycle: 1, }
solver: {iscf: 7, nstep: 8, nline: 3, wfoptalg: 0, }
tolerances: {toldfe: 1.00E-10, }
...

     iter   Etot(hartree)      deltaE(h)  residm     vres2
 ETOT  1  -1.3306911102321    -1.331E+00 6.136E-12 4.288E-06
 ETOT  2  -1.3306911145203    -4.288E-09 6.569E-16 6.801E-07
 ETOT  3  -1.3306911151172    -5.970E-10 6.410E-13 3.768E-08
 ETOT  4  -1.3306911151408    -2.357E-11 2.532E-14 5.733E-11
 ETOT  5  -1.3306911151408    -9.548E-15 2.405E-17 6.992E-14

 At SCF step    5, etot is converged : 
  for the second time, diff in etot=  9.548E-15 < toldfe=  1.000E-10

 Cartesian components of stress tensor (hartree/bohr^3)
  sigma(1 1)=  4.27293267E-04  sigma(3 2)= -2.66943603E-07
  sigma(2 2)=  2.76453576E-07  sigma(3 1)=  0.00000000E+00
  sigma(3 3)=  1.94034725E-08  sigma(2 1)=  0.00000000E+00


--- !ResultsGS
iteration_state: {dtset: 1, itime: 12, icycle: 1, }
comment   : Summary of ground state results
lattice_vectors:
- [ 10.0000000,   0.0000000,   0.0000000, ]
- [  0.0000000,   4.6478589,   0.3390388, ]
- [  0.0000000,  -2.6181837,   3.8553929, ]
lattice_lengths: [  10.00000,    4.66021,    4.66036, ]
lattice_angles: [120.008,  90.000,  90.000, ] # degrees, (23, 13, 12)
lattice_volume:   1.8806988E+02
convergence: {deltae: -9.548E-15, res2:  6.992E-14, residm:  2.405E-17, diffor: null, }
etotal    :  -1.33069112E+00
entropy   :   0.00000000E+00
fermie    :  -1.64284222E-01
cartesian_stress_tensor: # hartree/bohr^3
- [  4.27293267E-04,   0.00000000E+00,   0.00000000E+00, ]
- [  0.00000000E+00,   2.76453576E-07,  -2.66943603E-07, ]
- [  0.00000000E+00,  -2.66943603E-07,   1.94034725E-08, ]
pressure_GPa:  -4.1934E+00
xred      :
- [  0.0000E+00,   0.0000E+00,   0.0000E+00, Mg]
cartesian_forces: # hartree/bohr
- [  0.00000000E+00,   0.00000000E+00,   0.00000000E+00, ]
force_length_stats: {min:   0.00000000E+00, max:   0.00000000E+00, mean:   0.00000000E+00, }
...

 Integrated electronic density in atomic spheres:
 ------------------------------------------------
 Atom  Sphere_radius  Integrated_density
    1        2.00000          0.52511300

---OUTPUT-----------------------------------------------------------------------

 Cartesian coordinates (xcart) [bohr]
  0.00000000000000E+00  0.00000000000000E+00  0.00000000000000E+00
 Reduced coordinates (xred)
  0.00000000000000E+00  0.00000000000000E+00  0.00000000000000E+00
 Cartesian forces (fcart) [Ha/bohr]; max,rms= 0.00000E+00 0.00000E+00 (free atoms)
  0.00000000000000E+00  0.00000000000000E+00  0.00000000000000E+00
 Gradient of E wrt nuclear positions in reduced coordinates (gred)
 -0.00000000000000E+00 -0.00000000000000E+00 -0.00000000000000E+00
 Scale of Primitive Cell (acell) [bohr]
  1.00000000000000E+01  4.66020812003766E+00  4.66035835608803E+00
 Real space primitive translations (rprimd) [bohr]
  1.00000000000000E+01  0.00000000000000E+00  0.00000000000000E+00
  0.00000000000000E+00  4.64785890983802E+00  3.39038753395907E-01
  0.00000000000000E+00 -2.61818371691353E+00  3.85539285049505E+00
 Unitary Cell Volume (ucvol) [Bohr^3]=  1.88069877546430E+02
 Angles (23,13,12)= [degrees]
  1.20008228308413E+02  9.00000000000000E+01  9.00000000000000E+01
 Lengths [Bohr]
  1.00000000000000E+01  4.66020812003766E+00  4.66035835608803E+00
 Stress tensor in cartesian coordinates (strten) [Ha/bohr^3]
  4.27293266876052E-04  0.00000000000000E+00  0.00000000000000E+00
  0.00000000000000E+00  2.76453576255299E-07 -2.66943603113827E-07
  0.00000000000000E+00 -2.66943603113827E-07  1.94034725103264E-08
 Total energy (etotal) [Ha]= -1.33069111514081E+00

 Difference of energy with previous step (new-old):
           Absolute (Ha)=-2.69247E-08
           Relative     =-2.02336E-08

--- Iteration: (13/15) Internal Cycle: (1/1)
--------------------------------------------------------------------------------

---SELF-CONSISTENT-FIELD CONVERGENCE--------------------------------------------

--- !BeginCycle
iteration_state: {dtset: 1, itime: 13, icycle: 1, }
solver: {iscf: 7, nstep: 8, nline: 3, wfoptalg: 0, }
tolerances: {toldfe: 1.00E-10, }
...

     iter   Etot(hartree)      deltaE(h)  residm     vres2
 ETOT  1  -1.3306911199926    -1.331E+00 3.460E-13 1.654E-07
 ETOT  2  -1.3306911201579    -1.653E-10 2.525E-17 2.623E-08
 ETOT  3  -1.3306911201809    -2.302E-11 2.501E-14 1.464E-09
 ETOT  4  -1.3306911201818    -9.153E-13 9.763E-16 2.346E-12

 At SCF step    4, etot is converged : 
  for the second time, diff in etot=  9.153E-13 < toldfe=  1.000E-10

 Cartesian components of stress tensor (hartree/bohr^3)
  sigma(1 1)=  4.27307834E-04  sigma(3 2)= -3.81017553E-08
  sigma(2 2)=  9.88096069E-08  sigma(3 1)=  0.00000000E+00
  sigma(3 3)=  5.21172463E-08  sigma(2 1)=  0.00000000E+00


--- !ResultsGS
iteration_state: {dtset: 1, itime: 13, icycle: 1, }
comment   : Summary of ground state results
lattice_vectors:
- [ 10.0000000,   0.0000000,   0.0000000, ]
- [  0.0000000,   4.6476954,   0.3393485, ]
- [  0.0000000,  -2.6178240,   3.8553006, ]
lattice_lengths: [  10.00000,    4.66007,    4.66008, ]
lattice_angles: [120.001,  90.000,  90.000, ] # degrees, (23, 13, 12)
lattice_volume:   1.8806617E+02
convergence: {deltae: -9.153E-13, res2:  2.346E-12, residm:  9.763E-16, diffor: null, }
etotal    :  -1.33069112E+00
entropy   :   0.00000000E+00
fermie    :  -1.64283432E-01
cartesian_stress_tensor: # hartree/bohr^3
- [  4.27307834E-04,   0.00000000E+00,   0.00000000E+00, ]
- [  0.00000000E+00,   9.88096069E-08,  -3.81017553E-08, ]
- [  0.00000000E+00,  -3.81017553E-08,   5.21172463E-08, ]
pressure_GPa:  -4.1921E+00
xred      :
- [  0.0000E+00,   0.0000E+00,   0.0000E+00, Mg]
cartesian_forces: # hartree/bohr
- [  0.00000000E+00,   0.00000000E+00,   0.00000000E+00, ]
force_length_stats: {min:   0.00000000E+00, max:   0.00000000E+00, mean:   0.00000000E+00, }
...

 Integrated electronic density in atomic spheres:
 ------------------------------------------------
 Atom  Sphere_radius  Integrated_density
    1        2.00000          0.52511180

---OUTPUT-----------------------------------------------------------------------

 Cartesian coordinates (xcart) [bohr]
  0.00000000000000E+00  0.00000000000000E+00  0.00000000000000E+00
 Reduced coordinates (xred)
  0.00000000000000E+00  0.00000000000000E+00  0.00000000000000E+00
 Cartesian forces (fcart) [Ha/bohr]; max,rms= 0.00000E+00 0.00000E+00 (free atoms)
  0.00000000000000E+00  0.00000000000000E+00  0.00000000000000E+00
 Gradient of E wrt nuclear positions in reduced coordinates (gred)
 -0.00000000000000E+00 -0.00000000000000E+00 -0.00000000000000E+00
 Scale of Primitive Cell (acell) [bohr]
  1.00000000000000E+01  4.66006758448846E+00  4.66007993741158E+00
 Real space primitive translations (rprimd) [bohr]
  1.00000000000000E+01  0.00000000000000E+00  0.00000000000000E+00
  0.00000000000000E+00  4.64769539825683E+00  3.39348459584489E-01
  0.00000000000000E+00 -2.61782401013797E+00  3.85530056869904E+00
 Unitary Cell Volume (ucvol) [Bohr^3]=  1.88066172573431E+02
 Angles (23,13,12)= [degrees]
  1.20001263002889E+02  9.00000000000000E+01  9.00000000000000E+01
 Lengths [Bohr]
  1.00000000000000E+01  4.66006758448846E+00  4.66007993741158E+00
 Stress tensor in cartesian coordinates (strten) [Ha/bohr^3]
  4.27307833671585E-04  0.00000000000000E+00  0.00000000000000E+00
  0.00000000000000E+00  9.88096069389285E-08 -3.81017552828307E-08
  0.00000000000000E+00 -3.81017552828307E-08  5.21172462978134E-08
 Total energy (etotal) [Ha]= -1.33069112018183E+00

 Difference of energy with previous step (new-old):
           Absolute (Ha)=-5.04103E-09
           Relative     =-3.78828E-09

--- Iteration: (14/15) Internal Cycle: (1/1)
--------------------------------------------------------------------------------

---SELF-CONSISTENT-FIELD CONVERGENCE--------------------------------------------

--- !BeginCycle
iteration_state: {dtset: 1, itime: 14, icycle: 1, }
solver: {iscf: 7, nstep: 8, nline: 3, wfoptalg: 0, }
tolerances: {toldfe: 1.00E-10, }
...

     iter   Etot(hartree)      deltaE(h)  residm     vres2
 ETOT  1  -1.3306911202785    -1.331E+00 6.131E-14 1.343E-07
 ETOT  2  -1.3306911204127    -1.343E-10 2.079E-17 2.131E-08
 ETOT  3  -1.3306911204314    -1.871E-11 2.008E-14 1.179E-09
 ETOT  4  -1.3306911204322    -7.352E-13 7.950E-16 1.790E-12

 At SCF step    4, etot is converged : 
  for the second time, diff in etot=  7.352E-13 < toldfe=  1.000E-10

 Cartesian components of stress tensor (hartree/bohr^3)
  sigma(1 1)=  4.27320960E-04  sigma(3 2)= -9.41889168E-10
  sigma(2 2)=  1.15764176E-08  sigma(3 1)=  0.00000000E+00
  sigma(3 3)=  8.47575142E-09  sigma(2 1)=  0.00000000E+00


--- !ResultsGS
iteration_state: {dtset: 1, itime: 14, icycle: 1, }
comment   : Summary of ground state results
lattice_vectors:
- [ 10.0000000,   0.0000000,   0.0000000, ]
- [  0.0000000,   4.6476287,   0.3393963, ]
- [  0.0000000,  -2.6177426,   3.8552630, ]
lattice_lengths: [  10.00000,    4.66000,    4.66000, ]
lattice_angles: [120.000,  90.000,  90.000, ] # degrees, (23, 13, 12)
lattice_volume:   1.8806283E+02
convergence: {deltae: -7.352E-13, res2:  1.790E-12, residm:  7.950E-16, diffor: null, }
etotal    :  -1.33069112E+00
entropy   :   0.00000000E+00
fermie    :  -1.64282824E-01
cartesian_stress_tensor: # hartree/bohr^3
- [  4.27320960E-04,   0.00000000E+00,   0.00000000E+00, ]
- [  0.00000000E+00,   1.15764176E-08,  -9.41889168E-10, ]
- [  0.00000000E+00,  -9.41889168E-10,   8.47575142E-09, ]
pressure_GPa:  -4.1909E+00
xred      :
- [  0.0000E+00,   0.0000E+00,   0.0000E+00, Mg]
cartesian_forces: # hartree/bohr
- [  0.00000000E+00,   0.00000000E+00,   0.00000000E+00, ]
force_length_stats: {min:   0.00000000E+00, max:   0.00000000E+00, mean:   0.00000000E+00, }
...

 Integrated electronic density in atomic spheres:
 ------------------------------------------------
 Atom  Sphere_radius  Integrated_density
    1        2.00000          0.52511073

---OUTPUT-----------------------------------------------------------------------

 Cartesian coordinates (xcart) [bohr]
  0.00000000000000E+00  0.00000000000000E+00  0.00000000000000E+00
 Reduced coordinates (xred)
  0.00000000000000E+00  0.00000000000000E+00  0.00000000000000E+00
 Cartesian forces (fcart) [Ha/bohr]; max,rms= 0.00000E+00 0.00000E+00 (free atoms)
  0.00000000000000E+00  0.00000000000000E+00  0.00000000000000E+00
 Gradient of E wrt nuclear positions in reduced coordinates (gred)
 -0.00000000000000E+00 -0.00000000000000E+00 -0.00000000000000E+00
 Scale of Primitive Cell (acell) [bohr]
  1.00000000000000E+01  4.66000457503725E+00  4.66000311342514E+00
 Real space primitive translations (rprimd) [bohr]
  1.00000000000000E+01  0.00000000000000E+00  0.00000000000000E+00
  0.00000000000000E+00  4.64762872832693E+00  3.39396291963156E-01
  0.00000000000000E+00 -2.61774261156265E+00  3.85526297893427E+00
 Unitary Cell Volume (ucvol) [Bohr^3]=  1.88062831118285E+02
 Angles (23,13,12)= [degrees]
  1.20000048414426E+02  9.00000000000000E+01  9.00000000000000E+01
 Lengths [Bohr]
  1.00000000000000E+01  4.66000457503725E+00  4.66000311342514E+00
 Stress tensor in cartesian coordinates (strten) [Ha/bohr^3]
  4.27320960414618E-04  0.00000000000000E+00  0.00000000000000E+00
  0.00000000000000E+00  1.15764176142797E-08 -9.41889168496004E-10
  0.00000000000000E+00 -9.41889168496004E-10  8.47575142216188E-09
 Total energy (etotal) [Ha]= -1.33069112043217E+00

 Difference of energy with previous step (new-old):
           Absolute (Ha)=-2.50334E-10
           Relative     =-1.88123E-10

 At Broyd/MD step  14, gradients are converged : 
  max grad (force/stress) = 1.1576E-06 < tolmxf= 5.0000E-06 ha/bohr (free atoms)

================================================================================

 ----iterations are completed or convergence reached----

 Mean square residual over all n,k,spin=   79.497E-17; max=  79.497E-17
 reduced coordinates (array xred) for    1 atoms
       0.000000000000      0.000000000000      0.000000000000
 rms dE/dt=  2.0564E-14; max dE/dt=  3.5617E-14; dE/dt below (all hartree)
    1       0.000000000000     -0.000000000000      0.000000000000

 cartesian coordinates (angstrom) at end:
    1      0.00000000000000     0.00000000000000     0.00000000000000

 cartesian forces (hartree/bohr) at end:
    1      0.00000000000000     0.00000000000000     0.00000000000000
 frms,max,avg= 0.0000000E+00 0.0000000E+00   0.000E+00  0.000E+00  0.000E+00 h/b

 cartesian forces (eV/Angstrom) at end:
    1      0.00000000000000     0.00000000000000     0.00000000000000
 frms,max,avg= 0.0000000E+00 0.0000000E+00   0.000E+00  0.000E+00  0.000E+00 e/A
 length scales= 10.000000000000  4.660004575037  4.660003113425 bohr
              =  5.291772085900  2.465968213035  2.465967439583 angstroms
 prteigrs : about to open file t82o_EIG
 Fermi (or HOMO) energy (hartree) =  -0.16428   Average Vxc (hartree)=  -0.25518
 Eigenvalues (hartree) for nkpt=   1  k points:
 kpt#   1, nband=  1, wtk=  1.00000, kpt=  0.0000  0.0000  0.0000 (reduced coord)
  -0.16428

--- !EnergyTerms
iteration_state     : {dtset: 1, itime: 14, icycle: 1, }
comment             : Components of total free energy in Hartree
kinetic             :  1.30021683041238E-01
hartree             :  2.14138699603232E-01
xc                  : -7.26418475276580E-01
Ewald energy        : -6.94666201558816E-01
psp_core            : -1.64193899035153E-02
local_psp           : -6.19077011880692E-01
non_local_psp       :  3.81729575542967E-01
total_energy        : -1.33069112043217E+00
total_energy_eV     : -3.62099468771731E+01
band_energy         : -3.28565648160503E-01
...


 Cartesian components of stress tensor (hartree/bohr^3)
  sigma(1 1)=  4.27320960E-04  sigma(3 2)= -9.41889168E-10
  sigma(2 2)=  1.15764176E-08  sigma(3 1)=  0.00000000E+00
  sigma(3 3)=  8.47575142E-09  sigma(2 1)=  0.00000000E+00

-Cartesian components of stress tensor (GPa)         [Pressure= -4.1909E+00 GPa]
- sigma(1 1)=  1.25722146E+01  sigma(3 2)= -2.77113314E-05
- sigma(2 2)=  3.40589908E-04  sigma(3 1)=  0.00000000E+00
- sigma(3 3)=  2.49365174E-04  sigma(2 1)=  0.00000000E+00

== END DATASET(S) ==============================================================
================================================================================
  
 -outvars: echo values of variables after computation  --------
            acell      1.0000000000E+01  4.6600045750E+00  4.6600031134E+00 Bohr
              amu      2.43050000E+01
          dilatmx      1.05000000E+00
             ecut      3.00000000E+00 Hartree
           ecutsm      1.00000000E+00 Hartree
           etotal     -1.3306911204E+00
            fcart      0.0000000000E+00  0.0000000000E+00  0.0000000000E+00
-          fftalg         512
            intxc           1
           ionmov           2
           istwfk        2
           kptopt           0
P           mkmem           1
            natom           1
            nband           1
            ngfft          18      10      10
             nkpt           1
            nline           3
            nstep           8
             nsym           1
            ntime          15
           ntypat           1
              occ      2.000000
          optcell           7
            rprim      1.0000000000E+00  0.0000000000E+00  0.0000000000E+00
                       0.0000000000E+00  9.9734424151E-01  7.2831750806E-02
                       0.0000000000E+00 -5.6174696622E-01  8.2730909939E-01
          spgroup           1
           strten      4.2732096041E-04  1.1576417614E-08  8.4757514222E-09
                      -9.4188916850E-10  0.0000000000E+00  0.0000000000E+00
           toldfe      1.00000000E-10 Hartree
           tolmxf      5.00000000E-06
            typat      1
            znucl       12.00000

================================================================================

 The spacegroup number, the magnetic point group, and/or the number of symmetries
 have changed between the initial recognition based on the input file
 and a postprocessing based on the final acell, rprim, and xred.
 More details in the log file.


- Timing analysis has been suppressed with timopt=0



================================================================================

 Suggested references for the acknowledgment of ABINIT usage.

 The users of ABINIT have little formal obligations with respect to the ABINIT group
 (those specified in the GNU General Public License, http://www.gnu.org/copyleft/gpl.txt).
 However, it is common practice in the scientific literature,
 to acknowledge the efforts of people that have made the research possible.
 In this spirit, please find below suggested citations of work written by ABINIT developers,
 corresponding to implementations inside of ABINIT that you have used in the present run.
 Note also that it will be of great value to readers of publications presenting these results,
 to read papers enabling them to understand the theoretical formalism and details
 of the ABINIT implementation.
 For information on why they are suggested, see also https://docs.abinit.org/theory/acknowledgments.
-
- [1] The Abinit project: Impact, environment and recent developments.
- Computer Phys. Comm. 248, 107042 (2020).
- X.Gonze, B. Amadon, G. Antonius, F.Arnardi, L.Baguet, J.-M.Beuken,
- J.Bieder, F.Bottin, J.Bouchet, E.Bousquet, N.Brouwer, F.Bruneval,
- G.Brunin, T.Cavignac, J.-B. Charraud, Wei Chen, M.Cote, S.Cottenier,
- J.Denier, G.Geneste, Ph.Ghosez, M.Giantomassi, Y.Gillet, O.Gingras,
- D.R.Hamann, G.Hautier, Xu He, N.Helbig, N.Holzwarth, Y.Jia, F.Jollet,
- W.Lafargue-Dit-Hauret, K.Lejaeghere, M.A.L.Marques, A.Martin, C.Martins,
- H.P.C. Miranda, F.Naccarato, K. Persson, G.Petretto, V.Planes, Y.Pouillon,
- S.Prokhorenko, F.Ricci, G.-M.Rignanese, A.H.Romero, M.M.Schmitt, M.Torrent,
- M.J.van Setten, B.Van Troeye, M.J.Verstraete, G.Zerah and J.W.Zwanzig
- Comment: the fifth generic paper describing the ABINIT project.
- Note that a version of this paper, that is not formatted for Computer Phys. Comm. 
- is available at https://www.abinit.org/sites/default/files/ABINIT20.pdf .
- The licence allows the authors to put it on the Web.
- DOI and bibtex: see https://docs.abinit.org/theory/bibliography/#gonze2020
-
- [2] ABINIT: Overview, and focus on selected capabilities
- J. Chem. Phys. 152, 124102 (2020).
- A. Romero, D.C. Allan, B. Amadon, G. Antonius, T. Applencourt, L.Baguet,
- J.Bieder, F.Bottin, J.Bouchet, E.Bousquet, F.Bruneval,
- G.Brunin, D.Caliste, M.Cote,
- J.Denier, C. Dreyer, Ph.Ghosez, M.Giantomassi, Y.Gillet, O.Gingras,
- D.R.Hamann, G.Hautier, F.Jollet, G. Jomard,
- A.Martin, 
- H.P.C. Miranda, F.Naccarato, G.Petretto, N.A. Pike, V.Planes,
- S.Prokhorenko, T. Rangel, F.Ricci, G.-M.Rignanese, M.Royo, M.Stengel, M.Torrent,
- M.J.van Setten, B.Van Troeye, M.J.Verstraete, J.Wiktor, J.W.Zwanziger, and X.Gonze.
- Comment: a global overview of ABINIT, with focus on selected capabilities .
- Note that a version of this paper, that is not formatted for J. Chem. Phys 
- is available at https://www.abinit.org/sites/default/files/ABINIT20_JPC.pdf .
- The licence allows the authors to put it on the Web.
- DOI and bibtex: see https://docs.abinit.org/theory/bibliography/#romero2020
-
- [3] Recent developments in the ABINIT software package.
- Computer Phys. Comm. 205, 106 (2016).
- X.Gonze, F.Jollet, F.Abreu Araujo, D.Adams, B.Amadon, T.Applencourt,
- C.Audouze, J.-M.Beuken, J.Bieder, A.Bokhanchuk, E.Bousquet, F.Bruneval
- D.Caliste, M.Cote, F.Dahm, F.Da Pieve, M.Delaveau, M.Di Gennaro,
- B.Dorado, C.Espejo, G.Geneste, L.Genovese, A.Gerossier, M.Giantomassi,
- Y.Gillet, D.R.Hamann, L.He, G.Jomard, J.Laflamme Janssen, S.Le Roux,
- A.Levitt, A.Lherbier, F.Liu, I.Lukacevic, A.Martin, C.Martins,
- M.J.T.Oliveira, S.Ponce, Y.Pouillon, T.Rangel, G.-M.Rignanese,
- A.H.Romero, B.Rousseau, O.Rubel, A.A.Shukri, M.Stankovski, M.Torrent,
- M.J.Van Setten, B.Van Troeye, M.J.Verstraete, D.Waroquier, J.Wiktor,
- B.Xu, A.Zhou, J.W.Zwanziger.
- Comment: the fourth generic paper describing the ABINIT project.
- Note that a version of this paper, that is not formatted for Computer Phys. Comm. 
- is available at https://www.abinit.org/sites/default/files/ABINIT16.pdf .
- The licence allows the authors to put it on the Web.
- DOI and bibtex: see https://docs.abinit.org/theory/bibliography/#gonze2016
-
- And optionally:
-
- [4] ABINIT: First-principles approach of materials and nanosystem properties.
- Computer Phys. Comm. 180, 2582-2615 (2009).
- X. Gonze, B. Amadon, P.-M. Anglade, J.-M. Beuken, F. Bottin, P. Boulanger, F. Bruneval,
- D. Caliste, R. Caracas, M. Cote, T. Deutsch, L. Genovese, Ph. Ghosez, M. Giantomassi
- S. Goedecker, D.R. Hamann, P. Hermet, F. Jollet, G. Jomard, S. Leroux, M. Mancini, S. Mazevet,
- M.J.T. Oliveira, G. Onida, Y. Pouillon, T. Rangel, G.-M. Rignanese, D. Sangalli, R. Shaltaf,
- M. Torrent, M.J. Verstraete, G. Zerah, J.W. Zwanziger
- Comment: the third generic paper describing the ABINIT project.
- Note that a version of this paper, that is not formatted for Computer Phys. Comm. 
- is available at https://www.abinit.org/sites/default/files/ABINIT_CPC_v10.pdf .
- The licence allows the authors to put it on the Web.
- DOI and bibtex: see https://docs.abinit.org/theory/bibliography/#gonze2009
-
- Proc.   0 individual time (sec): cpu=          5.8  wall=          5.9

================================================================================

 Calculation completed.
.Delivered  84 WARNINGs and  17 COMMENTs to log file.
+Overall time at end (sec) : cpu=          5.8  wall=          5.9
