O     ONCVPSP  r_core=  1.60  1.60
      8.0000      6.0000      150722    zatom,zion,pspd
     8   -1012   1     4   400     0    pspcod,pspxc,lmax,lloc,mmax,r2well
  3.99000000  0.00000000  0.00000000    rchrg fchrg qchrg
     2     2     0     0    nproj
     2                 extension_switch
     3     0     0    nprojso
   0                        -3.0484740185865D-01  2.1408134121649D+00
     1  0.0000000000000D+00 -0.0000000000000D+00  0.0000000000000D+00
     2  1.0000000000000D-02 -4.5823571028521D-02  6.9543722675941D-02
     3  2.0000000000000D-02 -9.1472864317770D-02  1.3894411158497D-01
     4  3.0000000000000D-02 -1.3677397794288D-01  2.0805819739329D-01
     5  4.0000000000000D-02 -1.8155376296106D-01  2.7674373866351D-01
     6  5.0000000000000D-02 -2.2564020325756D-01  3.4485958337997D-01
     7  6.0000000000000D-02 -2.6886279933853D-01  4.1226602757233D-01
     8  7.0000000000000D-02 -3.1105295725575D-01  4.7882517007877D-01
     9  8.0000000000000D-02 -3.5204438373857D-01  5.4440126249935D-01
    10  9.0000000000000D-02 -3.9167348846856D-01  6.0886105339574D-01
    11  1.0000000000000D-01 -4.2977979428381D-01  6.7207412581529D-01
    12  1.1000000000000D-01 -4.6620635589936D-01  7.3391322721571D-01
    13  1.2000000000000D-01 -5.0080018754735D-01  7.9425459089899D-01
    14  1.3000000000000D-01 -5.3341269968492D-01  8.5297824805537D-01
    15  1.4000000000000D-01 -5.6390014477945D-01  9.0996832961002D-01
    16  1.5000000000000D-01 -5.9212407170533D-01  9.6511335692626D-01
    17  1.6000000000000D-01 -6.1795178841251D-01  1.0183065207152D+00
    18  1.7000000000000D-01 -6.4125683164644D-01  1.0694459471195D+00
    19  1.8000000000000D-01 -6.6191944301657D-01  1.1184349504878D+00
    20  1.9000000000000D-01 -6.7982704991509D-01  1.1651822720245D+00
    21  2.0000000000000D-01 -6.9487474909945D-01  1.2096023033456D+00
    22  2.1000000000000D-01 -7.0696579180508D-01  1.2516152947480D+00
    23  2.2000000000000D-01 -7.1601206739889D-01  1.2911475471447D+00
    24  2.3000000000000D-01 -7.2193458392629D-01  1.3281315874946D+00
    25  2.4000000000000D-01 -7.2466394187982D-01  1.3625063267288D+00
    26  2.5000000000000D-01 -7.2414079829477D-01  1.3942171997899D+00
    27  2.6000000000000D-01 -7.2031632056734D-01  1.4232162882362D+00
    28  2.7000000000000D-01 -7.1315262167329D-01  1.4494624231284D+00
    29  2.8000000000000D-01 -7.0262317745973D-01  1.4729212694975D+00
    30  2.9000000000000D-01 -6.8871322147685D-01  1.4935653916505D+00
    31  3.0000000000000D-01 -6.7142011278039D-01  1.5113742987919D+00
    32  3.1000000000000D-01 -6.5075367334265D-01  1.5263344709269D+00
    33  3.2000000000000D-01 -6.2673649096682D-01  1.5384393648517D+00
    34  3.3000000000000D-01 -5.9940418009079D-01  1.5476893997241D+00
    35  3.4000000000000D-01 -5.6880561528102D-01  1.5540919249145D+00
    36  3.5000000000000D-01 -5.3500309332350D-01  1.5576611642055D+00
    37  3.6000000000000D-01 -4.9807247586209D-01  1.5584181439897D+00
    38  3.7000000000000D-01 -4.5810325032331D-01  1.5563905992658D+00
    39  3.8000000000000D-01 -4.1519855786697D-01  1.5516128616472D+00
    40  3.9000000000000D-01 -3.6947514895005D-01  1.5441257274586D+00
    41  4.0000000000000D-01 -3.2106327828810D-01  1.5339763078940D+00
    42  4.1000000000000D-01 -2.7010653789699D-01  1.5212178605215D+00
    43  4.2000000000000D-01 -2.1676162159473D-01  1.5059096030218D+00
    44  4.3000000000000D-01 -1.6119802037791D-01  1.4881165097125D+00
    45  4.4000000000000D-01 -1.0359764721159D-01  1.4679090914635D+00
    46  4.5000000000000D-01 -4.4154390089409D-02  1.4453631596549D+00
    47  4.6000000000000D-01  1.6926407366038D-02  1.4205595749066D+00
    48  4.7000000000000D-01  7.9428537879472D-02  1.3935839814556D+00
    49  4.8000000000000D-01  1.4312559400386D-01  1.3645265284387D+00
    50  4.9000000000000D-01  2.0778168377470D-01  1.3334815883577D+00
    51  5.0000000000000D-01  2.7315228347229D-01  1.3005474267844D+00
    52  5.1000000000000D-01  3.3898507614987D-01  1.2658259105141D+00
    53  5.2000000000000D-01  4.0502085231996D-01  1.2294221986341D+00
    54  5.3000000000000D-01  4.7099461191889D-01  1.1914443642158D+00
    55  5.4000000000000D-01  5.3663654482122D-01  1.1520030938861D+00
    56  5.5000000000000D-01  6.0167312236770D-01  1.1112113481394D+00
    57  5.6000000000000D-01  6.6582842014889D-01  1.0691839520650D+00
    58  5.7000000000000D-01  7.2882505322563D-01  1.0260373453883D+00
    59  5.8000000000000D-01  7.9038579831823D-01  9.8188909068022D-01
    60  5.9000000000000D-01  8.5023447128912D-01  9.3685766159835D-01
    61  6.0000000000000D-01  9.0809761204630D-01  8.9106195670550D-01
    62  6.1000000000000D-01  9.6370560959044D-01  8.4462101566147D-01
    63  6.2000000000000D-01  1.0167939499466D+00  7.9765369648581D-01
    64  6.3000000000000D-01  1.0671050329797D+00  7.5027818043805D-01
    65  6.4000000000000D-01  1.1143889465082D+00  7.0261181026742D-01
    66  6.5000000000000D-01  1.1584050901021D+00  6.5477066379856D-01
    67  6.6000000000000D-01  1.1989237575810D+00  6.0686914995821D-01
    68  6.7000000000000D-01  1.2357270118731D+00  5.5901981513271D-01
    69  6.8000000000000D-01  1.2686099025134D+00  5.1133304311863D-01
    70  6.9000000000000D-01  1.2973823066225D+00  4.6391658011074D-01
    71  7.0000000000000D-01  1.3218696312564D+00  4.1687538341350D-01
    72  7.1000000000000D-01  1.3419139657773D+00  3.7031133610302D-01
    73  7.2000000000000D-01  1.3573751913251D+00  3.2432297012510D-01
    74  7.3000000000000D-01  1.3681317643423D+00  2.7900527423934D-01
    75  7.4000000000000D-01  1.3740822499267D+00  2.3444929000198D-01
    76  7.5000000000000D-01  1.3751455431390D+00  1.9074206042838D-01
    77  7.6000000000000D-01  1.3712617352424D+00  1.4796639234787D-01
    78  7.7000000000000D-01  1.3623927532964D+00  1.0620067146093D-01
    79  7.8000000000000D-01  1.3485228736756D+00  6.5518701194218D-02
    80  7.9000000000000D-01  1.3296591230762D+00  2.5989560653079D-02
    81  8.0000000000000D-01  1.3058315625688D+00 -1.2322517996496D-02
    82  8.1000000000000D-01  1.2770934509407D+00 -4.9358252476539D-02
    83  8.2000000000000D-01  1.2435212842690D+00 -8.5063393526709D-02
    84  8.3000000000000D-01  1.2052147093881D+00 -1.1938878815294D-01
    85  8.4000000000000D-01  1.1622963096379D+00 -1.5229042301856D-01
    86  8.5000000000000D-01  1.1149112620214D+00 -1.8372944808385D-01
    87  8.6000000000000D-01  1.0632268656425D+00 -2.1367218068119D-01
    88  8.7000000000000D-01  1.0074319420577D+00 -2.4209009029181D-01
    89  8.8000000000000D-01  9.4773610894415D-01 -2.6895976436962D-01
    90  8.9000000000000D-01  8.8436892929003D-01 -2.9426285563707D-01
    91  9.0000000000000D-01  8.1757893913307D-01 -3.1798601135989D-01
    92  9.1000000000000D-01  7.4763255774408D-01 -3.4012078519289D-01
    93  9.2000000000000D-01  6.7481288505823D-01 -3.6066353227878D-01
    94  9.3000000000000D-01  5.9941839211702D-01 -3.7961528837737D-01
    95  9.4000000000000D-01  5.2176151129052D-01 -3.9698163390413D-01
    96  9.5000000000000D-01  4.4216713409830D-01 -4.1277254386424D-01
    97  9.6000000000000D-01  3.6097102552030D-01 -4.2700222477997D-01
    98  9.7000000000000D-01  2.7851823006982D-01 -4.3968893534748D-01
    99  9.8000000000000D-01  1.9516151497681D-01 -4.5085480901636D-01
   100  9.9000000000000D-01  1.1125885012285D-01 -4.6052568489852D-01
   101  1.0000000000000D+00  2.7172211181726D-02 -4.6873084664768D-01
   102  1.0100000000000D+00 -5.6734477258643D-02 -4.7550283349461D-01
   103  1.0200000000000D+00 -1.4009723403994D-01 -4.8087722253580D-01
   104  1.0300000000000D+00 -2.2255391662574D-01 -4.8489240750193D-01
   105  1.0400000000000D+00 -3.0374483077529D-01 -4.8758944593277D-01
   106  1.0500000000000D+00 -3.8331834100651D-01 -4.8901165066529D-01
   107  1.0600000000000D+00 -4.6092960092214D-01 -4.8920448400007D-01
   108  1.0700000000000D+00 -5.3624322411453D-01 -4.8821530446134D-01
   109  1.0800000000000D+00 -6.0893484457685D-01 -4.8609316067160D-01
   110  1.0900000000000D+00 -6.7869134791586D-01 -4.8288869895687D-01
   111  1.1000000000000D+00 -7.4521867406355D-01 -4.7865346088451D-01
   112  1.1100000000000D+00 -8.0823750144855D-01 -4.7344010404720D-01
   113  1.1200000000000D+00 -8.6748641877359D-01 -4.6730208226987D-01
   114  1.1300000000000D+00 -9.2272024525089D-01 -4.6029374031173D-01
   115  1.1400000000000D+00 -9.7372079936563D-01 -4.5246926229891D-01
   116  1.1500000000000D+00 -1.0202902647741D+00 -4.4388316916024D-01
   117  1.1600000000000D+00 -1.0622530124190D+00 -4.3459010447754D-01
   118  1.1700000000000D+00 -1.0994547059484D+00 -4.2464488922732D-01
   119  1.1800000000000D+00 -1.1317744519996D+00 -4.1410120194913D-01
   120  1.1900000000000D+00 -1.1591136389547D+00 -4.0301262476876D-01
   121  1.2000000000000D+00 -1.1813966308551D+00 -3.9143256350203D-01
   122  1.2100000000000D+00 -1.1985803237162D+00 -3.7941314930850D-01
   123  1.2200000000000D+00 -1.2106503748060D+00 -3.6700552588433D-01
   124  1.2300000000000D+00 -1.2176156393759D+00 -3.5426044566297D-01
   125  1.2400000000000D+00 -1.2195141553346D+00 -3.4122754813975D-01
   126  1.2500000000000D+00 -1.2164176235504D+00 -3.2795466968428D-01
   127  1.2600000000000D+00 -1.2084195288658D+00 -3.1448923321093D-01
   128  1.2700000000000D+00 -1.1956407688504D+00 -3.0087754398083D-01
   129  1.2800000000000D+00 -1.1782363526852D+00 -2.8716371642986D-01
   130  1.2900000000000D+00 -1.1563808736273D+00 -2.7339155247595D-01
   131  1.3000000000000D+00 -1.1302761675902D+00 -2.5960348735774D-01
   132  1.3100000000000D+00 -1.1001542804352D+00 -2.4583987863688D-01
   133  1.3200000000000D+00 -1.0662645122134D+00 -2.3214094492329D-01
   134  1.3300000000000D+00 -1.0288838165341D+00 -2.1854505398621D-01
   135  1.3400000000000D+00 -9.8831220246019D-01 -2.0508911080170D-01
   136  1.3500000000000D+00 -9.4486542090305D-01 -1.9181002649179D-01
   137  1.3600000000000D+00 -8.9888562863571D-01 -1.7874228262177D-01
   138  1.3700000000000D+00 -8.5072974466390D-01 -1.6592003927684D-01
   139  1.3800000000000D+00 -8.0077194035698D-01 -1.5337686239081D-01
   140  1.3900000000000D+00 -7.4940474990002D-01 -1.4114440904251D-01
   141  1.4000000000000D+00 -6.9703266958458D-01 -1.2925468549072D-01
   142  1.4100000000000D+00 -6.4407738996375D-01 -1.1773833821839D-01
   143  1.4200000000000D+00 -5.9095755405489D-01 -1.0662460260700D-01
   144  1.4300000000000D+00 -5.3810403100115D-01 -9.5942466554680D-02
   145  1.4400000000000D+00 -4.8591255793096D-01 -8.5716722699711D-02
   146  1.4500000000000D+00 -4.3479081803516D-01 -7.5972670152591D-02
   147  1.4600000000000D+00 -3.8510812252961D-01 -6.6731982882503D-02
   148  1.4700000000000D+00 -3.3722826206397D-01 -5.8015938964679D-02
   149  1.4800000000000D+00 -2.9149724493321D-01 -4.9844209976671D-02
   150  1.4900000000000D+00 -2.4822250402742D-01 -4.2234659926279D-02
   151  1.5000000000000D+00 -2.0772090592831D-01 -3.5205173683333D-02
   152  1.5100000000000D+00 -1.7024048474647D-01 -2.8771156537475D-02
   153  1.5200000000000D+00 -1.3604971368040D-01 -2.2948562246763D-02
   154  1.5300000000000D+00 -1.0534719494862D-01 -1.7751385173584D-02
   155  1.5400000000000D+00 -7.8335337428637D-02 -1.3193777028751D-02
   156  1.5500000000000D+00 -5.5166640107671D-02 -9.2887883811681D-03
   157  1.5600000000000D+00 -3.5970624799310D-02 -6.0491937258695D-03
   158  1.5700000000000D+00 -2.0849967554421D-02 -3.4872704856195D-03
   159  1.5800000000000D+00 -9.8594267843906D-03 -1.6147987305324D-03
   160  1.5900000000000D+00 -3.4724787295378D-03 -5.1457770967919D-04
   161  1.6000000000000D+00 -5.6292482522852D-04 -1.1978748193561D-05
   162  1.6100000000000D+00  3.0047356664038D-04  9.9002904740884D-05
   163  1.6200000000000D+00  3.1597448766932D-05  7.7356867706077D-06
   164  1.6300000000000D+00  2.3457902303143D-05 -1.4983107619859D-06
   165  1.6400000000000D+00  1.6199862064095D-07 -1.0347228562747D-08
   166  1.6500000000000D+00  0.0000000000000D+00  0.0000000000000D+00
   167  1.6600000000000D+00  0.0000000000000D+00  0.0000000000000D+00
   168  1.6700000000000D+00  0.0000000000000D+00  0.0000000000000D+00
   169  1.6800000000000D+00  0.0000000000000D+00  0.0000000000000D+00
   170  1.6900000000000D+00  0.0000000000000D+00  0.0000000000000D+00
   171  1.7000000000000D+00  0.0000000000000D+00  0.0000000000000D+00
   172  1.7100000000000D+00  0.0000000000000D+00  0.0000000000000D+00
   173  1.7200000000000D+00  0.0000000000000D+00  0.0000000000000D+00
   174  1.7300000000000D+00  0.0000000000000D+00  0.0000000000000D+00
   175  1.7400000000000D+00  0.0000000000000D+00  0.0000000000000D+00
   176  1.7500000000000D+00  0.0000000000000D+00  0.0000000000000D+00
   177  1.7600000000000D+00  0.0000000000000D+00  0.0000000000000D+00
   178  1.7700000000000D+00  0.0000000000000D+00  0.0000000000000D+00
   179  1.7800000000000D+00  0.0000000000000D+00  0.0000000000000D+00
   180  1.7900000000000D+00  0.0000000000000D+00  0.0000000000000D+00
   181  1.8000000000000D+00  0.0000000000000D+00  0.0000000000000D+00
   182  1.8100000000000D+00  0.0000000000000D+00  0.0000000000000D+00
   183  1.8200000000000D+00  0.0000000000000D+00  0.0000000000000D+00
   184  1.8300000000000D+00  0.0000000000000D+00  0.0000000000000D+00
   185  1.8400000000000D+00  0.0000000000000D+00  0.0000000000000D+00
   186  1.8500000000000D+00  0.0000000000000D+00  0.0000000000000D+00
   187  1.8600000000000D+00  0.0000000000000D+00  0.0000000000000D+00
   188  1.8700000000000D+00  0.0000000000000D+00  0.0000000000000D+00
   189  1.8800000000000D+00  0.0000000000000D+00  0.0000000000000D+00
   190  1.8900000000000D+00  0.0000000000000D+00  0.0000000000000D+00
   191  1.9000000000000D+00  0.0000000000000D+00  0.0000000000000D+00
   192  1.9100000000000D+00  0.0000000000000D+00  0.0000000000000D+00
   193  1.9200000000000D+00  0.0000000000000D+00  0.0000000000000D+00
   194  1.9300000000000D+00  0.0000000000000D+00  0.0000000000000D+00
   195  1.9400000000000D+00  0.0000000000000D+00  0.0000000000000D+00
   196  1.9500000000000D+00  0.0000000000000D+00  0.0000000000000D+00
   197  1.9600000000000D+00  0.0000000000000D+00  0.0000000000000D+00
   198  1.9700000000000D+00  0.0000000000000D+00  0.0000000000000D+00
   199  1.9800000000000D+00  0.0000000000000D+00  0.0000000000000D+00
   200  1.9900000000000D+00  0.0000000000000D+00  0.0000000000000D+00
   201  2.0000000000000D+00  0.0000000000000D+00  0.0000000000000D+00
   202  2.0100000000000D+00  0.0000000000000D+00  0.0000000000000D+00
   203  2.0200000000000D+00  0.0000000000000D+00  0.0000000000000D+00
   204  2.0300000000000D+00  0.0000000000000D+00  0.0000000000000D+00
   205  2.0400000000000D+00  0.0000000000000D+00  0.0000000000000D+00
   206  2.0500000000000D+00  0.0000000000000D+00  0.0000000000000D+00
   207  2.0600000000000D+00  0.0000000000000D+00  0.0000000000000D+00
   208  2.0700000000000D+00  0.0000000000000D+00  0.0000000000000D+00
   209  2.0800000000000D+00  0.0000000000000D+00  0.0000000000000D+00
   210  2.0900000000000D+00  0.0000000000000D+00  0.0000000000000D+00
   211  2.1000000000000D+00  0.0000000000000D+00  0.0000000000000D+00
   212  2.1100000000000D+00  0.0000000000000D+00  0.0000000000000D+00
   213  2.1200000000000D+00  0.0000000000000D+00  0.0000000000000D+00
   214  2.1300000000000D+00  0.0000000000000D+00  0.0000000000000D+00
   215  2.1400000000000D+00  0.0000000000000D+00  0.0000000000000D+00
   216  2.1500000000000D+00  0.0000000000000D+00  0.0000000000000D+00
   217  2.1600000000000D+00  0.0000000000000D+00  0.0000000000000D+00
   218  2.1700000000000D+00  0.0000000000000D+00  0.0000000000000D+00
   219  2.1800000000000D+00  0.0000000000000D+00  0.0000000000000D+00
   220  2.1900000000000D+00  0.0000000000000D+00  0.0000000000000D+00
   221  2.2000000000000D+00  0.0000000000000D+00  0.0000000000000D+00
   222  2.2100000000000D+00  0.0000000000000D+00  0.0000000000000D+00
   223  2.2200000000000D+00  0.0000000000000D+00  0.0000000000000D+00
   224  2.2300000000000D+00  0.0000000000000D+00  0.0000000000000D+00
   225  2.2400000000000D+00  0.0000000000000D+00  0.0000000000000D+00
   226  2.2500000000000D+00  0.0000000000000D+00  0.0000000000000D+00
   227  2.2600000000000D+00  0.0000000000000D+00  0.0000000000000D+00
   228  2.2700000000000D+00  0.0000000000000D+00  0.0000000000000D+00
   229  2.2800000000000D+00  0.0000000000000D+00  0.0000000000000D+00
   230  2.2900000000000D+00  0.0000000000000D+00  0.0000000000000D+00
   231  2.3000000000000D+00  0.0000000000000D+00  0.0000000000000D+00
   232  2.3100000000000D+00  0.0000000000000D+00  0.0000000000000D+00
   233  2.3200000000000D+00  0.0000000000000D+00  0.0000000000000D+00
   234  2.3300000000000D+00  0.0000000000000D+00  0.0000000000000D+00
   235  2.3400000000000D+00  0.0000000000000D+00  0.0000000000000D+00
   236  2.3500000000000D+00  0.0000000000000D+00  0.0000000000000D+00
   237  2.3600000000000D+00  0.0000000000000D+00  0.0000000000000D+00
   238  2.3700000000000D+00  0.0000000000000D+00  0.0000000000000D+00
   239  2.3800000000000D+00  0.0000000000000D+00  0.0000000000000D+00
   240  2.3900000000000D+00  0.0000000000000D+00  0.0000000000000D+00
   241  2.4000000000000D+00  0.0000000000000D+00  0.0000000000000D+00
   242  2.4100000000000D+00  0.0000000000000D+00  0.0000000000000D+00
   243  2.4200000000000D+00  0.0000000000000D+00  0.0000000000000D+00
   244  2.4300000000000D+00  0.0000000000000D+00  0.0000000000000D+00
   245  2.4400000000000D+00  0.0000000000000D+00  0.0000000000000D+00
   246  2.4500000000000D+00  0.0000000000000D+00  0.0000000000000D+00
   247  2.4600000000000D+00  0.0000000000000D+00  0.0000000000000D+00
   248  2.4700000000000D+00  0.0000000000000D+00  0.0000000000000D+00
   249  2.4800000000000D+00  0.0000000000000D+00  0.0000000000000D+00
   250  2.4900000000000D+00  0.0000000000000D+00  0.0000000000000D+00
   251  2.5000000000000D+00  0.0000000000000D+00  0.0000000000000D+00
   252  2.5100000000000D+00  0.0000000000000D+00  0.0000000000000D+00
   253  2.5200000000000D+00  0.0000000000000D+00  0.0000000000000D+00
   254  2.5300000000000D+00  0.0000000000000D+00  0.0000000000000D+00
   255  2.5400000000000D+00  0.0000000000000D+00  0.0000000000000D+00
   256  2.5500000000000D+00  0.0000000000000D+00  0.0000000000000D+00
   257  2.5600000000000D+00  0.0000000000000D+00  0.0000000000000D+00
   258  2.5700000000000D+00  0.0000000000000D+00  0.0000000000000D+00
   259  2.5800000000000D+00  0.0000000000000D+00  0.0000000000000D+00
   260  2.5900000000000D+00  0.0000000000000D+00  0.0000000000000D+00
   261  2.6000000000000D+00  0.0000000000000D+00  0.0000000000000D+00
   262  2.6100000000000D+00  0.0000000000000D+00  0.0000000000000D+00
   263  2.6200000000000D+00  0.0000000000000D+00  0.0000000000000D+00
   264  2.6300000000000D+00  0.0000000000000D+00  0.0000000000000D+00
   265  2.6400000000000D+00  0.0000000000000D+00  0.0000000000000D+00
   266  2.6500000000000D+00  0.0000000000000D+00  0.0000000000000D+00
   267  2.6600000000000D+00  0.0000000000000D+00  0.0000000000000D+00
   268  2.6700000000000D+00  0.0000000000000D+00  0.0000000000000D+00
   269  2.6800000000000D+00  0.0000000000000D+00  0.0000000000000D+00
   270  2.6900000000000D+00  0.0000000000000D+00  0.0000000000000D+00
   271  2.7000000000000D+00  0.0000000000000D+00  0.0000000000000D+00
   272  2.7100000000000D+00  0.0000000000000D+00  0.0000000000000D+00
   273  2.7200000000000D+00  0.0000000000000D+00  0.0000000000000D+00
   274  2.7300000000000D+00  0.0000000000000D+00  0.0000000000000D+00
   275  2.7400000000000D+00  0.0000000000000D+00  0.0000000000000D+00
   276  2.7500000000000D+00  0.0000000000000D+00  0.0000000000000D+00
   277  2.7600000000000D+00  0.0000000000000D+00  0.0000000000000D+00
   278  2.7700000000000D+00  0.0000000000000D+00  0.0000000000000D+00
   279  2.7800000000000D+00  0.0000000000000D+00  0.0000000000000D+00
   280  2.7900000000000D+00  0.0000000000000D+00  0.0000000000000D+00
   281  2.8000000000000D+00  0.0000000000000D+00  0.0000000000000D+00
   282  2.8100000000000D+00  0.0000000000000D+00  0.0000000000000D+00
   283  2.8200000000000D+00  0.0000000000000D+00  0.0000000000000D+00
   284  2.8300000000000D+00  0.0000000000000D+00  0.0000000000000D+00
   285  2.8400000000000D+00  0.0000000000000D+00  0.0000000000000D+00
   286  2.8500000000000D+00  0.0000000000000D+00  0.0000000000000D+00
   287  2.8600000000000D+00  0.0000000000000D+00  0.0000000000000D+00
   288  2.8700000000000D+00  0.0000000000000D+00  0.0000000000000D+00
   289  2.8800000000000D+00  0.0000000000000D+00  0.0000000000000D+00
   290  2.8900000000000D+00  0.0000000000000D+00  0.0000000000000D+00
   291  2.9000000000000D+00  0.0000000000000D+00  0.0000000000000D+00
   292  2.9100000000000D+00  0.0000000000000D+00  0.0000000000000D+00
   293  2.9200000000000D+00  0.0000000000000D+00  0.0000000000000D+00
   294  2.9300000000000D+00  0.0000000000000D+00  0.0000000000000D+00
   295  2.9400000000000D+00  0.0000000000000D+00  0.0000000000000D+00
   296  2.9500000000000D+00  0.0000000000000D+00  0.0000000000000D+00
   297  2.9600000000000D+00  0.0000000000000D+00  0.0000000000000D+00
   298  2.9700000000000D+00  0.0000000000000D+00  0.0000000000000D+00
   299  2.9800000000000D+00  0.0000000000000D+00  0.0000000000000D+00
   300  2.9900000000000D+00  0.0000000000000D+00  0.0000000000000D+00
   301  3.0000000000000D+00  0.0000000000000D+00  0.0000000000000D+00
   302  3.0100000000000D+00  0.0000000000000D+00  0.0000000000000D+00
   303  3.0200000000000D+00  0.0000000000000D+00  0.0000000000000D+00
   304  3.0300000000000D+00  0.0000000000000D+00  0.0000000000000D+00
   305  3.0400000000000D+00  0.0000000000000D+00  0.0000000000000D+00
   306  3.0500000000000D+00  0.0000000000000D+00  0.0000000000000D+00
   307  3.0600000000000D+00  0.0000000000000D+00  0.0000000000000D+00
   308  3.0700000000000D+00  0.0000000000000D+00  0.0000000000000D+00
   309  3.0800000000000D+00  0.0000000000000D+00  0.0000000000000D+00
   310  3.0900000000000D+00  0.0000000000000D+00  0.0000000000000D+00
   311  3.1000000000000D+00  0.0000000000000D+00  0.0000000000000D+00
   312  3.1100000000000D+00  0.0000000000000D+00  0.0000000000000D+00
   313  3.1200000000000D+00  0.0000000000000D+00  0.0000000000000D+00
   314  3.1300000000000D+00  0.0000000000000D+00  0.0000000000000D+00
   315  3.1400000000000D+00  0.0000000000000D+00  0.0000000000000D+00
   316  3.1500000000000D+00  0.0000000000000D+00  0.0000000000000D+00
   317  3.1600000000000D+00  0.0000000000000D+00  0.0000000000000D+00
   318  3.1700000000000D+00  0.0000000000000D+00  0.0000000000000D+00
   319  3.1800000000000D+00  0.0000000000000D+00  0.0000000000000D+00
   320  3.1900000000000D+00  0.0000000000000D+00  0.0000000000000D+00
   321  3.2000000000000D+00  0.0000000000000D+00  0.0000000000000D+00
   322  3.2100000000000D+00  0.0000000000000D+00  0.0000000000000D+00
   323  3.2200000000000D+00  0.0000000000000D+00  0.0000000000000D+00
   324  3.2300000000000D+00  0.0000000000000D+00  0.0000000000000D+00
   325  3.2400000000000D+00  0.0000000000000D+00  0.0000000000000D+00
   326  3.2500000000000D+00  0.0000000000000D+00  0.0000000000000D+00
   327  3.2600000000000D+00  0.0000000000000D+00  0.0000000000000D+00
   328  3.2700000000000D+00  0.0000000000000D+00  0.0000000000000D+00
   329  3.2800000000000D+00  0.0000000000000D+00  0.0000000000000D+00
   330  3.2900000000000D+00  0.0000000000000D+00  0.0000000000000D+00
   331  3.3000000000000D+00  0.0000000000000D+00  0.0000000000000D+00
   332  3.3100000000000D+00  0.0000000000000D+00  0.0000000000000D+00
   333  3.3200000000000D+00  0.0000000000000D+00  0.0000000000000D+00
   334  3.3300000000000D+00  0.0000000000000D+00  0.0000000000000D+00
   335  3.3400000000000D+00  0.0000000000000D+00  0.0000000000000D+00
   336  3.3500000000000D+00  0.0000000000000D+00  0.0000000000000D+00
   337  3.3600000000000D+00  0.0000000000000D+00  0.0000000000000D+00
   338  3.3700000000000D+00  0.0000000000000D+00  0.0000000000000D+00
   339  3.3800000000000D+00  0.0000000000000D+00  0.0000000000000D+00
   340  3.3900000000000D+00  0.0000000000000D+00  0.0000000000000D+00
   341  3.4000000000000D+00  0.0000000000000D+00  0.0000000000000D+00
   342  3.4100000000000D+00  0.0000000000000D+00  0.0000000000000D+00
   343  3.4200000000000D+00  0.0000000000000D+00  0.0000000000000D+00
   344  3.4300000000000D+00  0.0000000000000D+00  0.0000000000000D+00
   345  3.4400000000000D+00  0.0000000000000D+00  0.0000000000000D+00
   346  3.4500000000000D+00  0.0000000000000D+00  0.0000000000000D+00
   347  3.4600000000000D+00  0.0000000000000D+00  0.0000000000000D+00
   348  3.4700000000000D+00  0.0000000000000D+00  0.0000000000000D+00
   349  3.4800000000000D+00  0.0000000000000D+00  0.0000000000000D+00
   350  3.4900000000000D+00  0.0000000000000D+00  0.0000000000000D+00
   351  3.5000000000000D+00  0.0000000000000D+00  0.0000000000000D+00
   352  3.5100000000000D+00  0.0000000000000D+00  0.0000000000000D+00
   353  3.5200000000000D+00  0.0000000000000D+00  0.0000000000000D+00
   354  3.5300000000000D+00  0.0000000000000D+00  0.0000000000000D+00
   355  3.5400000000000D+00  0.0000000000000D+00  0.0000000000000D+00
   356  3.5500000000000D+00  0.0000000000000D+00  0.0000000000000D+00
   357  3.5600000000000D+00  0.0000000000000D+00  0.0000000000000D+00
   358  3.5700000000000D+00  0.0000000000000D+00  0.0000000000000D+00
   359  3.5800000000000D+00  0.0000000000000D+00  0.0000000000000D+00
   360  3.5900000000000D+00  0.0000000000000D+00  0.0000000000000D+00
   361  3.6000000000000D+00  0.0000000000000D+00  0.0000000000000D+00
   362  3.6100000000000D+00  0.0000000000000D+00  0.0000000000000D+00
   363  3.6200000000000D+00  0.0000000000000D+00  0.0000000000000D+00
   364  3.6300000000000D+00  0.0000000000000D+00  0.0000000000000D+00
   365  3.6400000000000D+00  0.0000000000000D+00  0.0000000000000D+00
   366  3.6500000000000D+00  0.0000000000000D+00  0.0000000000000D+00
   367  3.6600000000000D+00  0.0000000000000D+00  0.0000000000000D+00
   368  3.6700000000000D+00  0.0000000000000D+00  0.0000000000000D+00
   369  3.6800000000000D+00  0.0000000000000D+00  0.0000000000000D+00
   370  3.6900000000000D+00  0.0000000000000D+00  0.0000000000000D+00
   371  3.7000000000000D+00  0.0000000000000D+00  0.0000000000000D+00
   372  3.7100000000000D+00  0.0000000000000D+00  0.0000000000000D+00
   373  3.7200000000000D+00  0.0000000000000D+00  0.0000000000000D+00
   374  3.7300000000000D+00  0.0000000000000D+00  0.0000000000000D+00
   375  3.7400000000000D+00  0.0000000000000D+00  0.0000000000000D+00
   376  3.7500000000000D+00  0.0000000000000D+00  0.0000000000000D+00
   377  3.7600000000000D+00  0.0000000000000D+00  0.0000000000000D+00
   378  3.7700000000000D+00  0.0000000000000D+00  0.0000000000000D+00
   379  3.7800000000000D+00  0.0000000000000D+00  0.0000000000000D+00
   380  3.7900000000000D+00  0.0000000000000D+00  0.0000000000000D+00
   381  3.8000000000000D+00  0.0000000000000D+00  0.0000000000000D+00
   382  3.8100000000000D+00  0.0000000000000D+00  0.0000000000000D+00
   383  3.8200000000000D+00  0.0000000000000D+00  0.0000000000000D+00
   384  3.8300000000000D+00  0.0000000000000D+00  0.0000000000000D+00
   385  3.8400000000000D+00  0.0000000000000D+00  0.0000000000000D+00
   386  3.8500000000000D+00  0.0000000000000D+00  0.0000000000000D+00
   387  3.8600000000000D+00  0.0000000000000D+00  0.0000000000000D+00
   388  3.8700000000000D+00  0.0000000000000D+00  0.0000000000000D+00
   389  3.8800000000000D+00  0.0000000000000D+00  0.0000000000000D+00
   390  3.8900000000000D+00  0.0000000000000D+00  0.0000000000000D+00
   391  3.9000000000000D+00  0.0000000000000D+00  0.0000000000000D+00
   392  3.9100000000000D+00  0.0000000000000D+00  0.0000000000000D+00
   393  3.9200000000000D+00  0.0000000000000D+00  0.0000000000000D+00
   394  3.9300000000000D+00  0.0000000000000D+00  0.0000000000000D+00
   395  3.9400000000000D+00  0.0000000000000D+00  0.0000000000000D+00
   396  3.9500000000000D+00  0.0000000000000D+00  0.0000000000000D+00
   397  3.9600000000000D+00  0.0000000000000D+00  0.0000000000000D+00
   398  3.9700000000000D+00  0.0000000000000D+00  0.0000000000000D+00
   399  3.9800000000000D+00  0.0000000000000D+00  0.0000000000000D+00
   400  3.9900000000000D+00  0.0000000000000D+00  0.0000000000000D+00
   1                        -4.7605421928513D+00 -1.4141411936631D+00
     1  0.0000000000000D+00  0.0000000000000D+00 -0.0000000000000D+00
     2  1.0000000000000D-02  1.6961624690070D-03 -6.1298490276213D-04
     3  2.0000000000000D-02  6.7781499526488D-03 -2.4481802061993D-03
     4  3.0000000000000D-02  1.5226481405675D-02 -5.4943125693571D-03
     5  4.0000000000000D-02  2.7008750851799D-02 -9.7326094914784D-03
     6  5.0000000000000D-02  4.2079721087974D-02 -1.5136824455056D-02
     7  6.0000000000000D-02  6.0381454977775D-02 -2.1673273200416D-02
     8  7.0000000000000D-02  8.1843484432116D-02 -2.9300882183867D-02
     9  8.0000000000000D-02  1.0638301719122D-01 -3.7971250541181D-02
    10  9.0000000000000D-02  1.3390518152718D-01 -4.7628727124343D-02
    11  1.0000000000000D-01  1.6430330898291D-01 -5.8210504399319D-02
    12  1.1000000000000D-01  1.9745925524330D-01 -6.9646731179144D-02
    13  1.2000000000000D-01  2.3324375920490D-01 -8.1860646319858D-02
    14  1.3000000000000D-01  2.7151684025763D-01 -9.4768735617305D-02
    15  1.4000000000000D-01  3.1212823374511D-01 -1.0828091422351D-01
    16  1.5000000000000D-01  3.5491786444901D-01 -1.2230073690674D-01
    17  1.6000000000000D-01  3.9971635791517D-01 -1.3672563850218D-01
    18  1.7000000000000D-01  4.4634558920225D-01 -1.5144720675959D-01
    19  1.8000000000000D-01  4.9461926865701D-01 -1.6635148978093D-01
    20  1.9000000000000D-01  5.4434356407176D-01 -1.8131934002781D-01
    21  2.0000000000000D-01  5.9531775829339D-01 -1.9622679656575D-01