<?xml version="1.0" encoding="UTF-8" ?>
<psml version="1.0" energy_unit="hartree" length_unit="bohr"
 uuid="4f48c810-f854-11e6-7193-4ecad5baf737">
<provenance creator="ONCVPSP-3.2.3+psml-51" date="2017-02-21">
<input-file name="oncvpsp-input">
<![CDATA[# ATOM AND REFERENCE CONFIGURATION
# atsym  z   nc   nv     iexc    psfile
Al 13.00    3    2       4      psp8
#
#   n    l    f        energy (Ha)
1    0    2.00    -5.5533531D+01
2    0    2.00    -3.9749958D+00
2    1    6.00    -2.5593353D+00
3    0    2.00    -2.8491418D-01
3    1    1.00    -9.9667823D-02
#
# PSEUDOPOTENTIAL AND OPTIMIZATION
# lmax
2
#
#   l,   rc,     ep,   ncon, nbas, qcut
0    1.75   -0.28    4    9    6.00
1    1.75   -0.10    4    9    6.40
2    1.70    0.05    4    9    5.20
#
# LOCAL POTENTIAL
# lloc, lpopt,  rc(5),   dvloc0
4    5      1.40       0.00
#
# VANDERBILT-KLEINMAN-BYLANDER PROJECTORs
# l, nproj, debl
0    2    2.8000
1    2    2.8000
2    2    1.5000
#
# MODEL CORE CHARGE
# icmod, fcfact, rcfact, rcfact
3    5.00    1.30
#
# LOG DERIVATIVE ANALYSIS
# epsh1, epsh2, depsh
-12.00   12.00    0.02
#
# OUTPUT GRID
# rlmax, drl
6.00    0.01
#
# TEST CONFIGURATIONS
# ncnf
0
# nvcnf
#   n    l    f
]]>
</input-file>
</provenance>
<header atomic-label="Al" atomic-number="13" z-pseudo="3"
 flavor="Hamann&apos;s oncvpsp" relativity="scalar" polarized="no"
 core-corrections="yes">
<exchange-correlation>
<annotation oncvpsp-xc-code="4" oncvpsp-xc-type="GGA -- Perdew-Burke-Ernzerhof" />
<libxc-info number-of-functionals="2">
<functional name="Perdew, Burke &amp; Ernzerhof (GGA)" type="exchange" id="101" />
<functional name="Perdew, Burke &amp; Ernzerhof (GGA)" type="correlation"
 id="130" />
</libxc-info>
</exchange-correlation>
<valence-configuration total-valence-charge="3">
<shell n="3" l="s" occupation="2" />
<shell n="3" l="p" occupation="1" />
</valence-configuration>
</header>
<grid npts="600">
<annotation type="linear with r=0" oncvpsp-nrl="600"
 oncvpsp-drl="0.100000000000E-01" />
<grid-data>
  0.000000000000E+00  1.000000000000E-02  2.000000000000E-02  3.000000000000E-02
  4.000000000000E-02  5.000000000000E-02  6.000000000000E-02  7.000000000000E-02
  8.000000000000E-02  9.000000000000E-02  1.000000000000E-01  1.100000000000E-01
  1.200000000000E-01  1.300000000000E-01  1.400000000000E-01  1.500000000000E-01
  1.600000000000E-01  1.700000000000E-01  1.800000000000E-01  1.900000000000E-01
  2.000000000000E-01  2.100000000000E-01  2.200000000000E-01  2.300000000000E-01
  2.400000000000E-01  2.500000000000E-01  2.600000000000E-01  2.700000000000E-01
  2.800000000000E-01  2.900000000000E-01  3.000000000000E-01  3.100000000000E-01
  3.200000000000E-01  3.300000000000E-01  3.400000000000E-01  3.500000000000E-01
  3.600000000000E-01  3.700000000000E-01  3.800000000000E-01  3.900000000000E-01
  4.000000000000E-01  4.100000000000E-01  4.200000000000E-01  4.300000000000E-01
  4.400000000000E-01  4.500000000000E-01  4.600000000000E-01  4.700000000000E-01
  4.800000000000E-01  4.900000000000E-01  5.000000000000E-01  5.100000000000E-01
  5.200000000000E-01  5.300000000000E-01  5.400000000000E-01  5.500000000000E-01
  5.600000000000E-01  5.700000000000E-01  5.800000000000E-01  5.900000000000E-01
  6.000000000000E-01  6.100000000000E-01  6.200000000000E-01  6.300000000000E-01
  6.400000000000E-01  6.500000000000E-01  6.600000000000E-01  6.700000000000E-01
  6.800000000000E-01  6.900000000000E-01  7.000000000000E-01  7.100000000000E-01
  7.200000000000E-01  7.300000000000E-01  7.400000000000E-01  7.500000000000E-01
  7.600000000000E-01  7.700000000000E-01  7.800000000000E-01  7.900000000000E-01
  8.000000000000E-01  8.100000000000E-01  8.200000000000E-01  8.300000000000E-01
  8.400000000000E-01  8.500000000000E-01  8.600000000000E-01  8.700000000000E-01
  8.800000000000E-01  8.900000000000E-01  9.000000000000E-01  9.100000000000E-01
  9.200000000000E-01  9.300000000000E-01  9.400000000000E-01  9.500000000000E-01
  9.600000000000E-01  9.700000000000E-01  9.800000000000E-01  9.900000000000E-01
  1.000000000000E+00  1.010000000000E+00  1.020000000000E+00  1.030000000000E+00
  1.040000000000E+00  1.050000000000E+00  1.060000000000E+00  1.070000000000E+00
  1.080000000000E+00  1.090000000000E+00  1.100000000000E+00  1.110000000000E+00
  1.120000000000E+00  1.130000000000E+00  1.140000000000E+00  1.150000000000E+00
  1.160000000000E+00  1.170000000000E+00  1.180000000000E+00  1.190000000000E+00
  1.200000000000E+00  1.210000000000E+00  1.220000000000E+00  1.230000000000E+00
  1.240000000000E+00  1.250000000000E+00  1.260000000000E+00  1.270000000000E+00
  1.280000000000E+00  1.290000000000E+00  1.300000000000E+00  1.310000000000E+00
  1.320000000000E+00  1.330000000000E+00  1.340000000000E+00  1.350000000000E+00
  1.360000000000E+00  1.370000000000E+00  1.380000000000E+00  1.390000000000E+00
  1.400000000000E+00  1.410000000000E+00  1.420000000000E+00  1.430000000000E+00
  1.440000000000E+00  1.450000000000E+00  1.460000000000E+00  1.470000000000E+00
  1.480000000000E+00  1.490000000000E+00  1.500000000000E+00  1.510000000000E+00
  1.520000000000E+00  1.530000000000E+00  1.540000000000E+00  1.550000000000E+00
  1.560000000000E+00  1.570000000000E+00  1.580000000000E+00  1.590000000000E+00
  1.600000000000E+00  1.610000000000E+00  1.620000000000E+00  1.630000000000E+00
  1.640000000000E+00  1.650000000000E+00  1.660000000000E+00  1.670000000000E+00
  1.680000000000E+00  1.690000000000E+00  1.700000000000E+00  1.710000000000E+00
  1.720000000000E+00  1.730000000000E+00  1.740000000000E+00  1.750000000000E+00
  1.760000000000E+00  1.770000000000E+00  1.780000000000E+00  1.790000000000E+00
  1.800000000000E+00  1.810000000000E+00  1.820000000000E+00  1.830000000000E+00
  1.840000000000E+00  1.850000000000E+00  1.860000000000E+00  1.870000000000E+00
  1.880000000000E+00  1.890000000000E+00  1.900000000000E+00  1.910000000000E+00
  1.920000000000E+00  1.930000000000E+00  1.940000000000E+00  1.950000000000E+00
  1.960000000000E+00  1.970000000000E+00  1.980000000000E+00  1.990000000000E+00
  2.000000000000E+00  2.010000000000E+00  2.020000000000E+00  2.030000000000E+00
  2.040000000000E+00  2.050000000000E+00  2.060000000000E+00  2.070000000000E+00
  2.080000000000E+00  2.090000000000E+00  2.100000000000E+00  2.110000000000E+00
  2.120000000000E+00  2.130000000000E+00  2.140000000000E+00  2.150000000000E+00
  2.160000000000E+00  2.170000000000E+00  2.180000000000E+00  2.190000000000E+00
  2.200000000000E+00  2.210000000000E+00  2.220000000000E+00  2.230000000000E+00
  2.240000000000E+00  2.250000000000E+00  2.260000000000E+00  2.270000000000E+00
  2.280000000000E+00  2.290000000000E+00  2.300000000000E+00  2.310000000000E+00
  2.320000000000E+00  2.330000000000E+00  2.340000000000E+00  2.350000000000E+00
  2.360000000000E+00  2.370000000000E+00  2.380000000000E+00  2.390000000000E+00
  2.400000000000E+00  2.410000000000E+00  2.420000000000E+00  2.430000000000E+00
  2.440000000000E+00  2.450000000000E+00  2.460000000000E+00  2.470000000000E+00
  2.480000000000E+00  2.490000000000E+00  2.500000000000E+00  2.510000000000E+00
  2.520000000000E+00  2.530000000000E+00  2.540000000000E+00  2.550000000000E+00
  2.560000000000E+00  2.570000000000E+00  2.580000000000E+00  2.590000000000E+00
  2.600000000000E+00  2.610000000000E+00  2.620000000000E+00  2.630000000000E+00
  2.640000000000E+00  2.650000000000E+00  2.660000000000E+00  2.670000000000E+00
  2.680000000000E+00  2.690000000000E+00  2.700000000000E+00  2.710000000000E+00
  2.720000000000E+00  2.730000000000E+00  2.740000000000E+00  2.750000000000E+00
  2.760000000000E+00  2.770000000000E+00  2.780000000000E+00  2.790000000000E+00
  2.800000000000E+00  2.810000000000E+00  2.820000000000E+00  2.830000000000E+00
  2.840000000000E+00  2.850000000000E+00  2.860000000000E+00  2.870000000000E+00
  2.880000000000E+00  2.890000000000E+00  2.900000000000E+00  2.910000000000E+00
  2.920000000000E+00  2.930000000000E+00  2.940000000000E+00  2.950000000000E+00
  2.960000000000E+00  2.970000000000E+00  2.980000000000E+00  2.990000000000E+00
  3.000000000000E+00  3.010000000000E+00  3.020000000000E+00  3.030000000000E+00
  3.040000000000E+00  3.050000000000E+00  3.060000000000E+00  3.070000000000E+00
  3.080000000000E+00  3.090000000000E+00  3.100000000000E+00  3.110000000000E+00
  3.120000000000E+00  3.130000000000E+00  3.140000000000E+00  3.150000000000E+00
  3.160000000000E+00  3.170000000000E+00  3.180000000000E+00  3.190000000000E+00
  3.200000000000E+00  3.210000000000E+00  3.220000000000E+00  3.230000000000E+00
  3.240000000000E+00  3.250000000000E+00  3.260000000000E+00  3.270000000000E+00
  3.280000000000E+00  3.290000000000E+00  3.300000000000E+00  3.310000000000E+00
  3.320000000000E+00  3.330000000000E+00  3.340000000000E+00  3.350000000000E+00
  3.360000000000E+00  3.370000000000E+00  3.380000000000E+00  3.390000000000E+00
  3.400000000000E+00  3.410000000000E+00  3.420000000000E+00  3.430000000000E+00
  3.440000000000E+00  3.450000000000E+00  3.460000000000E+00  3.470000000000E+00
  3.480000000000E+00  3.490000000000E+00  3.500000000000E+00  3.510000000000E+00
  3.520000000000E+00  3.530000000000E+00  3.540000000000E+00  3.550000000000E+00
  3.560000000000E+00  3.570000000000E+00  3.580000000000E+00  3.590000000000E+00
  3.600000000000E+00  3.610000000000E+00  3.620000000000E+00  3.630000000000E+00
  3.640000000000E+00  3.650000000000E+00  3.660000000000E+00  3.670000000000E+00
  3.680000000000E+00  3.690000000000E+00  3.700000000000E+00  3.710000000000E+00
  3.720000000000E+00  3.730000000000E+00  3.740000000000E+00  3.750000000000E+00
  3.760000000000E+00  3.770000000000E+00  3.780000000000E+00  3.790000000000E+00
  3.800000000000E+00  3.810000000000E+00  3.820000000000E+00  3.830000000000E+00
  3.840000000000E+00  3.850000000000E+00  3.860000000000E+00  3.870000000000E+00
  3.880000000000E+00  3.890000000000E+00  3.900000000000E+00  3.910000000000E+00
  3.920000000000E+00  3.930000000000E+00  3.940000000000E+00  3.950000000000E+00
  3.960000000000E+00  3.970000000000E+00  3.980000000000E+00  3.990000000000E+00
  4.000000000000E+00  4.010000000000E+00  4.020000000000E+00  4.030000000000E+00
  4.040000000000E+00  4.050000000000E+00  4.060000000000E+00  4.070000000000E+00
  4.080000000000E+00  4.090000000000E+00  4.100000000000E+00  4.110000000000E+00
  4.120000000000E+00  4.130000000000E+00  4.140000000000E+00  4.150000000000E+00
  4.160000000000E+00  4.170000000000E+00  4.180000000000E+00  4.190000000000E+00
  4.200000000000E+00  4.210000000000E+00  4.220000000000E+00  4.230000000000E+00
  4.240000000000E+00  4.250000000000E+00  4.260000000000E+00  4.270000000000E+00
  4.280000000000E+00  4.290000000000E+00  4.300000000000E+00  4.310000000000E+00
  4.320000000000E+00  4.330000000000E+00  4.340000000000E+00  4.350000000000E+00
  4.360000000000E+00  4.370000000000E+00  4.380000000000E+00  4.390000000000E+00
  4.400000000000E+00  4.410000000000E+00  4.420000000000E+00  4.430000000000E+00
  4.440000000000E+00  4.450000000000E+00  4.460000000000E+00  4.470000000000E+00
  4.480000000000E+00  4.490000000000E+00  4.500000000000E+00  4.510000000000E+00
  4.520000000000E+00  4.530000000000E+00  4.540000000000E+00  4.550000000000E+00
  4.560000000000E+00  4.570000000000E+00  4.580000000000E+00  4.590000000000E+00
  4.600000000000E+00  4.610000000000E+00  4.620000000000E+00  4.630000000000E+00
  4.640000000000E+00  4.650000000000E+00  4.660000000000E+00  4.670000000000E+00
  4.680000000000E+00  4.690000000000E+00  4.700000000000E+00  4.710000000000E+00
  4.720000000000E+00  4.730000000000E+00  4.740000000000E+00  4.750000000000E+00
  4.760000000000E+00  4.770000000000E+00  4.780000000000E+00  4.790000000000E+00
  4.800000000000E+00  4.810000000000E+00  4.820000000000E+00  4.830000000000E+00
  4.840000000000E+00  4.850000000000E+00  4.860000000000E+00  4.870000000000E+00
  4.880000000000E+00  4.890000000000E+00  4.900000000000E+00  4.910000000000E+00
  4.920000000000E+00  4.930000000000E+00  4.940000000000E+00  4.950000000000E+00
  4.960000000000E+00  4.970000000000E+00  4.980000000000E+00  4.990000000000E+00
  5.000000000000E+00  5.010000000000E+00  5.020000000000E+00  5.030000000000E+00
  5.040000000000E+00  5.050000000000E+00  5.060000000000E+00  5.070000000000E+00
  5.080000000000E+00  5.090000000000E+00  5.100000000000E+00  5.110000000000E+00
  5.120000000000E+00  5.130000000000E+00  5.140000000000E+00  5.150000000000E+00
  5.160000000000E+00  5.170000000000E+00  5.180000000000E+00  5.190000000000E+00
  5.200000000000E+00  5.210000000000E+00  5.220000000000E+00  5.230000000000E+00
  5.240000000000E+00  5.250000000000E+00  5.260000000000E+00  5.270000000000E+00
  5.280000000000E+00  5.290000000000E+00  5.300000000000E+00  5.310000000000E+00
  5.320000000000E+00  5.330000000000E+00  5.340000000000E+00  5.350000000000E+00
  5.360000000000E+00  5.370000000000E+00  5.380000000000E+00  5.390000000000E+00
  5.400000000000E+00  5.410000000000E+00  5.420000000000E+00  5.430000000000E+00
  5.440000000000E+00  5.450000000000E+00  5.460000000000E+00  5.470000000000E+00
  5.480000000000E+00  5.490000000000E+00  5.500000000000E+00  5.510000000000E+00
  5.520000000000E+00  5.530000000000E+00  5.540000000000E+00  5.550000000000E+00
  5.560000000000E+00  5.570000000000E+00  5.580000000000E+00  5.590000000000E+00
  5.600000000000E+00  5.610000000000E+00  5.620000000000E+00  5.630000000000E+00
  5.640000000000E+00  5.650000000000E+00  5.660000000000E+00  5.670000000000E+00
  5.680000000000E+00  5.690000000000E+00  5.700000000000E+00  5.710000000000E+00
  5.720000000000E+00  5.730000000000E+00  5.740000000000E+00  5.750000000000E+00
  5.760000000000E+00  5.770000000000E+00  5.780000000000E+00  5.790000000000E+00
  5.800000000000E+00  5.810000000000E+00  5.820000000000E+00  5.830000000000E+00
  5.840000000000E+00  5.850000000000E+00  5.860000000000E+00  5.870000000000E+00
  5.880000000000E+00  5.890000000000E+00  5.900000000000E+00  5.910000000000E+00
  5.920000000000E+00  5.930000000000E+00  5.940000000000E+00  5.950000000000E+00
  5.960000000000E+00  5.970000000000E+00  5.980000000000E+00  5.990000000000E+00
</grid-data>
</grid>
<semilocal-potentials set="scalar_relativistic">
<slps n="3" l="s" rc="1.76802297978" flavor="Hamann&apos;s oncvpsp">
<radfunc>
<data>
  3.930115368056E+00  3.929666298484E+00  3.928313368411E+00  3.926039478019E+00
  3.922816447731E+00  3.918605482831E+00  3.913357816988E+00  3.907015521311E+00
  3.899512465560E+00  3.890775415701E+00  3.880725249792E+00  3.869278272340E+00
  3.856347605733E+00  3.841844636229E+00  3.825680491278E+00  3.807767524620E+00
  3.788020785736E+00  3.766359450773E+00  3.742708192979E+00  3.716998472034E+00
  3.689169723332E+00  3.659170430263E+00  3.626959064804E+00  3.592504884230E+00
  3.555788574385E+00  3.516802732742E+00  3.475552187255E+00  3.432054149834E+00
  3.386338205984E+00  3.338446144781E+00  3.288431635764E+00  3.236359761602E+00
  3.182306417303E+00  3.126357588510E+00  3.068608522773E+00  3.009162808801E+00
  2.948131379496E+00  2.885631454993E+00  2.821785442143E+00  2.756719806738E+00
  2.690563934376E+00  2.623448995288E+00  2.555506827582E+00  2.486868852375E+00
  2.417665033124E+00  2.348022890204E+00  2.278066580429E+00  2.207916049816E+00
  2.137686266465E+00  2.067486538989E+00  1.997419924553E+00  1.927582729179E+00
  1.858064101720E+00  1.788945721621E+00  1.720301579505E+00  1.652197848491E+00
  1.584692843265E+00  1.517837063017E+00  1.451673313630E+00  1.386236903832E+00
  1.321555909502E+00  1.257651499838E+00  1.194538318745E+00  1.132224914558E+00
  1.070714211011E+00  1.010004012276E+00  9.500875348991E-01  8.909539594932E-01
  8.325889951952E-01  7.749754500768E-01  7.180938009490E-01  6.619227563132E-01
  6.064398065498E-01  5.516217558390E-01  4.974452307518E-01  4.438871608908E-01
  3.909252274725E-01  3.385382762633E-01  2.867066917821E-01  2.354127302573E-01
  1.846408093515E-01  1.343777532260E-01  8.461299203124E-02  3.533871547787E-02
 -1.345001938063E-02 -6.175522551423E-02 -1.095759673343E-01 -1.569083846169E-01
 -2.037457569844E-01 -2.500786066533E-01 -2.958948367968E-01 -3.411799025579E-01
 -3.859170116028E-01 -4.300873507867E-01 -4.736703353332E-01 -5.166438770351E-01
 -5.589846675047E-01 -6.006684729227E-01 -6.416704363623E-01 -6.819653840597E-01
 -7.215281319647E-01 -7.603337890523E-01 -7.983580540360E-01 -8.355775022736E-01
 -8.719698598935E-01 -9.075142623567E-01 -9.421914949391E-01 -9.759842128718E-01
 -1.008877139154E+00 -1.040857238325E+00 -1.071913864774E+00 -1.102038884485E+00
 -1.131226769369E+00 -1.159474663685E+00 -1.186782422263E+00 -1.213152620614E+00
 -1.238590537236E+00 -1.263104108724E+00 -1.286703858489E+00 -1.309402800217E+00
 -1.331216317385E+00 -1.352162020321E+00 -1.372259582562E+00 -1.391530558406E+00
 -1.409998183686E+00 -1.427687161936E+00 -1.444623438269E+00 -1.460833963324E+00
 -1.476346449699E+00 -1.491189123393E+00 -1.505390472698E+00 -1.518978997083E+00
 -1.531982958481E+00 -1.544430137390E+00 -1.556347596171E+00 -1.567761451674E+00
 -1.578696659401E+00 -1.589176811208E+00 -1.599223948193E+00 -1.608858390781E+00
 -1.618098587173E+00 -1.626960981609E+00 -1.635459903701E+00 -1.643607479329E+00
 -1.651413564358E+00 -1.658885701138E+00 -1.666029098357E+00 -1.672846634344E+00
 -1.679338883239E+00 -1.685504164345E+00 -1.691338613205E+00 -1.696836274415E+00
 -1.701989214511E+00 -1.706787654076E+00 -1.711220117587E+00 -1.715273599189E+00
 -1.718933743112E+00 -1.722185036136E+00 -1.725011010847E+00 -1.727394456720E+00
 -1.729317637455E+00 -1.730762511722E+00 -1.731710955261E+00 -1.732144981801E+00
 -1.732046960436E+00 -1.731399827227E+00 -1.730187288630E+00 -1.728394013461E+00
 -1.726005818686E+00 -1.723009853142E+00 -1.719394671529E+00 -1.715148503612E+00
 -1.710265987594E+00 -1.704754191316E+00 -1.698592594905E+00 -1.691727648700E+00
 -1.684198520269E+00 -1.676194650780E+00 -1.667936670060E+00 -1.659626979221E+00
 -1.651416030255E+00 -1.643293069791E+00 -1.635199670054E+00 -1.627145787416E+00
 -1.619147571303E+00 -1.611205472043E+00 -1.603316289495E+00 -1.595479879744E+00
 -1.587697726991E+00 -1.579970861905E+00 -1.572299373458E+00 -1.564683292081E+00
 -1.557122784018E+00 -1.549617887169E+00 -1.542168528031E+00 -1.534774553011E+00
 -1.527435743663E+00 -1.520151824242E+00 -1.512922468276E+00 -1.505747307321E+00
 -1.498625938159E+00 -1.491557929745E+00 -1.484542829253E+00 -1.477580167609E+00
 -1.470669464441E+00 -1.463810232370E+00 -1.457001980851E+00 -1.450244219452E+00
 -1.443536460695E+00 -1.436878222463E+00 -1.430269030032E+00 -1.423708417718E+00
 -1.417195930258E+00 -1.410731123858E+00 -1.404313567014E+00 -1.397942841126E+00
 -1.391618540852E+00 -1.385340274377E+00 -1.379107663457E+00 -1.372920343362E+00
 -1.366777962733E+00 -1.360680183275E+00 -1.354626679447E+00 -1.348617138036E+00
 -1.342651257675E+00 -1.336728748351E+00 -1.330849330838E+00 -1.325012736116E+00
 -1.319218704785E+00 -1.313466986430E+00 -1.307757339009E+00 -1.302089528218E+00
 -1.296463326855E+00 -1.290878514197E+00 -1.285334875372E+00 -1.279832200743E+00
 -1.274370285303E+00 -1.268948928082E+00 -1.263567931560E+00 -1.258227101112E+00
 -1.252926244447E+00 -1.247665171080E+00 -1.242443691821E+00 -1.237261618269E+00
 -1.232118762339E+00 -1.227014935806E+00 -1.221949949862E+00 -1.216923614698E+00
 -1.211935739111E+00 -1.206986130122E+00 -1.202074592623E+00 -1.197200929044E+00
 -1.192364939035E+00 -1.187566419182E+00 -1.182805162735E+00 -1.178080959359E+00
 -1.173393594912E+00 -1.168742851240E+00 -1.164128505999E+00 -1.159550332492E+00
 -1.155008099539E+00 -1.150501571356E+00 -1.146030507470E+00 -1.141594662643E+00
 -1.137193786824E+00 -1.132827625125E+00 -1.128495917815E+00 -1.124198400331E+00
 -1.119934803317E+00 -1.115704852680E+00 -1.111508269662E+00 -1.107344770938E+00
 -1.103214068728E+00 -1.099115870929E+00 -1.095049881260E+00 -1.091015799430E+00
 -1.087013321319E+00 -1.083042139170E+00 -1.079101941805E+00 -1.075192414842E+00
 -1.071313240933E+00 -1.067464100011E+00 -1.063644669545E+00 -1.059854624810E+00
 -1.056093639157E+00 -1.052361384297E+00 -1.048657530590E+00 -1.044981747335E+00
 -1.041333703067E+00 -1.037713065858E+00 -1.034119503617E+00 -1.030552684393E+00
 -1.027012276672E+00 -1.023497949680E+00 -1.020009373684E+00 -1.016546220276E+00
 -1.013108162669E+00 -1.009694875979E+00 -1.006306037501E+00 -1.002941326982E+00
 -9.996004268742E-01 -9.962830226031E-01 -9.929888027979E-01 -9.897174595271E-01
 -9.864686885265E-01 -9.832421894081E-01 -9.800376658570E-01 -9.768548258162E-01
 -9.736933816723E-01 -9.705530504066E-01 -9.674335537444E-01 -9.643346182910E-01
 -9.612559756586E-01 -9.581973625652E-01 -9.551585209294E-01 -9.521391979545E-01
 -9.491391461939E-01 -9.461581236005E-01 -9.431958935636E-01 -9.402522249471E-01
 -9.373268920925E-01 -9.344196748188E-01 -9.315303584119E-01 -9.286587335984E-01
 -9.258045965117E-01 -9.229677486446E-01 -9.201479967898E-01 -9.173451529866E-01
 -9.145590344265E-01 -9.117894633707E-01 -9.090362670535E-01 -9.062992775742E-01
 -9.035783317908E-01 -9.008732711992E-01 -8.981839418095E-01 -8.955101940178E-01
 -8.928518824657E-01 -8.902088659012E-01 -8.875810070331E-01 -8.849681723806E-01
 -8.823702321246E-01 -8.797870599540E-01 -8.772185329092E-01 -8.746645312240E-01
 -8.721249381712E-01 -8.695996399047E-01 -8.670885253037E-01 -8.645914858103E-01
 -8.621084152828E-01 -8.596392098406E-01 -8.571837677168E-01 -8.547419891011E-01
 -8.523137760057E-01 -8.498990321224E-01 -8.474976626896E-01 -8.451095743486E-01
 -8.427346750262E-01 -8.403728738113E-01 -8.380240808398E-01 -8.356882071749E-01
 -8.333651647040E-01 -8.310548660433E-01 -8.287572244428E-01 -8.264721536965E-01
 -8.241995680540E-01 -8.219393821559E-01 -8.196915109616E-01 -8.174558696918E-01
 -8.152323737549E-01 -8.130209387146E-01 -8.108214802415E-01 -8.086339140794E-01
 -8.064581560059E-01 -8.042941218101E-01 -8.021417272779E-01 -8.000008881769E-01
 -7.978715202494E-01 -7.957535392003E-01 -7.936468607099E-01 -7.915514004375E-01
 -7.894670740344E-01 -7.873937971546E-01 -7.853314854771E-01 -7.832800547302E-01
 -7.812394207166E-01 -7.792094993438E-01 -7.771902066545E-01 -7.751814588620E-01
 -7.731831723867E-01 -7.711952638930E-01 -7.692176503310E-01 -7.672502489772E-01
 -7.652929774733E-01 -7.633457538688E-01 -7.614084966598E-01 -7.594811248413E-01
 -7.575635579393E-01 -7.556557160526E-01 -7.537575198923E-01 -7.518688908172E-01
 -7.499897508869E-01 -7.481200228797E-01 -7.462596303316E-01 -7.444084975658E-01
 -7.425665497252E-01 -7.407337128083E-01 -7.389099136803E-01 -7.370950800998E-01
 -7.352891407354E-01 -7.334920251917E-01 -7.317036640240E-01 -7.299239887413E-01
 -7.281529318189E-01 -7.263904267009E-01 -7.246364078148E-01 -7.228908105682E-01
 -7.211535713418E-01 -7.194246274886E-01 -7.177039173232E-01 -7.159913801230E-01
 -7.142869561115E-01 -7.125905864421E-01 -7.109022131840E-01 -7.092217793038E-01
 -7.075492286502E-01 -7.058845059312E-01 -7.042275566900E-01 -7.025783272823E-01
 -7.009367648511E-01 -6.993028173012E-01 -6.976764332722E-01 -6.960575621108E-01
 -6.944461538423E-01 -6.928421591439E-01 -6.912455293127E-01 -6.896562162359E-01
 -6.880741723657E-01 -6.864993506895E-01 -6.849317047021E-01 -6.833711883772E-01
 -6.818177561325E-01 -6.802713628136E-01 -6.787319636642E-01 -6.771995143019E-01
 -6.756739706995E-01 -6.741552891417E-01 -6.726434262239E-01 -6.711383388260E-01
 -6.696399840930E-01 -6.681483194221E-01 -6.666633024316E-01 -6.651848909557E-01
 -6.637130430327E-01 -6.622477168913E-01 -6.607888709422E-01 -6.593364637659E-01
 -6.578904540973E-01 -6.564508008328E-01 -6.550174630206E-01 -6.535903998583E-01
 -6.521695706950E-01 -6.507549350156E-01 -6.493464524553E-01 -6.479440827992E-01
 -6.465477859842E-01 -6.451575221049E-01 -6.437732514166E-01 -6.423949343387E-01
 -6.410225314672E-01 -6.396560035805E-01 -6.382953116481E-01 -6.369404168399E-01
 -6.355912805350E-01 -6.342478643323E-01 -6.329101300613E-01 -6.315780397924E-01
 -6.302515558476E-01 -6.289306408103E-01 -6.276152575430E-01 -6.263053691908E-01
 -6.250009391944E-01 -6.237019313004E-01 -6.224083095693E-01 -6.211200383907E-01
 -6.198370824944E-01 -6.185594069515E-01 -6.172869771862E-01 -6.160197589827E-01
 -6.147577184878E-01 -6.135008222310E-01 -6.122490371223E-01 -6.110023304531E-01
 -6.097606699024E-01 -6.085240235407E-01 -6.072923598245E-01 -6.060656476191E-01
 -6.048438561815E-01 -6.036269551621E-01 -6.024149146043E-01 -6.012077049428E-01
 -6.000052969938E-01 -5.988076619717E-01 -5.976147714663E-01 -5.964265974402E-01
 -5.952431122243E-01 -5.940642885102E-01 -5.928900993386E-01 -5.917205181045E-01
 -5.905555185361E-01 -5.893950746879E-01 -5.882391609312E-01 -5.870877519437E-01
 -5.859408226983E-01 -5.847983484542E-01 -5.836603047439E-01 -5.825266673610E-01
 -5.813974123495E-01 -5.802725159912E-01 -5.791519548945E-01 -5.780357057030E-01
 -5.769237452727E-01 -5.758160506987E-01 -5.747125992653E-01 -5.736133684382E-01
 -5.725183344322E-01 -5.714274753303E-01 -5.703407710279E-01 -5.692582000361E-01
 -5.681797407896E-01 -5.671053715693E-01 -5.660350736640E-01 -5.649688322856E-01
 -5.639066110584E-01 -5.628483849641E-01 -5.617941297087E-01 -5.607438221727E-01
 -5.596974408217E-01 -5.586549395284E-01 -5.576163280483E-01 -5.565816010293E-01
 -5.555507496828E-01 -5.545237651824E-01 -5.535006377613E-01 -5.524813657370E-01
 -5.514659363141E-01 -5.504543146038E-01 -5.494464755414E-01 -5.484423909711E-01
 -5.474420298640E-01 -5.464453586390E-01 -5.454523647073E-01 -5.444629855821E-01
 -5.434771765554E-01 -5.424948957950E-01 -5.415161035392E-01 -5.405407633248E-01
 -5.395688200247E-01 -5.386002274042E-01 -5.376350234830E-01 -5.366732047314E-01
 -5.357147709012E-01 -5.347597235826E-01 -5.338080647154E-01 -5.328598367485E-01
 -5.319150108750E-01 -5.309735496996E-01 -5.300354345948E-01 -5.291006448123E-01
 -5.281691580650E-01 -5.272409511705E-01 -5.263159755289E-01 -5.253942351143E-01
 -5.244757148613E-01 -5.235603978446E-01 -5.226482676522E-01 -5.217393083037E-01
 -5.208335046202E-01 -5.199308456035E-01 -5.190313100714E-01 -5.181348818597E-01
 -5.172415448987E-01 -5.163512832135E-01 -5.154640809259E-01 -5.145799222149E-01
 -5.136987912548E-01 -5.128206727151E-01 -5.119455511739E-01 -5.110734113138E-01
 -5.102042379216E-01 -5.093380158874E-01 -5.084747302033E-01 -5.076143659619E-01
 -5.067569083599E-01 -5.059023426923E-01 -5.050506543530E-01 -5.042018288341E-01
 -5.033558517250E-01 -5.025127087120E-01 -5.016723855767E-01 -5.008348681960E-01
</data>
</radfunc>
</slps>
<slps n="3" l="p" rc="1.76802297978" flavor="Hamann&apos;s oncvpsp">
<radfunc>
<data>
 -6.269071322876E+00 -6.267079799108E+00 -6.261113740505E+00 -6.251198639125E+00
 -6.237376796757E+00 -6.219707050743E+00 -6.198264390895E+00 -6.173139469720E+00
 -6.144438008185E+00 -6.112280099724E+00 -6.076799415810E+00 -6.038142316999E+00
 -5.996466874020E+00 -5.951941804152E+00 -5.904745328876E+00 -5.855063959495E+00
 -5.803091218189E+00 -5.749026302739E+00 -5.693072703908E+00 -5.635436785188E+00
 -5.576326335360E+00 -5.515949104942E+00 -5.454511338183E+00 -5.392216312784E+00
 -5.329262899908E+00 -5.265844157307E+00 -5.202145968579E+00 -5.138345741520E+00
 -5.074611178397E+00 -5.011099130651E+00 -4.947954550005E+00 -4.885309547314E+00
 -4.823282569618E+00 -4.761977704865E+00 -4.701484122595E+00 -4.641875657562E+00
 -4.583210541831E+00 -4.525531289334E+00 -4.468864735253E+00 -4.413222230865E+00
 -4.358599992803E+00 -4.304979603889E+00 -4.252328661024E+00 -4.200601563887E+00
 -4.149740436623E+00 -4.099676173145E+00 -4.050329595265E+00 -4.001612711608E+00
 -3.953430064069E+00 -3.905680147655E+00 -3.858256888672E+00 -3.811051165604E+00
 -3.763952356551E+00 -3.716849896784E+00 -3.669634829853E+00 -3.622201335732E+00
 -3.574448219690E+00 -3.526280345939E+00 -3.477610000618E+00 -3.428358169364E+00
 -3.378455715483E+00 -3.327844445664E+00 -3.276478051270E+00 -3.224322914332E+00
 -3.171358768745E+00 -3.117579208446E+00 -3.062992035936E+00 -3.007619446016E+00
 -2.951498041322E+00 -2.894678677956E+00 -2.837226141385E+00 -2.779218654603E+00
 -2.720747222523E+00 -2.661914818532E+00 -2.602835421076E+00 -2.543632910148E+00
 -2.484439835459E+00 -2.425396069914E+00 -2.366647363809E+00 -2.308343816765E+00
 -2.250638285871E+00 -2.193684749788E+00 -2.137636649561E+00 -2.082645227631E+00
 -2.028857886987E+00 -1.976416592509E+00 -1.925456336331E+00 -1.876103688437E+00
 -1.828475452746E+00 -1.782677447673E+00 -1.738803428397E+00 -1.696934166114E+00
 -1.657136697295E+00 -1.619463753348E+00 -1.583953378275E+00 -1.550628739242E+00
 -1.519498131504E+00 -1.490555176578E+00 -1.463779209075E+00 -1.439135844910E+00
 -1.416577720672E+00 -1.396045391344E+00 -1.377468371204E+00 -1.360766300612E+00
 -1.345850219737E+00 -1.332623928758E+00 -1.320985413118E+00 -1.310828311745E+00
 -1.302043405911E+00 -1.294520106498E+00 -1.288147917840E+00 -1.282817857229E+00
 -1.278423810167E+00 -1.274863803054E+00 -1.272041176159E+00 -1.269865642137E+00
 -1.268254216982E+00 -1.267132012743E+00 -1.266432882946E+00 -1.266099914807E+00
 -1.266085764287E+00 -1.266352831915E+00 -1.266873280185E+00 -1.267628895536E+00
 -1.268610799733E+00 -1.269819017264E+00 -1.271261908233E+00 -1.272955477087E+00
 -1.274922568885E+00 -1.277191967346E+00 -1.279797408959E+00 -1.282776528612E+00
 -1.286169753629E+00 -1.290019162554E+00 -1.294367326206E+00 -1.299256147889E+00
 -1.304725719768E+00 -1.310813212374E+00 -1.317551811724E+00 -1.324969721079E+00
 -1.333089239253E+00 -1.341925928720E+00 -1.351487886007E+00 -1.361775120538E+00
 -1.372779054486E+00 -1.384482145387E+00 -1.396857638225E+00 -1.409869449855E+00
 -1.423472182870E+00 -1.437611273547E+00 -1.452223263803E+00 -1.467236199150E+00
 -1.482570141185E+00 -1.498137790025E+00 -1.513845206643E+00 -1.529592624245E+00
 -1.545275339564E+00 -1.560784669530E+00 -1.576008963579E+00 -1.590834656474E+00
 -1.605147349859E+00 -1.618832909045E+00 -1.631778561374E+00 -1.643873984647E+00
 -1.655012371502E+00 -1.665091459836E+00 -1.674014516112E+00 -1.681691261703E+00