Al    ONCVPSP-3.3.0  r_core=   1.76802   1.76802   1.70587
     13.0000      3.0000      170801    zatom,zion,pspd
     8      11   2     4   600     0    pspcod,pspxc,lmax,lloc,mmax,r2well
  5.99000000  5.00000000  0.00000000    rchrg fchrg qchrg
     2     2     2     0     0    nproj
     1     1           extension_switch
   0                         5.1266666015240D+00  7.2829148183275D-01
     1  0.0000000000000D+00 -1.5381641238488D-09  3.4042234239862D-09
     2  1.0000000000000D-02  2.2298172446944D-02 -7.7006378477057D-03
     3  2.0000000000000D-02  4.4482909183018D-02 -1.5144395299697D-02
     4  3.0000000000000D-02  6.6442672063425D-02 -2.2078637797496D-02
     5  4.0000000000000D-02  8.8069689886289D-02 -2.8259160003038D-02
     6  5.0000000000000D-02  1.0926177178924D-01 -3.3454245155018D-02
     7  6.0000000000000D-02  1.2992403766565D-01 -3.7448540576092D-02
     8  7.0000000000000D-02  1.4997053977293D-01 -4.0046692103817D-02
     9  8.0000000000000D-02  1.6932575124370D-01 -4.1076683622508D-02
    10  9.0000000000000D-02  1.8792589909272D-01 -4.0392832039130D-02
    11  1.0000000000000D-01  2.0572012151321D-01 -3.7878392916368D-02
    12  1.1000000000000D-01  2.2267143174415D-01 -3.3447737482711D-02
    13  1.2000000000000D-01  2.3875747353178D-01 -2.7048067806175D-02
    14  1.3000000000000D-01  2.5397105616461D-01 -1.8660643461351D-02
    15  1.4000000000000D-01  2.6832046019242D-01 -8.3014999475593D-03
    16  1.5000000000000D-01  2.8182950820054D-01  3.9783536664809D-03
    17  1.6000000000000D-01  2.9453739835806D-01  1.8093262990110D-02
    18  1.7000000000000D-01  3.0649830184362D-01  3.3923780076714D-02
    19  1.8000000000000D-01  3.1778072863038D-01  5.1318028861144D-02
    20  1.9000000000000D-01  3.2846666943357D-01  7.0093567070309D-02
    21  2.0000000000000D-01  3.3865052484437D-01  9.0039720283195D-02
    22  2.1000000000000D-01  3.4843783574803D-01  1.1092035701495D-01
    23  2.2000000000000D-01  3.5794383200797D-01  1.3247706731915D-01
    24  2.3000000000000D-01  3.6729181905156D-01  1.5443270153056D-01
    25  2.4000000000000D-01  3.7661142437990D-01  1.7649522049182D-01
    26  2.5000000000000D-01  3.8603672810876D-01  1.9836180399496D-01
    27  2.6000000000000D-01  3.9570430340247D-01  2.1972316028919D-01
    28  2.7000000000000D-01  4.0575119406015D-01  2.4026797641443D-01
    29  2.8000000000000D-01  4.1631285753630D-01  2.5968744686160D-01
    30  2.9000000000000D-01  4.2752110230746D-01  2.7767981666760D-01
    31  3.0000000000000D-01  4.3950204872658D-01  2.9395487454859D-01
    32  3.1000000000000D-01  4.5237414233019D-01  3.0823833206711D-01
    33  3.2000000000000D-01  4.6624624798333D-01  3.2027602611556D-01
    34  3.3000000000000D-01  4.8121585226974D-01  3.2983788416303D-01
    35  3.4000000000000D-01  4.9736740017241D-01  3.3672159473025D-01
    36  3.5000000000000D-01  5.1477079035988D-01  3.4075592938533D-01
    37  3.6000000000000D-01  5.3348005131995D-01  3.4180366714425D-01
    38  3.7000000000000D-01  5.5353221819137D-01  3.3976407745075D-01
    39  3.8000000000000D-01  5.7494642746815D-01  3.3457492383221D-01
    40  3.9000000000000D-01  5.9772324382682D-01  3.2621395679802D-01
    41  4.0000000000000D-01  6.2184423019216D-01  3.1469987148243D-01
    42  4.1000000000000D-01  6.4727176885606D-01  3.0009271283521D-01
    43  4.2000000000000D-01  6.7394913804053D-01  2.8249371873598D-01
    44  4.3000000000000D-01  7.0180084479689D-01  2.6204459914646D-01
    45  4.4000000000000D-01  7.3073321160662D-01  2.3892625721191D-01
    46  4.5000000000000D-01  7.6063521054315D-01  2.1335696597572D-01
    47  4.6000000000000D-01  7.9137953541691D-01  1.8559002196736D-01
    48  4.7000000000000D-01  8.2282389900485D-01  1.5591090426410D-01
    49  4.8000000000000D-01  8.5481253930731D-01  1.2463397460474D-01
    50  4.9000000000000D-01  8.8717791582231D-01  9.2098760655672D-02
    51  5.0000000000000D-01  9.1974257412308D-01  5.8665870500567D-02
    52  5.1000000000000D-01  9.5232115460385D-01  2.4712591766724D-02
    53  5.2000000000000D-01  9.8472251916034D-01 -9.3717665694649D-03
    54  5.3000000000000D-01  1.0167519678205D+00 -4.3190727799160D-02
    55  5.4000000000000D-01  1.0482135159663D+00 -7.6345631594939D-02
    56  5.5000000000000D-01  1.0789122018067D+00 -1.0844068154828D-01
    57  5.6000000000000D-01  1.1086563931955D+00 -1.3908798781644D-01
    58  5.7000000000000D-01  1.1372600627340D+00 -1.6791253625477D-01
    59  5.8000000000000D-01  1.1645450003778D+00 -1.9455701603579D-01
    60  5.9000000000000D-01  1.1903429334613D+00 -2.1868643932392D-01
    61  6.0000000000000D-01  1.2144975251626D+00 -2.3999248904299D-01
    62  6.1000000000000D-01  1.2368662239505D+00 -2.5819753415768D-01
    63  6.2000000000000D-01  1.2573219384384D+00 -2.7305825607631D-01
    64  6.3000000000000D-01  1.2757545143359D+00 -2.8436883481536D-01
    65  6.4000000000000D-01  1.2920719927617D+00 -2.9196364927815D-01
    66  6.5000000000000D-01  1.3062016320603D+00 -2.9571945238857D-01
    67  6.6000000000000D-01  1.3180906784096D+00 -2.9555698879273D-01
    68  6.7000000000000D-01  1.3277068738500D+00 -2.9144203025915D-01
    69  6.8000000000000D-01  1.3350386938944D+00 -2.8338581172361D-01
    70  6.9000000000000D-01  1.3400953105333D+00 -2.7144485903099D-01
    71  7.0000000000000D-01  1.3429062801781D+00 -2.5572020767686D-01
    72  7.1000000000000D-01  1.3435209598307D+00 -2.3635602015691D-01
    73  7.2000000000000D-01  1.3420076585079D+00 -2.1353761780351D-01
    74  7.3000000000000D-01  1.3384525346034D+00 -1.8748895108375D-01
    75  7.4000000000000D-01  1.3329582533982D+00 -1.5846954013608D-01
    76  7.5000000000000D-01  1.3256424222902D+00 -1.2677092475514D-01
    77  7.6000000000000D-01  1.3166358244560D+00 -9.2712669982936D-02
    78  7.7000000000000D-01  1.3060804745235D+00 -5.6637979794960D-02
    79  7.8000000000000D-01  1.2941275224213D+00 -1.8908977084386D-02
    80  7.9000000000000D-01  1.2809350337930D+00  2.0098286948663D-02
    81  8.0000000000000D-01  1.2666656772299D+00  5.9999026786755D-02
    82  8.1000000000000D-01  1.2514843500371D+00  1.0040504953192D-01
    83  8.2000000000000D-01  1.2355557752875D+00  1.4093014207655D-01
    84  8.3000000000000D-01  1.2190421035256D+00  1.8119544448482D-01
    85  8.4000000000000D-01  1.2021005526307D+00  2.2083473524532D-01
    86  8.5000000000000D-01  1.1848811190580D+00  2.5949955474522D-01
    87  8.6000000000000D-01  1.1675243929178D+00  2.9686409500805D-01
    88  8.7000000000000D-01  1.1501595081614D+00  3.3262978641643D-01
    89  8.8000000000000D-01  1.1329022575112D+00  3.6652951577602D-01
    90  8.9000000000000D-01  1.1158533997324D+00  3.9833141462876D-01
    91  9.0000000000000D-01  1.0990971844119D+00  4.2784216213293D-01
    92  9.1000000000000D-01  1.0827001166228D+00  4.5490975303307D-01
    93  9.2000000000000D-01  1.0667099807403D+00  4.7942568816348D-01
    94  9.3000000000000D-01  1.0511551392750D+00  5.0132655247840D-01
    95  9.4000000000000D-01  1.0360441189571D+00  5.2059495368468D-01
    96  9.5000000000000D-01  1.0213654924706D+00  5.3725980305164D-01
    97  9.6000000000000D-01  1.0070880602373D+00  5.5139592886884D-01
    98  9.7000000000000D-01  9.9316133263333D-01  5.6312302192239D-01
    99  9.8000000000000D-01  9.7951630886690D-01  5.7260392159077D-01
   100  9.9000000000000D-01  9.6606654465365D-01  5.8004226023020D-01
   101  1.0000000000000D+00  9.5270949682457D-01  5.8567949239750D-01
   102  1.0100000000000D+00  9.3932812908549D-01  5.8979134413916D-01
   103  1.0200000000000D+00  9.2579275943506D-01  5.9268372580278D-01
   104  1.0300000000000D+00  9.1196312619449D-01  5.9468815970051D-01
   105  1.0400000000000D+00  8.9769064650869D-01  5.9615678080544D-01
   106  1.0500000000000D+00  8.8282083814228D-01  5.9745697538367D-01
   107  1.0600000000000D+00  8.6719587289584D-01  5.9896572799069D-01
   108  1.0700000000000D+00  8.5065722784939D-01  6.0106375194311D-01
   109  1.0800000000000D+00  8.3304839888507D-01  6.0412948225166D-01
   110  1.0900000000000D+00  8.1421763974583D-01  6.0853301263267D-01
   111  1.1000000000000D+00  7.9402068901031D-01  6.1463006014040D-01
   112  1.1100000000000D+00  7.7232344710785D-01  6.2275604150694D-01
   113  1.1200000000000D+00  7.4900456569290D-01  6.3322034482325D-01
   114  1.1300000000000D+00  7.2395791256167D-01  6.4630087825406D-01
   115  1.1400000000000D+00  6.9709487604402D-01  6.6223897579701D-01
   116  1.1500000000000D+00  6.6834647497646D-01  6.8123473524765D-01
   117  1.1600000000000D+00  6.3766524222801D-01  7.0344285937367D-01
   118  1.1700000000000D+00  6.0502685266244D-01  7.2896906481925D-01
   119  1.1800000000000D+00  5.7043146850894D-01  7.5786711860923D-01
   120  1.1900000000000D+00  5.3390477965341D-01  7.9013655202486D-01
   121  1.2000000000000D+00  4.9549871975414D-01  8.2572109408307D-01
   122  1.2100000000000D+00  4.5529184219009D-01  8.6450785994919D-01
   123  1.2200000000000D+00  4.1338934495257D-01  9.0632731827270D-01
   124  1.2300000000000D+00  3.6992273832410D-01  9.5095405092149D-01
   125  1.2400000000000D+00  3.2504915305236D-01  9.9810831000779D-01
   126  1.2500000000000D+00  2.7895029054729D-01  1.0474583686126D+00
   127  1.2600000000000D+00  2.3183102373011D-01  1.0986236458497D+00
   128  1.2700000000000D+00  1.8391766010116D-01  1.1511785803913D+00
   129  1.2800000000000D+00  1.3545588154003D-01  1.2046572200314D+00
   130  1.2900000000000D+00  8.6708383752734D-02  1.2585584762243D+00
   131  1.3000000000000D+00  3.7952239279930D-02  1.3123519903188D+00
   132  1.3100000000000D+00 -1.0523988889395D-02  1.3654845512623D+00
   133  1.3200000000000D+00 -5.8423348505621D-02  1.4173869878109D+00
   134  1.3300000000000D+00 -1.0544378059787D-01  1.4674814608235D+00
   135  1.3400000000000D+00 -1.5128154552545D-01  1.5151890714788D+00
   136  1.3500000000000D+00 -1.9563475092681D-01  1.5599376929069D+00
   137  1.3600000000000D+00 -2.3820694154818D-01  1.6011699363471D+00
   138  1.3700000000000D+00 -2.7871070630588D-01  1.6383511586693D+00
   139  1.3800000000000D+00 -3.1687125963639D-01  1.6709773790052D+00
   140  1.3900000000000D+00 -3.5242995082567D-01  1.6985830873004D+00
   141  1.4000000000000D+00 -3.8514766464148D-01  1.7207487635370D+00
   142  1.4100000000000D+00 -4.1480805648605D-01  1.7371080453049D+00
   143  1.4200000000000D+00 -4.4122058420435D-01  1.7473534970432D+00
   144  1.4300000000000D+00 -4.6422326722695D-01  1.7512415840739D+00
   145  1.4400000000000D+00 -4.8368497506388D-01  1.7485926552865D+00
   146  1.4500000000000D+00 -4.9950732001903D-01  1.7392911066976D+00
   147  1.4600000000000D+00 -5.1162608640198D-01  1.7232864344387D+00
   148  1.4700000000000D+00 -5.2001219001121D-01  1.7005927937717D+00
   149  1.4800000000000D+00 -5.2467218501006D-01  1.6712880266776D+00
   150  1.4900000000000D+00 -5.2564829732238D-01  1.6355124560063D+00
   151  1.5000000000000D+00 -5.2301804053196D-01  1.5934673571423D+00
   152  1.5100000000000D+00 -5.1689341461424D-01  1.5454133600719D+00
   153  1.5200000000000D+00 -5.0741974050214D-01  1.4916686975733D+00
   154  1.5300000000000D+00 -4.9477415065497D-01  1.4326073901210D+00
   155  1.5400000000000D+00 -4.7916377873492D-01  1.3686572639599D+00
   156  1.5500000000000D+00 -4.6082366532247D-01  1.3002977443112D+00
   157  1.5600000000000D+00 -4.4001441701804D-01  1.2280572745789D+00
   158  1.5700000000000D+00 -4.1701962543584D-01  1.1525103183214D+00
   159  1.5800000000000D+00 -3.9214307269354D-01  1.0742736899839D+00
   160  1.5900000000000D+00 -3.6570573546790D-01  9.9400233433093D-01
   161  1.6000000000000D+00 -3.3804259542976D-01  9.1238422650957D-01
   162  1.6100000000000D+00 -3.0949928905302D-01  8.3013466348193D-01
   163  1.6200000000000D+00 -2.8042859517773D-01  7.4798968977871D-01
   164  1.6300000000000D+00 -2.5118681040970D-01  6.6669896239796D-01
   165  1.6400000000000D+00 -2.2213001632364D-01  5.8701794026774D-01
   166  1.6500000000000D+00 -1.9361029819217D-01  5.0969968730946D-01
   167  1.6600000000000D+00 -1.6597193279918D-01  4.3548630427023D-01
   168  1.6700000000000D+00 -1.3954760740192D-01  3.6510023428301D-01
   169  1.6800000000000D+00 -1.1465469955091D-01  2.9923553614165D-01
   170  1.6900000000000D+00 -9.1591677961180D-02  2.3854932392460D-01
   171  1.7000000000000D+00 -7.0634661078482D-02  1.8365350020811D-01
   172  1.7100000000000D+00 -5.2042475717596D-02  1.3512846746257D-01
   173  1.7200000000000D+00 -3.6025527251227D-02  9.3442729284123D-02
   174  1.7300000000000D+00 -2.2716238633800D-02  5.8876737780609D-02
   175  1.7400000000000D+00 -1.2343702689476D-02  3.1976236824967D-02
   176  1.7500000000000D+00 -5.2549257247920D-03  1.3606898471831D-02
   177  1.7600000000000D+00 -1.3486746528686D-03  3.4878299392004D-03
   178  1.7700000000000D+00  1.8191734837493D-04 -4.7589108894249D-04
   179  1.7800000000000D+00  3.1554347355403D-04 -8.1934699873812D-04
   180  1.7900000000000D+00 -1.6475527977965D-05  4.2749871793682D-05
   181  1.8000000000000D+00 -1.1068972904928D-04  2.8710682599320D-04
   182  1.8100000000000D+00 -1.0004683476510D-05  2.5944863489708D-05
   183  1.8200000000000D+00  2.0131033222696D-05 -5.2271950563783D-05
   184  1.8300000000000D+00  6.6027198420816D-06 -1.7142489191500D-05
   185  1.8400000000000D+00 -5.5243746035650D-08  1.5657613306058D-07
   186  1.8500000000000D+00 -3.3559400282302D-08  9.5116669326585D-08
   187  1.8600000000000D+00  0.0000000000000D+00  0.0000000000000D+00
   188  1.8700000000000D+00  0.0000000000000D+00  0.0000000000000D+00
   189  1.8800000000000D+00  0.0000000000000D+00  0.0000000000000D+00
   190  1.8900000000000D+00  0.0000000000000D+00  0.0000000000000D+00
   191  1.9000000000000D+00  0.0000000000000D+00  0.0000000000000D+00
   192  1.9100000000000D+00  0.0000000000000D+00  0.0000000000000D+00
   193  1.9200000000000D+00  0.0000000000000D+00  0.0000000000000D+00
   194  1.9300000000000D+00  0.0000000000000D+00  0.0000000000000D+00
   195  1.9400000000000D+00  0.0000000000000D+00  0.0000000000000D+00
   196  1.9500000000000D+00  0.0000000000000D+00  0.0000000000000D+00
   197  1.9600000000000D+00  0.0000000000000D+00  0.0000000000000D+00
   198  1.9700000000000D+00  0.0000000000000D+00  0.0000000000000D+00
   199  1.9800000000000D+00  0.0000000000000D+00  0.0000000000000D+00
   200  1.9900000000000D+00  0.0000000000000D+00  0.0000000000000D+00
   201  2.0000000000000D+00  0.0000000000000D+00  0.0000000000000D+00
   202  2.0100000000000D+00  0.0000000000000D+00  0.0000000000000D+00
   203  2.0200000000000D+00  0.0000000000000D+00  0.0000000000000D+00
   204  2.0300000000000D+00  0.0000000000000D+00  0.0000000000000D+00
   205  2.0400000000000D+00  0.0000000000000D+00  0.0000000000000D+00
   206  2.0500000000000D+00  0.0000000000000D+00  0.0000000000000D+00
   207  2.0600000000000D+00  0.0000000000000D+00  0.0000000000000D+00
   208  2.0700000000000D+00  0.0000000000000D+00  0.0000000000000D+00
   209  2.0800000000000D+00  0.0000000000000D+00  0.0000000000000D+00
   210  2.0900000000000D+00  0.0000000000000D+00  0.0000000000000D+00
   211  2.1000000000000D+00  0.0000000000000D+00  0.0000000000000D+00
   212  2.1100000000000D+00  0.0000000000000D+00  0.0000000000000D+00
   213  2.1200000000000D+00  0.0000000000000D+00  0.0000000000000D+00
   214  2.1300000000000D+00  0.0000000000000D+00  0.0000000000000D+00
   215  2.1400000000000D+00  0.0000000000000D+00  0.0000000000000D+00
   216  2.1500000000000D+00  0.0000000000000D+00  0.0000000000000D+00
   217  2.1600000000000D+00  0.0000000000000D+00  0.0000000000000D+00
   218  2.1700000000000D+00  0.0000000000000D+00  0.0000000000000D+00
   219  2.1800000000000D+00  0.0000000000000D+00  0.0000000000000D+00
   220  2.1900000000000D+00  0.0000000000000D+00  0.0000000000000D+00
   221  2.2000000000000D+00  0.0000000000000D+00  0.0000000000000D+00
   222  2.2100000000000D+00  0.0000000000000D+00  0.0000000000000D+00
   223  2.2200000000000D+00  0.0000000000000D+00  0.0000000000000D+00
   224  2.2300000000000D+00  0.0000000000000D+00  0.0000000000000D+00
   225  2.2400000000000D+00  0.0000000000000D+00  0.0000000000000D+00
   226  2.2500000000000D+00  0.0000000000000D+00  0.0000000000000D+00
   227  2.2600000000000D+00  0.0000000000000D+00  0.0000000000000D+00
   228  2.2700000000000D+00  0.0000000000000D+00  0.0000000000000D+00
   229  2.2800000000000D+00  0.0000000000000D+00  0.0000000000000D+00
   230  2.2900000000000D+00  0.0000000000000D+00  0.0000000000000D+00
   231  2.3000000000000D+00  0.0000000000000D+00  0.0000000000000D+00
   232  2.3100000000000D+00  0.0000000000000D+00  0.0000000000000D+00
   233  2.3200000000000D+00  0.0000000000000D+00  0.0000000000000D+00
   234  2.3300000000000D+00  0.0000000000000D+00  0.0000000000000D+00
   235  2.3400000000000D+00  0.0000000000000D+00  0.0000000000000D+00
   236  2.3500000000000D+00  0.0000000000000D+00  0.0000000000000D+00
   237  2.3600000000000D+00  0.0000000000000D+00  0.0000000000000D+00
   238  2.3700000000000D+00  0.0000000000000D+00  0.0000000000000D+00
   239  2.3800000000000D+00  0.0000000000000D+00  0.0000000000000D+00
   240  2.3900000000000D+00  0.0000000000000D+00  0.0000000000000D+00
   241  2.4000000000000D+00  0.0000000000000D+00  0.0000000000000D+00
   242  2.4100000000000D+00  0.0000000000000D+00  0.0000000000000D+00
   243  2.4200000000000D+00  0.0000000000000D+00  0.0000000000000D+00
   244  2.4300000000000D+00  0.0000000000000D+00  0.0000000000000D+00
   245  2.4400000000000D+00  0.0000000000000D+00  0.0000000000000D+00
   246  2.4500000000000D+00  0.0000000000000D+00  0.0000000000000D+00
   247  2.4600000000000D+00  0.0000000000000D+00  0.0000000000000D+00
   248  2.4700000000000D+00  0.0000000000000D+00  0.0000000000000D+00
   249  2.4800000000000D+00  0.0000000000000D+00  0.0000000000000D+00
   250  2.4900000000000D+00  0.0000000000000D+00  0.0000000000000D+00
   251  2.5000000000000D+00  0.0000000000000D+00  0.0000000000000D+00
   252  2.5100000000000D+00  0.0000000000000D+00  0.0000000000000D+00
   253  2.5200000000000D+00  0.0000000000000D+00  0.0000000000000D+00
   254  2.5300000000000D+00  0.0000000000000D+00  0.0000000000000D+00
   255  2.5400000000000D+00  0.0000000000000D+00  0.0000000000000D+00
   256  2.5500000000000D+00  0.0000000000000D+00  0.0000000000000D+00
   257  2.5600000000000D+00  0.0000000000000D+00  0.0000000000000D+00
   258  2.5700000000000D+00  0.0000000000000D+00  0.0000000000000D+00
   259  2.5800000000000D+00  0.0000000000000D+00  0.0000000000000D+00
   260  2.5900000000000D+00  0.0000000000000D+00  0.0000000000000D+00
   261  2.6000000000000D+00  0.0000000000000D+00  0.0000000000000D+00
   262  2.6100000000000D+00  0.0000000000000D+00  0.0000000000000D+00
   263  2.6200000000000D+00  0.0000000000000D+00  0.0000000000000D+00
   264  2.6300000000000D+00  0.0000000000000D+00  0.0000000000000D+00
   265  2.6400000000000D+00  0.0000000000000D+00  0.0000000000000D+00
   266  2.6500000000000D+00  0.0000000000000D+00  0.0000000000000D+00
   267  2.6600000000000D+00  0.0000000000000D+00  0.0000000000000D+00
   268  2.6700000000000D+00  0.0000000000000D+00  0.0000000000000D+00
   269  2.6800000000000D+00  0.0000000000000D+00  0.0000000000000D+00
   270  2.6900000000000D+00  0.0000000000000D+00  0.0000000000000D+00
   271  2.7000000000000D+00  0.0000000000000D+00  0.0000000000000D+00
   272  2.7100000000000D+00  0.0000000000000D+00  0.0000000000000D+00
   273  2.7200000000000D+00  0.0000000000000D+00  0.0000000000000D+00
   274  2.7300000000000D+00  0.0000000000000D+00  0.0000000000000D+00
   275  2.7400000000000D+00  0.0000000000000D+00  0.0000000000000D+00
   276  2.7500000000000D+00  0.0000000000000D+00  0.0000000000000D+00
   277  2.7600000000000D+00  0.0000000000000D+00  0.0000000000000D+00
   278  2.7700000000000D+00  0.0000000000000D+00  0.0000000000000D+00
   279  2.7800000000000D+00  0.0000000000000D+00  0.0000000000000D+00
   280  2.7900000000000D+00  0.0000000000000D+00  0.0000000000000D+00
   281  2.8000000000000D+00  0.0000000000000D+00  0.0000000000000D+00
   282  2.8100000000000D+00  0.0000000000000D+00  0.0000000000000D+00
   283  2.8200000000000D+00  0.0000000000000D+00  0.0000000000000D+00
   284  2.8300000000000D+00  0.0000000000000D+00  0.0000000000000D+00
   285  2.8400000000000D+00  0.0000000000000D+00  0.0000000000000D+00
   286  2.8500000000000D+00  0.0000000000000D+00  0.0000000000000D+00
   287  2.8600000000000D+00  0.0000000000000D+00  0.0000000000000D+00
   288  2.8700000000000D+00  0.0000000000000D+00  0.0000000000000D+00
   289  2.8800000000000D+00  0.0000000000000D+00  0.0000000000000D+00
   290  2.8900000000000D+00  0.0000000000000D+00  0.0000000000000D+00
   291  2.9000000000000D+00  0.0000000000000D+00  0.0000000000000D+00
   292  2.9100000000000D+00  0.0000000000000D+00  0.0000000000000D+00
   293  2.9200000000000D+00  0.0000000000000D+00  0.0000000000000D+00
   294  2.9300000000000D+00  0.0000000000000D+00  0.0000000000000D+00
   295  2.9400000000000D+00  0.0000000000000D+00  0.0000000000000D+00
   296  2.9500000000000D+00  0.0000000000000D+00  0.0000000000000D+00
   297  2.9600000000000D+00  0.0000000000000D+00  0.0000000000000D+00
   298  2.9700000000000D+00  0.0000000000000D+00  0.0000000000000D+00
   299  2.9800000000000D+00  0.0000000000000D+00  0.0000000000000D+00
   300  2.9900000000000D+00  0.0000000000000D+00  0.0000000000000D+00
   301  3.0000000000000D+00  0.0000000000000D+00  0.0000000000000D+00
   302  3.0100000000000D+00  0.0000000000000D+00  0.0000000000000D+00
   303  3.0200000000000D+00  0.0000000000000D+00  0.0000000000000D+00
   304  3.0300000000000D+00  0.0000000000000D+00  0.0000000000000D+00
   305  3.0400000000000D+00  0.0000000000000D+00  0.0000000000000D+00
   306  3.0500000000000D+00  0.0000000000000D+00  0.0000000000000D+00
   307  3.0600000000000D+00  0.0000000000000D+00  0.0000000000000D+00
   308  3.0700000000000D+00  0.0000000000000D+00  0.0000000000000D+00
   309  3.0800000000000D+00  0.0000000000000D+00  0.0000000000000D+00
   310  3.0900000000000D+00  0.0000000000000D+00  0.0000000000000D+00
   311  3.1000000000000D+00  0.0000000000000D+00  0.0000000000000D+00
   312  3.1100000000000D+00  0.0000000000000D+00  0.0000000000000D+00
   313  3.1200000000000D+00  0.0000000000000D+00  0.0000000000000D+00
   314  3.1300000000000D+00  0.0000000000000D+00  0.0000000000000D+00
   315  3.1400000000000D+00  0.0000000000000D+00  0.0000000000000D+00
   316  3.1500000000000D+00  0.0000000000000D+00  0.0000000000000D+00
   317  3.1600000000000D+00  0.0000000000000D+00  0.0000000000000D+00
   318  3.1700000000000D+00  0.0000000000000D+00  0.0000000000000D+00
   319  3.1800000000000D+00  0.0000000000000D+00  0.0000000000000D+00
   320  3.1900000000000D+00  0.0000000000000D+00  0.0000000000000D+00
   321  3.2000000000000D+00  0.0000000000000D+00  0.0000000000000D+00
   322  3.2100000000000D+00  0.0000000000000D+00  0.0000000000000D+00
   323  3.2200000000000D+00  0.0000000000000D+00  0.0000000000000D+00
   324  3.2300000000000D+00  0.0000000000000D+00  0.0000000000000D+00
   325  3.2400000000000D+00  0.0000000000000D+00  0.0000000000000D+00
   326  3.2500000000000D+00  0.0000000000000D+00  0.0000000000000D+00
   327  3.2600000000000D+00  0.0000000000000D+00  0.0000000000000D+00
   328  3.2700000000000D+00  0.0000000000000D+00  0.0000000000000D+00
   329  3.2800000000000D+00  0.0000000000000D+00  0.0000000000000D+00
   330  3.2900000000000D+00  0.0000000000000D+00  0.0000000000000D+00
   331  3.3000000000000D+00  0.0000000000000D+00  0.0000000000000D+00
   332  3.3100000000000D+00  0.0000000000000D+00  0.0000000000000D+00
   333  3.3200000000000D+00  0.0000000000000D+00  0.0000000000000D+00
   334  3.3300000000000D+00  0.0000000000000D+00  0.0000000000000D+00
   335  3.3400000000000D+00  0.0000000000000D+00  0.0000000000000D+00
   336  3.3500000000000D+00  0.0000000000000D+00  0.0000000000000D+00
   337  3.3600000000000D+00  0.0000000000000D+00  0.0000000000000D+00
   338  3.3700000000000D+00  0.0000000000000D+00  0.0000000000000D+00
   339  3.3800000000000D+00  0.0000000000000D+00  0.0000000000000D+00
   340  3.3900000000000D+00  0.0000000000000D+00  0.0000000000000D+00
   341  3.4000000000000D+00  0.0000000000000D+00  0.0000000000000D+00
   342  3.4100000000000D+00  0.0000000000000D+00  0.0000000000000D+00
   343  3.4200000000000D+00  0.0000000000000D+00  0.0000000000000D+00
   344  3.4300000000000D+00  0.0000000000000D+00  0.0000000000000D+00
   345  3.4400000000000D+00  0.0000000000000D+00  0.0000000000000D+00
   346  3.4500000000000D+00  0.0000000000000D+00  0.0000000000000D+00
   347  3.4600000000000D+00  0.0000000000000D+00  0.0000000000000D+00
   348  3.4700000000000D+00  0.0000000000000D+00  0.0000000000000D+00
   349  3.4800000000000D+00  0.0000000000000D+00  0.0000000000000D+00
   350  3.4900000000000D+00  0.0000000000000D+00  0.0000000000000D+00
   351  3.5000000000000D+00  0.0000000000000D+00  0.0000000000000D+00
   352  3.5100000000000D+00  0.0000000000000D+00  0.0000000000000D+00
   353  3.5200000000000D+00  0.0000000000000D+00  0.0000000000000D+00
   354  3.5300000000000D+00  0.0000000000000D+00  0.0000000000000D+00
   355  3.5400000000000D+00  0.0000000000000D+00  0.0000000000000D+00
   356  3.5500000000000D+00  0.0000000000000D+00  0.0000000000000D+00
   357  3.5600000000000D+00  0.0000000000000D+00  0.0000000000000D+00
   358  3.5700000000000D+00  0.0000000000000D+00  0.0000000000000D+00
   359  3.5800000000000D+00  0.0000000000000D+00  0.0000000000000D+00
   360  3.5900000000000D+00  0.0000000000000D+00  0.0000000000000D+00
   361  3.6000000000000D+00  0.0000000000000D+00  0.0000000000000D+00
   362  3.6100000000000D+00  0.0000000000000D+00  0.0000000000000D+00
   363  3.6200000000000D+00  0.0000000000000D+00  0.0000000000000D+00
   364  3.6300000000000D+00  0.0000000000000D+00  0.0000000000000D+00
   365  3.6400000000000D+00  0.0000000000000D+00  0.0000000000000D+00
   366  3.6500000000000D+00  0.0000000000000D+00  0.0000000000000D+00
   367  3.6600000000000D+00  0.0000000000000D+00  0.0000000000000D+00
   368  3.6700000000000D+00  0.0000000000000D+00  0.0000000000000D+00
   369  3.6800000000000D+00  0.0000000000000D+00  0.0000000000000D+00
   370  3.6900000000000D+00  0.0000000000000D+00  0.0000000000000D+00
   371  3.7000000000000D+00  0.0000000000000D+00  0.0000000000000D+00
   372  3.7100000000000D+00  0.0000000000000D+00  0.0000000000000D+00
   373  3.7200000000000D+00  0.0000000000000D+00  0.0000000000000D+00
   374  3.7300000000000D+00  0.0000000000000D+00  0.0000000000000D+00
   375  3.7400000000000D+00  0.0000000000000D+00  0.0000000000000D+00
   376  3.7500000000000D+00  0.0000000000000D+00  0.0000000000000D+00
   377  3.7600000000000D+00  0.0000000000000D+00  0.0000000000000D+00
   378  3.7700000000000D+00  0.0000000000000D+00  0.0000000000000D+00
   379  3.7800000000000D+00  0.0000000000000D+00  0.0000000000000D+00
   380  3.7900000000000D+00  0.0000000000000D+00  0.0000000000000D+00
   381  3.8000000000000D+00  0.0000000000000D+00  0.0000000000000D+00
   382  3.8100000000000D+00  0.0000000000000D+00  0.0000000000000D+00
   383  3.8200000000000D+00  0.0000000000000D+00  0.0000000000000D+00
   384  3.8300000000000D+00  0.0000000000000D+00  0.0000000000000D+00
   385  3.8400000000000D+00  0.0000000000000D+00  0.0000000000000D+00
   386  3.8500000000000D+00  0.0000000000000D+00  0.0000000000000D+00
   387  3.8600000000000D+00  0.0000000000000D+00  0.0000000000000D+00
   388  3.8700000000000D+00  0.0000000000000D+00  0.0000000000000D+00
   389  3.8800000000000D+00  0.0000000000000D+00  0.0000000000000D+00
   390  3.8900000000000D+00  0.0000000000000D+00  0.0000000000000D+00
   391  3.9000000000000D+00  0.0000000000000D+00  0.0000000000000D+00
   392  3.9100000000000D+00  0.0000000000000D+00  0.0000000000000D+00
   393  3.9200000000000D+00  0.0000000000000D+00  0.0000000000000D+00
   394  3.9300000000000D+00  0.0000000000000D+00  0.0000000000000D+00
   395  3.9400000000000D+00  0.0000000000000D+00  0.0000000000000D+00
   396  3.9500000000000D+00  0.0000000000000D+00  0.0000000000000D+00
   397  3.9600000000000D+00  0.0000000000000D+00  0.0000000000000D+00
   398  3.9700000000000D+00  0.0000000000000D+00  0.0000000000000D+00
   399  3.9800000000000D+00  0.0000000000000D+00  0.0000000000000D+00
   400  3.9900000000000D+00  0.0000000000000D+00  0.0000000000000D+00
   401  4.0000000000000D+00  0.0000000000000D+00  0.0000000000000D+00
   402  4.0100000000000D+00  0.0000000000000D+00  0.0000000000000D+00
   403  4.0200000000000D+00  0.0000000000000D+00  0.0000000000000D+00
   404  4.0300000000000D+00  0.0000000000000D+00  0.0000000000000D+00
   405  4.0400000000000D+00  0.0000000000000D+00  0.0000000000000D+00
   406  4.0500000000000D+00  0.0000000000000D+00  0.0000000000000D+00
   407  4.0600000000000D+00  0.0000000000000D+00  0.0000000000000D+00
   408  4.0700000000000D+00  0.0000000000000D+00  0.0000000000000D+00
   409  4.0800000000000D+00  0.0000000000000D+00  0.0000000000000D+00
   410  4.0900000000000D+00  0.0000000000000D+00  0.0000000000000D+00
   411  4.1000000000000D+00  0.0000000000000D+00  0.0000000000000D+00
   412  4.1100000000000D+00  0.0000000000000D+00  0.0000000000000D+00
   413  4.1200000000000D+00  0.0000000000000D+00  0.0000000000000D+00
   414  4.1300000000000D+00  0.0000000000000D+00  0.0000000000000D+00
   415  4.1400000000000D+00  0.0000000000000D+00  0.0000000000000D+00
   416  4.1500000000000D+00  0.0000000000000D+00  0.0000000000000D+00
   417  4.1600000000000D+00  0.0000000000000D+00  0.0000000000000D+00
   418  4.1700000000000D+00  0.0000000000000D+00  0.0000000000000D+00
   419  4.1800000000000D+00  0.0000000000000D+00  0.0000000000000D+00
   420  4.1900000000000D+00  0.0000000000000D+00  0.0000000000000D+00
   421  4.2000000000000D+00  0.0000000000000D+00  0.0000000000000D+00
   422  4.2100000000000D+00  0.0000000000000D+00  0.0000000000000D+00