Al    ONCVPSP-3.2.3  r_core=   1.76802   1.76802   1.70587
     13.0000      3.0000      170221    zatom,zion,pspd
     8      11   2     4   600     0    pspcod,pspxc,lmax,lloc,mmax,r2well
  5.99000000  5.00000000  0.00000000    rchrg fchrg qchrg
     2     2     2     0     0    nproj
     1     1           extension_switch
   0                         5.1894566695772D+00  7.4153140170190D-01
     1  0.0000000000000D+00 -1.3057839531871D-09  2.8361857437251D-09
     2  1.0000000000000D-02  1.9650296536804D-02 -2.6138787768873D-03
     3  2.0000000000000D-02  3.9212449718340D-02 -5.0283280114341D-03
     4  3.0000000000000D-02  5.8599887555448D-02 -7.0473839050654D-03
     5  4.0000000000000D-02  7.7729157033246D-02 -8.4819624508141D-03
     6  5.0000000000000D-02  9.6521424541490D-02 -9.1531708236621D-03
     7  6.0000000000000D-02  1.1490390637880D-01 -8.8954666103356D-03
     8  7.0000000000000D-02  1.3281120757790D-01 -7.5596175378292D-03
     9  8.0000000000000D-02  1.5018654860493D-01 -5.0154171961166D-03
    10  9.0000000000000D-02  1.6698286108346D-01 -1.1541157209479D-03
    11  1.0000000000000D-01  1.8316373556165D-01  4.1094715409352D-03
    12  1.1000000000000D-01  1.9870420645228D-01  1.0835209775725D-02
    13  1.2000000000000D-01  2.1359136160133D-01  1.9056272195605D-02
    14  1.3000000000000D-01  2.2782476644821D-01  2.8778171173881D-02
    15  1.4000000000000D-01  2.4141669539607D-01  3.9978209148904D-02
    16  1.5000000000000D-01  2.5439216577499D-01  5.2605359418247D-02
    17  1.6000000000000D-01  2.6678877261713D-01  6.6580580784546D-02
    18  1.7000000000000D-01  2.7865632533092D-01  8.1797563785032D-02
    19  1.8000000000000D-01  2.9005629022082D-01  9.8123900026084D-02
    20  1.9000000000000D-01  3.0106104561006D-01  1.1540266003820D-01
    21  2.0000000000000D-01  3.1175295904730D-01  1.3345435915211D-01
    22  2.1000000000000D-01  3.2222329867472D-01  1.5207928525580D-01
    23  2.2000000000000D-01  3.3257099326974D-01  1.7106015700463D-01
    24  2.3000000000000D-01  3.4290125770903D-01  1.9016507619817D-01
    25  2.4000000000000D-01  3.5332410261245D-01  2.0915073367399D-01
    26  2.5000000000000D-01  3.6395274867455D-01  2.2776582426691D-01
    27  2.6000000000000D-01  3.7490196766002D-01  2.4575462319106D-01
    28  2.7000000000000D-01  3.8628637320364D-01  2.6286067367368D-01
    29  2.8000000000000D-01  3.9821868539901D-01  2.7883053383492D-01
    30  2.9000000000000D-01  4.1080799367033D-01  2.9341752969958D-01
    31  3.0000000000000D-01  4.2415804259041D-01  3.0638546085857D-01
    32  3.1000000000000D-01  4.3836556513151D-01  3.1751220567920D-01
    33  3.2000000000000D-01  4.5351868731581D-01  3.2659317409045D-01
    34  3.3000000000000D-01  4.6969542737570D-01  3.3344455782827D-01
    35  3.4000000000000D-01  4.8696231134952D-01  3.3790633059491D-01
    36  3.5000000000000D-01  5.0537312554451D-01  3.3984495382895D-01
    37  3.6000000000000D-01  5.2496782451168D-01  3.3915574765989D-01
    38  3.7000000000000D-01  5.4577161112388D-01  3.3576489107764D-01
    39  3.8000000000000D-01  5.6779420305370D-01  3.2963102032625D-01
    40  3.9000000000000D-01  5.9102929744482D-01  3.2074639996348D-01
    41  4.0000000000000D-01  6.1545424289119D-01  3.0913764684062D-01
    42  4.1000000000000D-01  6.4102992502088D-01  2.9486599337168D-01
    43  4.2000000000000D-01  6.6770086906299D-01  2.7802708279217D-01
    44  4.3000000000000D-01  6.9539555979686D-01  2.5875029557233D-01
    45  4.4000000000000D-01  7.2402697628420D-01  2.3719761265397D-01
    46  4.5000000000000D-01  7.5349333580742D-01  2.1356202763904D-01
    47  4.6000000000000D-01  7.8367903852301D-01  1.8806552637932D-01
    48  4.7000000000000D-01  8.1445580152706D-01  1.6095665851399D-01
    49  4.8000000000000D-01  8.4568396836140D-01  1.3250773128871D-01
    50  4.9000000000000D-01  8.7721397749832D-01  1.0301166138829D-01
    51  5.0000000000000D-01  9.0888797106767D-01  7.2778525443904D-02
    52  5.1000000000000D-01  9.4054152306120D-01  4.2131854271596D-02
    53  5.2000000000000D-01  9.7200546449670D-01  1.1404719693135D-02
    54  5.3000000000000D-01  1.0031077815730D+00 -1.9064334069359D-02
    55  5.4000000000000D-01  1.0336755617177D+00 -4.8935459991864D-02
    56  5.5000000000000D-01  1.0635369616387D+00 -7.7871722703828D-02
    57  5.6000000000000D-01  1.0925231710542D+00 -1.0554330072391D-01
    58  5.7000000000000D-01  1.1204703456936D+00 -1.3163161924116D-01
    59  5.8000000000000D-01  1.1472214834482D+00 -1.5583335683062D-01
    60  5.9000000000000D-01  1.1726282181903D+00 -1.7786427090540D-01
    61  6.0000000000000D-01  1.1965525067771D+00 -1.9746278887344D-01
    62  6.1000000000000D-01  1.2188681860929D+00 -2.1439331489547D-01
    63  6.2000000000000D-01  1.2394623786397D+00 -2.2844920573900D-01
    64  6.3000000000000D-01  1.2582367271584D+00 -2.3945537352311D-01
    65  6.4000000000000D-01  1.2751084409993D+00 -2.4727047801254D-01
    66  6.5000000000000D-01  1.2900111394514D+00 -2.5178867654081D-01
    67  6.6000000000000D-01  1.3028954799549D+00 -2.5294090554470D-01
    68  6.7000000000000D-01  1.3137295620023D+00 -2.5069567395707D-01
    69  6.8000000000000D-01  1.3224991005634D+00 -2.4505935529299D-01
    70  6.9000000000000D-01  1.3292073660086D+00 -2.3607597208400D-01
    71  7.0000000000000D-01  1.3338748906902D+00 -2.2382647324251D-01
    72  7.1000000000000D-01  1.3365389455492D+00 -2.0842751190058D-01
    73  7.2000000000000D-01  1.3372527932973D+00 -1.9002973818443D-01
    74  7.3000000000000D-01  1.3360847278346D+00 -1.6881562814485D-01
    75  7.4000000000000D-01  1.3331169125602D+00 -1.4499687656109D-01
    76  7.5000000000000D-01  1.3284440330719D+00 -1.1881138751011D-01
    77  7.6000000000000D-01  1.3221717824074D+00 -9.0519902347261D-02
    78  7.7000000000000D-01  1.3144151993826D+00 -6.0402309967649D-02
    79  7.8000000000000D-01  1.3052968827513D+00 -2.8753688910610D-02
    80  7.9000000000000D-01  1.2949451057531D+00  4.1198651293044D-03
    81  8.0000000000000D-01  1.2834918571540D+00  3.7905569497026D-02
    82  8.1000000000000D-01  1.2710708360681D+00  7.2288383026305D-02
    83  8.2000000000000D-01  1.2578154286719D+00  1.0695547152106D-01
    84  8.3000000000000D-01  1.2438566953641D+00  1.4160064809750D-01
    85  8.4000000000000D-01  1.2293213969809D+00  1.7592872610774D-01
    86  8.5000000000000D-01  1.2143300883460D+00  2.0965972310510D-01
    87  8.6000000000000D-01  1.1989953067065D+00  2.4253285589652D-01
    88  8.7000000000000D-01  1.1834198815100D+00  2.7431026914059D-01
    89  8.8000000000000D-01  1.1676953904993D+00  3.0478044316602D-01
    90  8.9000000000000D-01  1.1519007852799D+00  3.3376123066765D-01
    91  9.0000000000000D-01  1.1361012073581D+00  3.6110247663609D-01
    92  9.1000000000000D-01  1.1203470131897D+00  3.8668818123731D-01
    93  9.2000000000000D-01  1.1046730240454D+00  4.1043817131123D-01
    94  9.3000000000000D-01  1.0890980135295D+00  4.3230925263007D-01
    95  9.4000000000000D-01  1.0736244424134D+00  4.5229582196455D-01
    96  9.5000000000000D-01  1.0582384471231D+00  4.7042992524800D-01
    97  9.6000000000000D-01  1.0429100847399D+00  4.8678075569347D-01
    98  9.7000000000000D-01  1.0275938339091D+00  5.0145359326582D-01
    99  9.8000000000000D-01  1.0122293474604D+00  5.1458819472165D-01
   100  9.9000000000000D-01  9.9674244902567D-01  5.2635665108500D-01
   101  1.0000000000000D+00  9.8104636250390D-01  5.3696073690197D-01
   102  1.0100000000000D+00  9.6504315987039D-01  5.4662878290684D-01
   103  1.0200000000000D+00  9.4862540966251D-01  5.5561211062004D-01
   104  1.0300000000000D+00  9.3167800545178D-01  5.6418107396645D-01
   105  1.0400000000000D+00  9.1408015099547D-01  5.7262075869364D-01
   106  1.0500000000000D+00  8.9570747620360D-01  5.8122639592741D-01
   107  1.0600000000000D+00  8.7643425597198D-01  5.9029855073428D-01
   108  1.0700000000000D+00  8.5613570217927D-01  6.0013815036696D-01
   109  1.0800000000000D+00  8.3469029771882D-01  6.1104141996924D-01
   110  1.0900000000000D+00  8.1198214049076D-01  6.2329479556531D-01
   111  1.1000000000000D+00  7.8790326461833D-01  6.3716988559293D-01
   112  1.1100000000000D+00  7.6235590603795D-01  6.5291855248082D-01
   113  1.1200000000000D+00  7.3525467987780D-01  6.7076818518811D-01
   114  1.1300000000000D+00  7.0652863790279D-01  6.9091723173859D-01
   115  1.1400000000000D+00  6.7612317503586D-01  7.1353105918471D-01
   116  1.1500000000000D+00  6.4400175598368D-01  7.3873820403866D-01
   117  1.1600000000000D+00  6.1014743469281D-01  7.6662707250811D-01
   118  1.1700000000000D+00  5.7456414199736D-01  7.9724314413713D-01
   119  1.1800000000000D+00  5.3727771870565D-01  8.3058672834329D-01
   120  1.1900000000000D+00  4.9833667543158D-01  8.6661131450835D-01
   121  1.2000000000000D+00  4.5781266348588D-01  9.0522254972921D-01
   122  1.2100000000000D+00  4.1580064390282D-01  9.4627787232732D-01
   123  1.2200000000000D+00  3.7241874619548D-01  9.8958681938315D-01
   124  1.2300000000000D+00  3.2780781259865D-01  1.0349120174973D+00
   125  1.2400000000000D+00  2.8213062695464D-01  1.0819708585895D+00
   126  1.2500000000000D+00  2.3557083076202D-01  1.1304378552260D+00
   127  1.2600000000000D+00  1.8833153511950D-01  1.1799476564491D+00
   128  1.2700000000000D+00  1.4063363985106D-01  1.2300986995291D+00
   129  1.2800000000000D+00  9.2713873686927D-02  1.2804574674246D+00
   130  1.2900000000000D+00  4.4822576672855D-02  1.3305633058654D+00
   131  1.3000000000000D+00 -2.7787531757776D-03  1.3799337521346D+00
   132  1.3100000000000D+00 -4.9820124218763D-02  1.4280703216684D+00
   133  1.3200000000000D+00 -9.6025895295342D-02  1.4744646844923D+00
   134  1.3300000000000D+00 -1.4111776935763D-01  1.5186051657083D+00
   135  1.3400000000000D+00 -1.8481790259967D-01  1.5599834959750D+00
   136  1.3500000000000D+00 -2.2685209192674D-01  1.5981017311418D+00
   137  1.3600000000000D+00 -2.6695300494426D-01  1.6324792631769D+00
   138  1.3700000000000D+00 -3.0486341278159D-01  1.6626598420109D+00
   139  1.3800000000000D+00 -3.4033938757344D-01  1.6882184890097D+00
   140  1.3900000000000D+00 -3.7315342346946D-01  1.7087682968823D+00
   141  1.4000000000000D+00 -4.0309744946001D-01  1.7239669489389D+00
   142  1.4100000000000D+00 -4.2998568221489D-01  1.7335229076506D+00
   143  1.4200000000000D+00 -4.5365728400373D-01  1.7372002499563D+00
   144  1.4300000000000D+00 -4.7397876239755D-01  1.7348227558423D+00
   145  1.4400000000000D+00 -4.9084590925295D-01  1.7262731145109D+00
   146  1.4500000000000D+00 -5.0418537024832D-01  1.7114923702018D+00
   147  1.4600000000000D+00 -5.1395578349906D-01  1.6904803183200D+00
   148  1.4700000000000D+00 -5.2014847931834D-01  1.6632945047006D+00
   149  1.4800000000000D+00 -5.2278776270627D-01  1.6300487841830D+00
   150  1.4900000000000D+00 -5.2193076327204D-01  1.5909117440033D+00
   151  1.5000000000000D+00 -5.1766690812815D-01  1.5461049030838D+00
   152  1.5100000000000D+00 -5.1011702276591D-01  1.4959009462879D+00
   153  1.5200000000000D+00 -4.9943211180495D-01  1.4406219078911D+00
   154  1.5300000000000D+00 -4.8579184141068D-01  1.3806373967850D+00
   155  1.5400000000000D+00 -4.6940276589279D-01  1.3163627599062D+00
   156  1.5500000000000D+00 -4.5049631334531D-01  1.2482571219655D+00
   157  1.5600000000000D+00 -4.2932656772905D-01  1.1768211545810D+00
   158  1.5700000000000D+00 -4.0616784888609D-01  1.1025945209394D+00
   159  1.5800000000000D+00 -3.8131211719344D-01  1.0261527460656D+00
   160  1.5900000000000D+00 -3.5506620848204D-01  9.4810361616306D-01
   161  1.6000000000000D+00 -3.2774890611900D-01  8.6908278204364D-01
   162  1.6100000000000D+00 -2.9968787690118D-01  7.8974881860640D-01
   163  1.6200000000000D+00 -2.7121646673229D-01  7.1077748196754D-01
   164  1.6300000000000D+00 -2.4267040036775D-01  6.3285545089543D-01
   165  1.6400000000000D+00 -2.1438438562401D-01  5.5667343170800D-01
   166  1.6500000000000D+00 -1.8668867639908D-01  4.8291889866290D-01
   167  1.6600000000000D+00 -1.5990560786969D-01  4.1226847521441D-01
   168  1.6700000000000D+00 -1.3434616081056D-01  3.4538018537674D-01
   169  1.6800000000000D+00 -1.1030658036207D-01  2.8288565765243D-01
   170  1.6900000000000D+00 -8.8065104595706D-02  2.2538246582314D-01
   171  1.7000000000000D+00 -6.7878835238692D-02  1.7342672198880D-01
   172  1.7100000000000D+00 -4.9988748743032D-02  1.2754635725980D-01
   173  1.7200000000000D+00 -3.4589988958827D-02  8.8165664464336D-02
   174  1.7300000000000D+00 -2.1803660300136D-02  5.5533841112984D-02
   175  1.7400000000000D+00 -1.1844397013941D-02  3.0152441397370D-02
   176  1.7500000000000D+00 -5.0407966746525D-03  1.2826976684745D-02
   177  1.7600000000000D+00 -1.2927440078146D-03  3.2853768150971D-03
   178  1.7700000000000D+00  1.7532057504476D-04 -4.5085068230653D-04
   179  1.7800000000000D+00  3.0300930312147D-04 -7.7331452132089D-04
   180  1.7900000000000D+00 -1.5819034291676D-05  4.0341293881282D-05
   181  1.8000000000000D+00 -1.0625992938806D-04  2.7088021402180D-04
   182  1.8100000000000D+00 -9.6033154774043D-06  2.4475959946526D-05
   183  1.8200000000000D+00  1.9336703880368D-05 -4.9345946391471D-05
   184  1.8300000000000D+00  6.3418359589080D-06 -1.6181951912401D-05
   185  1.8400000000000D+00 -5.5345387522165D-08  1.5399478561752D-07
   186  1.8500000000000D+00 -3.3621145322709D-08  9.3548555678874D-08
   187  1.8600000000000D+00  0.0000000000000D+00  0.0000000000000D+00
   188  1.8700000000000D+00  0.0000000000000D+00  0.0000000000000D+00
   189  1.8800000000000D+00  0.0000000000000D+00  0.0000000000000D+00
   190  1.8900000000000D+00  0.0000000000000D+00  0.0000000000000D+00
   191  1.9000000000000D+00  0.0000000000000D+00  0.0000000000000D+00
   192  1.9100000000000D+00  0.0000000000000D+00  0.0000000000000D+00
   193  1.9200000000000D+00  0.0000000000000D+00  0.0000000000000D+00
   194  1.9300000000000D+00  0.0000000000000D+00  0.0000000000000D+00
   195  1.9400000000000D+00  0.0000000000000D+00  0.0000000000000D+00
   196  1.9500000000000D+00  0.0000000000000D+00  0.0000000000000D+00
   197  1.9600000000000D+00  0.0000000000000D+00  0.0000000000000D+00
   198  1.9700000000000D+00  0.0000000000000D+00  0.0000000000000D+00
   199  1.9800000000000D+00  0.0000000000000D+00  0.0000000000000D+00
   200  1.9900000000000D+00  0.0000000000000D+00  0.0000000000000D+00
   201  2.0000000000000D+00  0.0000000000000D+00  0.0000000000000D+00
   202  2.0100000000000D+00  0.0000000000000D+00  0.0000000000000D+00
   203  2.0200000000000D+00  0.0000000000000D+00  0.0000000000000D+00
   204  2.0300000000000D+00  0.0000000000000D+00  0.0000000000000D+00
   205  2.0400000000000D+00  0.0000000000000D+00  0.0000000000000D+00
   206  2.0500000000000D+00  0.0000000000000D+00  0.0000000000000D+00
   207  2.0600000000000D+00  0.0000000000000D+00  0.0000000000000D+00
   208  2.0700000000000D+00  0.0000000000000D+00  0.0000000000000D+00
   209  2.0800000000000D+00  0.0000000000000D+00  0.0000000000000D+00
   210  2.0900000000000D+00  0.0000000000000D+00  0.0000000000000D+00
   211  2.1000000000000D+00  0.0000000000000D+00  0.0000000000000D+00
   212  2.1100000000000D+00  0.0000000000000D+00  0.0000000000000D+00
   213  2.1200000000000D+00  0.0000000000000D+00  0.0000000000000D+00
   214  2.1300000000000D+00  0.0000000000000D+00  0.0000000000000D+00
   215  2.1400000000000D+00  0.0000000000000D+00  0.0000000000000D+00
   216  2.1500000000000D+00  0.0000000000000D+00  0.0000000000000D+00
   217  2.1600000000000D+00  0.0000000000000D+00  0.0000000000000D+00
   218  2.1700000000000D+00  0.0000000000000D+00  0.0000000000000D+00
   219  2.1800000000000D+00  0.0000000000000D+00  0.0000000000000D+00
   220  2.1900000000000D+00  0.0000000000000D+00  0.0000000000000D+00
   221  2.2000000000000D+00  0.0000000000000D+00  0.0000000000000D+00
   222  2.2100000000000D+00  0.0000000000000D+00  0.0000000000000D+00
   223  2.2200000000000D+00  0.0000000000000D+00  0.0000000000000D+00
   224  2.2300000000000D+00  0.0000000000000D+00  0.0000000000000D+00
   225  2.2400000000000D+00  0.0000000000000D+00  0.0000000000000D+00
   226  2.2500000000000D+00  0.0000000000000D+00  0.0000000000000D+00
   227  2.2600000000000D+00  0.0000000000000D+00  0.0000000000000D+00
   228  2.2700000000000D+00  0.0000000000000D+00  0.0000000000000D+00
   229  2.2800000000000D+00  0.0000000000000D+00  0.0000000000000D+00
   230  2.2900000000000D+00  0.0000000000000D+00  0.0000000000000D+00
   231  2.3000000000000D+00  0.0000000000000D+00  0.0000000000000D+00
   232  2.3100000000000D+00  0.0000000000000D+00  0.0000000000000D+00
   233  2.3200000000000D+00  0.0000000000000D+00  0.0000000000000D+00
   234  2.3300000000000D+00  0.0000000000000D+00  0.0000000000000D+00
   235  2.3400000000000D+00  0.0000000000000D+00  0.0000000000000D+00
   236  2.3500000000000D+00  0.0000000000000D+00  0.0000000000000D+00
   237  2.3600000000000D+00  0.0000000000000D+00  0.0000000000000D+00
   238  2.3700000000000D+00  0.0000000000000D+00  0.0000000000000D+00
   239  2.3800000000000D+00  0.0000000000000D+00  0.0000000000000D+00
   240  2.3900000000000D+00  0.0000000000000D+00  0.0000000000000D+00
   241  2.4000000000000D+00  0.0000000000000D+00  0.0000000000000D+00
   242  2.4100000000000D+00  0.0000000000000D+00  0.0000000000000D+00
   243  2.4200000000000D+00  0.0000000000000D+00  0.0000000000000D+00
   244  2.4300000000000D+00  0.0000000000000D+00  0.0000000000000D+00
   245  2.4400000000000D+00  0.0000000000000D+00  0.0000000000000D+00
   246  2.4500000000000D+00  0.0000000000000D+00  0.0000000000000D+00
   247  2.4600000000000D+00  0.0000000000000D+00  0.0000000000000D+00
   248  2.4700000000000D+00  0.0000000000000D+00  0.0000000000000D+00
   249  2.4800000000000D+00  0.0000000000000D+00  0.0000000000000D+00
   250  2.4900000000000D+00  0.0000000000000D+00  0.0000000000000D+00
   251  2.5000000000000D+00  0.0000000000000D+00  0.0000000000000D+00
   252  2.5100000000000D+00  0.0000000000000D+00  0.0000000000000D+00
   253  2.5200000000000D+00  0.0000000000000D+00  0.0000000000000D+00
   254  2.5300000000000D+00  0.0000000000000D+00  0.0000000000000D+00
   255  2.5400000000000D+00  0.0000000000000D+00  0.0000000000000D+00
   256  2.5500000000000D+00  0.0000000000000D+00  0.0000000000000D+00
   257  2.5600000000000D+00  0.0000000000000D+00  0.0000000000000D+00
   258  2.5700000000000D+00  0.0000000000000D+00  0.0000000000000D+00
   259  2.5800000000000D+00  0.0000000000000D+00  0.0000000000000D+00
   260  2.5900000000000D+00  0.0000000000000D+00  0.0000000000000D+00
   261  2.6000000000000D+00  0.0000000000000D+00  0.0000000000000D+00
   262  2.6100000000000D+00  0.0000000000000D+00  0.0000000000000D+00
   263  2.6200000000000D+00  0.0000000000000D+00  0.0000000000000D+00
   264  2.6300000000000D+00  0.0000000000000D+00  0.0000000000000D+00
   265  2.6400000000000D+00  0.0000000000000D+00  0.0000000000000D+00
   266  2.6500000000000D+00  0.0000000000000D+00  0.0000000000000D+00
   267  2.6600000000000D+00  0.0000000000000D+00  0.0000000000000D+00
   268  2.6700000000000D+00  0.0000000000000D+00  0.0000000000000D+00
   269  2.6800000000000D+00  0.0000000000000D+00  0.0000000000000D+00
   270  2.6900000000000D+00  0.0000000000000D+00  0.0000000000000D+00
   271  2.7000000000000D+00  0.0000000000000D+00  0.0000000000000D+00
   272  2.7100000000000D+00  0.0000000000000D+00  0.0000000000000D+00
   273  2.7200000000000D+00  0.0000000000000D+00  0.0000000000000D+00
   274  2.7300000000000D+00  0.0000000000000D+00  0.0000000000000D+00
   275  2.7400000000000D+00  0.0000000000000D+00  0.0000000000000D+00
   276  2.7500000000000D+00  0.0000000000000D+00  0.0000000000000D+00
   277  2.7600000000000D+00  0.0000000000000D+00  0.0000000000000D+00
   278  2.7700000000000D+00  0.0000000000000D+00  0.0000000000000D+00
   279  2.7800000000000D+00  0.0000000000000D+00  0.0000000000000D+00
   280  2.7900000000000D+00  0.0000000000000D+00  0.0000000000000D+00
   281  2.8000000000000D+00  0.0000000000000D+00  0.0000000000000D+00
   282  2.8100000000000D+00  0.0000000000000D+00  0.0000000000000D+00
   283  2.8200000000000D+00  0.0000000000000D+00  0.0000000000000D+00
   284  2.8300000000000D+00  0.0000000000000D+00  0.0000000000000D+00
   285  2.8400000000000D+00  0.0000000000000D+00  0.0000000000000D+00
   286  2.8500000000000D+00  0.0000000000000D+00  0.0000000000000D+00
   287  2.8600000000000D+00  0.0000000000000D+00  0.0000000000000D+00
   288  2.8700000000000D+00  0.0000000000000D+00  0.0000000000000D+00
   289  2.8800000000000D+00  0.0000000000000D+00  0.0000000000000D+00
   290  2.8900000000000D+00  0.0000000000000D+00  0.0000000000000D+00
   291  2.9000000000000D+00  0.0000000000000D+00  0.0000000000000D+00
   292  2.9100000000000D+00  0.0000000000000D+00  0.0000000000000D+00
   293  2.9200000000000D+00  0.0000000000000D+00  0.0000000000000D+00
   294  2.9300000000000D+00  0.0000000000000D+00  0.0000000000000D+00
   295  2.9400000000000D+00  0.0000000000000D+00  0.0000000000000D+00
   296  2.9500000000000D+00  0.0000000000000D+00  0.0000000000000D+00
   297  2.9600000000000D+00  0.0000000000000D+00  0.0000000000000D+00
   298  2.9700000000000D+00  0.0000000000000D+00  0.0000000000000D+00
   299  2.9800000000000D+00  0.0000000000000D+00  0.0000000000000D+00
   300  2.9900000000000D+00  0.0000000000000D+00  0.0000000000000D+00
   301  3.0000000000000D+00  0.0000000000000D+00  0.0000000000000D+00
   302  3.0100000000000D+00  0.0000000000000D+00  0.0000000000000D+00
   303  3.0200000000000D+00  0.0000000000000D+00  0.0000000000000D+00
   304  3.0300000000000D+00  0.0000000000000D+00  0.0000000000000D+00
   305  3.0400000000000D+00  0.0000000000000D+00  0.0000000000000D+00
   306  3.0500000000000D+00  0.0000000000000D+00  0.0000000000000D+00
   307  3.0600000000000D+00  0.0000000000000D+00  0.0000000000000D+00
   308  3.0700000000000D+00  0.0000000000000D+00  0.0000000000000D+00
   309  3.0800000000000D+00  0.0000000000000D+00  0.0000000000000D+00
   310  3.0900000000000D+00  0.0000000000000D+00  0.0000000000000D+00
   311  3.1000000000000D+00  0.0000000000000D+00  0.0000000000000D+00
   312  3.1100000000000D+00  0.0000000000000D+00  0.0000000000000D+00
   313  3.1200000000000D+00  0.0000000000000D+00  0.0000000000000D+00
   314  3.1300000000000D+00  0.0000000000000D+00  0.0000000000000D+00
   315  3.1400000000000D+00  0.0000000000000D+00  0.0000000000000D+00
   316  3.1500000000000D+00  0.0000000000000D+00  0.0000000000000D+00
   317  3.1600000000000D+00  0.0000000000000D+00  0.0000000000000D+00
   318  3.1700000000000D+00  0.0000000000000D+00  0.0000000000000D+00
   319  3.1800000000000D+00  0.0000000000000D+00  0.0000000000000D+00
   320  3.1900000000000D+00  0.0000000000000D+00  0.0000000000000D+00
   321  3.2000000000000D+00  0.0000000000000D+00  0.0000000000000D+00
   322  3.2100000000000D+00  0.0000000000000D+00  0.0000000000000D+00
   323  3.2200000000000D+00  0.0000000000000D+00  0.0000000000000D+00
   324  3.2300000000000D+00  0.0000000000000D+00  0.0000000000000D+00
   325  3.2400000000000D+00  0.0000000000000D+00  0.0000000000000D+00
   326  3.2500000000000D+00  0.0000000000000D+00  0.0000000000000D+00
   327  3.2600000000000D+00  0.0000000000000D+00  0.0000000000000D+00
   328  3.2700000000000D+00  0.0000000000000D+00  0.0000000000000D+00
   329  3.2800000000000D+00  0.0000000000000D+00  0.0000000000000D+00
   330  3.2900000000000D+00  0.0000000000000D+00  0.0000000000000D+00
   331  3.3000000000000D+00  0.0000000000000D+00  0.0000000000000D+00
   332  3.3100000000000D+00  0.0000000000000D+00  0.0000000000000D+00
   333  3.3200000000000D+00  0.0000000000000D+00  0.0000000000000D+00
   334  3.3300000000000D+00  0.0000000000000D+00  0.0000000000000D+00
   335  3.3400000000000D+00  0.0000000000000D+00  0.0000000000000D+00
   336  3.3500000000000D+00  0.0000000000000D+00  0.0000000000000D+00
   337  3.3600000000000D+00  0.0000000000000D+00  0.0000000000000D+00
   338  3.3700000000000D+00  0.0000000000000D+00  0.0000000000000D+00
   339  3.3800000000000D+00  0.0000000000000D+00  0.0000000000000D+00
   340  3.3900000000000D+00  0.0000000000000D+00  0.0000000000000D+00
   341  3.4000000000000D+00  0.0000000000000D+00  0.0000000000000D+00
   342  3.4100000000000D+00  0.0000000000000D+00  0.0000000000000D+00
   343  3.4200000000000D+00  0.0000000000000D+00  0.0000000000000D+00
   344  3.4300000000000D+00  0.0000000000000D+00  0.0000000000000D+00
   345  3.4400000000000D+00  0.0000000000000D+00  0.0000000000000D+00
   346  3.4500000000000D+00  0.0000000000000D+00  0.0000000000000D+00
   347  3.4600000000000D+00  0.0000000000000D+00  0.0000000000000D+00
   348  3.4700000000000D+00  0.0000000000000D+00  0.0000000000000D+00
   349  3.4800000000000D+00  0.0000000000000D+00  0.0000000000000D+00
   350  3.4900000000000D+00  0.0000000000000D+00  0.0000000000000D+00
   351  3.5000000000000D+00  0.0000000000000D+00  0.0000000000000D+00
   352  3.5100000000000D+00  0.0000000000000D+00  0.0000000000000D+00
   353  3.5200000000000D+00  0.0000000000000D+00  0.0000000000000D+00
   354  3.5300000000000D+00  0.0000000000000D+00  0.0000000000000D+00
   355  3.5400000000000D+00  0.0000000000000D+00  0.0000000000000D+00
   356  3.5500000000000D+00  0.0000000000000D+00  0.0000000000000D+00
   357  3.5600000000000D+00  0.0000000000000D+00  0.0000000000000D+00
   358  3.5700000000000D+00  0.0000000000000D+00  0.0000000000000D+00
   359  3.5800000000000D+00  0.0000000000000D+00  0.0000000000000D+00
   360  3.5900000000000D+00  0.0000000000000D+00  0.0000000000000D+00
   361  3.6000000000000D+00  0.0000000000000D+00  0.0000000000000D+00
   362  3.6100000000000D+00  0.0000000000000D+00  0.0000000000000D+00
   363  3.6200000000000D+00  0.0000000000000D+00  0.0000000000000D+00
   364  3.6300000000000D+00  0.0000000000000D+00  0.0000000000000D+00
   365  3.6400000000000D+00  0.0000000000000D+00  0.0000000000000D+00
   366  3.6500000000000D+00  0.0000000000000D+00  0.0000000000000D+00
   367  3.6600000000000D+00  0.0000000000000D+00  0.0000000000000D+00
   368  3.6700000000000D+00  0.0000000000000D+00  0.0000000000000D+00
   369  3.6800000000000D+00  0.0000000000000D+00  0.0000000000000D+00
   370  3.6900000000000D+00  0.0000000000000D+00  0.0000000000000D+00
   371  3.7000000000000D+00  0.0000000000000D+00  0.0000000000000D+00
   372  3.7100000000000D+00  0.0000000000000D+00  0.0000000000000D+00
   373  3.7200000000000D+00  0.0000000000000D+00  0.0000000000000D+00
   374  3.7300000000000D+00  0.0000000000000D+00  0.0000000000000D+00
   375  3.7400000000000D+00  0.0000000000000D+00  0.0000000000000D+00
   376  3.7500000000000D+00  0.0000000000000D+00  0.0000000000000D+00
   377  3.7600000000000D+00  0.0000000000000D+00  0.0000000000000D+00
   378  3.7700000000000D+00  0.0000000000000D+00  0.0000000000000D+00
   379  3.7800000000000D+00  0.0000000000000D+00  0.0000000000000D+00
   380  3.7900000000000D+00  0.0000000000000D+00  0.0000000000000D+00
   381  3.8000000000000D+00  0.0000000000000D+00  0.0000000000000D+00
   382  3.8100000000000D+00  0.0000000000000D+00  0.0000000000000D+00
   383  3.8200000000000D+00  0.0000000000000D+00  0.0000000000000D+00
   384  3.8300000000000D+00  0.0000000000000D+00  0.0000000000000D+00
   385  3.8400000000000D+00  0.0000000000000D+00  0.0000000000000D+00
   386  3.8500000000000D+00  0.0000000000000D+00  0.0000000000000D+00
   387  3.8600000000000D+00  0.0000000000000D+00  0.0000000000000D+00
   388  3.8700000000000D+00  0.0000000000000D+00  0.0000000000000D+00
   389  3.8800000000000D+00  0.0000000000000D+00  0.0000000000000D+00
   390  3.8900000000000D+00  0.0000000000000D+00  0.0000000000000D+00
   391  3.9000000000000D+00  0.0000000000000D+00  0.0000000000000D+00
   392  3.9100000000000D+00  0.0000000000000D+00  0.0000000000000D+00
   393  3.9200000000000D+00  0.0000000000000D+00  0.0000000000000D+00
   394  3.9300000000000D+00  0.0000000000000D+00  0.0000000000000D+00
   395  3.9400000000000D+00  0.0000000000000D+00  0.0000000000000D+00
   396  3.9500000000000D+00  0.0000000000000D+00  0.0000000000000D+00
   397  3.9600000000000D+00  0.0000000000000D+00  0.0000000000000D+00
   398  3.9700000000000D+00  0.0000000000000D+00  0.0000000000000D+00
   399  3.9800000000000D+00  0.0000000000000D+00  0.0000000000000D+00
   400  3.9900000000000D+00  0.0000000000000D+00  0.0000000000000D+00
   401  4.0000000000000D+00  0.0000000000000D+00  0.0000000000000D+00
   402  4.0100000000000D+00  0.0000000000000D+00  0.0000000000000D+00
   403  4.0200000000000D+00  0.0000000000000D+00  0.0000000000000D+00
   404  4.0300000000000D+00  0.0000000000000D+00  0.0000000000000D+00
   405  4.0400000000000D+00  0.0000000000000D+00  0.0000000000000D+00
   406  4.0500000000000D+00  0.0000000000000D+00  0.0000000000000D+00
   407  4.0600000000000D+00  0.0000000000000D+00  0.0000000000000D+00
   408  4.0700000000000D+00  0.0000000000000D+00  0.0000000000000D+00
   409  4.0800000000000D+00  0.0000000000000D+00  0.0000000000000D+00
   410  4.0900000000000D+00  0.0000000000000D+00  0.0000000000000D+00
   411  4.1000000000000D+00  0.0000000000000D+00  0.0000000000000D+00
   412  4.1100000000000D+00  0.0000000000000D+00  0.0000000000000D+00
   413  4.1200000000000D+00  0.0000000000000D+00  0.0000000000000D+00
   414  4.1300000000000D+00  0.0000000000000D+00  0.0000000000000D+00
   415  4.1400000000000D+00  0.0000000000000D+00  0.0000000000000D+00
   416  4.1500000000000D+00  0.0000000000000D+00  0.0000000000000D+00
   417  4.1600000000000D+00  0.0000000000000D+00  0.0000000000000D+00
   418  4.1700000000000D+00  0.0000000000000D+00  0.0000000000000D+00
   419  4.1800000000000D+00  0.0000000000000D+00  0.0000000000000D+00
   420  4.1900000000000D+00  0.0000000000000D+00  0.0000000000000D+00
   421  4.2000000000000D+00  0.0000000000000D+00  0.0000000000000D+00
   422  4.2100000000000D+00  0.0000000000000D+00  0.0000000000000D+00