<PP_INFO>
Generated using APE Version-1.0
Author: Unknown Generation date: 2009/11/05
Pseudopotential for: Si
Exchange-correlation: Perdew-Wang LDA
    0        The Pseudo was generated with a Non-Relativistic Calculation
State   n   l    occ     rc         ev
3s      3   0    2.00    1.20     -0.398115
3p      3   1    2.00    1.27     -0.153308
3d      3   2    0.00    1.50      0.000000
4f      4   3    0.00    1.90      0.000000
</PP_INFO>
<PP_HEADER>
   0                   Version Number
  Si                   Element
   NC                  Norm - Conserving pseudopotential
    T                  Nonlinear Core Correction
   SLA  PW  NOGX  NOGC Exchange-Correlation functional
    4.00000000000      Z valence
    0.00000000000      Total energy
  0.0000000  0.0000000 Suggested cutoff for wfc and rho
    3                  Max angular momentum component
  600                  Number of points in mesh
    4    3             Number of Wavefunctions, Number of Projectors
 Wavefunctions         nl  l   occ
                       3s  0  2.00
                       3p  1  2.00
                       3d  2  0.00
                       4f  3  0.00
</PP_HEADER>
<PP_MESH>
  <PP_R>
  3.74165729225E-05  3.83598792145E-05  3.93269671275E-05  4.03184362183E-05
  4.13349011587E-05  4.23769921172E-05  4.34453551493E-05  4.45406525982E-05
  4.56635635054E-05  4.68147840316E-05  4.79950278884E-05  4.92050267807E-05
  5.04455308603E-05  5.17173091913E-05  5.30211502262E-05  5.43578622955E-05
  5.57282741081E-05  5.71332352657E-05  5.85736167891E-05  6.00503116583E-05
  6.15642353664E-05  6.31163264865E-05  6.47075472545E-05  6.63388841647E-05
  6.80113485821E-05  6.97259773691E-05  7.14838335282E-05  7.32860068614E-05
  7.51336146454E-05  7.70278023248E-05  7.89697442214E-05  8.09606442633E-05
  8.30017367304E-05  8.50942870199E-05  8.72395924309E-05  8.94389829689E-05
  9.16938221696E-05  9.40055079449E-05  9.63754734494E-05  9.88051879688E-05
  1.01296157831E-04  1.03849927339E-04  1.06468079730E-04  1.09152238157E-04
  1.11904066692E-04  1.14725271360E-04  1.17617601199E-04  1.20582849338E-04
  1.23622854117E-04  1.26739500218E-04  1.29934719840E-04  1.33210493894E-04
  1.36568853232E-04  1.40011879903E-04  1.43541708451E-04  1.47160527230E-04
  1.50870579766E-04  1.54674166147E-04  1.58573644445E-04  1.62571432187E-04
  1.66670007842E-04  1.70871912367E-04  1.75179750778E-04  1.79596193766E-04
  1.84123979353E-04  1.88765914588E-04  1.93524877289E-04  1.98403817827E-04
  2.03405760952E-04  2.08533807674E-04  2.13791137181E-04  2.19181008810E-04
  2.24706764071E-04  2.30371828716E-04  2.36179714863E-04  2.42134023172E-04
  2.48238445082E-04  2.54496765096E-04  2.60912863125E-04  2.67490716900E-04
  2.74234404431E-04  2.81148106542E-04  2.88236109455E-04  2.95502807455E-04
  3.02952705609E-04  3.10590422563E-04  3.18420693401E-04  3.26448372585E-04
  3.34678436960E-04  3.43115988845E-04  3.51766259189E-04  3.60634610823E-04
  3.69726541775E-04  3.79047688687E-04  3.88603830305E-04  3.98400891061E-04
  4.08444944749E-04  4.18742218288E-04  4.29299095585E-04  4.40122121490E-04
  4.51218005853E-04  4.62593627689E-04  4.74256039437E-04  4.86212471335E-04
  4.98470335902E-04  5.11037232533E-04  5.23920952212E-04  5.37129482339E-04
  5.50671011686E-04  5.64553935470E-04  5.78786860558E-04  5.93378610807E-04
  6.08338232530E-04  6.23675000106E-04  6.39398421728E-04  6.55518245303E-04
  6.72044464489E-04  6.88987324893E-04  7.06357330425E-04  7.24165249807E-04
  7.42422123251E-04  7.61139269303E-04  7.80328291859E-04  8.00001087361E-04
  8.20169852171E-04  8.40847090133E-04  8.62045620323E-04  8.83778584998E-04
  9.06059457746E-04  9.28902051832E-04  9.52320528771E-04  9.76329407099E-04
  1.00094357138E-03  1.02617828143E-03  1.05204918178E-03  1.07857231138E-03
  1.10576411351E-03  1.13364144605E-03  1.16222159183E-03  1.19152226944E-03
  1.22156164413E-03  1.25235833915E-03  1.28393144724E-03  1.31630054248E-03
  1.34948569245E-03  1.38350747064E-03  1.41838696922E-03  1.45414581210E-03
  1.49080616838E-03  1.52839076603E-03  1.56692290603E-03  1.60642647680E-03
  1.64692596899E-03  1.68844649072E-03  1.73101378307E-03  1.77465423610E-03
  1.81939490517E-03  1.86526352775E-03  1.91228854058E-03  1.96049909733E-03
  2.00992508666E-03  2.06059715074E-03  2.11254670425E-03  2.16580595390E-03
  2.22040791832E-03  2.27638644859E-03  2.33377624921E-03  2.39261289960E-03
  2.45293287619E-03  2.51477357498E-03  2.57817333478E-03  2.64317146097E-03
  2.70980824984E-03  2.77812501357E-03  2.84816410589E-03  2.91996894828E-03
  2.99358405694E-03  3.06905507034E-03  3.14642877755E-03  3.22575314724E-03
  3.30707735741E-03  3.39045182588E-03  3.47592824154E-03  3.56355959643E-03
  3.65340021856E-03  3.74550580558E-03  3.83993345934E-03  3.93674172129E-03
  4.03599060876E-03  4.13774165217E-03  4.24205793317E-03  4.34900412376E-03
  4.45864652640E-03  4.57105311507E-03  4.68629357745E-03  4.80443935811E-03
  4.92556370280E-03  5.04974170387E-03  5.17705034680E-03  5.30756855797E-03
  5.44137725355E-03  5.57855938968E-03  5.71920001391E-03  5.86338631791E-03
  6.01120769154E-03  6.16275577825E-03  6.31812453191E-03  6.47741027507E-03
  6.64071175863E-03  6.80813022312E-03  6.97976946141E-03  7.15573588311E-03
  7.33613858049E-03  7.52108939616E-03  7.71070299238E-03  7.90509692212E-03
  8.10439170202E-03  8.30871088702E-03  8.51818114701E-03  8.73293234532E-03
  8.95309761929E-03  9.17881346276E-03  9.41021981069E-03  9.64746012595E-03
  9.89068148823E-03  1.01400346852E-02  1.03956743062E-02  1.06577588376E-02
  1.09264507617E-02  1.12019166568E-02  1.14843273010E-02  1.17738577779E-02
  1.20706875850E-02  1.23750007451E-02  1.26869859205E-02  1.30068365298E-02
  1.33347508677E-02  1.36709322283E-02  1.40155890309E-02  1.43689349492E-02
  1.47311890438E-02  1.51025758980E-02  1.54833257571E-02  1.58736746712E-02
  1.62738646411E-02  1.66841437691E-02  1.71047664120E-02  1.75359933395E-02
  1.79780918954E-02  1.84313361633E-02  1.88960071370E-02  1.93723928942E-02
  1.98607887755E-02  2.03614975671E-02  2.08748296889E-02  2.14011033867E-02
  2.19406449295E-02  2.24937888118E-02  2.30608779613E-02  2.36422639510E-02
  2.42383072174E-02  2.48493772839E-02  2.54758529901E-02  2.61181227262E-02
  2.67765846744E-02  2.74516470553E-02  2.81437283810E-02  2.88532577148E-02
  2.95806749372E-02  3.03264310182E-02  3.10909882975E-02  3.18748207704E-02
  3.26784143826E-02  3.35022673303E-02  3.43468903703E-02  3.52128071357E-02
  3.61005544608E-02  3.70106827143E-02  3.79437561400E-02  3.89003532068E-02
  3.98810669674E-02  4.08865054259E-02  4.19172919146E-02  4.29740654809E-02
  4.40574812829E-02  4.51682109958E-02  4.63069432286E-02  4.74743839507E-02
  4.86712569294E-02  4.98983041791E-02  5.11562864210E-02  5.24459835548E-02
  5.37681951421E-02  5.51237409023E-02  5.65134612205E-02  5.79382176690E-02
  5.93988935407E-02  6.08963943976E-02  6.24316486313E-02  6.40056080395E-02
  6.56192484151E-02  6.72735701519E-02  6.89695988646E-02  7.07083860244E-02
  7.24910096113E-02  7.43185747819E-02  7.61922145550E-02  7.81130905138E-02
  8.00823935261E-02  8.21013444825E-02  8.41711950535E-02  8.62932284653E-02
  8.84687602953E-02  9.06991392881E-02  9.29857481911E-02  9.53300046123E-02
  9.77333618986E-02  1.00197310037E-01  1.02723376580E-01  1.05313127588E-01
  1.07968168607E-01  1.10690145657E-01  1.13480746257E-01  1.16341700470E-01
  1.19274781977E-01  1.22281809172E-01  1.25364646294E-01  1.28525204581E-01
  1.31765443456E-01  1.35087371740E-01  1.38493048898E-01  1.41984586316E-01
  1.45564148611E-01  1.49233954970E-01  1.52996280531E-01  1.56853457787E-01
  1.60807878037E-01  1.64861992866E-01  1.69018315667E-01  1.73279423197E-01
  1.77647957175E-01  1.82126625922E-01  1.86718206036E-01  1.91425544117E-01
  1.96251558530E-01  2.01199241215E-01  2.06271659540E-01  2.11471958207E-01
  2.16803361197E-01  2.22269173771E-01  2.27872784517E-01  2.33617667456E-01
  2.39507384188E-01  2.45545586109E-01  2.51736016665E-01  2.58082513682E-01
  2.64589011738E-01  2.71259544608E-01  2.78098247760E-01  2.85109360922E-01
  2.92297230710E-01  2.99666313320E-01  3.07221177295E-01  3.14966506354E-01
  3.22907102299E-01  3.31047887986E-01  3.39393910384E-01  3.47950343700E-01
  3.56722492586E-01  3.65715795432E-01  3.74935827732E-01  3.84388305545E-01
  3.94079089036E-01  4.04014186111E-01  4.14199756142E-01  4.24642113781E-01
  4.35347732882E-01  4.46323250508E-01  4.57575471050E-01  4.69111370443E-01
  4.80938100494E-01  4.93062993310E-01  5.05493565850E-01  5.18237524582E-01
  5.31302770260E-01  5.44697402825E-01  5.58429726423E-01  5.72508254556E-01
  5.86941715361E-01  6.01739057016E-01  6.16909453294E-01  6.32462309246E-01
  6.48407267031E-01  6.64754211900E-01  6.81513278317E-01  6.98694856245E-01
  7.16309597590E-01  7.34368422801E-01  7.52882527641E-01  7.71863390130E-01
  7.91322777657E-01  8.11272754280E-01  8.31725688203E-01  8.52694259443E-01
  8.74191467691E-01  8.96230640374E-01  9.18825440915E-01  9.41989877204E-01
  9.65738310284E-01  9.90085463252E-01  1.01504643039E+00  1.04063668651E+00
  1.06687209658E+00  1.09376892552E+00  1.12134384831E+00  1.14961396032E+00
  1.17859678791E+00  1.20831029930E+00  1.23877291571E+00  1.27000352274E+00
  1.30202148217E+00  1.33484664387E+00  1.36849935815E+00  1.40300048838E+00
  1.43837142390E+00  1.47463409331E+00  1.51181097804E+00  1.54992512631E+00
  1.58900016738E+00  1.62906032625E+00  1.67013043866E+00  1.71223596645E+00
  1.75540301341E+00  1.79965834142E+00  1.84502938703E+00  1.89154427853E+00
  1.93923185331E+00  1.98812167582E+00  2.03824405581E+00  2.08963006720E+00
  2.14231156730E+00  2.19632121658E+00  2.25169249890E+00  2.30845974228E+00
  2.36665814020E+00  2.42632377337E+00  2.48749363215E+00  2.55020563946E+00
  2.61449867427E+00  2.68041259575E+00  2.74798826795E+00  2.81726758514E+00
  2.88829349776E+00  2.96111003911E+00  3.03576235259E+00  3.11229671970E+00
  3.19076058875E+00  3.27120260427E+00  3.35367263714E+00  3.43822181556E+00
  3.52490255669E+00  3.61376859921E+00  3.70487503658E+00  3.79827835120E+00
  3.89403644948E+00  3.99220869769E+00  4.09285595876E+00  4.19604063005E+00
  4.30182668202E+00  4.41027969787E+00  4.52146691421E+00  4.63545726276E+00
  4.75232141307E+00  4.87213181633E+00  4.99496275028E+00  5.12089036531E+00
  5.24999273158E+00  5.38234988750E+00  5.51804388932E+00  5.65715886201E+00
  5.79978105138E+00  5.94599887761E+00  6.09590299002E+00  6.24958632327E+00
  6.40714415502E+00  6.56867416492E+00  6.73427649527E+00  6.90405381301E+00
  7.07811137342E+00  7.25655708537E+00  7.43950157819E+00  7.62705827031E+00
  7.81934343951E+00  8.01647629507E+00  8.21857905163E+00  8.42577700496E+00
  8.63819860968E+00  8.85597555886E+00  9.07924286566E+00  9.30813894706E+00
  9.54280570966E+00  9.78338863764E+00  1.00300368830E+01  1.02829033580E+01
  1.05421448298E+01  1.08079220182E+01  1.10803996944E+01  1.13597467840E+01
  1.16461364713E+01  1.19397463065E+01  1.22407583163E+01  1.25493591163E+01
  1.28657400270E+01  1.31900971920E+01  1.35226317001E+01  1.38635497097E+01
  1.42130625766E+01  1.45713869849E+01  1.49387450820E+01  1.53153646152E+01
  1.57014790740E+01  1.60973278343E+01  1.65031563066E+01  1.69192160888E+01
  1.73457651216E+01  1.77830678487E+01  1.82313953807E+01  1.86910256630E+01
  1.91622436483E+01  1.96453414734E+01  2.01406186400E+01  2.06483822004E+01
  2.11689469482E+01  2.17026356132E+01  2.22497790613E+01  2.28107165001E+01
  2.33857956888E+01  2.39753731538E+01  2.45798144103E+01  2.51994941879E+01
  2.58347966639E+01  2.64861157009E+01  2.71538550912E+01  2.78384288070E+01
  2.85402612572E+01  2.92597875504E+01  2.99974537646E+01  3.07537172241E+01
  3.15290467824E+01  3.23239231136E+01  3.31388390097E+01  3.39742996867E+01
  3.48308230975E+01  3.57089402530E+01  3.66091955513E+01  3.75321471156E+01
  3.84783671395E+01  3.94484422423E+01  4.04429738327E+01  4.14625784812E+01
  4.25078883027E+01  4.35795513483E+01  4.46782320070E+01  4.58046114179E+01
  4.69593878920E+01  4.81432773454E+01  4.93570137431E+01  5.06013495542E+01
  5.18770562181E+01  5.31849246228E+01  5.45257655955E+01  5.59004104051E+01
  5.73097112774E+01  5.87545419237E+01  6.02357980824E+01  6.17543980741E+01
  6.33112833715E+01  6.49074191822E+01  6.65437950479E+01  6.82214254576E+01
  6.99413504762E+01  7.17046363899E+01  7.35123763667E+01  7.53656911347E+01
  7.72657296762E+01  7.92136699407E+01  8.12107195748E+01  8.32581166710E+01
  8.53571305351E+01  8.75090624735E+01  8.97152465996E+01  9.19770506610E+01
  9.42958768877E+01  9.66731628609E+01  9.91103824047E+01  1.01609046500E+02
  1.04170704220E+02  1.06796943692E+02  1.09489393082E+02  1.12249721603E+02
  </PP_R>
  <PP_RAB>
  9.31611629402E-07  9.55098417288E-07  9.79177328746E-07  1.00386329176E-06
  1.02917161065E-06  1.05511797559E-06  1.08171847230E-06  1.10898959206E-06
  1.13694824188E-06  1.16561175504E-06  1.19499790178E-06  1.22512490037E-06
  1.25601142836E-06  1.28767663419E-06  1.32014014905E-06  1.35342209905E-06
  1.38754311767E-06  1.42252435863E-06  1.45838750892E-06  1.49515480228E-06
  1.53284903300E-06  1.57149357002E-06  1.61111237144E-06  1.65172999936E-06
  1.69337163512E-06  1.73606309490E-06  1.77983084573E-06  1.82470202190E-06
  1.87070444179E-06  1.91786662508E-06  1.96621781049E-06  2.01578797384E-06
  2.06660784671E-06  2.11870893541E-06  2.17212354058E-06  2.22688477719E-06
  2.28302659504E-06  2.34058379987E-06  2.39959207489E-06  2.46008800292E-06
  2.52210908905E-06  2.58569378392E-06  2.65088150757E-06  2.71771267382E-06
  2.78622871536E-06  2.85647210947E-06  2.92848640430E-06  3.00231624587E-06
  3.07800740580E-06  3.15560680964E-06  3.23516256598E-06  3.31672399627E-06
  3.40034166539E-06  3.48606741303E-06  3.57395438578E-06  3.66405707012E-06
  3.75643132619E-06  3.85113442240E-06  3.94822507096E-06  4.04776346426E-06
  4.14981131220E-06  4.25443188045E-06  4.36169002967E-06  4.47165225568E-06
  4.58438673078E-06  4.69996334590E-06  4.81845375403E-06  4.93993141456E-06
  5.06447163888E-06  5.19215163705E-06  5.32305056567E-06  5.45724957693E-06
  5.59483186896E-06  5.73588273739E-06  5.88048962823E-06  6.02874219208E-06
  6.18073233971E-06  6.33655429906E-06  6.49630467363E-06  6.66008250240E-06
  6.82798932119E-06  7.00012922565E-06  7.17660893577E-06  7.35753786205E-06
  7.54302817333E-06  7.73319486634E-06  7.92815583696E-06  8.12803195336E-06
  8.33294713088E-06  8.54302840891E-06  8.75840602961E-06  8.97921351864E-06
  9.20558776800E-06  9.43766912084E-06  9.67560145852E-06  9.91953228973E-06
  1.01696128420E-05  1.04259981556E-05  1.06888471792E-05  1.09583228690E-05
  1.12345922893E-05  1.15178267164E-05  1.18082017444E-05  1.21058973946E-05
  1.24110982264E-05  1.27239934526E-05  1.30447770558E-05  1.33736479094E-05
  1.37108099003E-05  1.40564720558E-05  1.44108486728E-05  1.47741594510E-05
  1.51466296288E-05  1.55284901230E-05  1.59199776724E-05  1.63213349837E-05
  1.67328108827E-05  1.71546604685E-05  1.75871452711E-05  1.80305334143E-05
  1.84850997813E-05  1.89511261853E-05  1.94289015446E-05  1.99187220610E-05
  2.04208914042E-05  2.09357208994E-05  2.14635297207E-05  2.20046450888E-05
  2.25594024742E-05  2.31281458046E-05  2.37112276787E-05  2.43090095842E-05
  2.49218621225E-05  2.55501652383E-05  2.61943084547E-05  2.68546911153E-05
  2.75317226315E-05  2.82258227363E-05  2.89374217446E-05  2.96669608197E-05
  3.04148922474E-05  3.11816797157E-05  3.19677986030E-05  3.27737362719E-05
  3.35999923724E-05  3.44470791508E-05  3.53155217676E-05  3.62058586233E-05
  3.71186416918E-05  3.80544368629E-05  3.90138242927E-05  3.99973987640E-05
  4.10057700542E-05  4.20395633142E-05  4.30994194552E-05  4.41859955464E-05
  4.52999652223E-05  4.64420191007E-05  4.76128652099E-05  4.88132294289E-05
  5.00438559362E-05  5.13055076720E-05  5.25989668111E-05  5.39250352473E-05
  5.52845350911E-05  5.66783091790E-05  5.81072215964E-05  5.95721582130E-05
  6.10740272320E-05  6.26137597532E-05  6.41923103506E-05  6.58106576635E-05
  6.74698050039E-05  6.91707809781E-05  7.09146401245E-05  7.27024635673E-05
  7.45353596871E-05  7.64144648074E-05  7.83409439000E-05  8.03159913061E-05
  8.23408314779E-05  8.44167197368E-05  8.65449430522E-05  8.87268208390E-05
  9.09637057759E-05  9.32569846440E-05  9.56080791861E-05  9.80184469888E-05
  1.00489582385E-04  1.03023017383E-04  1.05620322613E-04  1.08283108301E-04
  1.11013025271E-04  1.13811765963E-04  1.16681065489E-04  1.19622702700E-04
  1.22638501297E-04  1.25730330956E-04  1.28900108491E-04  1.32149799039E-04
  1.35481417282E-04  1.38897028691E-04  1.42398750812E-04  1.45988754575E-04
  1.49669265643E-04  1.53442565787E-04  1.57310994305E-04  1.61276949473E-04
  1.65342890025E-04  1.69511336687E-04  1.73784873731E-04  1.78166150583E-04
  1.82657883464E-04  1.87262857070E-04  1.91983926305E-04  1.96824018048E-04
  2.01786132965E-04  2.06873347372E-04  2.12088815144E-04  2.17435769666E-04
  2.22917525840E-04  2.28537482140E-04  2.34299122718E-04  2.40206019566E-04
  2.46261834728E-04  2.52470322573E-04  2.58835332118E-04  2.65360809422E-04
  2.72050800022E-04  2.78909451453E-04  2.85941015807E-04  2.93149852381E-04
  3.00540430369E-04  3.08117331641E-04  3.15885253577E-04  3.23849011986E-04
  3.32013544085E-04  3.40383911563E-04  3.48965303721E-04  3.57763040686E-04
  3.66782576708E-04  3.76029503547E-04  3.85509553935E-04  3.95228605132E-04
  4.05192682568E-04  4.15407963580E-04  4.25880781243E-04  4.36617628292E-04
  4.47625161152E-04  4.58910204061E-04  4.70479753304E-04  4.82340981548E-04
  4.94501242288E-04  5.06968074411E-04  5.19749206863E-04  5.32852563445E-04
  5.46286267724E-04  5.60058648070E-04  5.74178242820E-04  5.88653805568E-04
  6.03494310596E-04  6.18708958435E-04  6.34307181569E-04  6.50298650287E-04
  6.66693278671E-04  6.83501230748E-04  7.00732926790E-04  7.18399049772E-04
  7.36510551998E-04  7.55078661890E-04  7.74114890947E-04  7.93631040885E-04
  8.13639210952E-04  8.34151805429E-04  8.55181541320E-04  8.76741456237E-04
  8.98844916481E-04  9.21505625333E-04  9.44737631542E-04  9.68555338041E-04
  9.92973510875E-04  1.01800728835E-03  1.04367219044E-03  1.06998412836E-03
  1.09695941449E-03  1.12461477245E-03  1.15296734747E-03  1.18203471704E-03
  1.21183490179E-03  1.24238637667E-03  1.27370808239E-03  1.30581943719E-03
  1.33874034883E-03  1.37249122700E-03  1.40709299592E-03  1.44256710733E-03
  1.47893555379E-03  1.51622088231E-03  1.55444620832E-03  1.59363523004E-03
  1.63381224311E-03  1.67500215572E-03  1.71723050399E-03  1.76052346785E-03
  1.80490788723E-03  1.85041127873E-03  1.89706185268E-03  1.94488853059E-03
  1.99392096314E-03  2.04418954851E-03  2.09572545126E-03  2.14856062161E-03
  2.20272781531E-03  2.25826061389E-03  2.31519344550E-03  2.37356160629E-03
  2.43340128220E-03  2.49474957150E-03  2.55764450773E-03  2.62212508327E-03
  2.68823127355E-03  2.75600406182E-03  2.82548546456E-03  2.89671855750E-03
  2.96974750237E-03  3.04461757426E-03  3.12137518967E-03  3.20006793532E-03
  3.28074459762E-03  3.36345519294E-03  3.44825099860E-03  3.53518458469E-03
  3.62430984661E-03  3.71568203854E-03  3.80935780765E-03  3.90539522924E-03
  4.00385384275E-03  4.10479468866E-03  4.20828034634E-03  4.31437497284E-03
  4.42314434266E-03  4.53465588856E-03  4.64897874331E-03  4.76618378260E-03
  4.88634366897E-03  5.00953289684E-03  5.13582783868E-03  5.26530679243E-03
  5.39805002994E-03  5.53413984683E-03  5.67366061344E-03  5.81669882718E-03
  5.96334316613E-03  6.11368454403E-03  6.26781616665E-03  6.42583358955E-03
  6.58783477733E-03  6.75392016438E-03  6.92419271712E-03  7.09875799787E-03
  7.27772423025E-03  7.46120236630E-03  7.64930615529E-03  7.84215221419E-03
  8.03986009998E-03  8.24255238381E-03  8.45035472695E-03  8.66339595869E-03
  8.88180815626E-03  9.10572672665E-03  9.33529049060E-03  9.57064176864E-03
  9.81192646933E-03  1.00592941797E-02  1.03128982581E-02  1.05728959291E-02
  1.08394483810E-02  1.11127208659E-02  1.13928828020E-02  1.16801078788E-02
  1.19745741645E-02  1.22764642167E-02  1.25859651954E-02  1.29032689790E-02
  1.32285722835E-02  1.35620767842E-02  1.39039892407E-02  1.42545216254E-02
  1.46138912546E-02  1.49823209235E-02  1.53600390438E-02  1.57472797862E-02
  1.61442832246E-02  1.65512954856E-02  1.69685689009E-02  1.73963621636E-02
  1.78349404888E-02  1.82845757778E-02  1.87455467869E-02  1.92181393000E-02
  1.97026463060E-02  2.01993681802E-02  2.07086128707E-02  2.12306960893E-02
  2.17659415070E-02  2.23146809551E-02  2.28772546304E-02  2.34540113067E-02
  2.40453085504E-02  2.46515129426E-02  2.52730003063E-02  2.59101559393E-02
  2.65633748531E-02  2.72330620179E-02  2.79196326133E-02  2.86235122863E-02
  2.93451374146E-02  3.00849553776E-02  3.08434248334E-02  3.16210160033E-02
  3.24182109632E-02  3.32355039430E-02  3.40734016321E-02  3.49324234943E-02
  3.58131020894E-02  3.67159834036E-02  3.76416271880E-02  3.85906073055E-02
  3.95635120864E-02  4.05609446936E-02  4.15835234962E-02  4.26318824530E-02
  4.37066715054E-02  4.48085569805E-02  4.59382220041E-02  4.70963669242E-02
  4.82837097453E-02  4.95009865733E-02  5.07489520721E-02  5.20283799315E-02
  5.33400633465E-02  5.46848155095E-02  5.60634701140E-02  5.74768818719E-02
  5.89259270429E-02  6.04115039784E-02  6.19345336778E-02  6.34959603597E-02
  6.50967520476E-02  6.67379011694E-02  6.84204251732E-02  7.01453671581E-02
  7.19137965204E-02  7.37268096169E-02  7.55855304448E-02  7.74911113379E-02
  7.94447336819E-02  8.14476086459E-02  8.35009779339E-02  8.56061145543E-02
  8.77643236093E-02  8.99769431039E-02  9.22453447755E-02  9.45709349440E-02
  9.69551553844E-02  9.93994842196E-02  1.01905436838E-01  1.04474566832E-01
  1.07108466960E-01  1.09808770139E-01  1.12577150450E-01  1.15415324181E-01
  1.18325050887E-01  1.21308134485E-01  1.24366424371E-01  1.27501816564E-01
  1.30716254884E-01  1.34011732156E-01  1.37390291449E-01  1.40854027335E-01
  1.44405087196E-01  1.48045672549E-01  1.51778040415E-01  1.55604504714E-01
  1.59527437706E-01  1.63549271454E-01  1.67672499339E-01  1.71899677598E-01
  1.76233426918E-01  1.80676434054E-01  1.85231453494E-01  1.89901309173E-01
  1.94688896218E-01  1.99597182745E-01  2.04629211700E-01  2.09788102743E-01
  2.15077054185E-01  2.20499344967E-01  2.26058336698E-01  2.31757475735E-01
  2.37600295320E-01  2.43590417772E-01  2.49731556732E-01  2.56027519467E-01
  2.62482209225E-01  2.69099627661E-01  2.75883877316E-01  2.82839164158E-01
  2.89969800192E-01  2.97280206134E-01  3.04774914147E-01  3.12458570658E-01
  3.20335939232E-01  3.28411903528E-01  3.36691470329E-01  3.45179772640E-01
  3.53882072876E-01  3.62803766123E-01  3.71950383479E-01  3.81327595491E-01
  3.90941215660E-01  4.00797204056E-01  4.10901671003E-01  4.21260880876E-01
  4.31881255979E-01  4.42769380527E-01  4.53932004731E-01  4.65376048980E-01
  4.77108608133E-01  4.89136955917E-01  5.01468549436E-01  5.14111033794E-01
  5.27072246836E-01  5.40360224005E-01  5.53983203327E-01  5.67949630515E-01
  5.82268164206E-01  5.96947681329E-01  6.11997282609E-01  6.27426298210E-01
  6.43244293516E-01  6.59461075063E-01  6.76086696621E-01  6.93131465423E-01
  7.10605948558E-01  7.28520979519E-01  7.46887664924E-01  7.65717391398E-01
  7.85021832632E-01  8.04812956623E-01  8.25103033093E-01  8.45904641093E-01
  8.67230676804E-01  8.89094361533E-01  9.11509249906E-01  9.34489238276E-01
  9.58048573335E-01  9.82201860946E-01  1.00696407520E+00  1.03235056770E+00
  1.05837707708E+00  1.08505973875E+00  1.11241509491E+00  1.14046010482E+00
  1.16921215528E+00  1.19868907143E+00  1.22890912780E+00  1.25989105966E+00
  1.29165407457E+00  1.32421786437E+00  1.35760261732E+00  1.39182903067E+00
  1.42691832345E+00  1.46289224964E+00  1.49977311166E+00  1.53758377422E+00
  1.57634767843E+00  1.61608885640E+00  1.65683194609E+00  1.69860220663E+00
  1.74142553394E+00  1.78532847680E+00  1.83033825332E+00  1.87648276779E+00
  1.92379062801E+00  1.97229116299E+00  2.02201444116E+00  2.07299128900E+00
  2.12525331017E+00  2.17883290506E+00  2.23376329093E+00  2.29007852246E+00
  2.34781351288E+00  2.40700405563E+00  2.46768684652E+00  2.52989950650E+00
  2.59368060498E+00  2.65906968375E+00  2.72610728146E+00  2.79483495881E+00
  </PP_RAB>
</PP_MESH>
<PP_NLCC>
  8.99399188979E-01  8.99399188979E-01  8.99399188979E-01  8.99399188979E-01
  8.99399188979E-01  8.99399188979E-01  8.99399188979E-01  8.99399188979E-01
  8.99399188979E-01  8.99399188979E-01  8.99399188979E-01  8.99399188979E-01
  8.99399188979E-01  8.99399188979E-01  8.99399188979E-01  8.99399188979E-01
  8.99399188979E-01  8.99399188979E-01  8.99399188979E-01  8.99399188979E-01
  8.99399188979E-01  8.99399188979E-01  8.99399188979E-01  8.99399188979E-01
  8.99399188979E-01  8.99399188979E-01  8.99399188979E-01  8.99399188979E-01
  8.99399188979E-01  8.99399188979E-01  8.99399188979E-01  8.99399188979E-01
  8.99399188979E-01  8.99399188979E-01  8.99399188979E-01  8.99399188979E-01
  8.99399188979E-01  8.99399188979E-01  8.99399188979E-01  8.99399188979E-01
  8.99399188979E-01  8.99399188979E-01  8.99399188979E-01  8.99399188978E-01
  8.99399188978E-01  8.99399188978E-01  8.99399188978E-01  8.99399188978E-01
  8.99399188978E-01  8.99399188978E-01  8.99399188978E-01  8.99399188978E-01
  8.99399188978E-01  8.99399188978E-01  8.99399188978E-01  8.99399188977E-01
  8.99399188977E-01  8.99399188977E-01  8.99399188977E-01  8.99399188977E-01
  8.99399188977E-01  8.99399188976E-01  8.99399188976E-01  8.99399188976E-01
  8.99399188976E-01  8.99399188976E-01  8.99399188975E-01  8.99399188975E-01
  8.99399188975E-01  8.99399188974E-01  8.99399188974E-01  8.99399188973E-01
  8.99399188973E-01  8.99399188973E-01  8.99399188972E-01  8.99399188971E-01
  8.99399188971E-01  8.99399188970E-01  8.99399188969E-01  8.99399188969E-01
  8.99399188968E-01  8.99399188967E-01  8.99399188966E-01  8.99399188965E-01
  8.99399188964E-01  8.99399188963E-01  8.99399188962E-01  8.99399188960E-01
  8.99399188959E-01  8.99399188957E-01  8.99399188955E-01  8.99399188954E-01
  8.99399188952E-01  8.99399188949E-01  8.99399188947E-01  8.99399188945E-01
  8.99399188942E-01  8.99399188939E-01  8.99399188936E-01  8.99399188933E-01
  8.99399188929E-01  8.99399188925E-01  8.99399188921E-01  8.99399188916E-01
  8.99399188911E-01  8.99399188906E-01  8.99399188900E-01  8.99399188894E-01
  8.99399188888E-01  8.99399188881E-01  8.99399188873E-01  8.99399188865E-01
  8.99399188856E-01  8.99399188846E-01  8.99399188836E-01  8.99399188825E-01
  8.99399188813E-01  8.99399188800E-01  8.99399188786E-01  8.99399188771E-01
  8.99399188755E-01  8.99399188737E-01  8.99399188719E-01  8.99399188698E-01
  8.99399188676E-01  8.99399188653E-01  8.99399188628E-01  8.99399188600E-01
  8.99399188571E-01  8.99399188539E-01  8.99399188505E-01  8.99399188468E-01
  8.99399188428E-01  8.99399188386E-01  8.99399188339E-01  8.99399188290E-01
  8.99399188236E-01  8.99399188178E-01  8.99399188116E-01  8.99399188049E-01
  8.99399187977E-01  8.99399187899E-01  8.99399187815E-01  8.99399187724E-01
  8.99399187627E-01  8.99399187522E-01  8.99399187408E-01  8.99399187286E-01
  8.99399187154E-01  8.99399187013E-01  8.99399186860E-01  8.99399186695E-01
  8.99399186517E-01  8.99399186325E-01  8.99399186119E-01  8.99399185896E-01
  8.99399185656E-01  8.99399185398E-01  8.99399185119E-01  8.99399184819E-01
  8.99399184495E-01  8.99399184146E-01  8.99399183769E-01  8.99399183364E-01
  8.99399182926E-01  8.99399182455E-01  8.99399181947E-01  8.99399181399E-01
  8.99399180808E-01  8.99399180172E-01  8.99399179485E-01  8.99399178745E-01
  8.99399177948E-01  8.99399177088E-01  8.99399176161E-01  8.99399175161E-01
  8.99399174084E-01  8.99399172922E-01  8.99399171669E-01  8.99399170319E-01
  8.99399168863E-01  8.99399167293E-01  8.99399165600E-01  8.99399163775E-01
  8.99399161807E-01  8.99399159685E-01  8.99399157397E-01  8.99399154930E-01
  8.99399152270E-01  8.99399149401E-01  8.99399146308E-01  8.99399142972E-01
  8.99399139375E-01  8.99399135496E-01  8.99399131312E-01  8.99399126801E-01
  8.99399121935E-01  8.99399116688E-01  8.99399111029E-01  8.99399104925E-01
  8.99399098342E-01  8.99399091241E-01  8.99399083582E-01  8.99399075322E-01
  8.99399066411E-01  8.99399056800E-01  8.99399046432E-01  8.99399035248E-01
  8.99399023183E-01  8.99399010167E-01  8.99398996126E-01  8.99398980977E-01
  8.99398964634E-01  8.99398947002E-01  8.99398927977E-01  8.99398907450E-01
  8.99398885302E-01  8.99398861403E-01  8.99398835615E-01  8.99398807787E-01
  8.99398777756E-01  8.99398745348E-01  8.99398710373E-01  8.99398672626E-01
  8.99398631886E-01  8.99398587915E-01  8.99398540454E-01  8.99398489224E-01
  8.99398433925E-01  8.99398374229E-01  8.99398309786E-01  8.99398240214E-01
  8.99398165104E-01  8.99398084009E-01  8.99397996450E-01  8.99397901907E-01
  8.99397799818E-01  8.99397689577E-01  8.99397570527E-01  8.99397441957E-01
  8.99397303100E-01  8.99397153125E-01  8.99396991135E-01  8.99396816157E-01
  8.99396627141E-01  8.99396422950E-01  8.99396202353E-01  8.99395964020E-01
  8.99395706511E-01  8.99395428266E-01  8.99395127600E-01  8.99394802686E-01
  8.99394451549E-01  8.99394072050E-01  8.99393661873E-01  8.99393218511E-01
  8.99392739250E-01  8.99392221150E-01  8.99391661028E-01  8.99391055437E-01
  8.99390400642E-01  8.99389692600E-01  8.99388926929E-01  8.99388098881E-01
  8.99387203313E-01  8.99386234653E-01  8.99385186862E-01  8.99384053394E-01
  8.99382827156E-01  8.99381500458E-01  8.99380064965E-01  8.99378511641E-01
  8.99376830687E-01  8.99375011480E-01  8.99373042499E-01  8.99370911251E-01
  8.99368604185E-01  8.99366106603E-01  8.99363402561E-01  8.99360474762E-01
  8.99357304440E-01  8.99353871232E-01  8.99350153044E-01  8.99346125898E-01
  8.99341763771E-01  8.99337038418E-01  8.99331919182E-01  8.99326372782E-01
  8.99320363087E-01  8.99313850874E-01  8.99306793551E-01  8.99299144873E-01