<?xml version="1.0" encoding="UTF-8" ?>
<psml version="1.0" energy_unit="hartree" length_unit="bohr"
 uuid="6fb88400-f859-11e6-6dfe-fc5db86f7e7e">
<provenance creator="ONCVPSP-3.2.3+psml-51" date="2017-02-21">
<input-file name="oncvpsp-input">
<![CDATA[# ATOM AND REFERENCE CONFIGURATION
# atsym  z   nc   nv     iexc    psfile
Si 14.00    3    2       4      psp8
#
#   n    l    f        energy (Ha)
1    0    2.00    -6.5631993D+01
2    0    2.00    -5.1265474D+00
2    1    6.00    -3.5117357D+00
3    0    2.00    -3.9736459D-01
3    1    2.00    -1.4998149D-01
#
# PSEUDOPOTENTIAL AND OPTIMIZATION
# lmax
2
#
#   l,   rc,     ep,   ncon, nbas, qcut
0    1.60   -0.40    4    9    6.40
1    1.71   -0.15    4    9    6.40
2    1.90    0.05    4    9    6.40
#
# LOCAL POTENTIAL
# lloc, lpopt,  rc(5),   dvloc0
4    5      1.60       0.00
#
# VANDERBILT-KLEINMAN-BYLANDER PROJECTORs
# l, nproj, debl
0    2    2.5000
1    2    2.5000
2    2    1.5000
#
# MODEL CORE CHARGE
# icmod, fcfact, rcfact
3    4.00    1.30
#
# LOG DERIVATIVE ANALYSIS
# epsh1, epsh2, depsh
-12.00   12.00    0.02
#
# OUTPUT GRID
# rlmax, drl
6.00    0.01
#
# TEST CONFIGURATIONS
# ncnf
0
# nvcnf
#   n    l    f
]]>
</input-file>
</provenance>
<header atomic-label="Si" atomic-number="14" z-pseudo="4"
 flavor="Hamann&apos;s oncvpsp" relativity="scalar" polarized="no"
 core-corrections="yes">
<exchange-correlation>
<annotation oncvpsp-xc-code="4" oncvpsp-xc-type="GGA -- Perdew-Burke-Ernzerhof" />
<libxc-info number-of-functionals="2">
<functional name="Perdew, Burke &amp; Ernzerhof (GGA)" type="exchange" id="101" />
<functional name="Perdew, Burke &amp; Ernzerhof (GGA)" type="correlation"
 id="130" />
</libxc-info>
</exchange-correlation>
<valence-configuration total-valence-charge="4">
<shell n="3" l="s" occupation="2" />
<shell n="3" l="p" occupation="2" />
</valence-configuration>
</header>
<grid npts="600">
<annotation type="linear with r=0" oncvpsp-nrl="600"
 oncvpsp-drl="0.100000000000E-01" />
<grid-data>
  0.000000000000E+00  1.000000000000E-02  2.000000000000E-02  3.000000000000E-02
  4.000000000000E-02  5.000000000000E-02  6.000000000000E-02  7.000000000000E-02
  8.000000000000E-02  9.000000000000E-02  1.000000000000E-01  1.100000000000E-01
  1.200000000000E-01  1.300000000000E-01  1.400000000000E-01  1.500000000000E-01
  1.600000000000E-01  1.700000000000E-01  1.800000000000E-01  1.900000000000E-01
  2.000000000000E-01  2.100000000000E-01  2.200000000000E-01  2.300000000000E-01
  2.400000000000E-01  2.500000000000E-01  2.600000000000E-01  2.700000000000E-01
  2.800000000000E-01  2.900000000000E-01  3.000000000000E-01  3.100000000000E-01
  3.200000000000E-01  3.300000000000E-01  3.400000000000E-01  3.500000000000E-01
  3.600000000000E-01  3.700000000000E-01  3.800000000000E-01  3.900000000000E-01
  4.000000000000E-01  4.100000000000E-01  4.200000000000E-01  4.300000000000E-01
  4.400000000000E-01  4.500000000000E-01  4.600000000000E-01  4.700000000000E-01
  4.800000000000E-01  4.900000000000E-01  5.000000000000E-01  5.100000000000E-01
  5.200000000000E-01  5.300000000000E-01  5.400000000000E-01  5.500000000000E-01
  5.600000000000E-01  5.700000000000E-01  5.800000000000E-01  5.900000000000E-01
  6.000000000000E-01  6.100000000000E-01  6.200000000000E-01  6.300000000000E-01
  6.400000000000E-01  6.500000000000E-01  6.600000000000E-01  6.700000000000E-01
  6.800000000000E-01  6.900000000000E-01  7.000000000000E-01  7.100000000000E-01
  7.200000000000E-01  7.300000000000E-01  7.400000000000E-01  7.500000000000E-01
  7.600000000000E-01  7.700000000000E-01  7.800000000000E-01  7.900000000000E-01
  8.000000000000E-01  8.100000000000E-01  8.200000000000E-01  8.300000000000E-01
  8.400000000000E-01  8.500000000000E-01  8.600000000000E-01  8.700000000000E-01
  8.800000000000E-01  8.900000000000E-01  9.000000000000E-01  9.100000000000E-01
  9.200000000000E-01  9.300000000000E-01  9.400000000000E-01  9.500000000000E-01
  9.600000000000E-01  9.700000000000E-01  9.800000000000E-01  9.900000000000E-01
  1.000000000000E+00  1.010000000000E+00  1.020000000000E+00  1.030000000000E+00
  1.040000000000E+00  1.050000000000E+00  1.060000000000E+00  1.070000000000E+00
  1.080000000000E+00  1.090000000000E+00  1.100000000000E+00  1.110000000000E+00
  1.120000000000E+00  1.130000000000E+00  1.140000000000E+00  1.150000000000E+00
  1.160000000000E+00  1.170000000000E+00  1.180000000000E+00  1.190000000000E+00
  1.200000000000E+00  1.210000000000E+00  1.220000000000E+00  1.230000000000E+00
  1.240000000000E+00  1.250000000000E+00  1.260000000000E+00  1.270000000000E+00
  1.280000000000E+00  1.290000000000E+00  1.300000000000E+00  1.310000000000E+00
  1.320000000000E+00  1.330000000000E+00  1.340000000000E+00  1.350000000000E+00
  1.360000000000E+00  1.370000000000E+00  1.380000000000E+00  1.390000000000E+00
  1.400000000000E+00  1.410000000000E+00  1.420000000000E+00  1.430000000000E+00
  1.440000000000E+00  1.450000000000E+00  1.460000000000E+00  1.470000000000E+00
  1.480000000000E+00  1.490000000000E+00  1.500000000000E+00  1.510000000000E+00
  1.520000000000E+00  1.530000000000E+00  1.540000000000E+00  1.550000000000E+00
  1.560000000000E+00  1.570000000000E+00  1.580000000000E+00  1.590000000000E+00
  1.600000000000E+00  1.610000000000E+00  1.620000000000E+00  1.630000000000E+00
  1.640000000000E+00  1.650000000000E+00  1.660000000000E+00  1.670000000000E+00
  1.680000000000E+00  1.690000000000E+00  1.700000000000E+00  1.710000000000E+00
  1.720000000000E+00  1.730000000000E+00  1.740000000000E+00  1.750000000000E+00
  1.760000000000E+00  1.770000000000E+00  1.780000000000E+00  1.790000000000E+00
  1.800000000000E+00  1.810000000000E+00  1.820000000000E+00  1.830000000000E+00
  1.840000000000E+00  1.850000000000E+00  1.860000000000E+00  1.870000000000E+00
  1.880000000000E+00  1.890000000000E+00  1.900000000000E+00  1.910000000000E+00
  1.920000000000E+00  1.930000000000E+00  1.940000000000E+00  1.950000000000E+00
  1.960000000000E+00  1.970000000000E+00  1.980000000000E+00  1.990000000000E+00
  2.000000000000E+00  2.010000000000E+00  2.020000000000E+00  2.030000000000E+00
  2.040000000000E+00  2.050000000000E+00  2.060000000000E+00  2.070000000000E+00
  2.080000000000E+00  2.090000000000E+00  2.100000000000E+00  2.110000000000E+00
  2.120000000000E+00  2.130000000000E+00  2.140000000000E+00  2.150000000000E+00
  2.160000000000E+00  2.170000000000E+00  2.180000000000E+00  2.190000000000E+00
  2.200000000000E+00  2.210000000000E+00  2.220000000000E+00  2.230000000000E+00
  2.240000000000E+00  2.250000000000E+00  2.260000000000E+00  2.270000000000E+00
  2.280000000000E+00  2.290000000000E+00  2.300000000000E+00  2.310000000000E+00
  2.320000000000E+00  2.330000000000E+00  2.340000000000E+00  2.350000000000E+00
  2.360000000000E+00  2.370000000000E+00  2.380000000000E+00  2.390000000000E+00
  2.400000000000E+00  2.410000000000E+00  2.420000000000E+00  2.430000000000E+00
  2.440000000000E+00  2.450000000000E+00  2.460000000000E+00  2.470000000000E+00
  2.480000000000E+00  2.490000000000E+00  2.500000000000E+00  2.510000000000E+00
  2.520000000000E+00  2.530000000000E+00  2.540000000000E+00  2.550000000000E+00
  2.560000000000E+00  2.570000000000E+00  2.580000000000E+00  2.590000000000E+00
  2.600000000000E+00  2.610000000000E+00  2.620000000000E+00  2.630000000000E+00
  2.640000000000E+00  2.650000000000E+00  2.660000000000E+00  2.670000000000E+00
  2.680000000000E+00  2.690000000000E+00  2.700000000000E+00  2.710000000000E+00
  2.720000000000E+00  2.730000000000E+00  2.740000000000E+00  2.750000000000E+00
  2.760000000000E+00  2.770000000000E+00  2.780000000000E+00  2.790000000000E+00
  2.800000000000E+00  2.810000000000E+00  2.820000000000E+00  2.830000000000E+00
  2.840000000000E+00  2.850000000000E+00  2.860000000000E+00  2.870000000000E+00
  2.880000000000E+00  2.890000000000E+00  2.900000000000E+00  2.910000000000E+00
  2.920000000000E+00  2.930000000000E+00  2.940000000000E+00  2.950000000000E+00
  2.960000000000E+00  2.970000000000E+00  2.980000000000E+00  2.990000000000E+00
  3.000000000000E+00  3.010000000000E+00  3.020000000000E+00  3.030000000000E+00
  3.040000000000E+00  3.050000000000E+00  3.060000000000E+00  3.070000000000E+00
  3.080000000000E+00  3.090000000000E+00  3.100000000000E+00  3.110000000000E+00
  3.120000000000E+00  3.130000000000E+00  3.140000000000E+00  3.150000000000E+00
  3.160000000000E+00  3.170000000000E+00  3.180000000000E+00  3.190000000000E+00
  3.200000000000E+00  3.210000000000E+00  3.220000000000E+00  3.230000000000E+00
  3.240000000000E+00  3.250000000000E+00  3.260000000000E+00  3.270000000000E+00
  3.280000000000E+00  3.290000000000E+00  3.300000000000E+00  3.310000000000E+00
  3.320000000000E+00  3.330000000000E+00  3.340000000000E+00  3.350000000000E+00
  3.360000000000E+00  3.370000000000E+00  3.380000000000E+00  3.390000000000E+00
  3.400000000000E+00  3.410000000000E+00  3.420000000000E+00  3.430000000000E+00
  3.440000000000E+00  3.450000000000E+00  3.460000000000E+00  3.470000000000E+00
  3.480000000000E+00  3.490000000000E+00  3.500000000000E+00  3.510000000000E+00
  3.520000000000E+00  3.530000000000E+00  3.540000000000E+00  3.550000000000E+00
  3.560000000000E+00  3.570000000000E+00  3.580000000000E+00  3.590000000000E+00
  3.600000000000E+00  3.610000000000E+00  3.620000000000E+00  3.630000000000E+00
  3.640000000000E+00  3.650000000000E+00  3.660000000000E+00  3.670000000000E+00
  3.680000000000E+00  3.690000000000E+00  3.700000000000E+00  3.710000000000E+00
  3.720000000000E+00  3.730000000000E+00  3.740000000000E+00  3.750000000000E+00
  3.760000000000E+00  3.770000000000E+00  3.780000000000E+00  3.790000000000E+00
  3.800000000000E+00  3.810000000000E+00  3.820000000000E+00  3.830000000000E+00
  3.840000000000E+00  3.850000000000E+00  3.860000000000E+00  3.870000000000E+00
  3.880000000000E+00  3.890000000000E+00  3.900000000000E+00  3.910000000000E+00
  3.920000000000E+00  3.930000000000E+00  3.940000000000E+00  3.950000000000E+00
  3.960000000000E+00  3.970000000000E+00  3.980000000000E+00  3.990000000000E+00
  4.000000000000E+00  4.010000000000E+00  4.020000000000E+00  4.030000000000E+00
  4.040000000000E+00  4.050000000000E+00  4.060000000000E+00  4.070000000000E+00
  4.080000000000E+00  4.090000000000E+00  4.100000000000E+00  4.110000000000E+00
  4.120000000000E+00  4.130000000000E+00  4.140000000000E+00  4.150000000000E+00
  4.160000000000E+00  4.170000000000E+00  4.180000000000E+00  4.190000000000E+00
  4.200000000000E+00  4.210000000000E+00  4.220000000000E+00  4.230000000000E+00
  4.240000000000E+00  4.250000000000E+00  4.260000000000E+00  4.270000000000E+00
  4.280000000000E+00  4.290000000000E+00  4.300000000000E+00  4.310000000000E+00
  4.320000000000E+00  4.330000000000E+00  4.340000000000E+00  4.350000000000E+00
  4.360000000000E+00  4.370000000000E+00  4.380000000000E+00  4.390000000000E+00
  4.400000000000E+00  4.410000000000E+00  4.420000000000E+00  4.430000000000E+00
  4.440000000000E+00  4.450000000000E+00  4.460000000000E+00  4.470000000000E+00
  4.480000000000E+00  4.490000000000E+00  4.500000000000E+00  4.510000000000E+00
  4.520000000000E+00  4.530000000000E+00  4.540000000000E+00  4.550000000000E+00
  4.560000000000E+00  4.570000000000E+00  4.580000000000E+00  4.590000000000E+00
  4.600000000000E+00  4.610000000000E+00  4.620000000000E+00  4.630000000000E+00
  4.640000000000E+00  4.650000000000E+00  4.660000000000E+00  4.670000000000E+00
  4.680000000000E+00  4.690000000000E+00  4.700000000000E+00  4.710000000000E+00
  4.720000000000E+00  4.730000000000E+00  4.740000000000E+00  4.750000000000E+00
  4.760000000000E+00  4.770000000000E+00  4.780000000000E+00  4.790000000000E+00
  4.800000000000E+00  4.810000000000E+00  4.820000000000E+00  4.830000000000E+00
  4.840000000000E+00  4.850000000000E+00  4.860000000000E+00  4.870000000000E+00
  4.880000000000E+00  4.890000000000E+00  4.900000000000E+00  4.910000000000E+00
  4.920000000000E+00  4.930000000000E+00  4.940000000000E+00  4.950000000000E+00
  4.960000000000E+00  4.970000000000E+00  4.980000000000E+00  4.990000000000E+00
  5.000000000000E+00  5.010000000000E+00  5.020000000000E+00  5.030000000000E+00
  5.040000000000E+00  5.050000000000E+00  5.060000000000E+00  5.070000000000E+00
  5.080000000000E+00  5.090000000000E+00  5.100000000000E+00  5.110000000000E+00
  5.120000000000E+00  5.130000000000E+00  5.140000000000E+00  5.150000000000E+00
  5.160000000000E+00  5.170000000000E+00  5.180000000000E+00  5.190000000000E+00
  5.200000000000E+00  5.210000000000E+00  5.220000000000E+00  5.230000000000E+00
  5.240000000000E+00  5.250000000000E+00  5.260000000000E+00  5.270000000000E+00
  5.280000000000E+00  5.290000000000E+00  5.300000000000E+00  5.310000000000E+00
  5.320000000000E+00  5.330000000000E+00  5.340000000000E+00  5.350000000000E+00
  5.360000000000E+00  5.370000000000E+00  5.380000000000E+00  5.390000000000E+00
  5.400000000000E+00  5.410000000000E+00  5.420000000000E+00  5.430000000000E+00
  5.440000000000E+00  5.450000000000E+00  5.460000000000E+00  5.470000000000E+00
  5.480000000000E+00  5.490000000000E+00  5.500000000000E+00  5.510000000000E+00
  5.520000000000E+00  5.530000000000E+00  5.540000000000E+00  5.550000000000E+00
  5.560000000000E+00  5.570000000000E+00  5.580000000000E+00  5.590000000000E+00
  5.600000000000E+00  5.610000000000E+00  5.620000000000E+00  5.630000000000E+00
  5.640000000000E+00  5.650000000000E+00  5.660000000000E+00  5.670000000000E+00
  5.680000000000E+00  5.690000000000E+00  5.700000000000E+00  5.710000000000E+00
  5.720000000000E+00  5.730000000000E+00  5.740000000000E+00  5.750000000000E+00
  5.760000000000E+00  5.770000000000E+00  5.780000000000E+00  5.790000000000E+00
  5.800000000000E+00  5.810000000000E+00  5.820000000000E+00  5.830000000000E+00
  5.840000000000E+00  5.850000000000E+00  5.860000000000E+00  5.870000000000E+00
  5.880000000000E+00  5.890000000000E+00  5.900000000000E+00  5.910000000000E+00
  5.920000000000E+00  5.930000000000E+00  5.940000000000E+00  5.950000000000E+00
  5.960000000000E+00  5.970000000000E+00  5.980000000000E+00  5.990000000000E+00
</grid-data>
</grid>
<semilocal-potentials set="scalar_relativistic">
<slps n="3" l="s" rc="1.60303201901" flavor="Hamann&apos;s oncvpsp">
<radfunc>
<data>
  1.007423328013E+01  1.006926552661E+01  1.005436929256E+01  1.002956571296E+01
  9.994890553660E+00  9.950394961551E+00  9.896146478742E+00  9.832230263282E+00
  9.758750459027E+00  9.675831649850E+00  9.583620328706E+00  9.482286310263E+00
  9.372024016895E+00  9.253053571618E+00  9.125621637864E+00  8.990001954391E+00
  8.846495523707E+00  8.695430423676E+00  8.537161223931E+00  8.372068000868E+00
  8.200554956805E+00  8.023048660047E+00  7.839995932583E+00  7.651861420814E+00
  7.459124891811E+00  7.262278302963E+00  7.061822696593E+00  6.858264973064E+00
  6.652114596310E+00  6.443880284645E+00  6.234066737395E+00  6.023171444486E+00
  5.811681621904E+00  5.600071311092E+00  5.388798675079E+00  5.178303518673E+00
  4.969005054512E+00  4.761299931387E+00  4.555560536074E+00  4.352133575055E+00
  4.151338938090E+00  3.953468841612E+00  3.758787246368E+00  3.567529540740E+00
  3.379902478556E+00  3.196084358126E+00  3.016225427500E+00  2.840448499653E+00
  2.668849760296E+00  2.501499750361E+00  2.338444504779E+00  2.179706828980E+00
  2.025287694529E+00  1.875167735501E+00  1.729308827412E+00  1.587655730983E+00
  1.450137783410E+00  1.316670620447E+00  1.187157913105E+00  1.061493103556E+00
  9.395611254270E-01  8.212400945195E-01  7.064029567370E-01  5.949190808761E-01
  4.866557848571E-01  3.814797848520E-01  2.792585578492E-01  1.798616091414E-01
  8.316163736489E-02 -1.096440918518E-02 -1.026343900924E-01 -1.919601481556E-01
 -2.790468052571E-01 -3.639921803157E-01 -4.468863296587E-01 -5.278112089367E-01
 -6.068404545817E-01 -6.840392816572E-01 -7.594644938093E-01 -8.331646001512E-01
 -9.051800328769E-01 -9.755434584401E-01 -1.044280174657E+00 -1.111408585135E+00
 -1.176940742021E+00 -1.240882947630E+00 -1.303236405122E+00 -1.363997908253E+00
 -1.423160560097E+00 -1.480714510686E+00 -1.536647703657E+00 -1.590946622211E+00
 -1.643597025064E+00 -1.694584663508E+00 -1.743895971181E+00 -1.791518718788E+00
 -1.837442626630E+00 -1.881659928530E+00 -1.924165881504E+00 -1.964959216270E+00
 -2.004042524558E+00 -2.041422579957E+00 -2.077110589908E+00 -2.111122377243E+00
 -2.143478490537E+00 -2.174204243306E+00 -2.203329682898E+00 -2.230889490680E+00
 -2.256922815841E+00 -2.281473045872E+00 -2.304587517362E+00 -2.326317171415E+00
 -2.346716158550E+00 -2.365841398442E+00 -2.383752100315E+00 -2.400509250153E+00
 -2.416175071305E+00 -2.430812465222E+00 -2.444484439309E+00 -2.457253528936E+00
 -2.469181220761E+00 -2.480327384347E+00 -2.490749719085E+00 -2.500503223142E+00
 -2.509639690822E+00 -2.518207244536E+00 -2.526249907092E+00 -2.533807219340E+00
 -2.540913907979E+00 -2.547599607645E+00 -2.553888640335E+00 -2.559799855231E+00
 -2.565346530870E+00 -2.570536340416E+00 -2.575371381197E+00 -2.579848267772E+00
 -2.583958287105E+00 -2.587687614995E+00 -2.591017590027E+00 -2.593925042392E+00
 -2.596382673700E+00 -2.598359482388E+00 -2.599821230689E+00 -2.600730946441E+00
 -2.601049454220E+00 -2.600735929219E+00 -2.599748466866E+00 -2.598044661627E+00
 -2.595582187581E+00 -2.592319374000E+00 -2.588215768578E+00 -2.583232682194E+00
 -2.577333705987E+00 -2.570485211652E+00 -2.562656780324E+00 -2.553819140720E+00
 -2.543952698127E+00 -2.533063485078E+00 -2.521091968841E+00 -2.507951793646E+00
 -2.493823829814E+00 -2.479108211806E+00 -2.464224197868E+00 -2.449521923320E+00
 -2.435065261102E+00 -2.420750889612E+00 -2.406572192830E+00 -2.392555464711E+00
 -2.378697224658E+00 -2.364993267389E+00 -2.351443124550E+00 -2.338046105081E+00
 -2.324799020351E+00 -2.311697098334E+00 -2.298733409305E+00 -2.285900731634E+00
 -2.273194988209E+00 -2.260614364441E+00 -2.248157978557E+00 -2.235825349088E+00
 -2.223614894732E+00 -2.211523794772E+00 -2.199549700871E+00 -2.187691286590E+00
 -2.175947213023E+00 -2.164315804694E+00 -2.152795459170E+00 -2.141384733827E+00
 -2.130082227089E+00 -2.118886577835E+00 -2.107796472478E+00 -2.096810645036E+00
 -2.085927873790E+00 -2.075146978100E+00 -2.064466815982E+00 -2.053886281623E+00
 -2.043404302808E+00 -2.033019838490E+00 -2.022731876365E+00 -2.012539430546E+00
 -2.002441539329E+00 -1.992437263019E+00 -1.982525681896E+00 -1.972705894235E+00
 -1.962977014464E+00 -1.953338171405E+00 -1.943788506625E+00 -1.934327172892E+00
 -1.924953332723E+00 -1.915666157052E+00 -1.906464823976E+00 -1.897348517610E+00
 -1.888316427040E+00 -1.879367745355E+00 -1.870501668782E+00 -1.861717395899E+00
 -1.853014126942E+00 -1.844391063179E+00 -1.835847406381E+00 -1.827382358350E+00
 -1.818995120537E+00 -1.810684893713E+00 -1.802450877724E+00 -1.794292271296E+00
 -1.786208271911E+00 -1.778198075733E+00 -1.770260877593E+00 -1.762395871030E+00
 -1.754602248373E+00 -1.746879200875E+00 -1.739225918891E+00 -1.731641592086E+00
 -1.724125409699E+00 -1.716676560819E+00 -1.709294234714E+00 -1.701977621169E+00
 -1.694725910866E+00 -1.687538295773E+00 -1.680413969562E+00 -1.673352128043E+00
 -1.666351969602E+00 -1.659412695668E+00 -1.652533511169E+00 -1.645713625012E+00
 -1.638952250555E+00 -1.632248606081E+00 -1.625601915279E+00 -1.619011407708E+00
 -1.612476319267E+00 -1.605995892653E+00 -1.599569377803E+00 -1.593196032336E+00
 -1.586875121967E+00 -1.580605920917E+00 -1.574387712303E+00 -1.568219788505E+00
 -1.562101451514E+00 -1.556032013270E+00 -1.550010795959E+00 -1.544037132301E+00
 -1.538110365813E+00 -1.532229851040E+00 -1.526394953764E+00 -1.520605051195E+00
 -1.514859532125E+00 -1.509157797058E+00 -1.503499258322E+00 -1.497883340150E+00
 -1.492309478730E+00 -1.486777122228E+00 -1.481285730797E+00 -1.475834776554E+00
 -1.470423743528E+00 -1.465052127628E+00 -1.459719436507E+00 -1.454425189462E+00
 -1.449168917273E+00 -1.443950162058E+00 -1.438768477102E+00 -1.433623426674E+00
 -1.428514585811E+00 -1.423441540082E+00 -1.418403885344E+00 -1.413401227471E+00
 -1.408433182100E+00 -1.403499374342E+00 -1.398599438498E+00 -1.393733017752E+00
 -1.388899763868E+00 -1.384099336869E+00 -1.379331404725E+00 -1.374595643029E+00
 -1.369891734672E+00 -1.365219369515E+00 -1.360578244068E+00 -1.355968061165E+00
 -1.351388529644E+00 -1.346839364024E+00 -1.342320284201E+00 -1.337831015138E+00
 -1.333371286562E+00 -1.328940832676E+00 -1.324539391877E+00 -1.320166706485E+00
 -1.315822522469E+00 -1.311506589207E+00 -1.307218659247E+00 -1.302958488068E+00
 -1.298725833870E+00 -1.294520457381E+00 -1.290342121661E+00 -1.286190591924E+00
 -1.282065635381E+00 -1.277967021104E+00 -1.273894519880E+00 -1.269847904096E+00
 -1.265826947637E+00 -1.261831425803E+00 -1.257861115221E+00 -1.253915793782E+00
 -1.249995240601E+00 -1.246099235972E+00 -1.242227561340E+00 -1.238379999286E+00
 -1.234556333529E+00 -1.230756348928E+00 -1.226979831495E+00 -1.223226568421E+00
 -1.219496348107E+00 -1.215788960205E+00 -1.212104195660E+00 -1.208441846763E+00
 -1.204801707205E+00 -1.201183572134E+00 -1.197587238226E+00 -1.194012503738E+00
 -1.190459168581E+00 -1.186927034382E+00 -1.183415904563E+00 -1.179925584392E+00
 -1.176455881053E+00 -1.173006603708E+00 -1.169577563567E+00 -1.166168573933E+00
 -1.162779450257E+00 -1.159410010184E+00 -1.156060073617E+00 -1.152729462735E+00
 -1.149418002036E+00 -1.146125518358E+00 -1.142851840923E+00 -1.139596801339E+00
 -1.136360233612E+00 -1.133141974148E+00 -1.129941861771E+00 -1.126759737705E+00
 -1.123595445561E+00 -1.120448831317E+00 -1.117319743307E+00 -1.114208032189E+00
 -1.111113550908E+00 -1.108036154657E+00 -1.104975700841E+00 -1.101932049031E+00
 -1.098905060911E+00 -1.095894600228E+00 -1.092900532732E+00 -1.089922726121E+00
 -1.086961049981E+00 -1.084015375724E+00 -1.081085576522E+00 -1.078171527246E+00
 -1.075273104395E+00 -1.072390186042E+00 -1.069522651761E+00 -1.066670382570E+00
 -1.063833260856E+00 -1.061011170327E+00 -1.058203995946E+00 -1.055411623884E+00
 -1.052633941446E+00 -1.049870837028E+00 -1.047122200070E+00 -1.044387921009E+00
 -1.041667891241E+00 -1.038962003052E+00 -1.036270149613E+00 -1.033592224934E+00
 -1.030928123839E+00 -1.028277741931E+00 -1.025640975566E+00 -1.023017721845E+00
 -1.020407878596E+00 -1.017811344361E+00 -1.015228018374E+00 -1.012657800567E+00
 -1.010100591567E+00 -1.007556292689E+00 -1.005024805948E+00 -1.002506034047E+00
 -9.999998803986E-01 -9.975062491270E-01 -9.950250450814E-01 -9.925561738463E-01
 -9.900995417545E-01 -9.876550559023E-01 -9.852226241645E-01 -9.828021552080E-01
 -9.803935585121E-01 -9.779967443843E-01 -9.756116239719E-01 -9.732381092798E-01
 -9.708761131808E-01 -9.685255494415E-01 -9.661863327293E-01 -9.638583786206E-01
 -9.615416036135E-01 -9.592359251308E-01 -9.569412615462E-01 -9.546575321778E-01
 -9.523846572893E-01 -9.501225580953E-01 -9.478711567543E-01 -9.456303763873E-01
 -9.434001410606E-01 -9.411803757777E-01 -9.389710064743E-01 -9.367719600034E-01
 -9.345831641393E-01 -9.324045475557E-01 -9.302360398069E-01 -9.280775713135E-01
 -9.259290733420E-01 -9.237904779923E-01 -9.216617181750E-01 -9.195427275851E-01
 -9.174334406807E-01 -9.153337927084E-01 -9.132437195983E-01 -9.111631578396E-01
 -9.090920446751E-01 -9.070303180035E-01 -9.049779159889E-01 -9.029347760223E-01
 -9.009008407647E-01 -8.988760510703E-01 -8.968603480064E-01 -8.948536727084E-01
 -8.928559772877E-01 -8.908671910076E-01 -8.888872494679E-01 -8.869160918542E-01
 -8.849536595425E-01 -8.829998834934E-01 -8.810547132512E-01 -8.791181224069E-01
 -8.771900714781E-01 -8.752705211779E-01 -8.733594315767E-01 -8.714567760062E-01
 -8.695624834427E-01 -8.676764959893E-01 -8.657987511383E-01 -8.639291820622E-01
 -8.620677327573E-01 -8.602143235900E-01 -8.583688601324E-01 -8.565312611043E-01
 -8.547014486446E-01 -8.528793506490E-01 -8.510648386587E-01 -8.492579368424E-01
 -8.474586164111E-01 -8.456668528411E-01 -8.438826243193E-01 -8.421059302002E-01
 -8.403367578818E-01 -8.385750255866E-01 -8.368206855136E-01 -8.350736868923E-01
 -8.333339770703E-01 -8.316014856735E-01 -8.298761719728E-01 -8.281579995097E-01
 -8.264469240105E-01 -8.247429021460E-01 -8.230458913702E-01 -8.213558541821E-01
 -8.196727440552E-01 -8.179965179843E-01 -8.163271338197E-01 -8.146645497325E-01
 -8.130087242027E-01 -8.113596158620E-01 -8.097171841206E-01 -8.080813885134E-01
 -8.064521889019E-01 -8.048295454700E-01 -8.032134187214E-01 -8.016037694749E-01
 -8.000005588665E-01 -7.984037483408E-01 -7.968132996493E-01 -7.952291748481E-01
 -7.936513362943E-01 -7.920797466430E-01 -7.905143688447E-01 -7.889551661421E-01
 -7.874021020676E-01 -7.858551404398E-01 -7.843142453614E-01 -7.827793812160E-01
 -7.812505126653E-01 -7.797276046468E-01 -7.782106223707E-01 -7.766995313176E-01
 -7.751942972355E-01 -7.736948861374E-01 -7.722012642991E-01 -7.707133982558E-01
 -7.692312548006E-01 -7.677548009813E-01 -7.662840040984E-01 -7.648188317021E-01
 -7.633592515908E-01 -7.619052318080E-01 -7.604567406404E-01 -7.590137466150E-01
 -7.575762184978E-01 -7.561441252906E-01 -7.547174362292E-01 -7.532961207814E-01
 -7.518801486442E-01 -7.504694897423E-01 -7.490641142257E-01 -7.476639924673E-01
 -7.462690950615E-01 -7.448793928214E-01 -7.434948567773E-01 -7.421154581744E-01
 -7.407411684710E-01 -7.393719593364E-01 -7.380078026490E-01 -7.366486704942E-01
 -7.352945351630E-01 -7.339453691495E-01 -7.326011451494E-01 -7.312618360580E-01
 -7.299274149687E-01 -7.285978551705E-01 -7.272731301472E-01 -7.259532135747E-01
 -7.246380793199E-01 -7.233277014385E-01 -7.220220541738E-01 -7.207211119545E-01
 -7.194248493934E-01 -7.181332412857E-01 -7.168462626070E-01 -7.155638885123E-01
 -7.142860943339E-01 -7.130128555800E-01 -7.117441479332E-01 -7.104799472487E-01
 -7.092202295531E-01 -7.079649710427E-01 -7.067141480821E-01 -7.054677372024E-01
 -7.042257151003E-01 -7.029880586361E-01 -7.017547448326E-01 -7.005257508734E-01
 -6.993010541020E-01 -6.980806320197E-01 -6.968644622847E-01 -6.956525227108E-01
 -6.944447912657E-01 -6.932412460698E-01 -6.920418653952E-01 -6.908466276637E-01
 -6.896555114462E-01 -6.884684954612E-01 -6.872855585732E-01 -6.861066797919E-01
 -6.849318382707E-01 -6.837610133057E-01 -6.825941843340E-01 -6.814313309332E-01
 -6.802724328197E-01 -6.791174698474E-01 -6.779664220072E-01 -6.768192694251E-01
 -6.756759923616E-01 -6.745365712103E-01 -6.734009864967E-01 -6.722692188775E-01
 -6.711412491388E-01 -6.700170581959E-01 -6.688966270915E-01 -6.677799369950E-01
</data>
</radfunc>
</slps>
<slps n="3" l="p" rc="1.72196877533" flavor="Hamann&apos;s oncvpsp">
<radfunc>
<data>
 -3.453294210503E+00 -3.452247165746E+00 -3.449112710900E+00 -3.443910841894E+00
 -3.436674695093E+00 -3.427450267692E+00 -3.416296028076E+00 -3.403282420347E+00
 -3.388491267250E+00 -3.372015076520E+00 -3.353956256602E+00 -3.334426248501E+00
 -3.313544581354E+00 -3.291437860083E+00 -3.268238694200E+00 -3.244084577517E+00
 -3.219116729076E+00 -3.193478906141E+00 -3.167316200510E+00 -3.140773829685E+00
 -3.113995934686E+00 -3.087124396325E+00 -3.060297681713E+00 -3.033649732596E+00
 -3.007308906764E+00 -2.981396983290E+00 -2.956028241781E+00 -2.931308625016E+00
 -2.907334993490E+00 -2.884194479357E+00 -2.861963946149E+00 -2.840709559436E+00
 -2.820486472266E+00 -2.801338627910E+00 -2.783298680982E+00 -2.766388036639E+00
 -2.750617006108E+00 -2.735985075406E+00 -2.722481282787E+00 -2.710084699141E+00
 -2.698765004404E+00 -2.688483151915E+00 -2.679192111724E+00 -2.670837682959E+00
 -2.663359364724E+00 -2.656691274377E+00 -2.650763101711E+00 -2.645501087259E+00
 -2.640829012898E+00 -2.636669192978E+00 -2.632943454398E+00 -2.629574094448E+00
 -2.626484805658E+00 -2.623601557552E+00 -2.620853425880E+00 -2.618173360731E+00
 -2.615498885809E+00 -2.612772722106E+00 -2.609943330278E+00 -2.606965367001E+00
 -2.603800051792E+00 -2.600415441792E+00 -2.596786613203E+00 -2.592895749165E+00
 -2.588732134926E+00 -2.584292062319E+00 -2.579578646484E+00 -2.574601558877E+00
 -2.569376681458E+00 -2.563925687858E+00 -2.558275558119E+00 -2.552458034304E+00
 -2.546509024876E+00 -2.540467966325E+00 -2.534377150887E+00 -2.528281029522E+00
 -2.522225499549E+00 -2.516257186398E+00 -2.510422728846E+00 -2.504768077080E+00
 -2.499337812577E+00 -2.494174498290E+00 -2.489318067427E+00 -2.484805258221E+00
 -2.480669101528E+00 -2.476938467299E+00 -2.473637675107E+00 -2.470786172971E+00
 -2.468398287763E+00 -2.466483049511E+00 -2.465044090832E+00 -2.464079621739E+00
 -2.463582479057E+00 -2.463540248645E+00 -2.463935457727E+00 -2.464745833679E+00
 -2.465944624820E+00 -2.467500977966E+00 -2.469380366841E+00 -2.471545064833E+00
 -2.473954655109E+00 -2.476566570690E+00 -2.479336656808E+00 -2.482219747684E+00
 -2.485170249779E+00 -2.488142723617E+00 -2.491092456369E+00 -2.493976017637E+00
 -2.496751791184E+00 -2.499380475760E+00 -2.501825548657E+00 -2.504053686142E+00
 -2.506035135595E+00 -2.507744034807E+00 -2.509158674673E+00 -2.510261702113E+00
 -2.511040261061E+00 -2.511486070045E+00 -2.511595435705E+00 -2.511369202361E+00
 -2.510812638720E+00 -2.509935263568E+00 -2.508750612762E+00 -2.507275951067E+00
 -2.505531932818E+00 -2.503542215937E+00 -2.501333034635E+00 -2.498932736686E+00
 -2.496371291362E+00 -2.493679774765E+00 -2.490889839555E+00 -2.488033176100E+00
 -2.485140972518E+00 -2.482243380765E+00 -2.479368996149E+00 -2.476544357417E+00
 -2.473793473850E+00 -2.471137386531E+00 -2.468593769086E+00 -2.466176573626E+00
 -2.463895727225E+00 -2.461756881784E+00 -2.459761222394E+00 -2.457905335304E+00
 -2.456181137754E+00 -2.454575871338E+00 -2.453072156781E+00 -2.451648112244E+00
 -2.450277530429E+00 -2.448930114198E+00 -2.447571766339E+00 -2.446164929436E+00
 -2.444668970916E+00 -2.443040621381E+00 -2.441234416736E+00 -2.439203140266E+00
 -2.436898507701E+00 -2.434271553778E+00 -2.431273514711E+00 -2.427855558899E+00
 -2.423966823436E+00 -2.419554890917E+00 -2.414565301169E+00 -2.408945325836E+00
 -2.402651827986E+00 -2.395649686245E+00 -2.387909222979E+00 -2.379401479615E+00