Si    ONCVPSP-3.2.3  r_core=   1.60303   1.72197   1.91712
     14.0000      4.0000      170221    zatom,zion,pspd
     8      11   2     4   600     0    pspcod,pspxc,lmax,lloc,mmax,r2well
  5.99000000  4.00000000  0.00000000    rchrg fchrg qchrg
     2     2     2     0     0    nproj
     1     1           extension_switch
   0                         5.2290119209066D+00  8.3714180610412D-01
     1  0.0000000000000D+00 -4.7616953158247D-09  1.0406268201313D-08
     2  1.0000000000000D-02  2.6888749301233D-02  1.3420928257976D-03
     3  2.0000000000000D-02  5.3572154413117D-02  3.1166403007063D-03
     4  3.0000000000000D-02  7.9848914944804D-02  5.7472229113867D-03
     5  4.0000000000000D-02  1.0552574573796D-01  9.6398310551518D-03
     6  5.0000000000000D-02  1.3042120481390D-01  1.5174462869588D-02
     7  6.0000000000000D-02  1.5436930917487D-01  2.2697185956081D-02
     8  7.0000000000000D-02  1.7722287344371D-01  3.2512805172838D-02
     9  8.0000000000000D-02  1.9885651108757D-01  4.4878268266705D-02
    10  9.0000000000000D-02  2.1916924377182D-01  5.9996928437816D-02
    11  1.0000000000000D-01  2.3808667113054D-01  7.8013768200170D-02
    12  1.1000000000000D-01  2.5556266080819D-01  9.9011672362717D-02
    13  1.2000000000000D-01  2.7158052689434D-01  1.2300881988870D-01
    14  1.3000000000000D-01  2.8615367370116D-01  1.4995724510006D-01
    15  1.4000000000000D-01  2.9932569107197D-01  1.7974259850505D-01
    16  1.5000000000000D-01  3.1116989690313D-01  2.1218511678133D-01
    17  1.6000000000000D-01  3.2178833214982D-01  2.4704179049540D-01
    18  1.7000000000000D-01  3.3131022310641D-01  2.8400969733687D-01
    19  1.8000000000000D-01  3.3988993504350D-01  3.2273044834563D-01
    20  1.9000000000000D-01  3.4770445018654D-01  3.6279567515743D-01
    21  2.0000000000000D-01  3.5495041138577D-01  4.0375346801889D-01
    22  2.1000000000000D-01  3.6184078050960D-01  4.4511565754020D-01
    23  2.2000000000000D-01  3.6860116746177D-01  4.8636581814983D-01
    24  2.3000000000000D-01  3.7546589165949D-01  5.2696785824912D-01
    25  2.4000000000000D-01  3.8267384271087D-01  5.6637505136095D-01
    26  2.5000000000000D-01  3.9046421081027D-01  6.0403935431273D-01
    27  2.6000000000000D-01  3.9907215996263D-01  6.3942085283699D-01
    28  2.7000000000000D-01  4.0872451850400D-01  6.7199717201603D-01
    29  2.8000000000000D-01  4.1963556147993D-01  7.0127268879890D-01
    30  2.9000000000000D-01  4.3200295826862D-01  7.2678738639231D-01
    31  3.0000000000000D-01  4.4600395640924D-01  7.4812519563671D-01
    32  3.1000000000000D-01  4.6179186895209D-01  7.6492167644574D-01
    33  3.2000000000000D-01  4.7949292784515D-01  7.7687090288597D-01
    34  3.3000000000000D-01  4.9920355998644D-01  7.8373142833637D-01
    35  3.4000000000000D-01  5.2098813569912D-01  7.8533122218611D-01
    36  3.5000000000000D-01  5.4487723163829D-01  7.8157148645861D-01
    37  3.6000000000000D-01  5.7086644164146D-01  7.7242927931474D-01
    38  3.7000000000000D-01  5.9891575992944D-01  7.5795889227755D-01
    39  3.8000000000000D-01  6.2894955150052D-01  7.3829194891178D-01
    40  3.9000000000000D-01  6.6085711469800D-01  7.1363621423059D-01
    41  4.0000000000000D-01  6.9449383093379D-01  6.8427312593304D-01
    42  4.1000000000000D-01  7.2968288658520D-01  6.5055408033309D-01
    43  4.2000000000000D-01  7.6621754231774D-01  6.1289552715526D-01
    44  4.3000000000000D-01  8.0386391568657D-01  5.7177294788713D-01
    45  4.4000000000000D-01  8.4236423399387D-01  5.2771381174267D-01
    46  4.5000000000000D-01  8.8144050618035D-01  4.8128962117412D-01
    47  4.6000000000000D-01  9.2079855514604D-01  4.3310717496600D-01
    48  4.7000000000000D-01  9.6013234545777D-01  3.8379919097233D-01
    49  4.8000000000000D-01  9.9912853602009D-01  3.3401444227332D-01
    50  4.9000000000000D-01  1.0374711830583D+00  2.8440756972025D-01
    51  5.0000000000000D-01  1.0748465157649D+00  2.3562874034053D-01
    52  5.1000000000000D-01  1.1109477052481D+00  1.8831332476473D-01
    53  5.2000000000000D-01  1.1454795470333D+00  1.4307176763857D-01
    54  5.3000000000000D-01  1.1781629783152D+00  1.0047982285756D-01
    55  5.4000000000000D-01  1.2087393534296D+00  6.1069320448933D-02
    56  5.5000000000000D-01  1.2369744045916D+00  2.5319624057932D-02
    57  5.6000000000000D-01  1.2626618197590D+00 -6.3500725721624D-03
    58  5.7000000000000D-01  1.2856263754699D+00 -3.3587474872040D-02
    59  5.8000000000000D-01  1.3057265695773D+00 -5.6112822719899D-02
    60  5.9000000000000D-01  1.3228567068297D+00 -7.3723329545532D-02
    61  6.0000000000000D-01  1.3369483991360D+00 -8.6296342556726D-02
    62  6.1000000000000D-01  1.3479714519190D+00 -9.3791162313885D-02
    63  6.2000000000000D-01  1.3559341180724D+00 -9.6249482002773D-02
    64  6.3000000000000D-01  1.3608827115616D+00 -9.3794429770699D-02
    65  6.4000000000000D-01  1.3629005833532D+00 -8.6628220769822D-02
    66  6.5000000000000D-01  1.3621064731462D+00 -7.5028449131041D-02
    67  6.6000000000000D-01  1.3586522609314D+00 -5.9343073151458D-02
    68  6.7000000000000D-01  1.3527201526410D+00 -3.9984169334601D-02
    69  6.8000000000000D-01  1.3445193439518D+00 -1.7420552329497D-02
    70  6.9000000000000D-01  1.3342822153739D+00  7.8306224049777D-03
    71  7.0000000000000D-01  1.3222601200328D+00  3.5213138323059D-02
    72  7.1000000000000D-01  1.3087188328758D+00  6.4141729060844D-02
    73  7.2000000000000D-01  1.2939337362700D+00  9.4012656833629D-02
    74  7.3000000000000D-01  1.2781848219729D+00  1.2421468264016D-01
    75  7.4000000000000D-01  1.2617515932049D+00  1.5414024483478D-01
    76  7.5000000000000D-01  1.2449079529246D+00  1.8319665751600D-01
    77  7.6000000000000D-01  1.2279171653765D+00  2.1081713813881D-01
    78  7.7000000000000D-01  1.2110269775074D+00  2.3647147488392D-01
    79  7.8000000000000D-01  1.1944649849332D+00  2.5967614858420D-01
    80  7.9000000000000D-01  1.1784343238069D+00  2.8000373138228D-01
    81  8.0000000000000D-01  1.1631097652313D+00  2.9709139467813D-01
    82  8.1000000000000D-01  1.1486342828409D+00  3.1064837217147D-01
    83  8.2000000000000D-01  1.1351161569407D+00  3.2046223971681D-01
    84  8.3000000000000D-01  1.1226266702446D+00  3.2640389204810D-01
    85  8.4000000000000D-01  1.1111984409199D+00  3.2843111691640D-01
    86  8.5000000000000D-01  1.1008244284810D+00  3.2659068949596D-01
    87  8.6000000000000D-01  1.0914576372268D+00  3.2101893370431D-01
    88  8.7000000000000D-01  1.0830115305656D+00  3.1194072197180D-01
    89  8.8000000000000D-01  1.0753611578931D+00  2.9966691058909D-01
    90  8.9000000000000D-01  1.0683449838784D+00  2.8459023364404D-01
    91  9.0000000000000D-01  1.0617673982532D+00  2.6717970431485D-01
    92  9.1000000000000D-01  1.0554018726903D+00  2.4797359749225D-01
    93  9.2000000000000D-01  1.0489947202805D+00  2.2757111194557D-01
    94  9.3000000000000D-01  1.0422694026648D+00  2.0662283312464D-01
    95  9.4000000000000D-01  1.0349313202186D+00  1.8582013881786D-01
    96  9.5000000000000D-01  1.0266730119812D+00  1.6588370890953D-01
    97  9.6000000000000D-01  1.0171796844330D+00  1.4755131707092D-01
    98  9.7000000000000D-01  1.0061349818662D+00  1.3156509608944D-01
    99  9.8000000000000D-01  9.9322690607967D-01  1.1865847947189D-01
   100  9.9000000000000D-01  9.7815378963249D-01  1.0954302956007D-01
   101  1.0000000000000D+00  9.6063022474066D-01  1.0489536704356D-01
   102  1.0100000000000D+00  9.4039284950793D-01  1.0534441755067D-01
   103  1.0200000000000D+00  9.1720589424522D-01  1.1145918860401D-01
   104  1.0300000000000D+00  8.9086639328530D-01  1.2373728434833D-01
   105  1.0400000000000D+00  8.6120897203254D-01  1.4259435589809D-01
   106  1.0500000000000D+00  8.2811012460384D-01  1.6835467278232D-01
   107  1.0600000000000D+00  7.9149190437156D-01  2.0124298566337D-01
   108  1.0700000000000D+00  7.5132495858850D-01  2.4137783101045D-01
   109  1.0800000000000D+00  7.0763084746268D-01  2.8876640822295D-01
   110  1.0900000000000D+00  6.6048359924612D-01  3.4330113511084D-01
   111  1.1000000000000D+00  6.1001046384325D-01  4.0475796361884D-01
   112  1.1100000000000D+00  5.5639183975147D-01  4.7279651067009D-01
   113  1.1200000000000D+00  4.9986036265674D-01  5.4696202936167D-01
   114  1.1300000000000D+00  4.4069915642454D-01  6.2668921850516D-01
   115  1.1400000000000D+00  3.7923926104357D-01  7.1130783820163D-01
   116  1.1500000000000D+00  3.1585626332476D-01  8.0005007448092D-01
   117  1.1600000000000D+00  2.5096617202379D-01  8.9205956125099D-01
   118  1.1700000000000D+00  1.8502058943094D-01  9.8640194506380D-01
   119  1.1800000000000D+00  1.1850124294227D-01  1.0820768530666D+00
   120  1.1900000000000D+00  5.1913950971800D-02  1.1780311007414D+00
   121  1.2000000000000D+00 -1.4217891404115D-02  1.2731729518755D+00
   122  1.2100000000000D+00 -7.9360214345102D-02  1.3663872271528D+00
   123  1.2200000000000D+00 -1.4297546466032D-01  1.4565510461418D+00
   124  1.2300000000000D+00 -2.0452997912106D-01  1.5425499664851D+00
   125  1.2400000000000D+00 -2.6350143143648D-01  1.6232942827598D+00
   126  1.2500000000000D+00 -3.1938624167345D-01  1.6977352409650D+00
   127  1.2600000000000D+00 -3.7170683446178D-01  1.7648809192884D+00
   128  1.2700000000000D+00 -4.2001863640722D-01  1.8238115347950D+00
   129  1.2800000000000D+00 -4.6391670394459D-01  1.8736939374733D+00
   130  1.2900000000000D+00 -5.0304187595272D-01  1.9137950598967D+00
   131  1.3000000000000D+00 -5.3708635773011D-01  1.9434941177246D+00
   132  1.3100000000000D+00 -5.6579864284146D-01  1.9622933560749D+00
   133  1.3200000000000D+00 -5.8898769089535D-01  1.9698271621822D+00
   134  1.3300000000000D+00 -6.0652629903179D-01  1.9658694080254D+00
   135  1.3400000000000D+00 -6.1835359718712D-01  1.9503388696945D+00
   136  1.3500000000000D+00 -6.2447662680553D-01  1.9233026352371D+00
   137  1.3600000000000D+00 -6.2497097769838D-01  1.8849774456906D+00
   138  1.3700000000000D+00 -6.1998044446825D-01  1.8357288848797D+00
   139  1.3800000000000D+00 -6.0971571998626D-01  1.7760684565613D+00
   140  1.3900000000000D+00 -5.9445212411021D-01  1.7066485451550D+00
   141  1.4000000000000D+00 -5.7452638740582D-01  1.6282553036308D+00
   142  1.4100000000000D+00 -5.5033254881929D-01  1.5417995980590D+00
   143  1.4200000000000D+00 -5.2231699087204D-01  1.4483060607471D+00
   144  1.4300000000000D+00 -4.9097270317334D-01  1.3489004513087D+00
   145  1.4400000000000D+00 -4.5683283841142D-01  1.2447954665907D+00
   146  1.4500000000000D+00 -4.2046364599989D-01  1.1372751864870D+00
   147  1.4600000000000D+00 -3.8245689724934D-01  1.0276784055390D+00
   148  1.4700000000000D+00 -3.4342188435013D-01  9.1738103101893D-01
   149  1.4800000000000D+00 -3.0397712912432D-01  8.0777784580326D-01
   150  1.4900000000000D+00 -2.6474190096577D-01  7.0026385427292D-01
   151  1.5000000000000D+00 -2.2632767720952D-01  5.9621550359473D-01
   152  1.5100000000000D+00 -1.8932965716843D-01  4.9697202447225D-01
   153  1.5200000000000D+00 -1.5431846606336D-01  4.0381719028789D-01
   154  1.5300000000000D+00 -1.2183214551334D-01  3.1796170669231D-01
   155  1.5400000000000D+00 -9.2368579026150D-02  2.4052655736426D-01
   156  1.5500000000000D+00 -6.6387856743067D-02  1.7255192162069D-01
   157  1.5600000000000D+00 -4.4274688177105D-02  1.1490224398349D-01
   158  1.5700000000000D+00 -2.6270503864883D-02  6.8092929913686D-02
   159  1.5800000000000D+00 -1.2828868976063D-02  3.3211843209709D-02
   160  1.5900000000000D+00 -4.4587188208325D-03  1.1513831701058D-02
   161  1.6000000000000D+00 -5.4975776481690D-04  1.3890790371046D-03
   162  1.6100000000000D+00  4.2896021243239D-04 -1.1316129071686D-03
   163  1.6200000000000D+00  1.0893409828405D-04 -2.8514972053708D-04
   164  1.6300000000000D+00 -1.3390643756126D-04  3.5002243637024D-04
   165  1.6400000000000D+00 -3.2727715206262D-05  8.5453766621865D-05
   166  1.6500000000000D+00  2.4057462814256D-05 -6.3098063000444D-05
   167  1.6600000000000D+00  5.2173468937769D-06 -1.3674443360258D-05
   168  1.6700000000000D+00  6.5063025303393D-08 -7.7422366454070D-08
   169  1.6800000000000D+00  1.3267615894473D-08 -1.5787925860560D-08
   170  1.6900000000000D+00  0.0000000000000D+00  0.0000000000000D+00
   171  1.7000000000000D+00  0.0000000000000D+00  0.0000000000000D+00
   172  1.7100000000000D+00  0.0000000000000D+00  0.0000000000000D+00
   173  1.7200000000000D+00  0.0000000000000D+00  0.0000000000000D+00
   174  1.7300000000000D+00  0.0000000000000D+00  0.0000000000000D+00
   175  1.7400000000000D+00  0.0000000000000D+00  0.0000000000000D+00
   176  1.7500000000000D+00  0.0000000000000D+00  0.0000000000000D+00
   177  1.7600000000000D+00  0.0000000000000D+00  0.0000000000000D+00
   178  1.7700000000000D+00  0.0000000000000D+00  0.0000000000000D+00
   179  1.7800000000000D+00  0.0000000000000D+00  0.0000000000000D+00
   180  1.7900000000000D+00  0.0000000000000D+00  0.0000000000000D+00
   181  1.8000000000000D+00  0.0000000000000D+00  0.0000000000000D+00
   182  1.8100000000000D+00  0.0000000000000D+00  0.0000000000000D+00
   183  1.8200000000000D+00  0.0000000000000D+00  0.0000000000000D+00
   184  1.8300000000000D+00  0.0000000000000D+00  0.0000000000000D+00
   185  1.8400000000000D+00  0.0000000000000D+00  0.0000000000000D+00
   186  1.8500000000000D+00  0.0000000000000D+00  0.0000000000000D+00
   187  1.8600000000000D+00  0.0000000000000D+00  0.0000000000000D+00
   188  1.8700000000000D+00  0.0000000000000D+00  0.0000000000000D+00
   189  1.8800000000000D+00  0.0000000000000D+00  0.0000000000000D+00
   190  1.8900000000000D+00  0.0000000000000D+00  0.0000000000000D+00
   191  1.9000000000000D+00  0.0000000000000D+00  0.0000000000000D+00
   192  1.9100000000000D+00  0.0000000000000D+00  0.0000000000000D+00
   193  1.9200000000000D+00  0.0000000000000D+00  0.0000000000000D+00
   194  1.9300000000000D+00  0.0000000000000D+00  0.0000000000000D+00
   195  1.9400000000000D+00  0.0000000000000D+00  0.0000000000000D+00
   196  1.9500000000000D+00  0.0000000000000D+00  0.0000000000000D+00
   197  1.9600000000000D+00  0.0000000000000D+00  0.0000000000000D+00
   198  1.9700000000000D+00  0.0000000000000D+00  0.0000000000000D+00
   199  1.9800000000000D+00  0.0000000000000D+00  0.0000000000000D+00
   200  1.9900000000000D+00  0.0000000000000D+00  0.0000000000000D+00
   201  2.0000000000000D+00  0.0000000000000D+00  0.0000000000000D+00
   202  2.0100000000000D+00  0.0000000000000D+00  0.0000000000000D+00
   203  2.0200000000000D+00  0.0000000000000D+00  0.0000000000000D+00
   204  2.0300000000000D+00  0.0000000000000D+00  0.0000000000000D+00
   205  2.0400000000000D+00  0.0000000000000D+00  0.0000000000000D+00
   206  2.0500000000000D+00  0.0000000000000D+00  0.0000000000000D+00
   207  2.0600000000000D+00  0.0000000000000D+00  0.0000000000000D+00
   208  2.0700000000000D+00  0.0000000000000D+00  0.0000000000000D+00
   209  2.0800000000000D+00  0.0000000000000D+00  0.0000000000000D+00
   210  2.0900000000000D+00  0.0000000000000D+00  0.0000000000000D+00
   211  2.1000000000000D+00  0.0000000000000D+00  0.0000000000000D+00
   212  2.1100000000000D+00  0.0000000000000D+00  0.0000000000000D+00
   213  2.1200000000000D+00  0.0000000000000D+00  0.0000000000000D+00
   214  2.1300000000000D+00  0.0000000000000D+00  0.0000000000000D+00
   215  2.1400000000000D+00  0.0000000000000D+00  0.0000000000000D+00
   216  2.1500000000000D+00  0.0000000000000D+00  0.0000000000000D+00
   217  2.1600000000000D+00  0.0000000000000D+00  0.0000000000000D+00
   218  2.1700000000000D+00  0.0000000000000D+00  0.0000000000000D+00
   219  2.1800000000000D+00  0.0000000000000D+00  0.0000000000000D+00
   220  2.1900000000000D+00  0.0000000000000D+00  0.0000000000000D+00
   221  2.2000000000000D+00  0.0000000000000D+00  0.0000000000000D+00
   222  2.2100000000000D+00  0.0000000000000D+00  0.0000000000000D+00
   223  2.2200000000000D+00  0.0000000000000D+00  0.0000000000000D+00
   224  2.2300000000000D+00  0.0000000000000D+00  0.0000000000000D+00
   225  2.2400000000000D+00  0.0000000000000D+00  0.0000000000000D+00
   226  2.2500000000000D+00  0.0000000000000D+00  0.0000000000000D+00
   227  2.2600000000000D+00  0.0000000000000D+00  0.0000000000000D+00
   228  2.2700000000000D+00  0.0000000000000D+00  0.0000000000000D+00
   229  2.2800000000000D+00  0.0000000000000D+00  0.0000000000000D+00
   230  2.2900000000000D+00  0.0000000000000D+00  0.0000000000000D+00
   231  2.3000000000000D+00  0.0000000000000D+00  0.0000000000000D+00
   232  2.3100000000000D+00  0.0000000000000D+00  0.0000000000000D+00
   233  2.3200000000000D+00  0.0000000000000D+00  0.0000000000000D+00
   234  2.3300000000000D+00  0.0000000000000D+00  0.0000000000000D+00
   235  2.3400000000000D+00  0.0000000000000D+00  0.0000000000000D+00
   236  2.3500000000000D+00  0.0000000000000D+00  0.0000000000000D+00
   237  2.3600000000000D+00  0.0000000000000D+00  0.0000000000000D+00
   238  2.3700000000000D+00  0.0000000000000D+00  0.0000000000000D+00
   239  2.3800000000000D+00  0.0000000000000D+00  0.0000000000000D+00
   240  2.3900000000000D+00  0.0000000000000D+00  0.0000000000000D+00
   241  2.4000000000000D+00  0.0000000000000D+00  0.0000000000000D+00
   242  2.4100000000000D+00  0.0000000000000D+00  0.0000000000000D+00
   243  2.4200000000000D+00  0.0000000000000D+00  0.0000000000000D+00
   244  2.4300000000000D+00  0.0000000000000D+00  0.0000000000000D+00
   245  2.4400000000000D+00  0.0000000000000D+00  0.0000000000000D+00
   246  2.4500000000000D+00  0.0000000000000D+00  0.0000000000000D+00
   247  2.4600000000000D+00  0.0000000000000D+00  0.0000000000000D+00
   248  2.4700000000000D+00  0.0000000000000D+00  0.0000000000000D+00
   249  2.4800000000000D+00  0.0000000000000D+00  0.0000000000000D+00
   250  2.4900000000000D+00  0.0000000000000D+00  0.0000000000000D+00
   251  2.5000000000000D+00  0.0000000000000D+00  0.0000000000000D+00
   252  2.5100000000000D+00  0.0000000000000D+00  0.0000000000000D+00
   253  2.5200000000000D+00  0.0000000000000D+00  0.0000000000000D+00
   254  2.5300000000000D+00  0.0000000000000D+00  0.0000000000000D+00
   255  2.5400000000000D+00  0.0000000000000D+00  0.0000000000000D+00
   256  2.5500000000000D+00  0.0000000000000D+00  0.0000000000000D+00
   257  2.5600000000000D+00  0.0000000000000D+00  0.0000000000000D+00
   258  2.5700000000000D+00  0.0000000000000D+00  0.0000000000000D+00
   259  2.5800000000000D+00  0.0000000000000D+00  0.0000000000000D+00
   260  2.5900000000000D+00  0.0000000000000D+00  0.0000000000000D+00
   261  2.6000000000000D+00  0.0000000000000D+00  0.0000000000000D+00
   262  2.6100000000000D+00  0.0000000000000D+00  0.0000000000000D+00
   263  2.6200000000000D+00  0.0000000000000D+00  0.0000000000000D+00
   264  2.6300000000000D+00  0.0000000000000D+00  0.0000000000000D+00
   265  2.6400000000000D+00  0.0000000000000D+00  0.0000000000000D+00
   266  2.6500000000000D+00  0.0000000000000D+00  0.0000000000000D+00
   267  2.6600000000000D+00  0.0000000000000D+00  0.0000000000000D+00
   268  2.6700000000000D+00  0.0000000000000D+00  0.0000000000000D+00
   269  2.6800000000000D+00  0.0000000000000D+00  0.0000000000000D+00
   270  2.6900000000000D+00  0.0000000000000D+00  0.0000000000000D+00
   271  2.7000000000000D+00  0.0000000000000D+00  0.0000000000000D+00
   272  2.7100000000000D+00  0.0000000000000D+00  0.0000000000000D+00
   273  2.7200000000000D+00  0.0000000000000D+00  0.0000000000000D+00
   274  2.7300000000000D+00  0.0000000000000D+00  0.0000000000000D+00
   275  2.7400000000000D+00  0.0000000000000D+00  0.0000000000000D+00
   276  2.7500000000000D+00  0.0000000000000D+00  0.0000000000000D+00
   277  2.7600000000000D+00  0.0000000000000D+00  0.0000000000000D+00
   278  2.7700000000000D+00  0.0000000000000D+00  0.0000000000000D+00
   279  2.7800000000000D+00  0.0000000000000D+00  0.0000000000000D+00
   280  2.7900000000000D+00  0.0000000000000D+00  0.0000000000000D+00
   281  2.8000000000000D+00  0.0000000000000D+00  0.0000000000000D+00
   282  2.8100000000000D+00  0.0000000000000D+00  0.0000000000000D+00
   283  2.8200000000000D+00  0.0000000000000D+00  0.0000000000000D+00
   284  2.8300000000000D+00  0.0000000000000D+00  0.0000000000000D+00
   285  2.8400000000000D+00  0.0000000000000D+00  0.0000000000000D+00
   286  2.8500000000000D+00  0.0000000000000D+00  0.0000000000000D+00
   287  2.8600000000000D+00  0.0000000000000D+00  0.0000000000000D+00
   288  2.8700000000000D+00  0.0000000000000D+00  0.0000000000000D+00
   289  2.8800000000000D+00  0.0000000000000D+00  0.0000000000000D+00
   290  2.8900000000000D+00  0.0000000000000D+00  0.0000000000000D+00
   291  2.9000000000000D+00  0.0000000000000D+00  0.0000000000000D+00
   292  2.9100000000000D+00  0.0000000000000D+00  0.0000000000000D+00
   293  2.9200000000000D+00  0.0000000000000D+00  0.0000000000000D+00
   294  2.9300000000000D+00  0.0000000000000D+00  0.0000000000000D+00
   295  2.9400000000000D+00  0.0000000000000D+00  0.0000000000000D+00
   296  2.9500000000000D+00  0.0000000000000D+00  0.0000000000000D+00
   297  2.9600000000000D+00  0.0000000000000D+00  0.0000000000000D+00
   298  2.9700000000000D+00  0.0000000000000D+00  0.0000000000000D+00
   299  2.9800000000000D+00  0.0000000000000D+00  0.0000000000000D+00
   300  2.9900000000000D+00  0.0000000000000D+00  0.0000000000000D+00
   301  3.0000000000000D+00  0.0000000000000D+00  0.0000000000000D+00
   302  3.0100000000000D+00  0.0000000000000D+00  0.0000000000000D+00
   303  3.0200000000000D+00  0.0000000000000D+00  0.0000000000000D+00
   304  3.0300000000000D+00  0.0000000000000D+00  0.0000000000000D+00
   305  3.0400000000000D+00  0.0000000000000D+00  0.0000000000000D+00
   306  3.0500000000000D+00  0.0000000000000D+00  0.0000000000000D+00
   307  3.0600000000000D+00  0.0000000000000D+00  0.0000000000000D+00
   308  3.0700000000000D+00  0.0000000000000D+00  0.0000000000000D+00
   309  3.0800000000000D+00  0.0000000000000D+00  0.0000000000000D+00
   310  3.0900000000000D+00  0.0000000000000D+00  0.0000000000000D+00
   311  3.1000000000000D+00  0.0000000000000D+00  0.0000000000000D+00
   312  3.1100000000000D+00  0.0000000000000D+00  0.0000000000000D+00
   313  3.1200000000000D+00  0.0000000000000D+00  0.0000000000000D+00
   314  3.1300000000000D+00  0.0000000000000D+00  0.0000000000000D+00
   315  3.1400000000000D+00  0.0000000000000D+00  0.0000000000000D+00
   316  3.1500000000000D+00  0.0000000000000D+00  0.0000000000000D+00
   317  3.1600000000000D+00  0.0000000000000D+00  0.0000000000000D+00
   318  3.1700000000000D+00  0.0000000000000D+00  0.0000000000000D+00
   319  3.1800000000000D+00  0.0000000000000D+00  0.0000000000000D+00
   320  3.1900000000000D+00  0.0000000000000D+00  0.0000000000000D+00
   321  3.2000000000000D+00  0.0000000000000D+00  0.0000000000000D+00
   322  3.2100000000000D+00  0.0000000000000D+00  0.0000000000000D+00
   323  3.2200000000000D+00  0.0000000000000D+00  0.0000000000000D+00
   324  3.2300000000000D+00  0.0000000000000D+00  0.0000000000000D+00
   325  3.2400000000000D+00  0.0000000000000D+00  0.0000000000000D+00
   326  3.2500000000000D+00  0.0000000000000D+00  0.0000000000000D+00
   327  3.2600000000000D+00  0.0000000000000D+00  0.0000000000000D+00
   328  3.2700000000000D+00  0.0000000000000D+00  0.0000000000000D+00
   329  3.2800000000000D+00  0.0000000000000D+00  0.0000000000000D+00
   330  3.2900000000000D+00  0.0000000000000D+00  0.0000000000000D+00
   331  3.3000000000000D+00  0.0000000000000D+00  0.0000000000000D+00
   332  3.3100000000000D+00  0.0000000000000D+00  0.0000000000000D+00
   333  3.3200000000000D+00  0.0000000000000D+00  0.0000000000000D+00
   334  3.3300000000000D+00  0.0000000000000D+00  0.0000000000000D+00
   335  3.3400000000000D+00  0.0000000000000D+00  0.0000000000000D+00
   336  3.3500000000000D+00  0.0000000000000D+00  0.0000000000000D+00
   337  3.3600000000000D+00  0.0000000000000D+00  0.0000000000000D+00
   338  3.3700000000000D+00  0.0000000000000D+00  0.0000000000000D+00
   339  3.3800000000000D+00  0.0000000000000D+00  0.0000000000000D+00
   340  3.3900000000000D+00  0.0000000000000D+00  0.0000000000000D+00
   341  3.4000000000000D+00  0.0000000000000D+00  0.0000000000000D+00
   342  3.4100000000000D+00  0.0000000000000D+00  0.0000000000000D+00
   343  3.4200000000000D+00  0.0000000000000D+00  0.0000000000000D+00
   344  3.4300000000000D+00  0.0000000000000D+00  0.0000000000000D+00
   345  3.4400000000000D+00  0.0000000000000D+00  0.0000000000000D+00
   346  3.4500000000000D+00  0.0000000000000D+00  0.0000000000000D+00
   347  3.4600000000000D+00  0.0000000000000D+00  0.0000000000000D+00
   348  3.4700000000000D+00  0.0000000000000D+00  0.0000000000000D+00
   349  3.4800000000000D+00  0.0000000000000D+00  0.0000000000000D+00
   350  3.4900000000000D+00  0.0000000000000D+00  0.0000000000000D+00
   351  3.5000000000000D+00  0.0000000000000D+00  0.0000000000000D+00
   352  3.5100000000000D+00  0.0000000000000D+00  0.0000000000000D+00
   353  3.5200000000000D+00  0.0000000000000D+00  0.0000000000000D+00
   354  3.5300000000000D+00  0.0000000000000D+00  0.0000000000000D+00
   355  3.5400000000000D+00  0.0000000000000D+00  0.0000000000000D+00
   356  3.5500000000000D+00  0.0000000000000D+00  0.0000000000000D+00
   357  3.5600000000000D+00  0.0000000000000D+00  0.0000000000000D+00
   358  3.5700000000000D+00  0.0000000000000D+00  0.0000000000000D+00
   359  3.5800000000000D+00  0.0000000000000D+00  0.0000000000000D+00
   360  3.5900000000000D+00  0.0000000000000D+00  0.0000000000000D+00
   361  3.6000000000000D+00  0.0000000000000D+00  0.0000000000000D+00
   362  3.6100000000000D+00  0.0000000000000D+00  0.0000000000000D+00
   363  3.6200000000000D+00  0.0000000000000D+00  0.0000000000000D+00
   364  3.6300000000000D+00  0.0000000000000D+00  0.0000000000000D+00
   365  3.6400000000000D+00  0.0000000000000D+00  0.0000000000000D+00
   366  3.6500000000000D+00  0.0000000000000D+00  0.0000000000000D+00
   367  3.6600000000000D+00  0.0000000000000D+00  0.0000000000000D+00
   368  3.6700000000000D+00  0.0000000000000D+00  0.0000000000000D+00
   369  3.6800000000000D+00  0.0000000000000D+00  0.0000000000000D+00
   370  3.6900000000000D+00  0.0000000000000D+00  0.0000000000000D+00
   371  3.7000000000000D+00  0.0000000000000D+00  0.0000000000000D+00
   372  3.7100000000000D+00  0.0000000000000D+00  0.0000000000000D+00
   373  3.7200000000000D+00  0.0000000000000D+00  0.0000000000000D+00
   374  3.7300000000000D+00  0.0000000000000D+00  0.0000000000000D+00
   375  3.7400000000000D+00  0.0000000000000D+00  0.0000000000000D+00
   376  3.7500000000000D+00  0.0000000000000D+00  0.0000000000000D+00
   377  3.7600000000000D+00  0.0000000000000D+00  0.0000000000000D+00
   378  3.7700000000000D+00  0.0000000000000D+00  0.0000000000000D+00
   379  3.7800000000000D+00  0.0000000000000D+00  0.0000000000000D+00
   380  3.7900000000000D+00  0.0000000000000D+00  0.0000000000000D+00
   381  3.8000000000000D+00  0.0000000000000D+00  0.0000000000000D+00
   382  3.8100000000000D+00  0.0000000000000D+00  0.0000000000000D+00
   383  3.8200000000000D+00  0.0000000000000D+00  0.0000000000000D+00
   384  3.8300000000000D+00  0.0000000000000D+00  0.0000000000000D+00
   385  3.8400000000000D+00  0.0000000000000D+00  0.0000000000000D+00
   386  3.8500000000000D+00  0.0000000000000D+00  0.0000000000000D+00
   387  3.8600000000000D+00  0.0000000000000D+00  0.0000000000000D+00
   388  3.8700000000000D+00  0.0000000000000D+00  0.0000000000000D+00
   389  3.8800000000000D+00  0.0000000000000D+00  0.0000000000000D+00
   390  3.8900000000000D+00  0.0000000000000D+00  0.0000000000000D+00
   391  3.9000000000000D+00  0.0000000000000D+00  0.0000000000000D+00
   392  3.9100000000000D+00  0.0000000000000D+00  0.0000000000000D+00
   393  3.9200000000000D+00  0.0000000000000D+00  0.0000000000000D+00
   394  3.9300000000000D+00  0.0000000000000D+00  0.0000000000000D+00
   395  3.9400000000000D+00  0.0000000000000D+00  0.0000000000000D+00
   396  3.9500000000000D+00  0.0000000000000D+00  0.0000000000000D+00
   397  3.9600000000000D+00  0.0000000000000D+00  0.0000000000000D+00
   398  3.9700000000000D+00  0.0000000000000D+00  0.0000000000000D+00
   399  3.9800000000000D+00  0.0000000000000D+00  0.0000000000000D+00
   400  3.9900000000000D+00  0.0000000000000D+00  0.0000000000000D+00
   401  4.0000000000000D+00  0.0000000000000D+00  0.0000000000000D+00
   402  4.0100000000000D+00  0.0000000000000D+00  0.0000000000000D+00
   403  4.0200000000000D+00  0.0000000000000D+00  0.0000000000000D+00
   404  4.0300000000000D+00  0.0000000000000D+00  0.0000000000000D+00
   405  4.0400000000000D+00  0.0000000000000D+00  0.0000000000000D+00
   406  4.0500000000000D+00  0.0000000000000D+00  0.0000000000000D+00
   407  4.0600000000000D+00  0.0000000000000D+00  0.0000000000000D+00
   408  4.0700000000000D+00  0.0000000000000D+00  0.0000000000000D+00
   409  4.0800000000000D+00  0.0000000000000D+00  0.0000000000000D+00
   410  4.0900000000000D+00  0.0000000000000D+00  0.0000000000000D+00
   411  4.1000000000000D+00  0.0000000000000D+00  0.0000000000000D+00
   412  4.1100000000000D+00  0.0000000000000D+00  0.0000000000000D+00
   413  4.1200000000000D+00  0.0000000000000D+00  0.0000000000000D+00
   414  4.1300000000000D+00  0.0000000000000D+00  0.0000000000000D+00
   415  4.1400000000000D+00  0.0000000000000D+00  0.0000000000000D+00
   416  4.1500000000000D+00  0.0000000000000D+00  0.0000000000000D+00
   417  4.1600000000000D+00  0.0000000000000D+00  0.0000000000000D+00
   418  4.1700000000000D+00  0.0000000000000D+00  0.0000000000000D+00
   419  4.1800000000000D+00  0.0000000000000D+00  0.0000000000000D+00
   420  4.1900000000000D+00  0.0000000000000D+00  0.0000000000000D+00
   421  4.2000000000000D+00  0.0000000000000D+00  0.0000000000000D+00
   422  4.2100000000000D+00  0.0000000000000D+00  0.0000000000000D+00