Si    ONCVPSP-3.3.0  r_core=   1.60303   1.72197   1.91712
     14.0000      4.0000      170801    zatom,zion,pspd
     8      11   2     4   600     0    pspcod,pspxc,lmax,lloc,mmax,r2well
  5.99000000  4.00000000  0.00000000    rchrg fchrg qchrg
     2     2     2     0     0    nproj
     1     1           extension_switch
   0                         5.1689652485783D+00  8.2988268857038D-01
     1  0.0000000000000D+00 -5.6328576802933D-09  1.2523216363219D-08
     2  1.0000000000000D-02  3.1595742776770D-02 -7.8297391295004D-03
     3  2.0000000000000D-02  6.2932621171205D-02 -1.5104637962976D-02
     4  3.0000000000000D-02  9.3756650482979D-02 -2.1280726202505D-02
     5  4.0000000000000D-02  1.2382351921983D-01 -2.5835581987444D-02
     6  5.0000000000000D-02  1.5290321178082D-01 -2.8278630482005D-02
     7  6.0000000000000D-02  1.8078437852356D-01 -2.8160880796291D-02
     8  7.0000000000000D-02  2.0727837575145D-01 -2.5083929006703D-02
     9  8.0000000000000D-02  2.3222290378989D-01 -1.8708067564796D-02
    10  9.0000000000000D-02  2.5548517818263D-01 -8.7593566396242D-03
    11  1.0000000000000D-01  2.7696457701537D-01  4.9644693287907D-03
    12  1.1000000000000D-01  2.9659471633097D-01  2.2589366675099D-02
    13  1.2000000000000D-01  3.1434491538748D-01  4.4161704206292D-02
    14  1.3000000000000D-01  3.3022102396319D-01  6.9646403367084D-02
    15  1.4000000000000D-01  3.4426559485691D-01  9.8926534362089D-02
    16  1.5000000000000D-01  3.5655739598126D-01  1.3180438071694D-01
    17  1.6000000000000D-01  3.6721026781440D-01  1.6800395949446D-01
    18  1.7000000000000D-01  3.7637134326827D-01  2.0717495928260D-01
    19  1.8000000000000D-01  3.8421865805964D-01  2.4889803356199D-01
    20  1.9000000000000D-01  3.9095819024690D-01  2.9269136355695D-01
    21  2.0000000000000D-01  3.9682037754165D-01  3.3801838257335D-01
    22  2.1000000000000D-01  4.0205617015120D-01  3.8429653350478D-01
    23  2.2000000000000D-01  4.0693268509958D-01  4.3090691299251D-01
    24  2.3000000000000D-01  4.1172853507058D-01  4.7720463996483D-01
    25  2.4000000000000D-01  4.1672891069495D-01  5.2252977323126D-01
    26  2.5000000000000D-01  4.2222049976240D-01  5.6621859269063D-01
    27  2.6000000000000D-01  4.2848632999770D-01  6.0761505171061D-01
    28  2.7000000000000D-01  4.3580062374148D-01  6.4608220447355D-01
    29  2.8000000000000D-01  4.4442375308809D-01  6.8101341163416D-01
    30  2.9000000000000D-01  4.5459738274593D-01  7.1184313051570D-01
    31  3.0000000000000D-01  4.6653988511826D-01  7.3805710224379D-01
    32  3.1000000000000D-01  4.8044210789492D-01  7.5920175758970D-01
    33  3.2000000000000D-01  4.9646356886470D-01  7.7489267571902D-01
    34  3.3000000000000D-01  5.1472914579229D-01  7.8482194532028D-01
    35  3.4000000000000D-01  5.3532632116395D-01  7.8876429547427D-01
    36  3.5000000000000D-01  5.5830303252269D-01  7.8658188382724D-01
    37  3.6000000000000D-01  5.8366616913488D-01  7.7822765182164D-01
    38  3.7000000000000D-01  6.1138074502052D-01  7.6374718054801D-01
    39  3.8000000000000D-01  6.4136976711366D-01  7.4327900582385D-01
    40  3.9000000000000D-01  6.7351480568613D-01  7.1705337695891D-01
    41  4.0000000000000D-01  7.0765726235865D-01  6.8538946990629D-01
    42  4.1000000000000D-01  7.4360031923496D-01  6.4869109168530D-01
    43  4.2000000000000D-01  7.8111154112577D-01  6.0744093865639D-01
    44  4.3000000000000D-01  8.1992609167248D-01  5.6219349599925D-01
    45  4.4000000000000D-01  8.5975051362488D-01  5.1356668917397D-01
    46  4.5000000000000D-01  9.0026701375180D-01  4.6223241983325D-01
    47  4.6000000000000D-01  9.4113818403419D-01  4.0890613823239D-01
    48  4.7000000000000D-01  9.8201208305975D-01  3.5433562131374D-01
    49  4.8000000000000D-01  1.0225275950400D+00  2.9928914002809D-01
    50  4.9000000000000D-01  1.0623199787197D+00  2.4454321084160D-01
    51  5.0000000000000D-01  1.1010265147349D+00  1.9087013455993D-01
    52  5.1000000000000D-01  1.1382921577754D+00  1.3902553042768D-01
    53  5.2000000000000D-01  1.1737750992495D+00  8.9736074835453D-02
    54  5.3000000000000D-01  1.2071521470770D+00  4.3687651839509D-02
    55  5.4000000000000D-01  1.2381238317113D+00  1.5141171091138D-03
    56  5.5000000000000D-01  1.2664191515136D+00 -3.6213132100163D-02
    57  5.6000000000000D-01  1.2917998760852D+00 -6.8994600615039D-02
    58  5.7000000000000D-01  1.3140643330411D+00 -9.6410987684743D-02
    59  5.8000000000000D-01  1.3330506118723D+00 -1.1813018124774D-01
    60  5.9000000000000D-01  1.3486391278477D+00 -1.3391282812469D-01
    61  6.0000000000000D-01  1.3607544992423D+00 -1.4361637717573D-01
    62  6.1000000000000D-01  1.3693667023286D+00 -1.4719751730406D-01
    63  6.2000000000000D-01  1.3744914803890D+00 -1.4471295850711D-01
    64  6.3000000000000D-01  1.3761899953293D+00 -1.3631853161452D-01
    65  6.4000000000000D-01  1.3745677229778D+00 -1.2226661016421D-01
    66  6.5000000000000D-01  1.3697726058404D+00 -1.0290188610018D-01
    67  6.6000000000000D-01  1.3619924895353D+00 -7.8655558647880D-02
    68  6.7000000000000D-01  1.3514518812259D+00 -5.0038022617347D-02
    69  6.8000000000000D-01  1.3384080800013D+00 -1.7630168208507D-02
    70  6.9000000000000D-01  1.3231467399351D+00  1.7926571667328D-02
    71  7.0000000000000D-01  1.3059769364474D+00  5.5941268589163D-02
    72  7.1000000000000D-01  1.2872258153863D+00  9.5685462905629D-02
    73  7.2000000000000D-01  1.2672329117888D+00  1.3640585094915D-01
    74  7.3000000000000D-01  1.2463442314155D+00  1.7733748748864D-01
    75  7.4000000000000D-01  1.2249061928162D+00  2.1771728545716D-01
    76  7.5000000000000D-01  1.2032595307501D+00  2.5679758827724D-01
    77  7.6000000000000D-01  1.1817332632209D+00  2.9385958703169D-01
    78  7.7000000000000D-01  1.1606388241360D+00  3.2822635541168D-01
    79  7.8000000000000D-01  1.1402644616678D+00  3.5927527979858D-01
    80  7.9000000000000D-01  1.1208699988006D+00  3.8644966996393D-01
    81  8.0000000000000D-01  1.1026820473373D+00  4.0926934759942D-01
    82  8.1000000000000D-01  1.0858897598864D+00  4.2734002504526D-01
    83  8.2000000000000D-01  1.0706411961532D+00  4.4036130494935D-01
    84  8.3000000000000D-01  1.0570403703521D+00  4.4813315288081D-01
    85  8.4000000000000D-01  1.0451450358661D+00  4.5056071881589D-01
    86  8.5000000000000D-01  1.0349652515949D+00  4.4765740953799D-01
    87  8.6000000000000D-01  1.0264627619199D+00  4.3954614193872D-01
    88  8.7000000000000D-01  1.0195512090790D+00  4.2645873652855D-01
    89  8.8000000000000D-01  1.0140971831950D+00  4.0873344069985D-01
    90  8.9000000000000D-01  1.0099221014553D+00  3.8681060194282D-01
    91  9.0000000000000D-01  1.0068048942216D+00  3.6122654180351D-01
    92  9.1000000000000D-01  1.0044854623722D+00  3.3260571139448D-01
    93  9.2000000000000D-01  1.0026688571813D+00  3.0165123823078D-01
    94  9.3000000000000D-01  1.0010301217158D+00  2.6913400159044D-01
    95  9.4000000000000D-01  9.9921972129992D-01  2.3588039903305D-01
    96  9.5000000000000D-01  9.9686948024528D-01  2.0275898972678D-01
    97  9.6000000000000D-01  9.9359893294414D-01  1.7066622044169D-01
    98  9.7000000000000D-01  9.8902198974056D-01  1.4051145711617D-01
    99  9.8000000000000D-01  9.8275381182852D-01  1.1320155854779D-01
   100  9.9000000000000D-01  9.7441778502489D-01  8.9625238474332D-02
   101  1.0000000000000D+00  9.6365247937888D-01  7.0637468629690D-02
   102  1.0100000000000D+00  9.5011848074488D-01  5.7044177106659D-02
   103  1.0200000000000D+00  9.3350498127833D-01  4.9587494379646D-02
   104  1.0300000000000D+00  9.1353601849182D-01  4.8931793247660D-02
   105  1.0400000000000D+00  8.8997625712759D-01  5.5650758531095D-02
   106  1.0500000000000D+00  8.6263621423058D-01  7.0215708571054D-02
   107  1.0600000000000D+00  8.3137683548603D-01  9.2985373331593D-02
   108  1.0700000000000D+00  7.9611334078628D-01  1.2419731170512D-01
   109  1.0800000000000D+00  7.5681826731053D-01  1.6396112750130D-01
   110  1.0900000000000D+00  7.1352365103876D-01  2.1225361530544D-01
   111  1.1000000000000D+00  6.6632230002298D-01  2.6891593964122D-01
   112  1.1100000000000D+00  6.1536812672445D-01  3.3365291958898D-01
   113  1.1200000000000D+00  5.6087552214347D-01  4.0603445654264D-01
   114  1.1300000000000D+00  5.0311776867450D-01  4.8549911103860D-01
   115  1.1400000000000D+00  4.4242450447191D-01  5.7135979917526D-01
   116  1.1500000000000D+00  3.7917826502708D-01  6.6281155029086D-01
   117  1.1600000000000D+00  3.1381014595426D-01  7.5894122671822D-01
   118  1.1700000000000D+00  2.4679464299702D-01  8.5873907962409D-01
   119  1.1800000000000D+00  1.7864373856719D-01  9.6111198526519D-01
   120  1.1900000000000D+00  1.0990031673003D-01  1.0648981778830D+00
   121  1.2000000000000D+00  4.1131001458926D-02  1.1688832666853D+00
   122  1.2100000000000D+00 -2.7081478334378D-02  1.2718173050347D+00
   123  1.2200000000000D+00 -9.4146287283324D-02  1.3724326661327D+00
   124  1.2300000000000D+00 -1.5947272438079D-01  1.4694624539816D+00
   125  1.2400000000000D+00 -2.2247858396640D-01  1.5616591762886D+00
   126  1.2500000000000D+00 -2.8259851108815D-01  1.6478133979003D+00
   127  1.2600000000000D+00 -3.3929222218998D-01  1.7267720862036D+00
   128  1.2700000000000D+00 -3.9205246633970D-01  1.7974563695502D+00
   129  1.2800000000000D+00 -4.4041260298135D-01  1.8588784315176D+00
   130  1.2900000000000D+00 -4.8395367526694D-01  1.9101572707910D+00
   131  1.3000000000000D+00 -5.2231087159282D-01  1.9505330868771D+00
   132  1.3100000000000D+00 -5.5517926783965D-01  1.9793800515854D+00
   133  1.3200000000000D+00 -5.8231875548344D-01  1.9962172546400D+00
   134  1.3300000000000D+00 -6.0355808289669D-01  2.0007176613639D+00
   135  1.3400000000000D+00 -6.1879792845348D-01  1.9927149009052D+00
   136  1.3500000000000D+00 -6.2801295719837D-01  1.9722077776839D+00
   137  1.3600000000000D+00 -6.3125282992494D-01  1.9393624369277D+00
   138  1.3700000000000D+00 -6.2864211838231D-01  1.8945120813629D+00
   139  1.3800000000000D+00 -6.2037914369559D-01  1.8381542778469D+00
   140  1.3900000000000D+00 -6.0673373334420D-01  1.7709458440903D+00
   141  1.4000000000000D+00 -5.8804391633072D-01  1.6936953599572D+00
   142  1.4100000000000D+00 -5.6471162078861D-01  1.6073534475393D+00
   143  1.4200000000000D+00 -5.3719739800075D-01  1.5130008741903D+00
   144  1.4300000000000D+00 -5.0601427326420D-01  1.4118347036008D+00
   145  1.4400000000000D+00 -4.7172079383218D-01  1.3051526524632D+00
   146  1.4500000000000D+00 -4.3491336793462D-01  1.1943358634380D+00
   147  1.4600000000000D+00 -3.9621802194916D-01  1.0808303789351D+00
   148  1.4700000000000D+00 -3.5628166638062D-01  9.6612751895927D-01
   149  1.4800000000000D+00 -3.1576302311873D-01  8.5174350423168D-01
   150  1.4900000000000D+00 -2.7532332440604D-01  7.3919857196117D-01
   151  1.5000000000000D+00 -2.3561693285278D-01  6.2999591848297D-01
   152  1.5100000000000D+00 -1.9728200700890D-01  5.2560074745321D-01
   153  1.5200000000000D+00 -1.6093136501534D-01  4.2741976498393D-01
   154  1.5300000000000D+00 -1.2714365505585D-01  3.3678136493644D-01
   155  1.5400000000000D+00 -9.6454998845456D-02  2.5491687644776D-01
   156  1.5500000000000D+00 -6.9361056050308D-02  1.8296901906087D-01
   157  1.5600000000000D+00 -4.6277330332905D-02  1.2189020006143D-01
   158  1.5700000000000D+00 -2.7467788556770D-02  7.2257648072666D-02
   159  1.5800000000000D+00 -1.3416435141470D-02  3.5251196964315D-02
   160  1.5900000000000D+00 -4.6630669320746D-03  1.2222229373641D-02
   161  1.6000000000000D+00 -5.7408763137656D-04  1.4737343865081D-03
   162  1.6100000000000D+00  4.4952375217121D-04 -1.2023801970241D-03
   163  1.6200000000000D+00  1.1409888500529D-04 -3.0293827644165D-04
   164  1.6300000000000D+00 -1.4021671661414D-04  3.7179028118918D-04
   165  1.6400000000000D+00 -3.4268383247302D-05  9.0768095071894D-05
   166  1.6500000000000D+00  2.5187338189542D-05 -6.7005293872825D-05
   167  1.6600000000000D+00  5.4620805669679D-06 -1.4520890557878D-05
   168  1.6700000000000D+00  6.5194079327742D-08 -7.9148994641902D-08
   169  1.6800000000000D+00  1.3294340358150D-08 -1.6140018919281D-08
   170  1.6900000000000D+00  0.0000000000000D+00  0.0000000000000D+00
   171  1.7000000000000D+00  0.0000000000000D+00  0.0000000000000D+00
   172  1.7100000000000D+00  0.0000000000000D+00  0.0000000000000D+00
   173  1.7200000000000D+00  0.0000000000000D+00  0.0000000000000D+00
   174  1.7300000000000D+00  0.0000000000000D+00  0.0000000000000D+00
   175  1.7400000000000D+00  0.0000000000000D+00  0.0000000000000D+00
   176  1.7500000000000D+00  0.0000000000000D+00  0.0000000000000D+00
   177  1.7600000000000D+00  0.0000000000000D+00  0.0000000000000D+00
   178  1.7700000000000D+00  0.0000000000000D+00  0.0000000000000D+00
   179  1.7800000000000D+00  0.0000000000000D+00  0.0000000000000D+00
   180  1.7900000000000D+00  0.0000000000000D+00  0.0000000000000D+00
   181  1.8000000000000D+00  0.0000000000000D+00  0.0000000000000D+00
   182  1.8100000000000D+00  0.0000000000000D+00  0.0000000000000D+00
   183  1.8200000000000D+00  0.0000000000000D+00  0.0000000000000D+00
   184  1.8300000000000D+00  0.0000000000000D+00  0.0000000000000D+00
   185  1.8400000000000D+00  0.0000000000000D+00  0.0000000000000D+00
   186  1.8500000000000D+00  0.0000000000000D+00  0.0000000000000D+00
   187  1.8600000000000D+00  0.0000000000000D+00  0.0000000000000D+00
   188  1.8700000000000D+00  0.0000000000000D+00  0.0000000000000D+00
   189  1.8800000000000D+00  0.0000000000000D+00  0.0000000000000D+00
   190  1.8900000000000D+00  0.0000000000000D+00  0.0000000000000D+00
   191  1.9000000000000D+00  0.0000000000000D+00  0.0000000000000D+00
   192  1.9100000000000D+00  0.0000000000000D+00  0.0000000000000D+00
   193  1.9200000000000D+00  0.0000000000000D+00  0.0000000000000D+00
   194  1.9300000000000D+00  0.0000000000000D+00  0.0000000000000D+00
   195  1.9400000000000D+00  0.0000000000000D+00  0.0000000000000D+00
   196  1.9500000000000D+00  0.0000000000000D+00  0.0000000000000D+00
   197  1.9600000000000D+00  0.0000000000000D+00  0.0000000000000D+00
   198  1.9700000000000D+00  0.0000000000000D+00  0.0000000000000D+00
   199  1.9800000000000D+00  0.0000000000000D+00  0.0000000000000D+00
   200  1.9900000000000D+00  0.0000000000000D+00  0.0000000000000D+00
   201  2.0000000000000D+00  0.0000000000000D+00  0.0000000000000D+00
   202  2.0100000000000D+00  0.0000000000000D+00  0.0000000000000D+00
   203  2.0200000000000D+00  0.0000000000000D+00  0.0000000000000D+00
   204  2.0300000000000D+00  0.0000000000000D+00  0.0000000000000D+00
   205  2.0400000000000D+00  0.0000000000000D+00  0.0000000000000D+00
   206  2.0500000000000D+00  0.0000000000000D+00  0.0000000000000D+00
   207  2.0600000000000D+00  0.0000000000000D+00  0.0000000000000D+00
   208  2.0700000000000D+00  0.0000000000000D+00  0.0000000000000D+00
   209  2.0800000000000D+00  0.0000000000000D+00  0.0000000000000D+00
   210  2.0900000000000D+00  0.0000000000000D+00  0.0000000000000D+00
   211  2.1000000000000D+00  0.0000000000000D+00  0.0000000000000D+00
   212  2.1100000000000D+00  0.0000000000000D+00  0.0000000000000D+00
   213  2.1200000000000D+00  0.0000000000000D+00  0.0000000000000D+00
   214  2.1300000000000D+00  0.0000000000000D+00  0.0000000000000D+00
   215  2.1400000000000D+00  0.0000000000000D+00  0.0000000000000D+00
   216  2.1500000000000D+00  0.0000000000000D+00  0.0000000000000D+00
   217  2.1600000000000D+00  0.0000000000000D+00  0.0000000000000D+00
   218  2.1700000000000D+00  0.0000000000000D+00  0.0000000000000D+00
   219  2.1800000000000D+00  0.0000000000000D+00  0.0000000000000D+00
   220  2.1900000000000D+00  0.0000000000000D+00  0.0000000000000D+00
   221  2.2000000000000D+00  0.0000000000000D+00  0.0000000000000D+00
   222  2.2100000000000D+00  0.0000000000000D+00  0.0000000000000D+00
   223  2.2200000000000D+00  0.0000000000000D+00  0.0000000000000D+00
   224  2.2300000000000D+00  0.0000000000000D+00  0.0000000000000D+00
   225  2.2400000000000D+00  0.0000000000000D+00  0.0000000000000D+00
   226  2.2500000000000D+00  0.0000000000000D+00  0.0000000000000D+00
   227  2.2600000000000D+00  0.0000000000000D+00  0.0000000000000D+00
   228  2.2700000000000D+00  0.0000000000000D+00  0.0000000000000D+00
   229  2.2800000000000D+00  0.0000000000000D+00  0.0000000000000D+00
   230  2.2900000000000D+00  0.0000000000000D+00  0.0000000000000D+00
   231  2.3000000000000D+00  0.0000000000000D+00  0.0000000000000D+00
   232  2.3100000000000D+00  0.0000000000000D+00  0.0000000000000D+00
   233  2.3200000000000D+00  0.0000000000000D+00  0.0000000000000D+00
   234  2.3300000000000D+00  0.0000000000000D+00  0.0000000000000D+00
   235  2.3400000000000D+00  0.0000000000000D+00  0.0000000000000D+00
   236  2.3500000000000D+00  0.0000000000000D+00  0.0000000000000D+00
   237  2.3600000000000D+00  0.0000000000000D+00  0.0000000000000D+00
   238  2.3700000000000D+00  0.0000000000000D+00  0.0000000000000D+00
   239  2.3800000000000D+00  0.0000000000000D+00  0.0000000000000D+00
   240  2.3900000000000D+00  0.0000000000000D+00  0.0000000000000D+00
   241  2.4000000000000D+00  0.0000000000000D+00  0.0000000000000D+00
   242  2.4100000000000D+00  0.0000000000000D+00  0.0000000000000D+00
   243  2.4200000000000D+00  0.0000000000000D+00  0.0000000000000D+00
   244  2.4300000000000D+00  0.0000000000000D+00  0.0000000000000D+00
   245  2.4400000000000D+00  0.0000000000000D+00  0.0000000000000D+00
   246  2.4500000000000D+00  0.0000000000000D+00  0.0000000000000D+00
   247  2.4600000000000D+00  0.0000000000000D+00  0.0000000000000D+00
   248  2.4700000000000D+00  0.0000000000000D+00  0.0000000000000D+00
   249  2.4800000000000D+00  0.0000000000000D+00  0.0000000000000D+00
   250  2.4900000000000D+00  0.0000000000000D+00  0.0000000000000D+00
   251  2.5000000000000D+00  0.0000000000000D+00  0.0000000000000D+00
   252  2.5100000000000D+00  0.0000000000000D+00  0.0000000000000D+00
   253  2.5200000000000D+00  0.0000000000000D+00  0.0000000000000D+00
   254  2.5300000000000D+00  0.0000000000000D+00  0.0000000000000D+00
   255  2.5400000000000D+00  0.0000000000000D+00  0.0000000000000D+00
   256  2.5500000000000D+00  0.0000000000000D+00  0.0000000000000D+00
   257  2.5600000000000D+00  0.0000000000000D+00  0.0000000000000D+00
   258  2.5700000000000D+00  0.0000000000000D+00  0.0000000000000D+00
   259  2.5800000000000D+00  0.0000000000000D+00  0.0000000000000D+00
   260  2.5900000000000D+00  0.0000000000000D+00  0.0000000000000D+00
   261  2.6000000000000D+00  0.0000000000000D+00  0.0000000000000D+00
   262  2.6100000000000D+00  0.0000000000000D+00  0.0000000000000D+00
   263  2.6200000000000D+00  0.0000000000000D+00  0.0000000000000D+00
   264  2.6300000000000D+00  0.0000000000000D+00  0.0000000000000D+00
   265  2.6400000000000D+00  0.0000000000000D+00  0.0000000000000D+00
   266  2.6500000000000D+00  0.0000000000000D+00  0.0000000000000D+00
   267  2.6600000000000D+00  0.0000000000000D+00  0.0000000000000D+00
   268  2.6700000000000D+00  0.0000000000000D+00  0.0000000000000D+00
   269  2.6800000000000D+00  0.0000000000000D+00  0.0000000000000D+00
   270  2.6900000000000D+00  0.0000000000000D+00  0.0000000000000D+00
   271  2.7000000000000D+00  0.0000000000000D+00  0.0000000000000D+00
   272  2.7100000000000D+00  0.0000000000000D+00  0.0000000000000D+00
   273  2.7200000000000D+00  0.0000000000000D+00  0.0000000000000D+00
   274  2.7300000000000D+00  0.0000000000000D+00  0.0000000000000D+00
   275  2.7400000000000D+00  0.0000000000000D+00  0.0000000000000D+00
   276  2.7500000000000D+00  0.0000000000000D+00  0.0000000000000D+00
   277  2.7600000000000D+00  0.0000000000000D+00  0.0000000000000D+00
   278  2.7700000000000D+00  0.0000000000000D+00  0.0000000000000D+00
   279  2.7800000000000D+00  0.0000000000000D+00  0.0000000000000D+00
   280  2.7900000000000D+00  0.0000000000000D+00  0.0000000000000D+00
   281  2.8000000000000D+00  0.0000000000000D+00  0.0000000000000D+00
   282  2.8100000000000D+00  0.0000000000000D+00  0.0000000000000D+00
   283  2.8200000000000D+00  0.0000000000000D+00  0.0000000000000D+00
   284  2.8300000000000D+00  0.0000000000000D+00  0.0000000000000D+00
   285  2.8400000000000D+00  0.0000000000000D+00  0.0000000000000D+00
   286  2.8500000000000D+00  0.0000000000000D+00  0.0000000000000D+00
   287  2.8600000000000D+00  0.0000000000000D+00  0.0000000000000D+00
   288  2.8700000000000D+00  0.0000000000000D+00  0.0000000000000D+00
   289  2.8800000000000D+00  0.0000000000000D+00  0.0000000000000D+00
   290  2.8900000000000D+00  0.0000000000000D+00  0.0000000000000D+00
   291  2.9000000000000D+00  0.0000000000000D+00  0.0000000000000D+00
   292  2.9100000000000D+00  0.0000000000000D+00  0.0000000000000D+00
   293  2.9200000000000D+00  0.0000000000000D+00  0.0000000000000D+00
   294  2.9300000000000D+00  0.0000000000000D+00  0.0000000000000D+00
   295  2.9400000000000D+00  0.0000000000000D+00  0.0000000000000D+00
   296  2.9500000000000D+00  0.0000000000000D+00  0.0000000000000D+00
   297  2.9600000000000D+00  0.0000000000000D+00  0.0000000000000D+00
   298  2.9700000000000D+00  0.0000000000000D+00  0.0000000000000D+00
   299  2.9800000000000D+00  0.0000000000000D+00  0.0000000000000D+00
   300  2.9900000000000D+00  0.0000000000000D+00  0.0000000000000D+00
   301  3.0000000000000D+00  0.0000000000000D+00  0.0000000000000D+00
   302  3.0100000000000D+00  0.0000000000000D+00  0.0000000000000D+00
   303  3.0200000000000D+00  0.0000000000000D+00  0.0000000000000D+00
   304  3.0300000000000D+00  0.0000000000000D+00  0.0000000000000D+00
   305  3.0400000000000D+00  0.0000000000000D+00  0.0000000000000D+00
   306  3.0500000000000D+00  0.0000000000000D+00  0.0000000000000D+00
   307  3.0600000000000D+00  0.0000000000000D+00  0.0000000000000D+00
   308  3.0700000000000D+00  0.0000000000000D+00  0.0000000000000D+00
   309  3.0800000000000D+00  0.0000000000000D+00  0.0000000000000D+00
   310  3.0900000000000D+00  0.0000000000000D+00  0.0000000000000D+00
   311  3.1000000000000D+00  0.0000000000000D+00  0.0000000000000D+00
   312  3.1100000000000D+00  0.0000000000000D+00  0.0000000000000D+00
   313  3.1200000000000D+00  0.0000000000000D+00  0.0000000000000D+00
   314  3.1300000000000D+00  0.0000000000000D+00  0.0000000000000D+00
   315  3.1400000000000D+00  0.0000000000000D+00  0.0000000000000D+00
   316  3.1500000000000D+00  0.0000000000000D+00  0.0000000000000D+00
   317  3.1600000000000D+00  0.0000000000000D+00  0.0000000000000D+00
   318  3.1700000000000D+00  0.0000000000000D+00  0.0000000000000D+00
   319  3.1800000000000D+00  0.0000000000000D+00  0.0000000000000D+00
   320  3.1900000000000D+00  0.0000000000000D+00  0.0000000000000D+00
   321  3.2000000000000D+00  0.0000000000000D+00  0.0000000000000D+00
   322  3.2100000000000D+00  0.0000000000000D+00  0.0000000000000D+00
   323  3.2200000000000D+00  0.0000000000000D+00  0.0000000000000D+00
   324  3.2300000000000D+00  0.0000000000000D+00  0.0000000000000D+00
   325  3.2400000000000D+00  0.0000000000000D+00  0.0000000000000D+00
   326  3.2500000000000D+00  0.0000000000000D+00  0.0000000000000D+00
   327  3.2600000000000D+00  0.0000000000000D+00  0.0000000000000D+00
   328  3.2700000000000D+00  0.0000000000000D+00  0.0000000000000D+00
   329  3.2800000000000D+00  0.0000000000000D+00  0.0000000000000D+00
   330  3.2900000000000D+00  0.0000000000000D+00  0.0000000000000D+00
   331  3.3000000000000D+00  0.0000000000000D+00  0.0000000000000D+00
   332  3.3100000000000D+00  0.0000000000000D+00  0.0000000000000D+00
   333  3.3200000000000D+00  0.0000000000000D+00  0.0000000000000D+00
   334  3.3300000000000D+00  0.0000000000000D+00  0.0000000000000D+00
   335  3.3400000000000D+00  0.0000000000000D+00  0.0000000000000D+00
   336  3.3500000000000D+00  0.0000000000000D+00  0.0000000000000D+00
   337  3.3600000000000D+00  0.0000000000000D+00  0.0000000000000D+00
   338  3.3700000000000D+00  0.0000000000000D+00  0.0000000000000D+00
   339  3.3800000000000D+00  0.0000000000000D+00  0.0000000000000D+00
   340  3.3900000000000D+00  0.0000000000000D+00  0.0000000000000D+00
   341  3.4000000000000D+00  0.0000000000000D+00  0.0000000000000D+00
   342  3.4100000000000D+00  0.0000000000000D+00  0.0000000000000D+00
   343  3.4200000000000D+00  0.0000000000000D+00  0.0000000000000D+00
   344  3.4300000000000D+00  0.0000000000000D+00  0.0000000000000D+00
   345  3.4400000000000D+00  0.0000000000000D+00  0.0000000000000D+00
   346  3.4500000000000D+00  0.0000000000000D+00  0.0000000000000D+00
   347  3.4600000000000D+00  0.0000000000000D+00  0.0000000000000D+00
   348  3.4700000000000D+00  0.0000000000000D+00  0.0000000000000D+00
   349  3.4800000000000D+00  0.0000000000000D+00  0.0000000000000D+00
   350  3.4900000000000D+00  0.0000000000000D+00  0.0000000000000D+00
   351  3.5000000000000D+00  0.0000000000000D+00  0.0000000000000D+00
   352  3.5100000000000D+00  0.0000000000000D+00  0.0000000000000D+00
   353  3.5200000000000D+00  0.0000000000000D+00  0.0000000000000D+00
   354  3.5300000000000D+00  0.0000000000000D+00  0.0000000000000D+00
   355  3.5400000000000D+00  0.0000000000000D+00  0.0000000000000D+00
   356  3.5500000000000D+00  0.0000000000000D+00  0.0000000000000D+00
   357  3.5600000000000D+00  0.0000000000000D+00  0.0000000000000D+00
   358  3.5700000000000D+00  0.0000000000000D+00  0.0000000000000D+00
   359  3.5800000000000D+00  0.0000000000000D+00  0.0000000000000D+00
   360  3.5900000000000D+00  0.0000000000000D+00  0.0000000000000D+00
   361  3.6000000000000D+00  0.0000000000000D+00  0.0000000000000D+00
   362  3.6100000000000D+00  0.0000000000000D+00  0.0000000000000D+00
   363  3.6200000000000D+00  0.0000000000000D+00  0.0000000000000D+00
   364  3.6300000000000D+00  0.0000000000000D+00  0.0000000000000D+00
   365  3.6400000000000D+00  0.0000000000000D+00  0.0000000000000D+00
   366  3.6500000000000D+00  0.0000000000000D+00  0.0000000000000D+00
   367  3.6600000000000D+00  0.0000000000000D+00  0.0000000000000D+00
   368  3.6700000000000D+00  0.0000000000000D+00  0.0000000000000D+00
   369  3.6800000000000D+00  0.0000000000000D+00  0.0000000000000D+00
   370  3.6900000000000D+00  0.0000000000000D+00  0.0000000000000D+00
   371  3.7000000000000D+00  0.0000000000000D+00  0.0000000000000D+00
   372  3.7100000000000D+00  0.0000000000000D+00  0.0000000000000D+00
   373  3.7200000000000D+00  0.0000000000000D+00  0.0000000000000D+00
   374  3.7300000000000D+00  0.0000000000000D+00  0.0000000000000D+00
   375  3.7400000000000D+00  0.0000000000000D+00  0.0000000000000D+00
   376  3.7500000000000D+00  0.0000000000000D+00  0.0000000000000D+00
   377  3.7600000000000D+00  0.0000000000000D+00  0.0000000000000D+00
   378  3.7700000000000D+00  0.0000000000000D+00  0.0000000000000D+00
   379  3.7800000000000D+00  0.0000000000000D+00  0.0000000000000D+00
   380  3.7900000000000D+00  0.0000000000000D+00  0.0000000000000D+00
   381  3.8000000000000D+00  0.0000000000000D+00  0.0000000000000D+00
   382  3.8100000000000D+00  0.0000000000000D+00  0.0000000000000D+00
   383  3.8200000000000D+00  0.0000000000000D+00  0.0000000000000D+00
   384  3.8300000000000D+00  0.0000000000000D+00  0.0000000000000D+00
   385  3.8400000000000D+00  0.0000000000000D+00  0.0000000000000D+00
   386  3.8500000000000D+00  0.0000000000000D+00  0.0000000000000D+00
   387  3.8600000000000D+00  0.0000000000000D+00  0.0000000000000D+00
   388  3.8700000000000D+00  0.0000000000000D+00  0.0000000000000D+00
   389  3.8800000000000D+00  0.0000000000000D+00  0.0000000000000D+00
   390  3.8900000000000D+00  0.0000000000000D+00  0.0000000000000D+00
   391  3.9000000000000D+00  0.0000000000000D+00  0.0000000000000D+00
   392  3.9100000000000D+00  0.0000000000000D+00  0.0000000000000D+00
   393  3.9200000000000D+00  0.0000000000000D+00  0.0000000000000D+00
   394  3.9300000000000D+00  0.0000000000000D+00  0.0000000000000D+00
   395  3.9400000000000D+00  0.0000000000000D+00  0.0000000000000D+00
   396  3.9500000000000D+00  0.0000000000000D+00  0.0000000000000D+00
   397  3.9600000000000D+00  0.0000000000000D+00  0.0000000000000D+00
   398  3.9700000000000D+00  0.0000000000000D+00  0.0000000000000D+00
   399  3.9800000000000D+00  0.0000000000000D+00  0.0000000000000D+00
   400  3.9900000000000D+00  0.0000000000000D+00  0.0000000000000D+00
   401  4.0000000000000D+00  0.0000000000000D+00  0.0000000000000D+00
   402  4.0100000000000D+00  0.0000000000000D+00  0.0000000000000D+00
   403  4.0200000000000D+00  0.0000000000000D+00  0.0000000000000D+00
   404  4.0300000000000D+00  0.0000000000000D+00  0.0000000000000D+00
   405  4.0400000000000D+00  0.0000000000000D+00  0.0000000000000D+00
   406  4.0500000000000D+00  0.0000000000000D+00  0.0000000000000D+00
   407  4.0600000000000D+00  0.0000000000000D+00  0.0000000000000D+00
   408  4.0700000000000D+00  0.0000000000000D+00  0.0000000000000D+00
   409  4.0800000000000D+00  0.0000000000000D+00  0.0000000000000D+00
   410  4.0900000000000D+00  0.0000000000000D+00  0.0000000000000D+00
   411  4.1000000000000D+00  0.0000000000000D+00  0.0000000000000D+00
   412  4.1100000000000D+00  0.0000000000000D+00  0.0000000000000D+00
   413  4.1200000000000D+00  0.0000000000000D+00  0.0000000000000D+00
   414  4.1300000000000D+00  0.0000000000000D+00  0.0000000000000D+00
   415  4.1400000000000D+00  0.0000000000000D+00  0.0000000000000D+00
   416  4.1500000000000D+00  0.0000000000000D+00  0.0000000000000D+00
   417  4.1600000000000D+00  0.0000000000000D+00  0.0000000000000D+00
   418  4.1700000000000D+00  0.0000000000000D+00  0.0000000000000D+00
   419  4.1800000000000D+00  0.0000000000000D+00  0.0000000000000D+00
   420  4.1900000000000D+00  0.0000000000000D+00  0.0000000000000D+00
   421  4.2000000000000D+00  0.0000000000000D+00  0.0000000000000D+00
   422  4.2100000000000D+00  0.0000000000000D+00  0.0000000000000D+00