<?xml version="1.0" encoding="UTF-8" ?>
<psml version="0.8" energy_unit="hartree" length_unit="bohr">
<provenance creator="ONCVPSP-2.1.2+psml" date="2015-02-22">
<input-file name="oncvpsp-input">
# ATOM AND REFERENCE CONFIGURATION
# atsym  z    nc    nv    iexc   psfile
  Si 14.00     3     2     3      psp8
#
#   n    l    f        energy (Ha)
    1    0    2.00
    2    0    2.00
    2    1    6.00
    3    0    2.00
    3    1    2.00
#
# PSEUDOPOTENTIAL AND OPTIMIZATION
# lmax
    2
#
#   l,   rc,     ep,   ncon, nbas, qcut
    0    2.71   -0.40    5    8    5.00
    1    2.71   -0.15    5    8    5.00
    2    2.71    0.10    5    8    5.00
#
# LOCAL POTENTIAL
# lloc, lpopt,  rc(5),   dvloc0
    4    5      2.71       0.00
#
# VANDERBILT-KLEINMAN-BYLANDER PROJECTORs
# l, nproj, debl
    0    2    1.0000
    1    2    0.7500
    2    2    0.7500
#
# MODEL CORE CHARGE
# icmod, fcfact
    1    0.25
#
# LOG DERIVATIVE ANALYSIS
# epsh1, epsh2, depsh
   -2.00    2.00    0.02
#
# OUTPUT GRID
# rlmax, drl
    5.00    0.01
#
# TEST CONFIGURATIONS
# ncnf
    3
# nvcnf
#   n    l    f
    2
    3    0    1.00
    3    1    2.00
#
    2
    3    0    2.00
    3    1    1.00
#
    2
    3    0    1.00
    3    1    1.00
#
</input-file>
</provenance>
<header atomic-label="Si" atomic-number="14." z-pseudo="4."
 flavor="Hamann's oncvpsp" relativity="scalar" polarized="no"
 core-corrections="yes">
<exchange-correlation>
<annotation oncvpsp-xc-code="3" oncvpsp-xc-type="LDA"
 oncvpsp-xc-authors="Ceperley-Alder PZ" />
<libxc-info number-of-functionals="2">
<functional name="XC_LDA_X" type="XC_EXCHANGE" id="1" />
<functional name="XC_LDA_C_PZ" type="XC_CORRELATION" id="9" />
</libxc-info>
</exchange-correlation>
<valence-configuration total-valence-charge="4.">
<shell n="3" l="s" occupation="2." />
<shell n="3" l="p" occupation="2." />
</valence-configuration>
</header>
<grid npts="1178">
<annotation type="oncvpsp plus r=0" oncvpsp-npts="1177"
 oncvpsp-r1="0.357142857143E-04" oncvpsp-factor="1.01200000000" />
<grid-data>
  0.000000000000E+00  3.571428571429E-05  3.614285714286E-05  3.657657142857E-05
  3.701549028571E-05  3.745967616914E-05  3.790919228317E-05  3.836410259057E-05
  3.882447182166E-05  3.929036548352E-05  3.976184986932E-05  4.023899206775E-05
  4.072185997256E-05  4.121052229224E-05  4.170504855974E-05  4.220550914246E-05
  4.271197525217E-05  4.322451895519E-05  4.374321318266E-05  4.426813174085E-05
  4.479934932174E-05  4.533694151360E-05  4.588098481176E-05  4.643155662950E-05
  4.698873530906E-05  4.755260013277E-05  4.812323133436E-05  4.870071011037E-05
  4.928511863170E-05  4.987654005528E-05  5.047505853594E-05  5.108075923837E-05
  5.169372834923E-05  5.231405308942E-05  5.294182172650E-05  5.357712358721E-05
  5.422004907026E-05  5.487068965910E-05  5.552913793501E-05  5.619548759023E-05
  5.686983344132E-05  5.755227144261E-05  5.824289869992E-05  5.894181348432E-05
  5.964911524613E-05  6.036490462909E-05  6.108928348464E-05  6.182235488645E-05
  6.256422314509E-05  6.331499382283E-05  6.407477374870E-05  6.484367103369E-05
  6.562179508609E-05  6.640925662713E-05  6.720616770665E-05  6.801264171913E-05
  6.882879341976E-05  6.965473894080E-05  7.049059580809E-05  7.133648295779E-05
  7.219252075328E-05  7.305883100232E-05  7.393553697435E-05  7.482276341804E-05
  7.572063657905E-05  7.662928421800E-05  7.754883562862E-05  7.847942165616E-05
  7.942117471604E-05  8.037422881263E-05  8.133871955838E-05  8.231478419308E-05
  8.330256160340E-05  8.430219234264E-05  8.531381865075E-05  8.633758447456E-05
  8.737363548825E-05  8.842211911411E-05  8.948318454348E-05  9.055698275800E-05
  9.164366655110E-05  9.274339054971E-05  9.385631123631E-05  9.498258697115E-05
  9.612237801480E-05  9.727584655098E-05  9.844315670959E-05  9.962447459010E-05
  1.008199682852E-04  1.020298079046E-04  1.032541655995E-04  1.044932155867E-04
  1.057471341737E-04  1.070160997838E-04  1.083002929812E-04  1.095998964970E-04
  1.109150952549E-04  1.122460763980E-04  1.135930293148E-04  1.149561456665E-04
  1.163356194145E-04  1.177316468475E-04  1.191444266097E-04  1.205741597290E-04
  1.220210496457E-04  1.234853022415E-04  1.249671258684E-04  1.264667313788E-04
  1.279843321554E-04  1.295201441412E-04  1.310743858709E-04  1.326472785014E-04
  1.342390458434E-04  1.358499143935E-04  1.374801133662E-04  1.391298747266E-04
  1.407994332233E-04  1.424890264220E-04  1.441988947391E-04  1.459292814760E-04
  1.476804328537E-04  1.494525980479E-04  1.512460292245E-04  1.530609815752E-04
  1.548977133541E-04  1.567564859143E-04  1.586375637453E-04  1.605412145102E-04
  1.624677090844E-04  1.644173215934E-04  1.663903294525E-04  1.683870134059E-04
  1.704076575668E-04  1.724525494576E-04  1.745219800511E-04  1.766162438117E-04
  1.787356387374E-04  1.808804664023E-04  1.830510319991E-04  1.852476443831E-04
  1.874706161157E-04  1.897202635091E-04  1.919969066712E-04  1.943008695513E-04
  1.966324799859E-04  1.989920697457E-04  2.013799745827E-04  2.037965342776E-04
  2.062420926890E-04  2.087169978012E-04  2.112216017749E-04  2.137562609962E-04
  2.163213361281E-04  2.189171921617E-04  2.215441984676E-04  2.242027288492E-04
  2.268931615954E-04  2.296158795345E-04  2.323712700890E-04  2.351597253300E-04
  2.379816420340E-04  2.408374217384E-04  2.437274707993E-04  2.466522004488E-04
  2.496120268542E-04  2.526073711765E-04  2.556386596306E-04  2.587063235462E-04
  2.618107994287E-04  2.649525290219E-04  2.681319593701E-04  2.713495428826E-04
  2.746057373972E-04  2.779010062459E-04  2.812358183209E-04  2.846106481407E-04
  2.880259759184E-04  2.914822876294E-04  2.949800750810E-04  2.985198359820E-04
  3.021020740137E-04  3.057272989019E-04  3.093960264887E-04  3.131087788066E-04
  3.168660841523E-04  3.206684771621E-04  3.245164988880E-04  3.284106968747E-04
  3.323516252372E-04  3.363398447400E-04  3.403759228769E-04  3.444604339514E-04
  3.485939591589E-04  3.527770866688E-04  3.570104117088E-04  3.612945366493E-04
  3.656300710891E-04  3.700176319422E-04  3.744578435255E-04  3.789513376478E-04
  3.834987536995E-04  3.881007387439E-04  3.927579476089E-04  3.974710429802E-04
  4.022406954959E-04  4.070675838419E-04  4.119523948480E-04  4.168958235862E-04
  4.218985734692E-04  4.269613563508E-04  4.320848926270E-04  4.372699113386E-04
  4.425171502746E-04  4.478273560779E-04  4.532012843509E-04  4.586396997631E-04
  4.641433761602E-04  4.697130966742E-04  4.753496538342E-04  4.810538496803E-04
  4.868264958764E-04  4.926684138269E-04  4.985804347929E-04  5.045634000104E-04
  5.106181608105E-04  5.167455787402E-04  5.229465256851E-04  5.292218839933E-04
  5.355725466012E-04  5.419994171605E-04  5.485034101664E-04  5.550854510884E-04
  5.617464765014E-04  5.684874342195E-04  5.753092834301E-04  5.822129948313E-04
  5.891995507692E-04  5.962699453785E-04  6.034251847230E-04  6.106662869397E-04
  6.179942823830E-04  6.254102137715E-04  6.329151363368E-04  6.405101179728E-04
  6.481962393885E-04  6.559745942612E-04  6.638462893923E-04  6.718124448650E-04
  6.798741942034E-04  6.880326845338E-04  6.962890767483E-04  7.046445456692E-04
  7.131002802173E-04  7.216574835799E-04  7.303173733828E-04  7.390811818634E-04
  7.479501560458E-04  7.569255579183E-04  7.660086646134E-04  7.752007685887E-04
  7.845031778118E-04  7.939172159455E-04  8.034442225369E-04  8.130855532073E-04
  8.228425798458E-04  8.327166908039E-04  8.427092910936E-04  8.528218025867E-04
  8.630556642178E-04  8.734123321884E-04  8.838932801746E-04  8.944999995367E-04
  9.052339995312E-04  9.160968075255E-04  9.270899692158E-04  9.382150488464E-04
  9.494736294326E-04  9.608673129858E-04  9.723977207416E-04  9.840664933905E-04
  9.958752913112E-04  1.007825794807E-03  1.019919704345E-03  1.032158740797E-03
  1.044544645686E-03  1.057079181435E-03  1.069764131612E-03  1.082601301191E-03
  1.095592516805E-03  1.108739627007E-03  1.122044502531E-03  1.135509036562E-03
  1.149135145000E-03  1.162924766740E-03  1.176879863941E-03  1.191002422308E-03
  1.205294451376E-03  1.219757984793E-03  1.234395080610E-03  1.249207821577E-03
  1.264198315436E-03  1.279368695222E-03  1.294721119564E-03  1.310257772999E-03
  1.325980866275E-03  1.341892636670E-03  1.357995348310E-03  1.374291292490E-03
  1.390782788000E-03  1.407472181456E-03  1.424361847634E-03  1.441454189805E-03
  1.458751640083E-03  1.476256659764E-03  1.493971739681E-03  1.511899400557E-03
  1.530042193364E-03  1.548402699684E-03  1.566983532080E-03  1.585787334465E-03
  1.604816782479E-03  1.624074583869E-03  1.643563478875E-03  1.663286240622E-03
  1.683245675509E-03  1.703444623615E-03  1.723885959099E-03  1.744572590608E-03
  1.765507461695E-03  1.786693551235E-03  1.808133873850E-03  1.829831480336E-03
  1.851789458100E-03  1.874010931598E-03  1.896499062777E-03  1.919257051530E-03
  1.942288136148E-03  1.965595593782E-03  1.989182740908E-03  2.013052933799E-03
  2.037209569004E-03  2.061656083832E-03  2.086395956838E-03  2.111432708320E-03
  2.136769900820E-03  2.162411139630E-03  2.188360073305E-03  2.214620394185E-03
  2.241195838915E-03  2.268090188982E-03  2.295307271250E-03  2.322850958505E-03
  2.350725170007E-03  2.378933872047E-03  2.407481078512E-03  2.436370851454E-03
  2.465607301671E-03  2.495194589291E-03  2.525136924363E-03  2.555438567455E-03
  2.586103830265E-03  2.617137076228E-03  2.648542721143E-03  2.680325233796E-03
  2.712489136602E-03  2.745039006241E-03  2.777979474316E-03  2.811315228008E-03
  2.845051010744E-03  2.879191622873E-03  2.913741922347E-03  2.948706825416E-03
  2.984091307321E-03  3.019900403008E-03  3.056139207844E-03  3.092812878339E-03
  3.129926632879E-03  3.167485752473E-03  3.205495581503E-03  3.243961528481E-03
  3.282889066823E-03  3.322283735625E-03  3.362151140452E-03  3.402496954137E-03
  3.443326917587E-03  3.484646840598E-03  3.526462602685E-03  3.568780153918E-03
  3.611605515765E-03  3.654944781954E-03  3.698804119337E-03  3.743189768769E-03
  3.788108045994E-03  3.833565342546E-03  3.879568126657E-03  3.926122944177E-03
  3.973236419507E-03  4.020915256541E-03  4.069166239620E-03  4.117996234495E-03
  4.167412189309E-03  4.217421135581E-03  4.268030189208E-03  4.319246551478E-03
  4.371077510096E-03  4.423530440217E-03  4.476612805500E-03  4.530332159166E-03
  4.584696145076E-03  4.639712498816E-03  4.695389048802E-03  4.751733717388E-03
  4.808754521997E-03  4.866459576261E-03  4.924857091176E-03  4.983955376270E-03
  5.043762840785E-03  5.104287994874E-03  5.165539450813E-03  5.227525924223E-03
  5.290256235313E-03  5.353739310137E-03  5.417984181859E-03  5.482999992041E-03
  5.548795991946E-03  5.615381543849E-03  5.682766122375E-03  5.750959315844E-03
  5.819970827634E-03  5.889810477565E-03  5.960488203296E-03  6.032014061736E-03
  6.104398230476E-03  6.177651009242E-03  6.251782821353E-03  6.326804215209E-03
  6.402725865792E-03  6.479558576181E-03  6.557313279096E-03  6.636001038445E-03
  6.715633050906E-03  6.796220647517E-03  6.877775295287E-03  6.960308598831E-03
  7.043832302017E-03  7.128358289641E-03  7.213898589116E-03  7.300465372186E-03
  7.388070956652E-03  7.476727808132E-03  7.566448541829E-03  7.657245924331E-03
  7.749132875423E-03  7.842122469928E-03  7.936227939568E-03  8.031462674842E-03
  8.127840226940E-03  8.225374309664E-03  8.324078801380E-03  8.423967746996E-03
  8.525055359960E-03  8.627356024280E-03  8.730884296571E-03  8.835654908130E-03
  8.941682767028E-03  9.048982960232E-03  9.157570755755E-03  9.267461604824E-03
  9.378671144082E-03  9.491215197811E-03  9.605109780184E-03  9.720371097547E-03
  9.837015550717E-03  9.955059737326E-03  1.007452045417E-02  1.019541469962E-02
  1.031775967602E-02  1.044157279213E-02  1.056687166564E-02  1.069367412562E-02
  1.082199821513E-02  1.095186219371E-02  1.108328454004E-02  1.121628395452E-02
  1.135087936197E-02  1.148708991432E-02  1.162493499329E-02  1.176443421321E-02
  1.190560742377E-02  1.204847471285E-02  1.219305640941E-02  1.233937308632E-02
  1.248744556335E-02  1.263729491011E-02  1.278894244904E-02  1.294240975842E-02
  1.309771867553E-02  1.325489129963E-02  1.341394999523E-02  1.357491739517E-02
  1.373781640391E-02  1.390267020076E-02  1.406950224317E-02  1.423833627009E-02
  1.440919630533E-02  1.458210666099E-02  1.475709194092E-02  1.493417704421E-02
  1.511338716874E-02  1.529474781477E-02  1.547828478855E-02  1.566402420601E-02
  1.585199249648E-02  1.604221640644E-02  1.623472300332E-02  1.642953967936E-02
  1.662669415551E-02  1.682621448538E-02  1.702812905920E-02  1.723246660791E-02
  1.743925620720E-02  1.764852728169E-02  1.786030960907E-02  1.807463332438E-02
  1.829152892427E-02  1.851102727136E-02  1.873315959862E-02  1.895795751380E-02
  1.918545300397E-02  1.941567844002E-02  1.964866658130E-02  1.988445058027E-02
  2.012306398724E-02  2.036454075508E-02  2.060891524414E-02  2.085622222707E-02
  2.110649689380E-02  2.135977485652E-02  2.161609215480E-02  2.187548526066E-02
  2.213799108379E-02  2.240364697679E-02  2.267249074052E-02  2.294456062940E-02
  2.321989535695E-02  2.349853410124E-02  2.378051651045E-02  2.406588270858E-02
  2.435467330108E-02  2.464692938069E-02  2.494269253326E-02  2.524200484366E-02
  2.554490890179E-02  2.585144780861E-02  2.616166518231E-02  2.647560516450E-02
  2.679331242647E-02  2.711483217559E-02  2.744021016170E-02  2.776949268364E-02
  2.810272659584E-02  2.843995931499E-02  2.878123882677E-02  2.912661369269E-02
  2.947613305700E-02  2.982984665369E-02  3.018780481353E-02  3.055005847129E-02
  3.091665917295E-02  3.128765908303E-02  3.166311099202E-02  3.204306832393E-02
  3.242758514381E-02  3.281671616554E-02  3.321051675953E-02  3.360904296064E-02
  3.401235147617E-02  3.442049969388E-02  3.483354569021E-02  3.525154823849E-02
  3.567456681735E-02  3.610266161916E-02  3.653589355859E-02  3.697432428129E-02
  3.741801617267E-02  3.786703236674E-02  3.832143675514E-02  3.878129399620E-02
  3.924666952416E-02  3.971762955845E-02  4.019424111315E-02  4.067657200651E-02
  4.116469087059E-02  4.165866716103E-02  4.215857116696E-02  4.266447402097E-02
  4.317644770922E-02  4.369456508173E-02  4.421889986271E-02  4.474952666106E-02
  4.528652098100E-02  4.582995923277E-02  4.637991874356E-02  4.693647776848E-02
  4.749971550171E-02  4.806971208773E-02  4.864654863278E-02  4.923030721637E-02
  4.982107090297E-02  5.041892375381E-02  5.102395083885E-02  5.163623824892E-02
  5.225587310790E-02  5.288294358520E-02  5.351753890822E-02  5.415974937512E-02
  5.480966636762E-02  5.546738236403E-02  5.613299095240E-02  5.680658684383E-02
  5.748826588596E-02  5.817812507659E-02  5.887626257751E-02  5.958277772844E-02
  6.029777106118E-02  6.102134431391E-02  6.175360044568E-02  6.249464365103E-02
  6.324457937484E-02  6.400351432734E-02  6.477155649927E-02  6.554881517726E-02
  6.633540095938E-02  6.713142577090E-02  6.793700288015E-02  6.875224691471E-02
  6.957727387769E-02  7.041220116422E-02  7.125714757819E-02  7.211223334913E-02
  7.297758014932E-02  7.385331111111E-02  7.473955084444E-02  7.563642545457E-02
  7.654406256003E-02  7.746259131075E-02  7.839214240648E-02  7.933284811536E-02
  8.028484229274E-02  8.124826040025E-02  8.222323952506E-02  8.320991839936E-02
  8.420843742015E-02  8.521893866919E-02  8.624156593322E-02  8.727646472442E-02
  8.832378230111E-02  8.938366768873E-02  9.045627170099E-02  9.154174696140E-02
  9.264024792494E-02  9.375193090004E-02  9.487695407084E-02  9.601547751969E-02
  9.716766324993E-02  9.833367520893E-02  9.951367931143E-02  1.007078434632E-01
  1.019163375847E-01  1.031393336357E-01  1.043770056394E-01  1.056295297070E-01
  1.068970840635E-01  1.081798490723E-01  1.094780072612E-01  1.107917433483E-01
  1.121212442685E-01  1.134666991997E-01  1.148282995901E-01  1.162062391852E-01
  1.176007140554E-01  1.190119226241E-01  1.204400656955E-01  1.218853464839E-01
  1.233479706417E-01  1.248281462894E-01  1.263260840449E-01  1.278419970534E-01
  1.293761010181E-01  1.309286142303E-01  1.324997576010E-01  1.340897546922E-01
  1.356988317486E-01  1.373272177295E-01  1.389751443423E-01  1.406428460744E-01
  1.423305602273E-01  1.440385269500E-01  1.457669892734E-01  1.475161931447E-01
  1.492863874624E-01  1.510778241120E-01  1.528907580013E-01  1.547254470973E-01
  1.565821524625E-01  1.584611382921E-01  1.603626719516E-01  1.622870240150E-01
  1.642344683032E-01  1.662052819228E-01  1.681997453059E-01  1.702181422495E-01
  1.722607599565E-01  1.743278890760E-01  1.764198237449E-01  1.785368616299E-01
  1.806793039694E-01  1.828474556171E-01  1.850416250845E-01  1.872621245855E-01
  1.895092700805E-01  1.917833813215E-01  1.940847818973E-01  1.964137992801E-01
  1.987707648715E-01  2.011560140499E-01  2.035698862185E-01  2.060127248531E-01
  2.084848775514E-01  2.109866960820E-01  2.135185364350E-01  2.160807588722E-01
  2.186737279787E-01  2.212978127144E-01  2.239533864670E-01  2.266408271046E-01
  2.293605170298E-01  2.321128432342E-01  2.348981973530E-01  2.377169757212E-01
  2.405695794299E-01  2.434564143831E-01  2.463778913557E-01  2.493344260519E-01
  2.523264391645E-01  2.553543564345E-01  2.584186087117E-01  2.615196320163E-01
  2.646578676005E-01  2.678337620117E-01  2.710477671558E-01  2.743003403617E-01
  2.775919444460E-01  2.809230477794E-01  2.842941243527E-01  2.877056538450E-01
  2.911581216911E-01  2.946520191514E-01  2.981878433812E-01  3.017660975018E-01
  3.053872906718E-01  3.090519381599E-01  3.127605614178E-01  3.165136881548E-01
  3.203118524127E-01  3.241555946416E-01  3.280454617773E-01  3.319820073186E-01
  3.359657914065E-01  3.399973809033E-01  3.440773494742E-01  3.482062776679E-01
  3.523847529999E-01  3.566133700359E-01  3.608927304763E-01  3.652234432420E-01
  3.696061245609E-01  3.740413980557E-01  3.785298948323E-01  3.830722535703E-01
  3.876691206132E-01  3.923211500605E-01  3.970290038613E-01  4.017933519076E-01
  4.066148721305E-01  4.114942505960E-01  4.164321816032E-01  4.214293677824E-01
  4.264865201958E-01  4.316043584382E-01  4.367836107394E-01  4.420250140683E-01
  4.473293142371E-01  4.526972660080E-01  4.581296332001E-01  4.636271887985E-01
  4.691907150641E-01  4.748210036448E-01  4.805188556886E-01  4.862850819568E-01
  4.921205029403E-01  4.980259489756E-01  5.040022603633E-01  5.100502874877E-01
  5.161708909375E-01  5.223649416288E-01  5.286333209283E-01  5.349769207794E-01
  5.413966438288E-01  5.478934035547E-01  5.544681243974E-01  5.611217418902E-01
  5.678552027928E-01  5.746694652264E-01  5.815654988091E-01  5.885442847948E-01
  5.956068162123E-01  6.027540980069E-01  6.099871471830E-01  6.173069929492E-01
  6.247146768645E-01  6.322112529869E-01  6.397977880228E-01  6.474753614790E-01
  6.552450658168E-01  6.631080066066E-01  6.710653026859E-01  6.791180863181E-01
  6.872675033539E-01  6.955147133942E-01  7.038608899549E-01  7.123072206343E-01
  7.208549072820E-01  7.295051661693E-01  7.382592281634E-01  7.471183389013E-01
  7.560837589681E-01  7.651567640758E-01  7.743386452447E-01  7.836307089876E-01
  7.930342774955E-01  8.025506888254E-01  8.121812970913E-01  8.219274726564E-01
  8.317906023283E-01  8.417720895562E-01  8.518733546309E-01  8.620958348865E-01
  8.724409849051E-01  8.829102767240E-01  8.935052000447E-01  9.042272624452E-01
  9.150779895945E-01  9.260589254697E-01  9.371716325753E-01  9.484176921662E-01
  9.597987044722E-01  9.713162889259E-01  9.829720843930E-01  9.947677494057E-01
  1.006704962399E+00  1.018785421947E+00  1.031010847011E+00  1.043382977175E+00
  1.055903572901E+00  1.068574415776E+00  1.081397308765E+00  1.094374076470E+00
  1.107506565388E+00  1.120796644173E+00  1.134246203903E+00  1.147857158349E+00
  1.161631444250E+00  1.175571021581E+00  1.189677873840E+00  1.203954008326E+00
  1.218401456426E+00  1.233022273903E+00  1.247818541190E+00  1.262792363684E+00
  1.277945872048E+00  1.293281222513E+00  1.308800597183E+00  1.324506204349E+00
  1.340400278801E+00  1.356485082147E+00  1.372762903132E+00  1.389236057970E+00
  1.405906890666E+00  1.422777773354E+00  1.439851106634E+00  1.457129319914E+00
  1.474614871753E+00  1.492310250214E+00  1.510217973216E+00  1.528340588895E+00
  1.546680675961E+00  1.565240844073E+00  1.584023734202E+00  1.603032019012E+00
  1.622268403240E+00  1.641735624079E+00  1.661436451568E+00  1.681373688987E+00
  1.701550173255E+00  1.721968775334E+00  1.742632400638E+00  1.763543989446E+00
  1.784706517319E+00  1.806122995527E+00  1.827796471473E+00  1.849730029131E+00
  1.871926789480E+00  1.894389910954E+00  1.917122589886E+00  1.940128060964E+00
  1.963409597696E+00  1.986970512868E+00  2.010814159023E+00  2.034943928931E+00
  2.059363256078E+00  2.084075615151E+00  2.109084522533E+00  2.134393536803E+00
  2.160006259245E+00  2.185926334356E+00  2.212157450368E+00  2.238703339772E+00
  2.265567779850E+00  2.292754593208E+00  2.320267648326E+00  2.348110860106E+00
  2.376288190428E+00  2.404803648713E+00  2.433661292497E+00  2.462865228007E+00
  2.492419610743E+00  2.522328646072E+00  2.552596589825E+00  2.583227748903E+00
  2.614226481890E+00  2.645597199672E+00  2.677344366069E+00  2.709472498461E+00
  2.741986168443E+00  2.774890002464E+00  2.808188682494E+00  2.841886946684E+00
  2.875989590044E+00  2.910501465124E+00  2.945427482706E+00  2.980772612498E+00
  3.016541883848E+00  3.052740386455E+00  3.089373271092E+00  3.126445750345E+00
  3.163963099349E+00  3.201930656541E+00  3.240353824420E+00  3.279238070313E+00
  3.318588927157E+00  3.358411994283E+00  3.398712938214E+00  3.439497493473E+00
  3.480771463394E+00  3.522540720955E+00  3.564811209606E+00  3.607588944122E+00
  3.650880011451E+00  3.694690571589E+00  3.739026858448E+00  3.783895180749E+00
  3.829301922918E+00  3.875253545993E+00  3.921756588545E+00  3.968817667608E+00
  4.016443479619E+00  4.064640801374E+00  4.113416490991E+00  4.162777488883E+00
  4.212730818749E+00  4.263283588574E+00  4.314442991637E+00  4.366216307537E+00
  4.418610903227E+00  4.471634234066E+00  4.525293844875E+00  4.579597371013E+00
  4.634552539465E+00  4.690167169939E+00  4.746449175978E+00  4.803406566090E+00
  4.861047444883E+00  4.919380014222E+00  4.978412574392E+00  5.038153525285E+00
  5.098611367588E+00  5.159794703999E+00  5.221712240447E+00  5.284372787333E+00
  5.347785260781E+00  5.411958683910E+00  5.476902188117E+00  5.542625014375E+00
  5.609136514547E+00  5.676446152722E+00  5.744563506554E+00  5.813498268633E+00
  5.883260247857E+00  5.953859370831E+00  6.025305683281E+00  6.097609351480E+00
  6.170780663698E+00  6.244830031662E+00  6.319767992042E+00  6.395605207947E+00
  6.472352470442E+00  6.550020700087E+00  6.628620948488E+00  6.708164399870E+00
  6.788662372669E+00  6.870126321141E+00  6.952567836994E+00  7.035998651038E+00
  7.120430634851E+00  7.205875802469E+00  7.292346312099E+00  7.379854467844E+00
  7.468412721458E+00  7.558033674116E+00  7.648730078205E+00  7.740514839143E+00
  7.833401017213E+00  7.927401829420E+00  8.022530651373E+00  8.118801019189E+00
  8.216226631419E+00  8.314821350996E+00  8.414599207208E+00  8.515574397695E+00
  8.617761290467E+00  8.721174425953E+00  8.825828519064E+00  8.931738461293E+00
  9.038919322829E+00  9.147386354702E+00  9.257154990959E+00  9.368240850850E+00
  9.480659741061E+00  9.594427657953E+00  9.709560789849E+00  9.826075519327E+00
  9.943988425559E+00  1.006331628667E+01  1.018407608211E+01  1.030628499509E+01
  1.042996041503E+01  1.055511994001E+01  1.068178137929E+01  1.080996275584E+01
  1.093968230891E+01  1.107095849662E+01  1.120380999858E+01  1.133825571856E+01
  1.147431478719E+01  1.161200656463E+01  1.175135064341E+01  1.189236685113E+01
  1.203507525334E+01  1.217949615638E+01  1.232565011026E+01  1.247355791158E+01
  1.262324060652E+01  1.277471949380E+01  1.292801612773E+01  1.308315232126E+01
  1.324015014911E+01  1.339903195090E+01  1.355982033431E+01  1.372253817832E+01
  1.388720863646E+01  1.405385514010E+01  1.422250140178E+01  1.439317141861E+01
  1.456588947563E+01  1.474068014934E+01  1.491756831113E+01  1.509657913086E+01
  1.527773808043E+01  1.546107093740E+01  1.564660378865E+01  1.583436303411E+01
  1.602437539052E+01  1.621666789521E+01  1.641126790995E+01  1.660820312487E+01
  1.680750156237E+01  1.700919158111E+01  1.721330188009E+01  1.741986150265E+01
  1.762889984068E+01  1.784044663877E+01  1.805453199843E+01  1.827118638241E+01
  1.849044061900E+01  1.871232590643E+01  1.893687381731E+01  1.916411630312E+01
  1.939408569875E+01  1.962681472714E+01  1.986233650386E+01  2.010068454191E+01
  2.034189275641E+01  2.058599546949E+01  2.083302741512E+01  2.108302374411E+01
  2.133602002904E+01  2.159205226938E+01  2.185115689662E+01  2.211337077938E+01
  2.237873122873E+01  2.264727600347E+01  2.291904331551E+01  2.319407183530E+01
  2.347240069732E+01  2.375406950569E+01  2.403911833976E+01  2.432758775984E+01
  2.461951881296E+01  2.491495303871E+01  2.521393247518E+01  2.551649966488E+01
  2.582269766086E+01  2.613257003279E+01  2.644616087318E+01  2.676351480366E+01
  2.708467698130E+01  2.740969310508E+01  2.773860942234E+01  2.807147273541E+01
  2.840833040823E+01  2.874923037313E+01  2.909422113761E+01  2.944335179126E+01
  2.979667201275E+01  3.015423207691E+01  3.051608286183E+01  3.088227585617E+01
  3.125286316645E+01  3.162789752444E+01  3.200743229474E+01  3.239152148227E+01
  3.278021974006E+01  3.317358237694E+01  3.357166536547E+01  3.397452534985E+01
  3.438221965405E+01  3.479480628990E+01  3.521234396538E+01  3.563489209296E+01
  3.606251079808E+01  3.649526092765E+01  3.693320405879E+01  3.737640250749E+01
  3.782491933758E+01  3.827881836963E+01  3.873816419007E+01  3.920302216035E+01
  3.967345842627E+01  4.014953992739E+01  4.063133440652E+01  4.111891041939E+01
  4.161233734443E+01  4.211168539256E+01  4.261702561727E+01  4.312842992468E+01
  4.364597108377E+01  4.416972273678E+01

</grid-data>
</grid>
<semilocal-potentials set="scalar_relativistic">
<slps n="3" l="s" rc="2.70947249846" flavor="Hamann's oncvpsp">
<radfunc>
<data>
  5.675447609632E+00  5.675447441741E+00  5.675447439713E+00  5.675447437673E+00
  5.675447435623E+00  5.675447433560E+00  5.675447431485E+00  5.675447429396E+00
  5.675447427292E+00  5.675447425174E+00  5.675447423039E+00  5.675447420888E+00
  5.675447418719E+00  5.675447416532E+00  5.675447414325E+00  5.675447412098E+00
  5.675447409850E+00  5.675447407581E+00  5.675447405288E+00  5.675447402972E+00
  5.675447400631E+00  5.675447398265E+00  5.675447395872E+00  5.675447393451E+00
  5.675447391001E+00  5.675447388522E+00  5.675447386012E+00  5.675447383470E+00
  5.675447380896E+00  5.675447378287E+00  5.675447375642E+00  5.675447372962E+00
  5.675447370244E+00  5.675447367486E+00  5.675447364689E+00  5.675447361850E+00
  5.675447358969E+00  5.675447356043E+00  5.675447353073E+00  5.675447350055E+00
  5.675447346989E+00  5.675447343873E+00  5.675447340706E+00  5.675447337486E+00
  5.675447334212E+00  5.675447330883E+00  5.675447327495E+00  5.675447324049E+00
  5.675447320542E+00  5.675447316972E+00  5.675447313337E+00  5.675447309637E+00
  5.675447305869E+00  5.675447302030E+00  5.675447298120E+00  5.675447294136E+00
  5.675447290076E+00  5.675447285939E+00  5.675447281721E+00  5.675447277421E+00
  5.675447273036E+00  5.675447268565E+00  5.675447264005E+00  5.675447259353E+00
  5.675447254608E+00  5.675447249766E+00  5.675447244825E+00  5.675447239783E+00
  5.675447234637E+00  5.675447229384E+00  5.675447224021E+00  5.675447218546E+00
  5.675447212955E+00  5.675447207247E+00  5.675447201416E+00  5.675447195461E+00
  5.675447189379E+00  5.675447183165E+00  5.675447176817E+00  5.675447170331E+00
  5.675447163704E+00  5.675447156931E+00  5.675447150011E+00  5.675447142938E+00
  5.675447135708E+00  5.675447128319E+00  5.675447120765E+00  5.675447113043E+00
  5.675447105148E+00  5.675447097077E+00  5.675447088824E+00  5.675447080385E+00
  5.675447071756E+00  5.675447062932E+00  5.675447053907E+00  5.675447044677E+00
  5.675447035238E+00  5.675447025582E+00  5.675447015706E+00  5.675447005603E+00
  5.675446995269E+00  5.675446984697E+00  5.675446973882E+00  5.675446962817E+00
  5.675446951496E+00  5.675446939913E+00  5.675446928062E+00  5.675446915936E+00
  5.675446903528E+00  5.675446890831E+00  5.675446877838E+00  5.675446864542E+00
  5.675446850936E+00  5.675446837011E+00  5.675446822761E+00  5.675446808176E+00
  5.675446793249E+00  5.675446777971E+00  5.675446762335E+00  5.675446746330E+00
  5.675446729949E+00  5.675446713181E+00  5.675446696018E+00  5.675446678449E+00
  5.675446660466E+00  5.675446642057E+00  5.675446623212E+00  5.675446603921E+00
  5.675446584174E+00  5.675446563957E+00  5.675446543261E+00  5.675446522074E+00
  5.675446500383E+00  5.675446478177E+00  5.675446455443E+00  5.675446432167E+00
  5.675446408338E+00  5.675446383941E+00  5.675446358962E+00  5.675446333388E+00
  5.675446307204E+00  5.675446280396E+00  5.675446252947E+00  5.675446224843E+00
  5.675446196067E+00  5.675446166603E+00  5.675446136435E+00  5.675446105546E+00
  5.675446073918E+00  5.675446041532E+00  5.675446008372E+00  5.675445974417E+00
  5.675445939649E+00  5.675445904048E+00  5.675445867593E+00  5.675445830265E+00
  5.675445792042E+00  5.675445752902E+00  5.675445712823E+00  5.675445671782E+00
  5.675445629756E+00  5.675445586721E+00  5.675445542653E+00  5.675445497527E+00
  5.675445451317E+00  5.675445403997E+00  5.675445355539E+00  5.675445305917E+00
  5.675445255103E+00  5.675445203066E+00  5.675445149779E+00  5.675445095210E+00
  5.675445039329E+00  5.675444982104E+00  5.675444923502E+00  5.675444863490E+00
  5.675444802034E+00  5.675444739099E+00  5.675444674649E+00  5.675444608648E+00
  5.675444541057E+00  5.675444471840E+00  5.675444400956E+00  5.675444328365E+00
  5.675444254025E+00  5.675444177896E+00  5.675444099932E+00  5.675444020091E+00
  5.675443938325E+00  5.675443854590E+00  5.675443768838E+00  5.675443681019E+00