Fe    ONCVPSP-3.2.3  r_core=   1.16308   1.10889   1.31043
     26.0000     16.0000      170221    zatom,zion,pspd
     8      11   2     4   600     0    pspcod,pspxc,lmax,lloc,mmax,r2well
  5.99000000  3.00000000  0.00000000    rchrg fchrg qchrg
     2     2     2     0     0    nproj
     1     1           extension_switch
   0                         1.1774825965971D+01  1.3479090746602D+00
     1  0.0000000000000D+00 -9.0364082883099D-10  3.6437635964059D-09
     2  1.0000000000000D-02  1.0127941118876D-01 -3.5078259029212D-02
     3  2.0000000000000D-02  2.0219432843020D-01 -6.9726868810607D-02
     4  3.0000000000000D-02  3.0238230286788D-01 -1.0352091632713D-01
     5  4.0000000000000D-02  4.0148495710290D-01 -1.3604489625723D-01
     6  5.0000000000000D-02  4.9914997434579D-01 -1.6689725385140D-01
     7  6.0000000000000D-02  5.9503303232710D-01 -1.9569473727228D-01
     8  7.0000000000000D-02  6.8879966462874D-01 -2.2207650022909D-01
     9  8.0000000000000D-02  7.8012703300170D-01 -2.4570789938047D-01
    10  9.0000000000000D-02  8.6870559534281D-01 -2.6628393543851D-01
    11  1.0000000000000D-01  9.5424065529797D-01 -2.8353229211571D-01
    12  1.1000000000000D-01  1.0364537809264D+00 -2.9721593294494D-01
    13  1.2000000000000D-01  1.1150840814772D+00 -3.0713522248401D-01
    14  1.3000000000000D-01  1.1898893330784D+00 -3.1312954540191D-01
    15  1.4000000000000D-01  1.2606469459908D+00 -3.1507840433130D-01
    16  1.5000000000000D-01  1.3271547680145D+00 -3.1290198505664D-01
    17  1.6000000000000D-01  1.3892317206265D+00 -3.0656118547796D-01
    18  1.7000000000000D-01  1.4467182664427D+00 -2.9605711273326D-01
    19  1.8000000000000D-01  1.4994767086170D+00 -2.8143006076022D-01
    20  1.9000000000000D-01  1.5473913247788D+00 -2.6275798831583D-01
    21  2.0000000000000D-01  1.5903683400447D+00 -2.4015452493309D-01
    22  2.1000000000000D-01  1.6283357454918D+00 -2.1376653936743D-01
    23  2.2000000000000D-01  1.6612429702233D+00 -1.8377131166155D-01
    24  2.3000000000000D-01  1.6890604167700D+00 -1.5037335593644D-01
    25  2.4000000000000D-01  1.7117788710221D+00 -1.1380094630249D-01
    26  2.5000000000000D-01  1.7294087991691D+00 -7.4302402793784D-02
    27  2.6000000000000D-01  1.7419795452043D+00 -3.2142197885863D-02
    28  2.7000000000000D-01  1.7495384434245D+00  1.2403053101985D-02
    29  2.8000000000000D-01  1.7521498610028D+00  5.9048652642839D-02
    30  2.9000000000000D-01  1.7498941861274D+00  1.0750586682783D-01
    31  3.0000000000000D-01  1.7428667773707D+00  1.5748589078643D-01
    32  3.1000000000000D-01  1.7311768898866D+00  2.0870366939359D-01
    33  3.2000000000000D-01  1.7149465937187D+00  2.6088151126949D-01
    34  3.3000000000000D-01  1.6943096989541D+00  3.1375243739507D-01
    35  3.4000000000000D-01  1.6694107016737D+00  3.6706320994716D-01
    36  3.5000000000000D-01  1.6404037636513D+00  4.2057699215068D-01
    37  3.6000000000000D-01  1.6074517375490D+00  4.7407559598078D-01
    38  3.7000000000000D-01  1.5707252479652D+00  5.2736128134476D-01
    39  3.8000000000000D-01  1.5304018371367D+00  5.8025807783612D-01
    40  3.9000000000000D-01  1.4866651824030D+00  6.3261260817494D-01
    41  4.0000000000000D-01  1.4397043907285D+00  6.8429440091082D-01
    42  4.1000000000000D-01  1.3897133736889D+00  7.3519568874409D-01
    43  4.2000000000000D-01  1.3368903043787D+00  7.8523069777983D-01
    44  4.3000000000000D-01  1.2814371557282D+00  8.3433444203217D-01
    45  4.4000000000000D-01  1.2235593177617D+00  8.8246104640023D-01
    46  4.5000000000000D-01  1.1634652894149D+00  9.2958162999696D-01
    47  4.6000000000000D-01  1.1013664386947D+00  9.7568178998894D-01
    48  4.7000000000000D-01  1.0374768232399D+00  1.0207587338553D+00
    49  4.8000000000000D-01  9.7201306175899D-01  1.0648181150686D+00
    50  4.9000000000000D-01  9.0519424540873D-01  1.1078706335077D+00
    51  5.0000000000000D-01  8.3724187696632D-01  1.1499284673213D+00
    52  5.1000000000000D-01  7.6837982465889D-01  1.1910016073598D+00
    53  5.2000000000000D-01  6.9883427677082D-01  1.2310941686016D+00
    54  5.3000000000000D-01  6.2883368267085D-01  1.2702007551235D+00
    55  5.4000000000000D-01  5.5860866569820D-01  1.3083029560687D+00
    56  5.5000000000000D-01  4.8839189343401D-01  1.3453660496851D+00
    57  5.6000000000000D-01  4.1841789126183D-01  1.3813359908396D+00
    58  5.7000000000000D-01  3.4892278579438D-01  1.4161367544401D+00
    59  5.8000000000000D-01  2.8014396570461D-01  1.4496681029566D+00
    60  5.9000000000000D-01  2.1231964874144D-01  1.4818038407399D+00
    61  6.0000000000000D-01  1.4568834521756D-01  1.5123906111799D+00
    62  6.1000000000000D-01  8.0488210015290D-02  1.5412472849675D+00
    63  6.2000000000000D-01  1.6956277130062D-02  1.5681649789835D+00
    64  6.3000000000000D-01 -4.4672427042352D-02  1.5929077356530D+00
    65  6.4000000000000D-01 -1.0416589313820D-01  1.6152138822489D+00
    66  6.5000000000000D-01 -1.6129625996105D-01  1.6347980785997D+00
    67  6.6000000000000D-01 -2.1584106373866D-01  1.6513540502108D+00
    68  6.7000000000000D-01 -2.6758459931250D-01  1.6645579921411D+00
    69  6.8000000000000D-01 -3.1631938443645D-01  1.6740726171338D+00
    70  6.9000000000000D-01 -3.6184771577541D-01  1.6795518098213D+00
    71  7.0000000000000D-01 -4.0398330267856D-01  1.6806458373838D+00
    72  7.1000000000000D-01 -4.4255296242294D-01  1.6770070561399D+00
    73  7.2000000000000D-01 -4.7739835838461D-01  1.6682960431759D+00
    74  7.3000000000000D-01 -5.0837776059035D-01  1.6541880727047D+00
    75  7.4000000000000D-01 -5.3536780632896D-01  1.6343798483476D+00
    76  7.5000000000000D-01 -5.5826523701541D-01  1.6085963952073D+00
    77  7.6000000000000D-01 -5.7698858633232D-01  1.5765980095771D+00
    78  7.7000000000000D-01 -5.9147979384339D-01  1.5381871594873D+00
    79  7.8000000000000D-01 -6.0170571781567D-01  1.4932152261935D+00
    80  7.9000000000000D-01 -6.0765952091303D-01  1.4415889751875D+00
    81  8.0000000000000D-01 -6.0936190274589D-01  1.3832766454464D+00
    82  8.1000000000000D-01 -6.0686215399001D-01  1.3183135474492D+00
    83  8.2000000000000D-01 -6.0023900791744D-01  1.2468070639862D+00
    84  8.3000000000000D-01 -5.8960126671167D-01  1.1689409529602D+00
    85  8.4000000000000D-01 -5.7508818185138D-01  1.0849788581568D+00
    86  8.5000000000000D-01 -5.5686957012482D-01  9.9526694229314D-01
    87  8.6000000000000D-01 -5.3514564945427D-01  9.0023556642791D-01
    88  8.7000000000000D-01 -5.1014658163493D-01  8.0039995091039D-01
    89  8.8000000000000D-01 -4.8213171228875D-01  6.9635976531419D-01
    90  8.9000000000000D-01 -4.5138850175845D-01  5.8879760807857D-01
    91  9.0000000000000D-01 -4.1823114427445D-01  4.7847635067522D-01
    92  9.1000000000000D-01 -3.8299887646657D-01  3.6623533583358D-01
    93  9.2000000000000D-01 -3.4605398011043D-01  2.5298543447665D-01
    94  9.3000000000000D-01 -3.0777948783953D-01  1.3970298131765D-01
    95  9.4000000000000D-01 -2.6857660436099D-01  2.7422624316341D-02
    96  9.5000000000000D-01 -2.2886185942886D-01 -8.2770861841056D-02
    97  9.6000000000000D-01 -1.8906401239132D-01 -1.8975173364244D-01
    98  9.7000000000000D-01 -1.4962073151707D-01 -2.9236332961796D-01
    99  9.8000000000000D-01 -1.1097507435082D-01 -3.8942892326073D-01
   100  9.9000000000000D-01 -7.3571798210476D-02 -4.7976327522890D-01
   101  1.0000000000000D+00 -3.7853532349669D-02 -5.6218477195241D-01
   102  1.0100000000000D+00 -4.2568453521520D-03 -6.3552802907351D-01
   103  1.0200000000000D+00  2.6791757055181D-02 -6.9865683109094D-01
   104  1.0300000000000D+00  5.4879867430128D-02 -7.5047727333703D-01
   105  1.0400000000000D+00  7.9613208311311D-02 -7.8995096918519D-01
   106  1.0500000000000D+00  1.0061962299459D-01 -8.1610818387835D-01
   107  1.0600000000000D+00  1.1755298858945D-01 -8.2806075707551D-01
   108  1.0700000000000D+00  1.3009701547726D-01 -8.2501467918744D-01
   109  1.0800000000000D+00  1.3796890036185D-01 -8.0628219816233D-01
   110  1.0900000000000D+00  1.4092280729135D-01 -7.7129335970044D-01
   111  1.1000000000000D+00  1.3875296378319D-01 -7.1960613384604D-01
   112  1.1100000000000D+00  1.3129728728589D-01 -6.5091883615847D-01
   113  1.1200000000000D+00  1.1843832030988D-01 -5.6507173872430D-01
   114  1.1300000000000D+00  9.9975030805707D-02 -4.6151381341138D-01
   115  1.1400000000000D+00  7.7038081723359D-02 -3.4519283632642D-01
   116  1.1500000000000D+00  4.6343969662526D-02 -2.0259277440435D-01
   117  1.1600000000000D+00  8.3459097694764D-03 -3.5738810173233D-02
   118  1.1700000000000D+00 -4.1499884170471D-03  1.8119269887549D-02
   119  1.1800000000000D+00  7.2866444131200D-04 -3.1964510849308D-03
   120  1.1900000000000D+00  2.3706311808039D-04 -1.0373786859797D-03
   121  1.2000000000000D+00 -1.2106401271052D-04  5.3813522285147D-04
   122  1.2100000000000D+00 -5.0511422038244D-07  1.3493495786085D-06
   123  1.2200000000000D+00  0.0000000000000D+00  0.0000000000000D+00
   124  1.2300000000000D+00  0.0000000000000D+00  0.0000000000000D+00
   125  1.2400000000000D+00  0.0000000000000D+00  0.0000000000000D+00
   126  1.2500000000000D+00  0.0000000000000D+00  0.0000000000000D+00
   127  1.2600000000000D+00  0.0000000000000D+00  0.0000000000000D+00
   128  1.2700000000000D+00  0.0000000000000D+00  0.0000000000000D+00
   129  1.2800000000000D+00  0.0000000000000D+00  0.0000000000000D+00
   130  1.2900000000000D+00  0.0000000000000D+00  0.0000000000000D+00
   131  1.3000000000000D+00  0.0000000000000D+00  0.0000000000000D+00
   132  1.3100000000000D+00  0.0000000000000D+00  0.0000000000000D+00
   133  1.3200000000000D+00  0.0000000000000D+00  0.0000000000000D+00
   134  1.3300000000000D+00  0.0000000000000D+00  0.0000000000000D+00
   135  1.3400000000000D+00  0.0000000000000D+00  0.0000000000000D+00
   136  1.3500000000000D+00  0.0000000000000D+00  0.0000000000000D+00
   137  1.3600000000000D+00  0.0000000000000D+00  0.0000000000000D+00
   138  1.3700000000000D+00  0.0000000000000D+00  0.0000000000000D+00
   139  1.3800000000000D+00  0.0000000000000D+00  0.0000000000000D+00
   140  1.3900000000000D+00  0.0000000000000D+00  0.0000000000000D+00
   141  1.4000000000000D+00  0.0000000000000D+00  0.0000000000000D+00
   142  1.4100000000000D+00  0.0000000000000D+00  0.0000000000000D+00
   143  1.4200000000000D+00  0.0000000000000D+00  0.0000000000000D+00
   144  1.4300000000000D+00  0.0000000000000D+00  0.0000000000000D+00
   145  1.4400000000000D+00  0.0000000000000D+00  0.0000000000000D+00
   146  1.4500000000000D+00  0.0000000000000D+00  0.0000000000000D+00
   147  1.4600000000000D+00  0.0000000000000D+00  0.0000000000000D+00
   148  1.4700000000000D+00  0.0000000000000D+00  0.0000000000000D+00
   149  1.4800000000000D+00  0.0000000000000D+00  0.0000000000000D+00
   150  1.4900000000000D+00  0.0000000000000D+00  0.0000000000000D+00
   151  1.5000000000000D+00  0.0000000000000D+00  0.0000000000000D+00
   152  1.5100000000000D+00  0.0000000000000D+00  0.0000000000000D+00
   153  1.5200000000000D+00  0.0000000000000D+00  0.0000000000000D+00
   154  1.5300000000000D+00  0.0000000000000D+00  0.0000000000000D+00
   155  1.5400000000000D+00  0.0000000000000D+00  0.0000000000000D+00
   156  1.5500000000000D+00  0.0000000000000D+00  0.0000000000000D+00
   157  1.5600000000000D+00  0.0000000000000D+00  0.0000000000000D+00
   158  1.5700000000000D+00  0.0000000000000D+00  0.0000000000000D+00
   159  1.5800000000000D+00  0.0000000000000D+00  0.0000000000000D+00
   160  1.5900000000000D+00  0.0000000000000D+00  0.0000000000000D+00
   161  1.6000000000000D+00  0.0000000000000D+00  0.0000000000000D+00
   162  1.6100000000000D+00  0.0000000000000D+00  0.0000000000000D+00
   163  1.6200000000000D+00  0.0000000000000D+00  0.0000000000000D+00
   164  1.6300000000000D+00  0.0000000000000D+00  0.0000000000000D+00
   165  1.6400000000000D+00  0.0000000000000D+00  0.0000000000000D+00
   166  1.6500000000000D+00  0.0000000000000D+00  0.0000000000000D+00
   167  1.6600000000000D+00  0.0000000000000D+00  0.0000000000000D+00
   168  1.6700000000000D+00  0.0000000000000D+00  0.0000000000000D+00
   169  1.6800000000000D+00  0.0000000000000D+00  0.0000000000000D+00
   170  1.6900000000000D+00  0.0000000000000D+00  0.0000000000000D+00
   171  1.7000000000000D+00  0.0000000000000D+00  0.0000000000000D+00
   172  1.7100000000000D+00  0.0000000000000D+00  0.0000000000000D+00
   173  1.7200000000000D+00  0.0000000000000D+00  0.0000000000000D+00
   174  1.7300000000000D+00  0.0000000000000D+00  0.0000000000000D+00
   175  1.7400000000000D+00  0.0000000000000D+00  0.0000000000000D+00
   176  1.7500000000000D+00  0.0000000000000D+00  0.0000000000000D+00
   177  1.7600000000000D+00  0.0000000000000D+00  0.0000000000000D+00
   178  1.7700000000000D+00  0.0000000000000D+00  0.0000000000000D+00
   179  1.7800000000000D+00  0.0000000000000D+00  0.0000000000000D+00
   180  1.7900000000000D+00  0.0000000000000D+00  0.0000000000000D+00
   181  1.8000000000000D+00  0.0000000000000D+00  0.0000000000000D+00
   182  1.8100000000000D+00  0.0000000000000D+00  0.0000000000000D+00
   183  1.8200000000000D+00  0.0000000000000D+00  0.0000000000000D+00
   184  1.8300000000000D+00  0.0000000000000D+00  0.0000000000000D+00
   185  1.8400000000000D+00  0.0000000000000D+00  0.0000000000000D+00
   186  1.8500000000000D+00  0.0000000000000D+00  0.0000000000000D+00
   187  1.8600000000000D+00  0.0000000000000D+00  0.0000000000000D+00
   188  1.8700000000000D+00  0.0000000000000D+00  0.0000000000000D+00
   189  1.8800000000000D+00  0.0000000000000D+00  0.0000000000000D+00
   190  1.8900000000000D+00  0.0000000000000D+00  0.0000000000000D+00
   191  1.9000000000000D+00  0.0000000000000D+00  0.0000000000000D+00
   192  1.9100000000000D+00  0.0000000000000D+00  0.0000000000000D+00
   193  1.9200000000000D+00  0.0000000000000D+00  0.0000000000000D+00
   194  1.9300000000000D+00  0.0000000000000D+00  0.0000000000000D+00
   195  1.9400000000000D+00  0.0000000000000D+00  0.0000000000000D+00
   196  1.9500000000000D+00  0.0000000000000D+00  0.0000000000000D+00
   197  1.9600000000000D+00  0.0000000000000D+00  0.0000000000000D+00
   198  1.9700000000000D+00  0.0000000000000D+00  0.0000000000000D+00
   199  1.9800000000000D+00  0.0000000000000D+00  0.0000000000000D+00
   200  1.9900000000000D+00  0.0000000000000D+00  0.0000000000000D+00
   201  2.0000000000000D+00  0.0000000000000D+00  0.0000000000000D+00
   202  2.0100000000000D+00  0.0000000000000D+00  0.0000000000000D+00
   203  2.0200000000000D+00  0.0000000000000D+00  0.0000000000000D+00
   204  2.0300000000000D+00  0.0000000000000D+00  0.0000000000000D+00
   205  2.0400000000000D+00  0.0000000000000D+00  0.0000000000000D+00
   206  2.0500000000000D+00  0.0000000000000D+00  0.0000000000000D+00
   207  2.0600000000000D+00  0.0000000000000D+00  0.0000000000000D+00
   208  2.0700000000000D+00  0.0000000000000D+00  0.0000000000000D+00
   209  2.0800000000000D+00  0.0000000000000D+00  0.0000000000000D+00
   210  2.0900000000000D+00  0.0000000000000D+00  0.0000000000000D+00
   211  2.1000000000000D+00  0.0000000000000D+00  0.0000000000000D+00
   212  2.1100000000000D+00  0.0000000000000D+00  0.0000000000000D+00
   213  2.1200000000000D+00  0.0000000000000D+00  0.0000000000000D+00
   214  2.1300000000000D+00  0.0000000000000D+00  0.0000000000000D+00
   215  2.1400000000000D+00  0.0000000000000D+00  0.0000000000000D+00
   216  2.1500000000000D+00  0.0000000000000D+00  0.0000000000000D+00
   217  2.1600000000000D+00  0.0000000000000D+00  0.0000000000000D+00
   218  2.1700000000000D+00  0.0000000000000D+00  0.0000000000000D+00
   219  2.1800000000000D+00  0.0000000000000D+00  0.0000000000000D+00
   220  2.1900000000000D+00  0.0000000000000D+00  0.0000000000000D+00
   221  2.2000000000000D+00  0.0000000000000D+00  0.0000000000000D+00
   222  2.2100000000000D+00  0.0000000000000D+00  0.0000000000000D+00
   223  2.2200000000000D+00  0.0000000000000D+00  0.0000000000000D+00
   224  2.2300000000000D+00  0.0000000000000D+00  0.0000000000000D+00
   225  2.2400000000000D+00  0.0000000000000D+00  0.0000000000000D+00
   226  2.2500000000000D+00  0.0000000000000D+00  0.0000000000000D+00
   227  2.2600000000000D+00  0.0000000000000D+00  0.0000000000000D+00
   228  2.2700000000000D+00  0.0000000000000D+00  0.0000000000000D+00
   229  2.2800000000000D+00  0.0000000000000D+00  0.0000000000000D+00
   230  2.2900000000000D+00  0.0000000000000D+00  0.0000000000000D+00
   231  2.3000000000000D+00  0.0000000000000D+00  0.0000000000000D+00
   232  2.3100000000000D+00  0.0000000000000D+00  0.0000000000000D+00
   233  2.3200000000000D+00  0.0000000000000D+00  0.0000000000000D+00
   234  2.3300000000000D+00  0.0000000000000D+00  0.0000000000000D+00
   235  2.3400000000000D+00  0.0000000000000D+00  0.0000000000000D+00
   236  2.3500000000000D+00  0.0000000000000D+00  0.0000000000000D+00
   237  2.3600000000000D+00  0.0000000000000D+00  0.0000000000000D+00
   238  2.3700000000000D+00  0.0000000000000D+00  0.0000000000000D+00
   239  2.3800000000000D+00  0.0000000000000D+00  0.0000000000000D+00
   240  2.3900000000000D+00  0.0000000000000D+00  0.0000000000000D+00
   241  2.4000000000000D+00  0.0000000000000D+00  0.0000000000000D+00
   242  2.4100000000000D+00  0.0000000000000D+00  0.0000000000000D+00
   243  2.4200000000000D+00  0.0000000000000D+00  0.0000000000000D+00
   244  2.4300000000000D+00  0.0000000000000D+00  0.0000000000000D+00
   245  2.4400000000000D+00  0.0000000000000D+00  0.0000000000000D+00
   246  2.4500000000000D+00  0.0000000000000D+00  0.0000000000000D+00
   247  2.4600000000000D+00  0.0000000000000D+00  0.0000000000000D+00
   248  2.4700000000000D+00  0.0000000000000D+00  0.0000000000000D+00
   249  2.4800000000000D+00  0.0000000000000D+00  0.0000000000000D+00
   250  2.4900000000000D+00  0.0000000000000D+00  0.0000000000000D+00
   251  2.5000000000000D+00  0.0000000000000D+00  0.0000000000000D+00
   252  2.5100000000000D+00  0.0000000000000D+00  0.0000000000000D+00
   253  2.5200000000000D+00  0.0000000000000D+00  0.0000000000000D+00
   254  2.5300000000000D+00  0.0000000000000D+00  0.0000000000000D+00
   255  2.5400000000000D+00  0.0000000000000D+00  0.0000000000000D+00
   256  2.5500000000000D+00  0.0000000000000D+00  0.0000000000000D+00
   257  2.5600000000000D+00  0.0000000000000D+00  0.0000000000000D+00
   258  2.5700000000000D+00  0.0000000000000D+00  0.0000000000000D+00
   259  2.5800000000000D+00  0.0000000000000D+00  0.0000000000000D+00
   260  2.5900000000000D+00  0.0000000000000D+00  0.0000000000000D+00
   261  2.6000000000000D+00  0.0000000000000D+00  0.0000000000000D+00
   262  2.6100000000000D+00  0.0000000000000D+00  0.0000000000000D+00
   263  2.6200000000000D+00  0.0000000000000D+00  0.0000000000000D+00
   264  2.6300000000000D+00  0.0000000000000D+00  0.0000000000000D+00
   265  2.6400000000000D+00  0.0000000000000D+00  0.0000000000000D+00
   266  2.6500000000000D+00  0.0000000000000D+00  0.0000000000000D+00
   267  2.6600000000000D+00  0.0000000000000D+00  0.0000000000000D+00
   268  2.6700000000000D+00  0.0000000000000D+00  0.0000000000000D+00
   269  2.6800000000000D+00  0.0000000000000D+00  0.0000000000000D+00
   270  2.6900000000000D+00  0.0000000000000D+00  0.0000000000000D+00
   271  2.7000000000000D+00  0.0000000000000D+00  0.0000000000000D+00
   272  2.7100000000000D+00  0.0000000000000D+00  0.0000000000000D+00
   273  2.7200000000000D+00  0.0000000000000D+00  0.0000000000000D+00
   274  2.7300000000000D+00  0.0000000000000D+00  0.0000000000000D+00
   275  2.7400000000000D+00  0.0000000000000D+00  0.0000000000000D+00
   276  2.7500000000000D+00  0.0000000000000D+00  0.0000000000000D+00
   277  2.7600000000000D+00  0.0000000000000D+00  0.0000000000000D+00
   278  2.7700000000000D+00  0.0000000000000D+00  0.0000000000000D+00
   279  2.7800000000000D+00  0.0000000000000D+00  0.0000000000000D+00
   280  2.7900000000000D+00  0.0000000000000D+00  0.0000000000000D+00
   281  2.8000000000000D+00  0.0000000000000D+00  0.0000000000000D+00
   282  2.8100000000000D+00  0.0000000000000D+00  0.0000000000000D+00
   283  2.8200000000000D+00  0.0000000000000D+00  0.0000000000000D+00
   284  2.8300000000000D+00  0.0000000000000D+00  0.0000000000000D+00
   285  2.8400000000000D+00  0.0000000000000D+00  0.0000000000000D+00
   286  2.8500000000000D+00  0.0000000000000D+00  0.0000000000000D+00
   287  2.8600000000000D+00  0.0000000000000D+00  0.0000000000000D+00
   288  2.8700000000000D+00  0.0000000000000D+00  0.0000000000000D+00
   289  2.8800000000000D+00  0.0000000000000D+00  0.0000000000000D+00
   290  2.8900000000000D+00  0.0000000000000D+00  0.0000000000000D+00
   291  2.9000000000000D+00  0.0000000000000D+00  0.0000000000000D+00
   292  2.9100000000000D+00  0.0000000000000D+00  0.0000000000000D+00
   293  2.9200000000000D+00  0.0000000000000D+00  0.0000000000000D+00
   294  2.9300000000000D+00  0.0000000000000D+00  0.0000000000000D+00
   295  2.9400000000000D+00  0.0000000000000D+00  0.0000000000000D+00
   296  2.9500000000000D+00  0.0000000000000D+00  0.0000000000000D+00
   297  2.9600000000000D+00  0.0000000000000D+00  0.0000000000000D+00
   298  2.9700000000000D+00  0.0000000000000D+00  0.0000000000000D+00
   299  2.9800000000000D+00  0.0000000000000D+00  0.0000000000000D+00
   300  2.9900000000000D+00  0.0000000000000D+00  0.0000000000000D+00
   301  3.0000000000000D+00  0.0000000000000D+00  0.0000000000000D+00
   302  3.0100000000000D+00  0.0000000000000D+00  0.0000000000000D+00
   303  3.0200000000000D+00  0.0000000000000D+00  0.0000000000000D+00
   304  3.0300000000000D+00  0.0000000000000D+00  0.0000000000000D+00
   305  3.0400000000000D+00  0.0000000000000D+00  0.0000000000000D+00
   306  3.0500000000000D+00  0.0000000000000D+00  0.0000000000000D+00
   307  3.0600000000000D+00  0.0000000000000D+00  0.0000000000000D+00
   308  3.0700000000000D+00  0.0000000000000D+00  0.0000000000000D+00
   309  3.0800000000000D+00  0.0000000000000D+00  0.0000000000000D+00
   310  3.0900000000000D+00  0.0000000000000D+00  0.0000000000000D+00
   311  3.1000000000000D+00  0.0000000000000D+00  0.0000000000000D+00
   312  3.1100000000000D+00  0.0000000000000D+00  0.0000000000000D+00
   313  3.1200000000000D+00  0.0000000000000D+00  0.0000000000000D+00
   314  3.1300000000000D+00  0.0000000000000D+00  0.0000000000000D+00
   315  3.1400000000000D+00  0.0000000000000D+00  0.0000000000000D+00
   316  3.1500000000000D+00  0.0000000000000D+00  0.0000000000000D+00
   317  3.1600000000000D+00  0.0000000000000D+00  0.0000000000000D+00
   318  3.1700000000000D+00  0.0000000000000D+00  0.0000000000000D+00
   319  3.1800000000000D+00  0.0000000000000D+00  0.0000000000000D+00
   320  3.1900000000000D+00  0.0000000000000D+00  0.0000000000000D+00
   321  3.2000000000000D+00  0.0000000000000D+00  0.0000000000000D+00
   322  3.2100000000000D+00  0.0000000000000D+00  0.0000000000000D+00
   323  3.2200000000000D+00  0.0000000000000D+00  0.0000000000000D+00
   324  3.2300000000000D+00  0.0000000000000D+00  0.0000000000000D+00
   325  3.2400000000000D+00  0.0000000000000D+00  0.0000000000000D+00
   326  3.2500000000000D+00  0.0000000000000D+00  0.0000000000000D+00
   327  3.2600000000000D+00  0.0000000000000D+00  0.0000000000000D+00
   328  3.2700000000000D+00  0.0000000000000D+00  0.0000000000000D+00
   329  3.2800000000000D+00  0.0000000000000D+00  0.0000000000000D+00
   330  3.2900000000000D+00  0.0000000000000D+00  0.0000000000000D+00
   331  3.3000000000000D+00  0.0000000000000D+00  0.0000000000000D+00
   332  3.3100000000000D+00  0.0000000000000D+00  0.0000000000000D+00
   333  3.3200000000000D+00  0.0000000000000D+00  0.0000000000000D+00
   334  3.3300000000000D+00  0.0000000000000D+00  0.0000000000000D+00
   335  3.3400000000000D+00  0.0000000000000D+00  0.0000000000000D+00
   336  3.3500000000000D+00  0.0000000000000D+00  0.0000000000000D+00
   337  3.3600000000000D+00  0.0000000000000D+00  0.0000000000000D+00
   338  3.3700000000000D+00  0.0000000000000D+00  0.0000000000000D+00
   339  3.3800000000000D+00  0.0000000000000D+00  0.0000000000000D+00
   340  3.3900000000000D+00  0.0000000000000D+00  0.0000000000000D+00
   341  3.4000000000000D+00  0.0000000000000D+00  0.0000000000000D+00
   342  3.4100000000000D+00  0.0000000000000D+00  0.0000000000000D+00
   343  3.4200000000000D+00  0.0000000000000D+00  0.0000000000000D+00
   344  3.4300000000000D+00  0.0000000000000D+00  0.0000000000000D+00
   345  3.4400000000000D+00  0.0000000000000D+00  0.0000000000000D+00
   346  3.4500000000000D+00  0.0000000000000D+00  0.0000000000000D+00
   347  3.4600000000000D+00  0.0000000000000D+00  0.0000000000000D+00
   348  3.4700000000000D+00  0.0000000000000D+00  0.0000000000000D+00
   349  3.4800000000000D+00  0.0000000000000D+00  0.0000000000000D+00
   350  3.4900000000000D+00  0.0000000000000D+00  0.0000000000000D+00
   351  3.5000000000000D+00  0.0000000000000D+00  0.0000000000000D+00
   352  3.5100000000000D+00  0.0000000000000D+00  0.0000000000000D+00
   353  3.5200000000000D+00  0.0000000000000D+00  0.0000000000000D+00
   354  3.5300000000000D+00  0.0000000000000D+00  0.0000000000000D+00
   355  3.5400000000000D+00  0.0000000000000D+00  0.0000000000000D+00
   356  3.5500000000000D+00  0.0000000000000D+00  0.0000000000000D+00
   357  3.5600000000000D+00  0.0000000000000D+00  0.0000000000000D+00
   358  3.5700000000000D+00  0.0000000000000D+00  0.0000000000000D+00
   359  3.5800000000000D+00  0.0000000000000D+00  0.0000000000000D+00
   360  3.5900000000000D+00  0.0000000000000D+00  0.0000000000000D+00
   361  3.6000000000000D+00  0.0000000000000D+00  0.0000000000000D+00
   362  3.6100000000000D+00  0.0000000000000D+00  0.0000000000000D+00
   363  3.6200000000000D+00  0.0000000000000D+00  0.0000000000000D+00
   364  3.6300000000000D+00  0.0000000000000D+00  0.0000000000000D+00
   365  3.6400000000000D+00  0.0000000000000D+00  0.0000000000000D+00
   366  3.6500000000000D+00  0.0000000000000D+00  0.0000000000000D+00
   367  3.6600000000000D+00  0.0000000000000D+00  0.0000000000000D+00
   368  3.6700000000000D+00  0.0000000000000D+00  0.0000000000000D+00
   369  3.6800000000000D+00  0.0000000000000D+00  0.0000000000000D+00
   370  3.6900000000000D+00  0.0000000000000D+00  0.0000000000000D+00
   371  3.7000000000000D+00  0.0000000000000D+00  0.0000000000000D+00
   372  3.7100000000000D+00  0.0000000000000D+00  0.0000000000000D+00
   373  3.7200000000000D+00  0.0000000000000D+00  0.0000000000000D+00
   374  3.7300000000000D+00  0.0000000000000D+00  0.0000000000000D+00
   375  3.7400000000000D+00  0.0000000000000D+00  0.0000000000000D+00
   376  3.7500000000000D+00  0.0000000000000D+00  0.0000000000000D+00
   377  3.7600000000000D+00  0.0000000000000D+00  0.0000000000000D+00
   378  3.7700000000000D+00  0.0000000000000D+00  0.0000000000000D+00
   379  3.7800000000000D+00  0.0000000000000D+00  0.0000000000000D+00
   380  3.7900000000000D+00  0.0000000000000D+00  0.0000000000000D+00
   381  3.8000000000000D+00  0.0000000000000D+00  0.0000000000000D+00
   382  3.8100000000000D+00  0.0000000000000D+00  0.0000000000000D+00
   383  3.8200000000000D+00  0.0000000000000D+00  0.0000000000000D+00
   384  3.8300000000000D+00  0.0000000000000D+00  0.0000000000000D+00
   385  3.8400000000000D+00  0.0000000000000D+00  0.0000000000000D+00
   386  3.8500000000000D+00  0.0000000000000D+00  0.0000000000000D+00
   387  3.8600000000000D+00  0.0000000000000D+00  0.0000000000000D+00
   388  3.8700000000000D+00  0.0000000000000D+00  0.0000000000000D+00
   389  3.8800000000000D+00  0.0000000000000D+00  0.0000000000000D+00
   390  3.8900000000000D+00  0.0000000000000D+00  0.0000000000000D+00
   391  3.9000000000000D+00  0.0000000000000D+00  0.0000000000000D+00
   392  3.9100000000000D+00  0.0000000000000D+00  0.0000000000000D+00
   393  3.9200000000000D+00  0.0000000000000D+00  0.0000000000000D+00
   394  3.9300000000000D+00  0.0000000000000D+00  0.0000000000000D+00
   395  3.9400000000000D+00  0.0000000000000D+00  0.0000000000000D+00
   396  3.9500000000000D+00  0.0000000000000D+00  0.0000000000000D+00
   397  3.9600000000000D+00  0.0000000000000D+00  0.0000000000000D+00
   398  3.9700000000000D+00  0.0000000000000D+00  0.0000000000000D+00
   399  3.9800000000000D+00  0.0000000000000D+00  0.0000000000000D+00
   400  3.9900000000000D+00  0.0000000000000D+00  0.0000000000000D+00
   401  4.0000000000000D+00  0.0000000000000D+00  0.0000000000000D+00
   402  4.0100000000000D+00  0.0000000000000D+00  0.0000000000000D+00
   403  4.0200000000000D+00  0.0000000000000D+00  0.0000000000000D+00
   404  4.0300000000000D+00  0.0000000000000D+00  0.0000000000000D+00
   405  4.0400000000000D+00  0.0000000000000D+00  0.0000000000000D+00
   406  4.0500000000000D+00  0.0000000000000D+00  0.0000000000000D+00
   407  4.0600000000000D+00  0.0000000000000D+00  0.0000000000000D+00
   408  4.0700000000000D+00  0.0000000000000D+00  0.0000000000000D+00
   409  4.0800000000000D+00  0.0000000000000D+00  0.0000000000000D+00
   410  4.0900000000000D+00  0.0000000000000D+00  0.0000000000000D+00
   411  4.1000000000000D+00  0.0000000000000D+00  0.0000000000000D+00
   412  4.1100000000000D+00  0.0000000000000D+00  0.0000000000000D+00
   413  4.1200000000000D+00  0.0000000000000D+00  0.0000000000000D+00
   414  4.1300000000000D+00  0.0000000000000D+00  0.0000000000000D+00
   415  4.1400000000000D+00  0.0000000000000D+00  0.0000000000000D+00
   416  4.1500000000000D+00  0.0000000000000D+00  0.0000000000000D+00
   417  4.1600000000000D+00  0.0000000000000D+00  0.0000000000000D+00
   418  4.1700000000000D+00  0.0000000000000D+00  0.0000000000000D+00
   419  4.1800000000000D+00  0.0000000000000D+00  0.0000000000000D+00
   420  4.1900000000000D+00  0.0000000000000D+00  0.0000000000000D+00
   421  4.2000000000000D+00  0.0000000000000D+00  0.0000000000000D+00
   422  4.2100000000000D+00  0.0000000000000D+00  0.0000000000000D+00