<?xml version="1.0" encoding="UTF-8" ?>
<psml version="1.1" energy_unit="hartree" length_unit="bohr"
 uuid="efcf49d0-76e4-11e7-7d38-5e31f97c6215"
 xmlns="http://esl.cecam.org/PSML/ns/1.1">
<provenance creator="ONCVPSP-3.3.0+psml-3.3.0-72 (scalar-relativistic)"
 date="2017-08-01">
<annotation action="semilocal-pseudopotential-generation"
 action-cont="projectors-generation" />
<input-file name="oncvpsp-input">
<![CDATA[# atsym  z   nc   nv     iexc    psfile
Fe 26.00    3    4       4      psp8
#
#   n    l    f        energy (Ha)
1    0    2.00    -2.5720573D+02
2    0    2.00    -3.0124388D+01
2    1    6.00    -2.5667700D+01
3    0    2.00    -3.4550911D+00
3    1    6.00    -2.2065345D+00
3    2    6.00    -2.7580112D-01
4    0    2.00    -1.9448241D-01
#
# PSEUDOPOTENTIAL AND OPTIMIZATION
# lmax
2
#
#   l,   rc,     ep,   ncon, nbas, qcut
0    1.15   -3.46    3    7    9.90
1    1.10   -2.21    3    7    9.20
2    1.30   -0.28    3    7   11.80
#
# LOCAL POTENTIAL
# lloc, lpopt,  rc(5),   dvloc0
4    5      1.10       0.00
#
# VANDERBILT-KLEINMAN-BYLANDER PROJECTORs
# l, nproj, debl
0    2    3.2606
1    2    0.8000
2    2    0.8000
#
# MODEL CORE CHARGE
# icmod, fcfact, rcfact, rcfact
3    3.00    1.70
#
# LOG DERIVATIVE ANALYSIS
# epsh1, epsh2, depsh
-24.00   12.00    0.02
#
# OUTPUT GRID
# rlmax, drl
6.00    0.01
#
# TEST CONFIGURATIONS
# ncnf
0
# nvcnf
#   n    l    f
]]>
</input-file>
</provenance>
<pseudo-atom-spec atomic-label="Fe" atomic-number="26" z-pseudo="16"
 flavor="Hamann&apos;s oncvpsp" relativity="scalar" spin-dft="no"
 core-corrections="yes">
<annotation pseudo-energy="-123.128918829" />
<exchange-correlation>
<annotation oncvpsp-xc-code="4" oncvpsp-xc-type="GGA -- Perdew-Burke-Ernzerhof" />
<libxc-info number-of-functionals="2">
<functional name="Perdew, Burke &amp; Ernzerhof (GGA)" type="exchange" id="101" />
<functional name="Perdew, Burke &amp; Ernzerhof (GGA)" type="correlation"
 id="130" />
</libxc-info>
</exchange-correlation>
<valence-configuration total-valence-charge="16">
<shell n="3" l="s" occupation="2" />
<shell n="3" l="p" occupation="6" />
<shell n="3" l="d" occupation="6" />
<shell n="4" l="s" occupation="2" />
</valence-configuration>
</pseudo-atom-spec>
<grid npts="457">
<annotation type="sampled from oncvpsp log grid"
 recipe="r(i:1..N) = r1*exp(a*(i-1)) + r=0; resampled"
 recipe-cont="r1: scale; a: step" scale="0.192307692308E-04"
 step="0.119285708653E-01" delta="0.500000000000E-02" rmax="44.2248135897" />
<grid-data>
  0.000000000000E+00  5.050053692967E-03  1.008708593772E-02  1.513223739776E-02
  2.014816255451E-02  2.527348802918E-02  3.058816214668E-02  3.571906205505E-02
  4.072730601400E-02  4.588712082187E-02  5.108759065353E-02  5.620300303659E-02
  6.183062285620E-02  6.721515569429E-02  7.306860171076E-02  7.848991730107E-02
  8.431346671058E-02  8.949515180459E-02  9.499528970881E-02  1.008334516999E-01
  1.070304118539E-01  1.122610879123E-01  1.177473919885E-01  1.235018168622E-01
  1.295374658469E-01  1.358680826271E-01  1.425080825541E-01  1.477001832717E-01
  1.530814515745E-01  1.586587795431E-01  1.644393103617E-01  1.704304474680E-01
  1.766398640339E-01  1.830755127941E-01  1.897456362307E-01  1.966587771303E-01
  2.038237895251E-01  2.112498500326E-01  2.163502664118E-01  2.215738272440E-01
  2.269235057290E-01  2.324023468513E-01  2.380134691137E-01  2.437600663120E-01
  2.496454093530E-01  2.556728481164E-01  2.618458133614E-01  2.681678186792E-01
  2.746424624934E-01  2.812734301078E-01  2.880644958043E-01  2.950195249910E-01
  3.021424764024E-01  3.094374043527E-01  3.169084610433E-01  3.245598989268E-01
  3.323960731265E-01  3.404214439160E-01  3.486405792579E-01  3.570581574035E-01
  3.656789695559E-01  3.745079225969E-01  3.835500418800E-01  3.928104740912E-01
  4.022944901776E-01  4.120074883485E-01  4.219549971472E-01  4.270184571129E-01
  4.321426785983E-01  4.373283907415E-01  4.425763314304E-01  4.478872474075E-01
  4.532618943764E-01  4.587010371089E-01  4.642054495543E-01  4.697759149489E-01
  4.754132259283E-01  4.811181846394E-01  4.868916028551E-01  4.927343020894E-01
  4.986471137144E-01  5.046308790790E-01  5.106864496280E-01  5.168146870235E-01
  5.230164632678E-01  5.292926608270E-01  5.356441727569E-01  5.420719028300E-01
  5.485767656640E-01  5.551596868519E-01  5.618216030941E-01  5.685634623313E-01
  5.753862238793E-01  5.822908585658E-01  5.892783488686E-01  5.963496890550E-01
  6.035058853237E-01  6.107479559476E-01  6.180769314189E-01  6.254938545960E-01
  6.329997808511E-01  6.405957782213E-01  6.482829275600E-01  6.560623226907E-01
  6.639350705630E-01  6.719022914097E-01  6.799651189067E-01  6.881247003335E-01
  6.963821967375E-01  7.047387830984E-01  7.131956484956E-01  7.217539962775E-01
  7.304150442328E-01  7.391800247636E-01  7.480501850608E-01  7.570267872815E-01
  7.661111087289E-01  7.753044420337E-01  7.846080953381E-01  7.940233924821E-01
  8.035516731919E-01  8.131942932702E-01  8.229526247895E-01  8.328280562869E-01
  8.428219929624E-01  8.529358568779E-01  8.631710871605E-01  8.735291402064E-01
  8.840114898889E-01  8.946196277675E-01  9.053550633007E-01  9.162193240603E-01
  9.272139559491E-01  9.383405234205E-01  9.496006097015E-01  9.609958170179E-01
  9.725277668221E-01  9.841981000240E-01  9.960084772243E-01  1.007960578951E+00
  1.020056105898E+00  1.032296779169E+00  1.044684340519E+00  1.057220552605E+00
  1.069907199237E+00  1.082746085628E+00  1.095739038655E+00  1.108887907119E+00
  1.122194562004E+00  1.135660896748E+00  1.149288827509E+00  1.163080293440E+00
  1.177037256961E+00  1.191161704044E+00  1.205455644493E+00  1.219921112227E+00
  1.234560165573E+00  1.249374887560E+00  1.264367386211E+00  1.279539794846E+00
  1.294894272384E+00  1.310433003652E+00  1.326158199696E+00  1.342072098093E+00
  1.358176963270E+00  1.374475086829E+00  1.390968787871E+00  1.407660413325E+00
  1.424552338285E+00  1.441646966345E+00  1.458946729941E+00  1.476454090700E+00
  1.494171539788E+00  1.512101598266E+00  1.530246817445E+00  1.548609779254E+00
  1.567193096605E+00  1.585999413765E+00  1.605031406730E+00  1.624291783611E+00
  1.643783285014E+00  1.663508684434E+00  1.683470788647E+00  1.703672438111E+00
  1.724116507368E+00  1.744805905457E+00  1.765743576322E+00  1.786932499238E+00
  1.808375689229E+00  1.830076197500E+00  1.852037111870E+00  1.874261557212E+00
  1.896752695899E+00  1.919513728250E+00  1.942547892989E+00  1.965858467705E+00
  1.989448769317E+00  2.013322154549E+00  2.037482020403E+00  2.061931804648E+00
  2.086674986304E+00  2.111715086140E+00  2.137055667173E+00  2.162700335179E+00
  2.188652739202E+00  2.214916572072E+00  2.241495570937E+00  2.268393517788E+00
  2.295614240002E+00  2.323161610882E+00  2.351039550212E+00  2.379252024815E+00
  2.407803049112E+00  2.436696685702E+00  2.465937045930E+00  2.495528290481E+00
  2.525474629967E+00  2.555780325527E+00  2.586449689433E+00  2.617487085706E+00
  2.648896930735E+00  2.680683693904E+00  2.712851898230E+00  2.745406121009E+00
  2.778350994461E+00  2.811691206395E+00  2.845431500872E+00  2.879576678882E+00
  2.914131599029E+00  2.949101178217E+00  2.984490392356E+00  3.020304277064E+00
  3.056547928389E+00  3.093226503529E+00  3.130345221572E+00  3.167909364230E+00
  3.205924276601E+00  3.244395367920E+00  3.283328112335E+00  3.322728049683E+00
  3.362600786280E+00  3.402951995715E+00  3.443787419664E+00  3.485112868700E+00
  3.526934223124E+00  3.569257433801E+00  3.612088523007E+00  3.655433585283E+00
  3.699298788307E+00  3.743690373766E+00  3.788614658251E+00  3.834078034150E+00
  3.880086970560E+00  3.926648014207E+00  3.973767790377E+00  4.021453003862E+00
  4.069710439908E+00  4.118546965187E+00  4.167969528769E+00  4.217985163115E+00
  4.268600985072E+00  4.319824196893E+00  4.371662087256E+00  4.424122032303E+00
  4.477211496690E+00  4.530938034651E+00  4.585309291066E+00  4.640333002559E+00
  4.696016998590E+00  4.752369202573E+00  4.809397633004E+00  4.867110404600E+00
  4.925515729455E+00  4.984621918209E+00  5.044437381227E+00  5.104970629802E+00
  5.166230277360E+00  5.228225040688E+00  5.290963741176E+00  5.354455306070E+00
  5.418708769743E+00  5.483733274980E+00  5.549538074280E+00  5.616132531171E+00
  5.683526121545E+00  5.751728435004E+00  5.820749176224E+00  5.890598166338E+00
  5.961285344334E+00  6.032820768466E+00  6.105214617688E+00  6.178477193100E+00
  6.252618919418E+00  6.327650346451E+00  6.403582150608E+00  6.480425136415E+00
  6.558190238052E+00  6.636888520909E+00  6.716531183160E+00  6.797129557358E+00
  6.878695112046E+00  6.961239453391E+00  7.044774326831E+00  7.129311618753E+00
  7.214863358178E+00  7.301441718476E+00  7.389059019098E+00  7.477727727327E+00
  7.567460460055E+00  7.658269985576E+00  7.750169225403E+00  7.843171256108E+00
  7.937289311181E+00  8.032536782915E+00  8.128927224310E+00  8.226474351002E+00
  8.325192043214E+00  8.425094347732E+00  8.526195479905E+00  8.628509825664E+00
  8.732051943572E+00  8.836836566895E+00  8.942878605698E+00  9.050193148966E+00
  9.158795466753E+00  9.268701012355E+00  9.379925424503E+00  9.492484529597E+00
  9.606394343952E+00  9.721671076079E+00  9.838331128992E+00  9.956391102540E+00
  1.007586779577E+01  1.019677820932E+01  1.031913954783E+01  1.044296922241E+01
  1.056828485307E+01  1.069510427131E+01  1.082344552257E+01  1.095332686884E+01
  1.108476679126E+01  1.121778399276E+01  1.135239740067E+01  1.148862616948E+01
  1.162648968351E+01  1.176600755972E+01  1.190719965043E+01  1.205008604624E+01
  1.219468707879E+01  1.234102332374E+01  1.248911560362E+01  1.263898499087E+01
  1.279065281076E+01  1.294414064449E+01  1.309947033222E+01  1.325666397621E+01
  1.341574394392E+01  1.357673287125E+01  1.373965366570E+01  1.390452950969E+01
  1.407138386381E+01  1.424024047017E+01  1.441112335582E+01  1.458405683609E+01
  1.475906551812E+01  1.493617430434E+01  1.511540839599E+01  1.529679329674E+01
  1.548035481630E+01  1.566611907410E+01  1.585411250299E+01  1.604436185302E+01
  1.623689419526E+01  1.643173692560E+01  1.662891776871E+01  1.682846478193E+01
  1.703040635932E+01  1.723477123563E+01  1.744158849046E+01  1.765088755234E+01
  1.786269820297E+01  1.807705058140E+01  1.829397518838E+01  1.851350289064E+01
  1.873566492533E+01  1.896049290443E+01  1.918801881929E+01  1.941827504512E+01
  1.965129434566E+01  1.988710987781E+01  2.012575519634E+01  2.036726425870E+01
  2.061167142980E+01  2.085901148696E+01  2.110931962480E+01  2.136263146030E+01
  2.161898303782E+01  2.187841083428E+01  2.214095176429E+01  2.240664318546E+01
  2.267552290369E+01  2.294762917853E+01  2.322300072867E+01  2.350167673742E+01
  2.378369685827E+01  2.406910122057E+01  2.435793043521E+01  2.465022560043E+01
  2.494602830764E+01  2.524538064733E+01  2.554832521510E+01  2.585490511768E+01
  2.616516397909E+01  2.647914594684E+01  2.679689569820E+01  2.711845844658E+01
  2.744387994794E+01  2.777320650732E+01  2.810648498540E+01  2.844376280523E+01
  2.878508795889E+01  2.913050901440E+01  2.948007512257E+01  2.983383602404E+01
  3.019184205633E+01  3.055414416101E+01  3.092079389094E+01  3.129184341763E+01
  3.166734553864E+01  3.204735368511E+01  3.243192192933E+01  3.282110499248E+01
  3.321495825239E+01  3.361353775142E+01  3.401690020443E+01  3.442510300689E+01
  3.483820424297E+01  3.525626269389E+01  3.567933784621E+01  3.610748990037E+01
  3.654077977917E+01  3.697926913652E+01  3.742302036616E+01  3.787209661055E+01
  3.832656176988E+01  3.878648051112E+01  3.925191827725E+01  3.972294129658E+01
  4.019961659214E+01  4.068201199124E+01  4.117019613514E+01  4.166423848876E+01
  4.216420935063E+01  4.267017986283E+01  4.318222202119E+01  4.370040868544E+01
  4.422481358967E+01
</grid-data>
</grid>
<valence-charge total-charge="16" is-unscreening-charge="yes"
 rescaled-to-z-pseudo="no">
<radfunc>
<data npts="457">
  7.180875353826E+00  7.187650335795E+00  7.207905042730E+00  7.241703619641E+00
  7.288709224880E+00  7.350541213592E+00  7.429385377929E+00  7.519723190201E+00
  7.621366627563E+00  7.739988392309E+00  7.873808224631E+00  8.019393170658E+00
  8.195518615645E+00  8.379663665719E+00  8.597141136959E+00  8.814590033247E+00
  9.065283524992E+00  9.303188019158E+00  9.570934088557E+00  9.872191379801E+00
  1.021105225782E+01  1.051225841472E+01  1.084299285298E+01  1.120602760565E+01
  1.160435792815E+01  1.204120881279E+01  1.252003768039E+01  1.290891702690E+01
  1.332511585639E+01  1.377033690672E+01  1.424634176135E+01  1.475494168957E+01
  1.529798528844E+01  1.587734228534E+01  1.649488276873E+01  1.715245102059E+01
  1.785183302951E+01  1.859471667329E+01  1.911490895791E+01  1.965553363311E+01
  2.021695084028E+01  2.079946205948E+01  2.140329926277E+01  2.202861293170E+01
  2.267545888599E+01  2.334378388051E+01  2.403340994217E+01  2.474401743605E+01
  2.547512687362E+01  2.622607950409E+01  2.699601676518E+01  2.778385871070E+01
  2.858828158159E+01  2.940769474403E+01  3.024021728295E+01  3.108365461314E+01
  3.193547555132E+01  3.279279038186E+01  3.365233054426E+01  3.451043067116E+01
  3.536301380805E+01  3.620558074830E+01  3.703320451411E+01  3.784053110072E+01
  3.862178767218E+01  3.937079944339E+01  4.008101649794E+01  4.041943668059E+01
  4.074555176387E+01  4.105845642915E+01  4.135723129133E+01  4.164094521144E+01
  4.190865783495E+01  4.215942235923E+01  4.239228853199E+01  4.260630588100E+01
  4.280052717327E+01  4.297401210028E+01  4.312583118304E+01  4.325506988900E+01
  4.336083294978E+01  4.344224886620E+01  4.349847458417E+01  4.352870032210E+01
  4.353215452725E+01  4.350810893533E+01  4.345588370475E+01  4.337485259316E+01
  4.326444814145E+01  4.312416682668E+01  4.295357414310E+01  4.275230956723E+01
  4.252009136075E+01  4.225672116289E+01  4.196208832200E+01  4.163617391499E+01
  4.127905440236E+01  4.089090486636E+01  4.047200178040E+01  4.002272525885E+01
  3.954356073827E+01  3.903510004388E+01  3.849804179860E+01  3.793319113615E+01
  3.734145868517E+01  3.672385879729E+01  3.608150699869E+01  3.541561665276E+01
  3.472749482940E+01  3.401853738562E+01  3.329022327162E+01  3.254410808610E+01
  3.178181691498E+01  3.100503649739E+01  3.021550677340E+01  2.941501187699E+01
  2.860537064771E+01  2.778842674242E+01  2.696603843643E+01  2.614006820994E+01
  2.531237222062E+01  2.448478976739E+01  2.365913285235E+01  2.283717594853E+01
  2.202064607999E+01  2.121121331760E+01  2.041048178930E+01  1.961998129708E+01
  1.884115962481E+01  1.807537561173E+01  1.732389305537E+01  1.658787549612E+01
  1.586838192312E+01  1.516636342779E+01  1.448266081868E+01  1.381800319767E+01
  1.317300748531E+01  1.254817887091E+01  1.194391215203E+01  1.136049391822E+01
  1.079810552516E+01  1.025682679839E+01  9.736640400144E+00  9.237436788672E+00
  8.759019696963E+00  8.301112056392E+00  7.863362291056E+00  7.445350909745E+00
  7.046601046799E+00  6.666599130652E+00  6.304803848898E+00  5.960643985736E+00
  5.633521690497E+00  5.322804536663E+00  5.027843923675E+00  4.747994409249E+00
  4.482614595512E+00  4.231070804468E+00  3.992740333967E+00  3.767014213617E+00
  3.553299455296E+00  3.351020783782E+00  3.159634540126E+00  2.978668625581E+00
  2.807688143545E+00  2.646255206764E+00  2.493939371874E+00  2.350318597895E+00
  2.214980095650E+00  2.087521072087E+00  1.967549373724E+00  1.854684033728E+00
  1.748555727311E+00  1.648807140311E+00  1.555093255936E+00  1.467081564735E+00
  1.384452202902E+00  1.306898024033E+00  1.234124609445E+00  1.165850222104E+00
  1.101805709143E+00  1.041734357847E+00  9.853917098658E-01  9.325453382614E-01
  8.829745918518E-01  8.364703111144E-01  7.928345197375E-01  7.518800956902E-01
  7.134304254645E-01  6.773190449143E-01  6.433892698783E-01  6.114938195264E-01
  5.814944351271E-01  5.532614966772E-01  5.266736395956E-01  5.016173734373E-01
  4.779867043525E-01  4.556827627970E-01  4.346134377895E-01  4.146930188253E-01
  3.958418463788E-01  3.779859717762E-01  3.610568270766E-01  3.449909054839E-01
  3.297294527007E-01  3.152181695451E-01  3.014069260665E-01  2.882494873253E-01
  2.757032509336E-01  2.637289963961E-01  2.522906462317E-01  2.413550388111E-01
  2.308917127912E-01  2.208727029895E-01  2.112723474978E-01  2.020671057987E-01
  1.932353876150E-01  1.847573921937E-01  1.766149577010E-01  1.687914203820E-01
  1.612714831242E-01  1.540410930486E-01  1.470873277431E-01  1.403982897479E-01
  1.339630088973E-01  1.277713521249E-01  1.218139403400E-01  1.160820719894E-01
  1.105676529233E-01  1.052631321965E-01  1.001614434417E-01  9.525595146803E-02
  9.054040374584E-02  8.600888645481E-02  8.165578478600E-02  7.747574720153E-02
  7.346365337153E-02  6.961458552197E-02  6.592380294201E-02  6.238671941396E-02
  5.899888334331E-02  5.575596037999E-02  5.265371833537E-02  4.968801421224E-02
  4.685478317634E-02  4.415002930956E-02  4.156981799439E-02  3.911026978843E-02
  3.676755565570E-02  3.453789342697E-02  3.241754537866E-02  3.040281679282E-02
  2.849005541444E-02  2.667565168528E-02  2.495603965535E-02  2.332769847368E-02
  2.178715436319E-02  2.033098298860E-02  1.895581212984E-02  1.765832457808E-02
  1.643526117586E-02  1.528342392815E-02  1.419967911659E-02  1.318096035533E-02
  1.222427153292E-02  1.132668959151E-02  1.048536710116E-02  9.697534594066E-03
  8.960502629932E-03  8.271663570500E-03  7.628493047520E-03  7.028551114316E-03
  6.469483076719E-03  5.949020004182E-03  5.464978926436E-03  5.015262725068E-03
  4.597859732830E-03  4.210843056380E-03  3.852369640514E-03  3.520679093734E-03
  3.214092296316E-03  2.931009812902E-03  2.669910132003E-03  2.429347754877E-03
  2.207951155866E-03  2.004420635679E-03  1.817526088188E-03  1.646104700212E-03
  1.489058602477E-03  1.345352488532E-03  1.214011216899E-03  1.094117410198E-03
  9.848090634181E-04  8.852771719917E-04  7.947633888232E-04  7.125577180326E-04
  6.379962518682E-04  5.704589560454E-04  5.093675077094E-04  4.541831892794E-04
  4.044048406348E-04  3.595668714243E-04  3.192373347269E-04  2.830160628499E-04
  2.505328657008E-04  2.214457919051E-04  1.954394526484E-04  1.722234080743E-04
  1.515306159704E-04  1.331159423953E-04  1.167547338407E-04  1.022414504691E-04
  8.938835991330E-05  7.802429106766E-05  6.799344722964E-05  5.915427787685E-05
  5.137840827354E-05  4.454962600374E-05  3.856292342143E-05  3.332359489670E-05
  2.874638762138E-05  2.475470462272E-05  2.127985852101E-05  1.826037446028E-05
  1.564134054172E-05  1.337380400047E-05  1.141421128904E-05  9.723890166022E-06
  8.268571838439E-06  7.017951169959E-06  5.945282945594E-06  5.027012176340E-06
  4.242436433742E-06  3.573398223912E-06  3.004005442219E-06  2.520377992425E-06
  2.110418706417E-06  1.763606761462E-06  1.470811859890E-06  1.224127509897E-06
  1.016721824580E-06  8.427043380272E-07  6.970074214571E-07  5.752809664749E-07
  4.737990915018E-07  3.893777165369E-07  3.193018446592E-07  2.612618717556E-07
  2.132974282416E-07  1.737483226973E-07  1.412118862966E-07  1.145058190914E-07
  9.263591447152E-08  7.476811718831E-08  6.020439707734E-08  4.818612163560E-08
  3.862073606045E-08  3.087869390442E-08  2.462781880218E-08  1.959342181625E-08
  1.554892637588E-08  1.230791766650E-08  9.717418246251E-09  7.652216212776E-09
  6.010094236562E-09  4.707827406696E-09  3.677835288754E-09  2.865389056147E-09
  2.226288202816E-09  1.724933345964E-09  1.332732143202E-09  1.026784529981E-09
  7.888014714585E-10  6.042183486200E-10  4.614700818807E-10  3.514002467845E-10
  2.667808559705E-10  2.019232602010E-10  1.523638406311E-10  1.146108979326E-10
  8.594145664882E-11  6.423865320773E-11  4.786201449764E-11  3.554430580338E-11
  2.630977154461E-11  1.940954394096E-11  1.427078317784E-11  1.045676353956E-11
  7.635655389551E-12  5.556191716296E-12  4.028766344144E-12  2.910802516323E-12
  2.095466962364E-12  1.502995505407E-12  1.074049913918E-12  7.646488767038E-13
  5.423143497997E-13  3.831527835992E-13  2.696527594989E-13  1.890295255016E-13
  1.319854182904E-13  9.178531074794E-14  6.356974379468E-14  4.384667410559E-14
  3.011690739079E-14  2.059918088328E-14  1.402921788822E-14  9.513464471361E-15
  6.423078031532E-15  4.317419038474E-15  2.889074114695E-15  1.924523985915E-15
  1.276128886734E-15  8.422643725442E-16  5.533001942380E-16  3.617489187796E-16
  2.353763991236E-16  1.524062455942E-16  9.819772085639E-17  6.295542322203E-17
  4.015798970345E-17  2.548540491421E-17  1.609033580663E-17  1.010568563300E-17
  6.313445877946E-18  3.923192167189E-18  2.424695419823E-18  1.490359383411E-18
  9.109874527285E-19  5.537227733821E-19  3.346583402344E-19  2.010992816478E-19
  1.201403649901E-19  7.135206280712E-20  4.212428119398E-20  2.471927348083E-20
  1.441732157541E-20  8.356938374576E-21  4.813834546143E-21  2.755393008095E-21
  1.567081029501E-21  0.000000000000E+00  0.000000000000E+00  0.000000000000E+00
  0.000000000000E+00  0.000000000000E+00  0.000000000000E+00  0.000000000000E+00
  0.000000000000E+00  0.000000000000E+00  0.000000000000E+00  0.000000000000E+00
  0.000000000000E+00  0.000000000000E+00  0.000000000000E+00  0.000000000000E+00
  0.000000000000E+00
</data>
</radfunc>
</valence-charge>
<pseudocore-charge matching-radius="0.416951578209"
 number-of-continuous-derivatives="4">
<annotation model-charge-form="Teter function with specified parameters" />
<radfunc>
<data npts="290">
  1.218361508091E+02  1.218166127669E+02  1.217582175208E+02  1.216608293123E+02
  1.215254992549E+02  1.213476835860E+02  1.211212720301E+02  1.208623031239E+02
  1.205714923323E+02  1.202328581070E+02  1.198518007989E+02  1.194383883453E+02
  1.189398267498E+02  1.184203814437E+02  1.178092630579E+02  1.172007265840E+02
  1.165021970499E+02  1.158422550979E+02  1.151028973696E+02  1.142751623951E+02
  1.133492370331E+02  1.125306387559E+02  1.116364678587E+02  1.106604475807E+02
  1.095959265473E+02  1.084358890857E+02  1.071729748912E+02  1.061536707440E+02
  1.050688484255E+02  1.039150976838E+02  1.026889545508E+02  1.013869226527E+02
  1.000054988217E+02  9.854120350358E+01  9.699061646896E+01  9.535041834301E+01
  9.361743846058E+01  9.178870952707E+01  9.051501569252E+01  8.919683792029E+01
  8.783353116506E+01  8.642453707554E+01  8.496939539636E+01  8.346775605873E+01
  8.191939194112E+01  8.032421226959E+01  7.868227661366E+01  7.699380941806E+01
  7.525921499290E+01  7.347909286522E+01  7.165425337280E+01  6.978573335688E+01
  6.787481178399E+01  6.592302509882E+01  6.393218207971E+01  6.190437793608E+01
  5.984200735469E+01  5.774777616727E+01  5.562471127897E+01  5.347616846416E+01
  5.130583760576E+01  4.911774492702E+01  4.691625174244E+01  4.470604923913E+01
  4.249214879252E+01  4.027986732500E+01  3.807480723256E+01  3.697680775153E+01
  3.588283043803E+01  3.479364329984E+01  3.371002618083E+01  3.263276939045E+01
  3.156267222542E+01  3.050054138315E+01  2.944718926684E+01  2.840343218306E+01
  2.737008843290E+01  2.634797629906E+01  2.533791193160E+01  2.434070713612E+01
  2.335716706912E+01  2.238808784606E+01  2.143425406882E+01  2.049643628010E+01
  1.957538835377E+01  1.867184483068E+01  1.778651821129E+01  1.692009621693E+01
  1.607323903330E+01  1.524657655037E+01  1.444070561442E+01  1.365618730872E+01
  1.289354428065E+01  1.215325813379E+01  1.143576690448E+01  1.074146264326E+01
  1.007068912193E+01  9.423739687823E+00  8.800855287050E+00  8.202222678538E+00
  7.627972860865E+00  7.078179733430E+00  6.552859013025E+00  6.051967426084E+00
  5.575402195789E+00  5.123000841833E+00  4.694541308964E+00  4.289742438381E+00
  3.908264793774E+00  3.549711851085E+00  3.213631558121E+00  2.899518266841E+00
  2.606815037581E+00  2.334916310594E+00  2.083170936254E+00  1.850885550933E+00
  1.637328281179E+00  1.441732754261E+00  1.263302388626E+00  1.101214933236E+00
  9.546272204184E-01  8.226800925863E-01  7.045034593003E-01  5.992214375848E-01
  5.059575253323E-01  4.238397551211E-01  3.520057739172E-01  2.896077930239E-01
  2.358173523587E-01  1.898298437523E-01  1.508687395344E-01  1.181894752377E-01
  9.108293883592E-02  6.887852354206E-02  5.094670679742E-02  3.670112463945E-02
  2.560011806342E-02  1.714773618759E-02  1.089418985643E-02  6.435758607991E-03
  3.414163500246E-03  1.515427923156E-03  4.682579847219E-04  4.198310433779E-05
  4.410582008333E-05  3.175172644026E-04  7.374410394907E-04  1.208173102435E-03
  1.659688551461E-03  2.044187726871E-03  2.332653688973E-03  2.511490851559E-03
  2.579310337607E-03  2.543921556097E-03  2.419581719132E-03  2.224545741998E-03
  1.978948479002E-03  1.703039890255E-03  1.415781905694E-03  1.133803887052E-03
  8.707021413123E-04  6.366583659871E-04  4.383426422313E-04  2.790590269971E-04
  1.590862545363E-04  7.616277755581E-05  2.606449095685E-05  3.224999639405E-06
  1.352103856353E-06  1.400004259180E-05  3.506460072548E-05  5.917699033096E-05
  8.198192303819E-05  1.002949144689E-04  1.121430083251E-04  1.167012113487E-04
  1.141434959047E-04  1.054318675898E-04  9.206946482750E-05  7.584387330724E-05
  5.858489241595E-05  4.195714717391E-05  2.730261479208E-05  1.554186768940E-05
  7.136237559014E-06  2.106810678909E-06  1.007660023267E-07  4.915587715004E-07
  2.497177438808E-06  5.300316468743E-06  8.155760946526E-06  1.047331592805E-05
  1.186880258427E-05  1.218042545677E-05  1.145257098170E-05  9.893223762201E-06
  7.814175163116E-06  5.564702575353E-06  3.469282111496E-06  1.778258940182E-06
  6.375532506590E-07  7.991454296587E-08  0.000000000000E+00  0.000000000000E+00
  0.000000000000E+00  0.000000000000E+00  0.000000000000E+00  0.000000000000E+00
  0.000000000000E+00  0.000000000000E+00  0.000000000000E+00  0.000000000000E+00
  0.000000000000E+00  0.000000000000E+00  0.000000000000E+00  0.000000000000E+00
  0.000000000000E+00  0.000000000000E+00  0.000000000000E+00  0.000000000000E+00
  0.000000000000E+00  0.000000000000E+00  0.000000000000E+00  0.000000000000E+00
  0.000000000000E+00  0.000000000000E+00  0.000000000000E+00  0.000000000000E+00
  0.000000000000E+00  0.000000000000E+00  0.000000000000E+00  0.000000000000E+00
  0.000000000000E+00  0.000000000000E+00  0.000000000000E+00  0.000000000000E+00
  0.000000000000E+00  0.000000000000E+00  0.000000000000E+00  0.000000000000E+00
  0.000000000000E+00  0.000000000000E+00  0.000000000000E+00  0.000000000000E+00
  0.000000000000E+00  0.000000000000E+00  0.000000000000E+00  0.000000000000E+00
  0.000000000000E+00  0.000000000000E+00  0.000000000000E+00  0.000000000000E+00
  0.000000000000E+00  0.000000000000E+00  0.000000000000E+00  0.000000000000E+00
  0.000000000000E+00  0.000000000000E+00  0.000000000000E+00  0.000000000000E+00
  0.000000000000E+00  0.000000000000E+00  0.000000000000E+00  0.000000000000E+00
  0.000000000000E+00  0.000000000000E+00  0.000000000000E+00  0.000000000000E+00
  0.000000000000E+00  0.000000000000E+00  0.000000000000E+00  0.000000000000E+00
  0.000000000000E+00  0.000000000000E+00  0.000000000000E+00  0.000000000000E+00
  0.000000000000E+00  0.000000000000E+00  0.000000000000E+00  0.000000000000E+00
  0.000000000000E+00  0.000000000000E+00  0.000000000000E+00  0.000000000000E+00
  0.000000000000E+00  0.000000000000E+00  0.000000000000E+00  0.000000000000E+00
  0.000000000000E+00  0.000000000000E+00
</data>
</radfunc>
</pseudocore-charge>
<semilocal-potentials set="scalar_relativistic">
<slps n="3" l="s" rc="1.16308029344" eref="-3.45509113504">
<radfunc>
<data npts="290">
 -1.582796501173E+01 -1.582959821110E+01 -1.583447614623E+01 -1.584260873213E+01
 -1.585390514953E+01 -1.586874000067E+01 -1.588761604901E+01 -1.590918846445E+01
 -1.593339048991E+01 -1.596154200011E+01 -1.599318094800E+01 -1.602745918698E+01
 -1.606873223336E+01 -1.611165795867E+01 -1.616205960350E+01 -1.621214093156E+01
 -1.626949608723E+01 -1.632355251676E+01 -1.638396311170E+01 -1.645140504690E+01
 -1.652660907910E+01 -1.659288573155E+01 -1.666505476336E+01 -1.674355927051E+01
 -1.682885883845E+01 -1.692142626299E+01 -1.702174318383E+01 -1.710235821368E+01
 -1.718780861097E+01 -1.727829461084E+01 -1.737401083464E+01 -1.747514355329E+01
 -1.758186755499E+01 -1.769434258769E+01 -1.781270934844E+01 -1.793708499510E+01
 -1.806755815993E+01 -1.820418345078E+01 -1.829869386014E+01 -1.839593907718E+01
 -1.849590209283E+01 -1.859855483053E+01 -1.870385714547E+01 -1.881175578530E+01
 -1.892218331535E+01 -1.903505701223E+01 -1.915027773032E+01 -1.926772874650E+01
 -1.938727458918E+01 -1.950875985840E+01 -1.963200804488E+01 -1.975682035630E+01
 -1.988297456038E+01 -2.001022385502E+01 -2.013829577645E+01 -2.026689115796E+01
 -2.039568315196E+01 -2.052431633016E+01 -2.065240587717E+01 -2.077953689488E+01
 -2.090526383622E+01 -2.102911008895E+01 -2.115056773222E+01 -2.126909749081E+01
 -2.138412891422E+01 -2.149506081049E+01 -2.160126196602E+01 -2.165238330135E+01
 -2.170207218473E+01 -2.175024179146E+01 -2.179680368027E+01 -2.184166785850E+01
 -2.188474285388E+01 -2.192593579328E+01 -2.196515248858E+01 -2.200229752969E+01
 -2.203727438493E+01 -2.206998550876E+01 -2.210033245684E+01 -2.212821600851E+01
 -2.215353629639E+01 -2.217619294314E+01 -2.219608520514E+01 -2.221311212284E+01
 -2.222717267745E+01 -2.223816595389E+01 -2.224599130939E+01 -2.225054854764E+01
 -2.225173809807E+01 -2.224946119996E+01 -2.224362009112E+01 -2.223411820087E+01
 -2.222086034723E+01 -2.220375293808E+01 -2.218270417641E+01 -2.215762426949E+01
 -2.212842564235E+01 -2.209502315537E+01 -2.205733432667E+01 -2.201527955910E+01
 -2.196878237247E+01 -2.191776964121E+01 -2.186217183752E+01 -2.180192328053E+01
 -2.173696239121E+01 -2.166723195326E+01 -2.159267937954E+01 -2.151325698381E+01
 -2.142892225698E+01 -2.133963814722E+01 -2.124537334247E+01 -2.114610255429E+01
 -2.104180680107E+01 -2.093247368881E+01 -2.081809768708E+01 -2.069868039779E+01
 -2.057423081393E+01 -2.044476556555E+01 -2.031030914975E+01 -2.017089414188E+01
 -2.002656138483E+01 -1.987736015372E+01 -1.972334829369E+01 -1.956459232874E+01