<?xml version="1.0" encoding="UTF-8" ?>
<psml version="1.0" energy_unit="hartree" length_unit="bohr"
 uuid="c19ad8a0-f858-11e6-5c6d-b3349bbb4110">
<provenance creator="ONCVPSP-3.2.3+psml-51" date="2017-02-21">
<input-file name="oncvpsp-input">
<![CDATA[# ATOM AND REFERENCE CONFIGURATION
# atsym  z   nc   nv     iexc    psfile
Fe 26.00    3    4       4      psp8
#
#   n    l    f        energy (Ha)
1    0    2.00    -2.5720573D+02
2    0    2.00    -3.0124388D+01
2    1    6.00    -2.5667700D+01
3    0    2.00    -3.4550911D+00
3    1    6.00    -2.2065345D+00
3    2    6.00    -2.7580112D-01
4    0    2.00    -1.9448241D-01
#
# PSEUDOPOTENTIAL AND OPTIMIZATION
# lmax
2
#
#   l,   rc,     ep,   ncon, nbas, qcut
0    1.15   -3.46    3    7    9.90
1    1.10   -2.21    3    7    9.20
2    1.30   -0.28    3    7   11.80
#
# LOCAL POTENTIAL
# lloc, lpopt,  rc(5),   dvloc0
4    5      1.10       0.00
#
# VANDERBILT-KLEINMAN-BYLANDER PROJECTORs
# l, nproj, debl
0    2    3.2606
1    2    0.8000
2    2    0.8000
#
# MODEL CORE CHARGE
# icmod, fcfact, rcfact, rcfact
3    3.00    1.70
#
# LOG DERIVATIVE ANALYSIS
# epsh1, epsh2, depsh
-24.00   12.00    0.02
#
# OUTPUT GRID
# rlmax, drl
6.00    0.01
#
# TEST CONFIGURATIONS
# ncnf
0
# nvcnf
#   n    l    f
]]>
</input-file>
</provenance>
<header atomic-label="Fe" atomic-number="26" z-pseudo="16"
 flavor="Hamann&apos;s oncvpsp" relativity="scalar" polarized="no"
 core-corrections="yes">
<exchange-correlation>
<annotation oncvpsp-xc-code="4" oncvpsp-xc-type="GGA -- Perdew-Burke-Ernzerhof" />
<libxc-info number-of-functionals="2">
<functional name="Perdew, Burke &amp; Ernzerhof (GGA)" type="exchange" id="101" />
<functional name="Perdew, Burke &amp; Ernzerhof (GGA)" type="correlation"
 id="130" />
</libxc-info>
</exchange-correlation>
<valence-configuration total-valence-charge="16">
<shell n="3" l="s" occupation="2" />
<shell n="3" l="p" occupation="6" />
<shell n="3" l="d" occupation="6" />
<shell n="4" l="s" occupation="2" />
</valence-configuration>
</header>
<grid npts="600">
<annotation type="linear with r=0" oncvpsp-nrl="600"
 oncvpsp-drl="0.100000000000E-01" />
<grid-data>
  0.000000000000E+00  1.000000000000E-02  2.000000000000E-02  3.000000000000E-02
  4.000000000000E-02  5.000000000000E-02  6.000000000000E-02  7.000000000000E-02
  8.000000000000E-02  9.000000000000E-02  1.000000000000E-01  1.100000000000E-01
  1.200000000000E-01  1.300000000000E-01  1.400000000000E-01  1.500000000000E-01
  1.600000000000E-01  1.700000000000E-01  1.800000000000E-01  1.900000000000E-01
  2.000000000000E-01  2.100000000000E-01  2.200000000000E-01  2.300000000000E-01
  2.400000000000E-01  2.500000000000E-01  2.600000000000E-01  2.700000000000E-01
  2.800000000000E-01  2.900000000000E-01  3.000000000000E-01  3.100000000000E-01
  3.200000000000E-01  3.300000000000E-01  3.400000000000E-01  3.500000000000E-01
  3.600000000000E-01  3.700000000000E-01  3.800000000000E-01  3.900000000000E-01
  4.000000000000E-01  4.100000000000E-01  4.200000000000E-01  4.300000000000E-01
  4.400000000000E-01  4.500000000000E-01  4.600000000000E-01  4.700000000000E-01
  4.800000000000E-01  4.900000000000E-01  5.000000000000E-01  5.100000000000E-01
  5.200000000000E-01  5.300000000000E-01  5.400000000000E-01  5.500000000000E-01
  5.600000000000E-01  5.700000000000E-01  5.800000000000E-01  5.900000000000E-01
  6.000000000000E-01  6.100000000000E-01  6.200000000000E-01  6.300000000000E-01
  6.400000000000E-01  6.500000000000E-01  6.600000000000E-01  6.700000000000E-01
  6.800000000000E-01  6.900000000000E-01  7.000000000000E-01  7.100000000000E-01
  7.200000000000E-01  7.300000000000E-01  7.400000000000E-01  7.500000000000E-01
  7.600000000000E-01  7.700000000000E-01  7.800000000000E-01  7.900000000000E-01
  8.000000000000E-01  8.100000000000E-01  8.200000000000E-01  8.300000000000E-01
  8.400000000000E-01  8.500000000000E-01  8.600000000000E-01  8.700000000000E-01
  8.800000000000E-01  8.900000000000E-01  9.000000000000E-01  9.100000000000E-01
  9.200000000000E-01  9.300000000000E-01  9.400000000000E-01  9.500000000000E-01
  9.600000000000E-01  9.700000000000E-01  9.800000000000E-01  9.900000000000E-01
  1.000000000000E+00  1.010000000000E+00  1.020000000000E+00  1.030000000000E+00
  1.040000000000E+00  1.050000000000E+00  1.060000000000E+00  1.070000000000E+00
  1.080000000000E+00  1.090000000000E+00  1.100000000000E+00  1.110000000000E+00
  1.120000000000E+00  1.130000000000E+00  1.140000000000E+00  1.150000000000E+00
  1.160000000000E+00  1.170000000000E+00  1.180000000000E+00  1.190000000000E+00
  1.200000000000E+00  1.210000000000E+00  1.220000000000E+00  1.230000000000E+00
  1.240000000000E+00  1.250000000000E+00  1.260000000000E+00  1.270000000000E+00
  1.280000000000E+00  1.290000000000E+00  1.300000000000E+00  1.310000000000E+00
  1.320000000000E+00  1.330000000000E+00  1.340000000000E+00  1.350000000000E+00
  1.360000000000E+00  1.370000000000E+00  1.380000000000E+00  1.390000000000E+00
  1.400000000000E+00  1.410000000000E+00  1.420000000000E+00  1.430000000000E+00
  1.440000000000E+00  1.450000000000E+00  1.460000000000E+00  1.470000000000E+00
  1.480000000000E+00  1.490000000000E+00  1.500000000000E+00  1.510000000000E+00
  1.520000000000E+00  1.530000000000E+00  1.540000000000E+00  1.550000000000E+00
  1.560000000000E+00  1.570000000000E+00  1.580000000000E+00  1.590000000000E+00
  1.600000000000E+00  1.610000000000E+00  1.620000000000E+00  1.630000000000E+00
  1.640000000000E+00  1.650000000000E+00  1.660000000000E+00  1.670000000000E+00
  1.680000000000E+00  1.690000000000E+00  1.700000000000E+00  1.710000000000E+00
  1.720000000000E+00  1.730000000000E+00  1.740000000000E+00  1.750000000000E+00
  1.760000000000E+00  1.770000000000E+00  1.780000000000E+00  1.790000000000E+00
  1.800000000000E+00  1.810000000000E+00  1.820000000000E+00  1.830000000000E+00
  1.840000000000E+00  1.850000000000E+00  1.860000000000E+00  1.870000000000E+00
  1.880000000000E+00  1.890000000000E+00  1.900000000000E+00  1.910000000000E+00
  1.920000000000E+00  1.930000000000E+00  1.940000000000E+00  1.950000000000E+00
  1.960000000000E+00  1.970000000000E+00  1.980000000000E+00  1.990000000000E+00
  2.000000000000E+00  2.010000000000E+00  2.020000000000E+00  2.030000000000E+00
  2.040000000000E+00  2.050000000000E+00  2.060000000000E+00  2.070000000000E+00
  2.080000000000E+00  2.090000000000E+00  2.100000000000E+00  2.110000000000E+00
  2.120000000000E+00  2.130000000000E+00  2.140000000000E+00  2.150000000000E+00
  2.160000000000E+00  2.170000000000E+00  2.180000000000E+00  2.190000000000E+00
  2.200000000000E+00  2.210000000000E+00  2.220000000000E+00  2.230000000000E+00
  2.240000000000E+00  2.250000000000E+00  2.260000000000E+00  2.270000000000E+00
  2.280000000000E+00  2.290000000000E+00  2.300000000000E+00  2.310000000000E+00
  2.320000000000E+00  2.330000000000E+00  2.340000000000E+00  2.350000000000E+00
  2.360000000000E+00  2.370000000000E+00  2.380000000000E+00  2.390000000000E+00
  2.400000000000E+00  2.410000000000E+00  2.420000000000E+00  2.430000000000E+00
  2.440000000000E+00  2.450000000000E+00  2.460000000000E+00  2.470000000000E+00
  2.480000000000E+00  2.490000000000E+00  2.500000000000E+00  2.510000000000E+00
  2.520000000000E+00  2.530000000000E+00  2.540000000000E+00  2.550000000000E+00
  2.560000000000E+00  2.570000000000E+00  2.580000000000E+00  2.590000000000E+00
  2.600000000000E+00  2.610000000000E+00  2.620000000000E+00  2.630000000000E+00
  2.640000000000E+00  2.650000000000E+00  2.660000000000E+00  2.670000000000E+00
  2.680000000000E+00  2.690000000000E+00  2.700000000000E+00  2.710000000000E+00
  2.720000000000E+00  2.730000000000E+00  2.740000000000E+00  2.750000000000E+00
  2.760000000000E+00  2.770000000000E+00  2.780000000000E+00  2.790000000000E+00
  2.800000000000E+00  2.810000000000E+00  2.820000000000E+00  2.830000000000E+00
  2.840000000000E+00  2.850000000000E+00  2.860000000000E+00  2.870000000000E+00
  2.880000000000E+00  2.890000000000E+00  2.900000000000E+00  2.910000000000E+00
  2.920000000000E+00  2.930000000000E+00  2.940000000000E+00  2.950000000000E+00
  2.960000000000E+00  2.970000000000E+00  2.980000000000E+00  2.990000000000E+00
  3.000000000000E+00  3.010000000000E+00  3.020000000000E+00  3.030000000000E+00
  3.040000000000E+00  3.050000000000E+00  3.060000000000E+00  3.070000000000E+00
  3.080000000000E+00  3.090000000000E+00  3.100000000000E+00  3.110000000000E+00
  3.120000000000E+00  3.130000000000E+00  3.140000000000E+00  3.150000000000E+00
  3.160000000000E+00  3.170000000000E+00  3.180000000000E+00  3.190000000000E+00
  3.200000000000E+00  3.210000000000E+00  3.220000000000E+00  3.230000000000E+00
  3.240000000000E+00  3.250000000000E+00  3.260000000000E+00  3.270000000000E+00
  3.280000000000E+00  3.290000000000E+00  3.300000000000E+00  3.310000000000E+00
  3.320000000000E+00  3.330000000000E+00  3.340000000000E+00  3.350000000000E+00
  3.360000000000E+00  3.370000000000E+00  3.380000000000E+00  3.390000000000E+00
  3.400000000000E+00  3.410000000000E+00  3.420000000000E+00  3.430000000000E+00
  3.440000000000E+00  3.450000000000E+00  3.460000000000E+00  3.470000000000E+00
  3.480000000000E+00  3.490000000000E+00  3.500000000000E+00  3.510000000000E+00
  3.520000000000E+00  3.530000000000E+00  3.540000000000E+00  3.550000000000E+00
  3.560000000000E+00  3.570000000000E+00  3.580000000000E+00  3.590000000000E+00
  3.600000000000E+00  3.610000000000E+00  3.620000000000E+00  3.630000000000E+00
  3.640000000000E+00  3.650000000000E+00  3.660000000000E+00  3.670000000000E+00
  3.680000000000E+00  3.690000000000E+00  3.700000000000E+00  3.710000000000E+00
  3.720000000000E+00  3.730000000000E+00  3.740000000000E+00  3.750000000000E+00
  3.760000000000E+00  3.770000000000E+00  3.780000000000E+00  3.790000000000E+00
  3.800000000000E+00  3.810000000000E+00  3.820000000000E+00  3.830000000000E+00
  3.840000000000E+00  3.850000000000E+00  3.860000000000E+00  3.870000000000E+00
  3.880000000000E+00  3.890000000000E+00  3.900000000000E+00  3.910000000000E+00
  3.920000000000E+00  3.930000000000E+00  3.940000000000E+00  3.950000000000E+00
  3.960000000000E+00  3.970000000000E+00  3.980000000000E+00  3.990000000000E+00
  4.000000000000E+00  4.010000000000E+00  4.020000000000E+00  4.030000000000E+00
  4.040000000000E+00  4.050000000000E+00  4.060000000000E+00  4.070000000000E+00
  4.080000000000E+00  4.090000000000E+00  4.100000000000E+00  4.110000000000E+00
  4.120000000000E+00  4.130000000000E+00  4.140000000000E+00  4.150000000000E+00
  4.160000000000E+00  4.170000000000E+00  4.180000000000E+00  4.190000000000E+00
  4.200000000000E+00  4.210000000000E+00  4.220000000000E+00  4.230000000000E+00
  4.240000000000E+00  4.250000000000E+00  4.260000000000E+00  4.270000000000E+00
  4.280000000000E+00  4.290000000000E+00  4.300000000000E+00  4.310000000000E+00
  4.320000000000E+00  4.330000000000E+00  4.340000000000E+00  4.350000000000E+00
  4.360000000000E+00  4.370000000000E+00  4.380000000000E+00  4.390000000000E+00
  4.400000000000E+00  4.410000000000E+00  4.420000000000E+00  4.430000000000E+00
  4.440000000000E+00  4.450000000000E+00  4.460000000000E+00  4.470000000000E+00
  4.480000000000E+00  4.490000000000E+00  4.500000000000E+00  4.510000000000E+00
  4.520000000000E+00  4.530000000000E+00  4.540000000000E+00  4.550000000000E+00
  4.560000000000E+00  4.570000000000E+00  4.580000000000E+00  4.590000000000E+00
  4.600000000000E+00  4.610000000000E+00  4.620000000000E+00  4.630000000000E+00
  4.640000000000E+00  4.650000000000E+00  4.660000000000E+00  4.670000000000E+00
  4.680000000000E+00  4.690000000000E+00  4.700000000000E+00  4.710000000000E+00
  4.720000000000E+00  4.730000000000E+00  4.740000000000E+00  4.750000000000E+00
  4.760000000000E+00  4.770000000000E+00  4.780000000000E+00  4.790000000000E+00
  4.800000000000E+00  4.810000000000E+00  4.820000000000E+00  4.830000000000E+00
  4.840000000000E+00  4.850000000000E+00  4.860000000000E+00  4.870000000000E+00
  4.880000000000E+00  4.890000000000E+00  4.900000000000E+00  4.910000000000E+00
  4.920000000000E+00  4.930000000000E+00  4.940000000000E+00  4.950000000000E+00
  4.960000000000E+00  4.970000000000E+00  4.980000000000E+00  4.990000000000E+00
  5.000000000000E+00  5.010000000000E+00  5.020000000000E+00  5.030000000000E+00
  5.040000000000E+00  5.050000000000E+00  5.060000000000E+00  5.070000000000E+00
  5.080000000000E+00  5.090000000000E+00  5.100000000000E+00  5.110000000000E+00
  5.120000000000E+00  5.130000000000E+00  5.140000000000E+00  5.150000000000E+00
  5.160000000000E+00  5.170000000000E+00  5.180000000000E+00  5.190000000000E+00
  5.200000000000E+00  5.210000000000E+00  5.220000000000E+00  5.230000000000E+00
  5.240000000000E+00  5.250000000000E+00  5.260000000000E+00  5.270000000000E+00
  5.280000000000E+00  5.290000000000E+00  5.300000000000E+00  5.310000000000E+00
  5.320000000000E+00  5.330000000000E+00  5.340000000000E+00  5.350000000000E+00
  5.360000000000E+00  5.370000000000E+00  5.380000000000E+00  5.390000000000E+00
  5.400000000000E+00  5.410000000000E+00  5.420000000000E+00  5.430000000000E+00
  5.440000000000E+00  5.450000000000E+00  5.460000000000E+00  5.470000000000E+00
  5.480000000000E+00  5.490000000000E+00  5.500000000000E+00  5.510000000000E+00
  5.520000000000E+00  5.530000000000E+00  5.540000000000E+00  5.550000000000E+00
  5.560000000000E+00  5.570000000000E+00  5.580000000000E+00  5.590000000000E+00
  5.600000000000E+00  5.610000000000E+00  5.620000000000E+00  5.630000000000E+00
  5.640000000000E+00  5.650000000000E+00  5.660000000000E+00  5.670000000000E+00
  5.680000000000E+00  5.690000000000E+00  5.700000000000E+00  5.710000000000E+00
  5.720000000000E+00  5.730000000000E+00  5.740000000000E+00  5.750000000000E+00
  5.760000000000E+00  5.770000000000E+00  5.780000000000E+00  5.790000000000E+00
  5.800000000000E+00  5.810000000000E+00  5.820000000000E+00  5.830000000000E+00
  5.840000000000E+00  5.850000000000E+00  5.860000000000E+00  5.870000000000E+00
  5.880000000000E+00  5.890000000000E+00  5.900000000000E+00  5.910000000000E+00
  5.920000000000E+00  5.930000000000E+00  5.940000000000E+00  5.950000000000E+00
  5.960000000000E+00  5.970000000000E+00  5.980000000000E+00  5.990000000000E+00
</grid-data>
</grid>
<semilocal-potentials set="scalar_relativistic">
<slps n="3" l="s" rc="1.16308029344" flavor="Hamann&apos;s oncvpsp">
<radfunc>
<data>
 -1.581345797712E+01 -1.581988930502E+01 -1.583914903724E+01 -1.587113903349E+01
 -1.591569629059E+01 -1.597259442993E+01 -1.604154564008E+01 -1.612220308540E+01
 -1.621416379181E+01 -1.631697198066E+01 -1.643012281068E+01 -1.655306648075E+01
 -1.668521263911E+01 -1.682593503957E+01 -1.697457638102E+01 -1.713045326467E+01
 -1.729286120258E+01 -1.746107961278E+01 -1.763437673935E+01 -1.781201443994E+01
 -1.799325278942E+01 -1.817735445441E+01 -1.836358880074E+01 -1.855123570306E+01
 -1.873958903306E+01 -1.892795981014E+01 -1.911567900486E+01 -1.930209999208E+01
 -1.948660065660E+01 -1.966858515937E+01 -1.984748537728E+01 -2.002276203359E+01
 -2.019390553964E+01 -2.036043657123E+01 -2.052190640523E+01 -2.067789704305E+01
 -2.082802114816E+01 -2.097192182447E+01 -2.110927226126E+01 -2.123977526843E+01
 -2.136316272346E+01 -2.147919494856E+01 -2.158766003323E+01 -2.168837311412E+01
 -2.178117562072E+01 -2.186593449222E+01 -2.194254136843E+01 -2.201091175508E+01
 -2.207098416277E+01 -2.212271921771E+01 -2.216609874258E+01 -2.220112480660E+01
 -2.222781874488E+01 -2.224622014937E+01 -2.225638583504E+01 -2.225838878755E+01
 -2.225231709979E+01 -2.223827290652E+01 -2.221637132677E+01 -2.218673942410E+01
 -2.214951519428E+01 -2.210484658909E+01 -2.205289058330E+01 -2.199381229048E+01
 -2.192778413116E+01 -2.185498505501E+01 -2.177559981710E+01 -2.168981830645E+01
 -2.159783492415E+01 -2.149984800717E+01 -2.139605929332E+01 -2.128667342274E+01
 -2.117189747089E+01 -2.105194050853E+01 -2.092701318417E+01 -2.079732732517E+01
 -2.066309555411E+01 -2.052453091767E+01 -2.038184652578E+01 -2.023525519970E+01
 -2.008496912801E+01 -1.993119953040E+01 -1.977415632953E+01 -1.961404783207E+01
 -1.945108042045E+01 -1.928545825743E+01 -1.911738300628E+01 -1.894705356955E+01
 -1.877466585027E+01 -1.860041253942E+01 -1.842448293403E+01 -1.824706279044E+01
 -1.806833421744E+01 -1.788847561375E+01 -1.770766165457E+01 -1.752606333126E+01
 -1.734384804792E+01 -1.716117977802E+01 -1.697821928349E+01 -1.679512439725E+01
 -1.661205036973E+01 -1.642915027773E+01 -1.624657549305E+01 -1.606447620628E+01
 -1.588300199935E+01 -1.570230245592E+01 -1.552252784888E+01 -1.534382961867E+01
 -1.516636124125E+01 -1.499027966333E+01 -1.481574516043E+01 -1.464289933834E+01
 -1.447188238567E+01 -1.430277840802E+01 -1.413693090331E+01 -1.397133466568E+01
 -1.380654700376E+01 -1.367480577912E+01 -1.356441705028E+01 -1.344964916979E+01
 -1.333692739879E+01 -1.322662310854E+01 -1.311795226895E+01 -1.301103047382E+01
 -1.290581712801E+01 -1.280227354465E+01 -1.270036260364E+01 -1.260004947938E+01
 -1.250129693041E+01 -1.240407016089E+01 -1.230833290385E+01 -1.221412024893E+01
 -1.212150043214E+01 -1.203039726679E+01 -1.194068721954E+01 -1.185226434136E+01
 -1.176510839247E+01 -1.167922990558E+01 -1.159459305578E+01 -1.151116669828E+01
 -1.142892791682E+01 -1.134785205013E+01 -1.126791516414E+01 -1.118909410802E+01
 -1.111136636000E+01 -1.103471000151E+01 -1.095910368236E+01 -1.088452658911E+01
 -1.081095841644E+01 -1.073837934162E+01 -1.066677000168E+01 -1.059611147340E+01
 -1.052638525571E+01 -1.045757325450E+01 -1.038965776951E+01 -1.032262148321E+01
 -1.025644745142E+01 -1.019111909550E+01 -1.012662019596E+01 -1.006293488722E+01
 -1.000004765350E+01 -9.937943325531E+00 -9.876607078038E+00 -9.816024427716E+00
 -9.756181231640E+00 -9.697063685870E+00 -9.638658324102E+00 -9.580952016170E+00
 -9.523931966253E+00 -9.467585710540E+00 -9.411901114298E+00 -9.356866368028E+00
 -9.302469982775E+00 -9.248700784247E+00 -9.195547905912E+00 -9.143000780817E+00
 -9.091049132294E+00 -9.039682963520E+00 -8.988892546023E+00 -8.938668407370E+00
 -8.889001318022E+00 -8.839882277839E+00 -8.791302502178E+00 -8.743253408064E+00
 -8.695726600651E+00 -8.648713859997E+00 -8.602207128938E+00 -8.556198501502E+00
 -8.510680212932E+00 -8.465644630653E+00 -8.421084246884E+00 -8.376991672718E+00
 -8.333359633470E+00 -8.290180965946E+00 -8.247448616459E+00 -8.205155640760E+00
 -8.163295204556E+00 -8.121860585213E+00 -8.080845174114E+00 -8.040242479431E+00
 -8.000046128964E+00 -7.960249874675E+00 -7.920847597002E+00 -7.881833295023E+00
 -7.843201103182E+00 -7.804945297950E+00 -7.767060277632E+00 -7.729540433281E+00
 -7.692380789025E+00 -7.655576515481E+00 -7.619121967144E+00 -7.583009886147E+00
 -7.547233298872E+00 -7.511790548937E+00 -7.476681088365E+00 -7.441902910272E+00
 -7.407449437553E+00 -7.373313731880E+00 -7.339490853816E+00 -7.305976657574E+00
 -7.272767218336E+00 -7.239858256140E+00 -7.207245771660E+00 -7.174925809432E+00
 -7.142894442757E+00 -7.111147795125E+00 -7.079682093095E+00 -7.048493626620E+00
 -7.017578749236E+00 -6.986933875988E+00 -6.956555485021E+00 -6.926440115464E+00
 -6.896584366117E+00 -6.866984894172E+00 -6.837638413961E+00 -6.808541695744E+00
 -6.779691564521E+00 -6.751084898882E+00 -6.722718629875E+00 -6.694589739913E+00
 -6.666695261702E+00 -6.639032277199E+00 -6.611597916591E+00 -6.584389357307E+00
 -6.557403823048E+00 -6.530638582842E+00 -6.504090950124E+00 -6.477758281835E+00
 -6.451637977550E+00 -6.425727478613E+00 -6.400024267312E+00 -6.374525866056E+00
 -6.349229836581E+00 -6.324133779173E+00 -6.299235331911E+00 -6.274532169924E+00
 -6.250022004665E+00 -6.225702583211E+00 -6.201571687564E+00 -6.177627133986E+00
 -6.153866772333E+00 -6.130288485413E+00 -6.106890188361E+00 -6.083669828019E+00
 -6.060625382341E+00 -6.037754859799E+00 -6.015056298816E+00 -5.992527767203E+00
 -5.970167361608E+00 -5.947973206985E+00 -5.925943456065E+00 -5.904076288846E+00
 -5.882369912092E+00 -5.860822558841E+00 -5.839432487927E+00 -5.818197983511E+00
 -5.797117354623E+00 -5.776188934708E+00 -5.755411081195E+00 -5.734782175061E+00
 -5.714300620413E+00 -5.693964844074E+00 -5.673773295185E+00 -5.653724444806E+00
 -5.633816785533E+00 -5.614048831117E+00 -5.594419116097E+00 -5.574926195440E+00
 -5.555568644179E+00 -5.536345057072E+00 -5.517254048261E+00 -5.498294250937E+00
 -5.479464317014E+00 -5.460762916813E+00 -5.442188738744E+00 -5.423740489002E+00
 -5.405416891267E+00 -5.387216686408E+00 -5.369138632197E+00 -5.351181503023E+00
 -5.333344089618E+00 -5.315625198784E+00 -5.298023653127E+00 -5.280538290796E+00
 -5.263167965231E+00 -5.245911544905E+00 -5.228767913086E+00 -5.211735967589E+00
 -5.194814620547E+00 -5.178002798173E+00 -5.161299440538E+00 -5.144703501343E+00
 -5.128213947707E+00 -5.111829759945E+00 -5.095549931365E+00 -5.079373468057E+00
 -5.063299388694E+00 -5.047326724329E+00 -5.031454518207E+00 -5.015681825567E+00
 -5.000007713460E+00 -4.984431260561E+00 -4.968951556992E+00 -4.953567704142E+00
 -4.938278814493E+00 -4.923084011454E+00 -4.907982429185E+00 -4.892973212443E+00
 -4.878055516411E+00 -4.863228506544E+00 -4.848491358416E+00 -4.833843257559E+00
 -4.819283399322E+00 -4.804810988718E+00 -4.790425240282E+00 -4.776125377926E+00
 -4.761910634803E+00 -4.747780253168E+00 -4.733733484243E+00 -4.719769588085E+00
 -4.705887833457E+00 -4.692087497699E+00 -4.678367866604E+00 -4.664728234294E+00
 -4.651167903099E+00 -4.637686183437E+00 -4.624282393700E+00 -4.610955860135E+00
 -4.597705916734E+00 -4.584531905125E+00 -4.571433174457E+00 -4.558409081298E+00
 -4.545458989526E+00 -4.532582270230E+00 -4.519778301603E+00 -4.507046468846E+00
 -4.494386164067E+00 -4.481796786184E+00 -4.469277740834E+00 -4.456828440274E+00
 -4.444448303292E+00 -4.432136755117E+00 -4.419893227328E+00 -4.407717157767E+00
 -4.395607990457E+00 -4.383565175512E+00 -4.371588169055E+00 -4.359676433138E+00
 -4.347829435657E+00 -4.336046650278E+00 -4.324327556356E+00 -4.312671638861E+00
 -4.301078388301E+00 -4.289547300649E+00 -4.278077877269E+00 -4.266669624842E+00
 -4.255322055298E+00 -4.244034685744E+00 -4.232807038397E+00 -4.221638640516E+00
 -4.210529024337E+00 -4.199477727008E+00 -4.188484290523E+00 -4.177548261657E+00
 -4.166669191911E+00 -4.155846637442E+00 -4.145080159006E+00 -4.134369321902E+00
 -4.123713695907E+00 -4.113112855224E+00 -4.102566378423E+00 -4.092073848385E+00
 -4.081634852246E+00 -4.071248981347E+00 -4.060915831174E+00 -4.050635001312E+00
 -4.040406095391E+00 -4.030228721032E+00 -4.020102489803E+00 -4.010027017161E+00
 -4.000001922415E+00 -3.990026828664E+00 -3.980101362764E+00 -3.970225155271E+00
 -3.960397840398E+00 -3.950619055973E+00 -3.940888443391E+00 -3.931205647573E+00
 -3.921570316918E+00 -3.911982103265E+00 -3.902440661852E+00 -3.892945651269E+00
 -3.883496733422E+00 -3.874093573491E+00 -3.864735839893E+00 -3.855423204237E+00
 -3.846155341293E+00 -3.836931928950E+00 -3.827752648178E+00 -3.818617182994E+00
 -3.809525220424E+00 -3.800476450467E+00 -3.791470566061E+00 -3.782507263047E+00
 -3.773586240136E+00 -3.764707198876E+00 -3.755869843613E+00 -3.747073881468E+00
 -3.738319022295E+00 -3.729604978656E+00 -3.720931465784E+00 -3.712298201558E+00
 -3.703704906467E+00 -3.695151303583E+00 -3.686637118531E+00 -3.678162079457E+00
 -3.669725917002E+00 -3.661328364273E+00 -3.652969156815E+00 -3.644648032580E+00
 -3.636364731906E+00 -3.628118997482E+00 -3.619910574329E+00 -3.611739209768E+00
 -3.603604653399E+00 -3.595506657070E+00 -3.587444974856E+00 -3.579419363033E+00
 -3.571429580052E+00 -3.563475386517E+00 -3.555556545159E+00 -3.547672820814E+00
 -3.539823980399E+00 -3.532009792889E+00 -3.524230029295E+00 -3.516484462641E+00
 -3.508772867940E+00 -3.501095022178E+00 -3.493450704285E+00 -3.485839695121E+00
 -3.478261777449E+00 -3.470716735918E+00 -3.463204357042E+00 -3.455724429178E+00
 -3.448276742508E+00 -3.440861089020E+00 -3.433477262487E+00 -3.426125058448E+00
 -3.418804274190E+00 -3.411514708728E+00 -3.404256162789E+00 -3.397028438792E+00
 -3.389831340829E+00 -3.382664674650E+00 -3.375528247645E+00 -3.368421868826E+00
 -3.361345348807E+00 -3.354298499793E+00 -3.347281135562E+00 -3.340293071442E+00
 -3.333334124306E+00 -3.326404112544E+00 -3.319502856059E+00 -3.312630176241E+00
 -3.305785895959E+00 -3.298969839541E+00 -3.292181832761E+00 -3.285421702827E+00
 -3.278689278359E+00 -3.271984389383E+00 -3.265306867310E+00 -3.258656544924E+00
 -3.252033256372E+00 -3.245436837143E+00 -3.238867124059E+00 -3.232323955263E+00
 -3.225807170201E+00 -3.219316609612E+00 -3.212852115514E+00 -3.206413531191E+00
 -3.200000701182E+00 -3.193613471267E+00 -3.187251688455E+00 -3.180915200969E+00
 -3.174603858241E+00 -3.168317510894E+00 -3.162056010729E+00 -3.155819210721E+00
 -3.149606965000E+00 -3.143419128842E+00 -3.137255558661E+00 -3.131116111991E+00
 -3.125000647482E+00 -3.118909024886E+00 -3.112841105045E+00 -3.106796749884E+00
 -3.100775822395E+00 -3.094778186635E+00 -3.088803707705E+00 -3.082852251752E+00
 -3.076923685947E+00 -3.071017878485E+00 -3.065134698569E+00 -3.059274016402E+00
 -3.053435703180E+00 -3.047619631079E+00 -3.041825673246E+00 -3.036053703794E+00
 -3.030303597787E+00 -3.024575231234E+00 -3.018868481082E+00 -3.013183225202E+00
 -3.007519342386E+00 -3.001876712335E+00 -2.996255215649E+00 -2.990654733823E+00
 -2.985075149237E+00 -2.979516345145E+00 -2.973978205670E+00 -2.968460615796E+00
 -2.962963461357E+00 -2.957486629034E+00 -2.952030006341E+00 -2.946593481623E+00
 -2.941176944045E+00 -2.935780283587E+00 -2.930403391032E+00 -2.925046157966E+00
 -2.919708476762E+00 -2.914390240580E+00 -2.909091343357E+00 -2.903811679798E+00
 -2.898551145374E+00 -2.893309636309E+00 -2.888087049578E+00 -2.882883282900E+00
 -2.877698234726E+00 -2.872531804240E+00 -2.867383891347E+00 -2.862254396669E+00
 -2.857143221537E+00 -2.852050267986E+00 -2.846975438748E+00 -2.841918637247E+00
 -2.836879767590E+00 -2.831858734567E+00 -2.826855443636E+00 -2.821869800925E+00
 -2.816901713222E+00 -2.811951087971E+00 -2.807017833265E+00 -2.802101857840E+00
 -2.797203071073E+00 -2.792321382970E+00 -2.787456704168E+00 -2.782608945922E+00
 -2.777778020106E+00 -2.772963839204E+00 -2.768166316305E+00 -2.763385365099E+00
 -2.758620899873E+00 -2.753872835500E+00 -2.749141087442E+00 -2.744425571740E+00
 -2.739726205009E+00 -2.735042904434E+00 -2.730375587768E+00 -2.725724173321E+00
 -2.721088579962E+00 -2.716468727107E+00 -2.711864534723E+00 -2.707275923315E+00
 -2.702702813927E+00 -2.698145128134E+00 -2.693602788042E+00 -2.689075716278E+00
 -2.684563835989E+00 -2.680067070838E+00 -2.675585344997E+00 -2.671118583144E+00
</data>
</radfunc>
</slps>
<slps n="3" l="p" rc="1.10888790712" flavor="Hamann&apos;s oncvpsp">
<radfunc>
<data>
 -2.957892193983E+01 -2.957775024843E+01 -2.957423352139E+01 -2.956837117605E+01
 -2.956016166254E+01 -2.954960229582E+01 -2.953668891212E+01 -2.952141541469E+01
 -2.950377327405E+01 -2.948375101622E+01 -2.946133372818E+01 -2.943650260713E+01
 -2.940923457587E+01 -2.937950198201E+01 -2.934727239353E+01 -2.931250849801E+01
 -2.927516810806E+01 -2.923520427117E+01 -2.919256547855E+01 -2.914719596459E+01
 -2.909903608673E+01 -2.904802277358E+01 -2.899409002878E+01 -2.893716947728E+01
 -2.887719094130E+01 -2.881408303331E+01 -2.874777375478E+01 -2.867819109015E+01
 -2.860526358747E+01 -2.852892091853E+01 -2.844909441364E+01 -2.836571756782E+01
 -2.827872651765E+01 -2.818806048959E+01 -2.809366222243E+01 -2.799547836785E+01
 -2.789345987406E+01 -2.778756235754E+01 -2.767774646820E+01 -2.756397825221E+01
 -2.744622951579E+01 -2.732447819160E+01 -2.719870870738E+01 -2.706891235469E+01
 -2.693508765342E+01 -2.679724070576E+01 -2.665538553214E+01 -2.650954438018E+01
 -2.635974799748E+01 -2.620603585907E+01 -2.604845634128E+01 -2.588706683507E+01
 -2.572193379406E+01 -2.555313271449E+01 -2.538074804714E+01 -2.520487304339E+01
 -2.502560953999E+01 -2.484306768855E+01 -2.465736563728E+01 -2.446862917274E+01
 -2.427699132941E+01 -2.408259197438E+01 -2.388557737299E+01 -2.368609974047E+01
 -2.348431678258E+01 -2.328039122710E+01 -2.307449034670E+01 -2.286678547231E+01
 -2.265745149601E+01 -2.244666636127E+01 -2.223461053905E+01 -2.202146648813E+01
 -2.180741809873E+01 -2.159265011938E+01 -2.137734756787E+01 -2.116169512828E+01
 -2.094587653733E+01 -2.073007396429E+01 -2.051446739016E+01 -2.029923399274E+01
 -2.008454754529E+01 -1.987057783754E+01 -1.965749012844E+01 -1.944544464085E+01
 -1.923459610876E+01 -1.902509338786E+01 -1.881707914054E+01 -1.861068960617E+01
 -1.840605446690E+01 -1.820329681911E+01 -1.800253325909E+01 -1.780387409090E+01
 -1.760742366256E+01 -1.741328083520E+01 -1.722153958768E+01 -1.703228975701E+01
 -1.684561791249E+01 -1.666160835869E+01 -1.648034425969E+01 -1.630190887398E+01
 -1.612638688633E+01 -1.595386582006E+01 -1.578443750992E+01 -1.561819961311E+01
 -1.545525713308E+01 -1.529572392582E+01 -1.513972420858E+01 -1.498739359076E+01
 -1.483887557513E+01 -1.469443117643E+01 -1.455369824960E+01 -1.441820502909E+01
 -1.428982645826E+01 -1.416392126655E+01 -1.403959411129E+01 -1.391760347618E+01
 -1.379764294689E+01 -1.367964162847E+01 -1.356355436711E+01 -1.344937128786E+01
 -1.333707797063E+01 -1.322662269548E+01 -1.311795226895E+01 -1.301103047382E+01
 -1.290581712801E+01 -1.280227354465E+01 -1.270036260364E+01 -1.260004947938E+01
 -1.250129693041E+01 -1.240407016089E+01 -1.230833290385E+01 -1.221412024893E+01
 -1.212150043214E+01 -1.203039726679E+01 -1.194068721954E+01 -1.185226434136E+01
 -1.176510839247E+01 -1.167922990558E+01 -1.159459305578E+01 -1.151116669828E+01
 -1.142892791682E+01 -1.134785205013E+01 -1.126791516414E+01 -1.118909410802E+01
 -1.111136636000E+01 -1.103471000151E+01 -1.095910368236E+01 -1.088452658911E+01
 -1.081095841644E+01 -1.073837934162E+01 -1.066677000168E+01 -1.059611147340E+01
 -1.052638525571E+01 -1.045757325450E+01 -1.038965776951E+01 -1.032262148321E+01
 -1.025644745142E+01 -1.019111909550E+01 -1.012662019596E+01 -1.006293488722E+01