<?xml version="1.0" encoding="UTF-8" ?>
<psml version="0.8" energy_unit="hartree" length_unit="bohr">
<provenance creator="ONCVPSP-2.1.2+psml" date="2015-02-22">
<input-file name="oncvpsp-input">
# ATOM AND REFERENCE CONFIGURATION
# atsym  z    nc    nv    iexc   psfile
  Fe 26.00     3     4     4      psp8
#
#   n    l    f        energy (Ha)
    1    0    2.00
    2    0    2.00
    2    1    6.00
    3    0    2.00
    3    1    6.00
    3    2    6.00
    4    0    2.00
#
# PSEUDOPOTENTIAL AND OPTIMIZATION
# lmax
    2
#
#   l,   rc,     ep,   ncon, nbas, qcut
    0    1.31   -3.46    4    7    9.20
    1    1.36   -2.21    4    7    9.40
    2    1.66   -0.28    4    7    9.40
#
# LOCAL POTENTIAL
# lloc, lpopt,  rc(5),   dvloc0
    4    5      1.11       0.00
#
# VANDERBILT-KLEINMAN-BYLANDER PROJECTORs
# l, nproj, debl
    0    2    3.2606
    1    2    2.1578
    2    2    0.8000
#
# MODEL CORE CHARGE
# icmod, fcfact
    1    0.05
#
# LOG DERIVATIVE ANALYSIS
# epsh1, epsh2, depsh
  -24.00   12.00    0.02
#
# OUTPUT GRID
# rlmax, drl
    6.00    0.01
#
# TEST CONFIGURATIONS
# ncnf
    3
# nvcnf
#   n    l    f
    4
    3    0    2.00
    3    1    6.00
    3    2    6.00
    4    0    1.00
#
    4
    3    0    2.00
    3    1    6.00
    3    2    5.00
    4    0    2.00
#
    4
    3    0    2.00
    3    1    6.00
    3    2    5.00
    4    0    1.00
#
</input-file>
</provenance>
<header atomic-label="Fe" atomic-number="26." z-pseudo="16."
 flavor="Hamann's oncvpsp" relativity="scalar" polarized="no"
 core-corrections="yes">
<exchange-correlation>
<annotation oncvpsp-xc-code="4" oncvpsp-xc-type="GGA"
 oncvpsp-xc-authors="Perdew-Burke-Ernzerhof" />
<libxc-info number-of-functionals="2">
<functional name="XC_GGA_X_PBE" type="XC_EXCHANGE" id="101" />
<functional name="XC_GGA_C_PBE" type="XC_CORRELATION" id="130" />
</libxc-info>
</exchange-correlation>
<valence-configuration total-valence-charge="16.">
<shell n="3" l="s" occupation="2." />
<shell n="3" l="p" occupation="6." />
<shell n="3" l="d" occupation="6." />
<shell n="4" l="s" occupation="2." />
</valence-configuration>
</header>
<grid npts="1230">
<annotation type="oncvpsp plus r=0" oncvpsp-npts="1229"
 oncvpsp-r1="0.192307692308E-04" oncvpsp-factor="1.01200000000" />
<grid-data>
  0.000000000000E+00  1.923076923077E-05  1.946153846154E-05  1.969507692308E-05
  1.993141784615E-05  2.017059486031E-05  2.041264199863E-05  2.065759370261E-05
  2.090548482705E-05  2.115635064497E-05  2.141022685271E-05  2.166714957494E-05
  2.192715536984E-05  2.219028123428E-05  2.245656460909E-05  2.272604338440E-05
  2.299875590501E-05  2.327474097587E-05  2.355403786758E-05  2.383668632200E-05
  2.412272655786E-05  2.441219927655E-05  2.470514566787E-05  2.500160741589E-05
  2.530162670488E-05  2.560524622534E-05  2.591250918004E-05  2.622345929020E-05
  2.653814080168E-05  2.685659849130E-05  2.717887767320E-05  2.750502420528E-05
  2.783508449574E-05  2.816910550969E-05  2.850713477581E-05  2.884922039312E-05
  2.919541103783E-05  2.954575597029E-05  2.990030504193E-05  3.025910870243E-05
  3.062221800686E-05  3.098968462294E-05  3.136156083842E-05  3.173789956848E-05
  3.211875436330E-05  3.250417941566E-05  3.289422956865E-05  3.328896032347E-05
  3.368842784736E-05  3.409268898152E-05  3.450180124930E-05  3.491582286429E-05
  3.533481273867E-05  3.575883049153E-05  3.618793645743E-05  3.662219169492E-05
  3.706165799526E-05  3.750639789120E-05  3.795647466589E-05  3.841195236188E-05
  3.887289579023E-05  3.933937053971E-05  3.981144298619E-05  4.028918030202E-05
  4.077265046564E-05  4.126192227123E-05  4.175706533849E-05  4.225815012255E-05
  4.276524792402E-05  4.327843089911E-05  4.379777206990E-05  4.432334533474E-05
  4.485522547875E-05  4.539348818450E-05  4.593821004271E-05  4.648946856322E-05
  4.704734218598E-05  4.761191029221E-05  4.818325321572E-05  4.876145225431E-05
  4.934658968136E-05  4.993874875754E-05  5.053801374263E-05  5.114446990754E-05
  5.175820354643E-05  5.237930198899E-05  5.300785361286E-05  5.364394785621E-05
  5.428767523048E-05  5.493912733325E-05  5.559839686125E-05  5.626557762358E-05
  5.694076455507E-05  5.762405372973E-05  5.831554237448E-05  5.901532888298E-05
  5.972351282957E-05  6.044019498353E-05  6.116547732333E-05  6.189946305121E-05
  6.264225660783E-05  6.339396368712E-05  6.415469125137E-05  6.492454754638E-05
  6.570364211694E-05  6.649208582234E-05  6.728999085221E-05  6.809747074244E-05
  6.891464039135E-05  6.974161607604E-05  7.057851546895E-05  7.142545765458E-05
  7.228256314644E-05  7.314995390419E-05  7.402775335104E-05  7.491608639126E-05
  7.581507942795E-05  7.672486038109E-05  7.764555870566E-05  7.857730541013E-05
  7.952023307505E-05  8.047447587195E-05  8.144016958241E-05  8.241745161740E-05
  8.340646103681E-05  8.440733856925E-05  8.542022663208E-05  8.644526935167E-05
  8.748261258389E-05  8.853240393490E-05  8.959479278212E-05  9.066993029550E-05
  9.175796945905E-05  9.285906509256E-05  9.397337387367E-05  9.510105436015E-05
  9.624226701247E-05  9.739717421662E-05  9.856594030722E-05  9.974873159091E-05
  1.009457163700E-04  1.021570649664E-04  1.033829497460E-04  1.046235451430E-04
  1.058790276847E-04  1.071495760169E-04  1.084353709291E-04  1.097365953803E-04
  1.110534345248E-04  1.123860757391E-04  1.137347086480E-04  1.150995251518E-04
  1.164807194536E-04  1.178784880870E-04  1.192930299441E-04  1.207245463034E-04
  1.221732408591E-04  1.236393197494E-04  1.251229915864E-04  1.266244674854E-04
  1.281439610952E-04  1.296816886284E-04  1.312378688919E-04  1.328127233186E-04
  1.344064759984E-04  1.360193537104E-04  1.376515859549E-04  1.393034049864E-04
  1.409750458462E-04  1.426667463964E-04  1.443787473531E-04  1.461112923214E-04
  1.478646278292E-04  1.496390033632E-04  1.514346714035E-04  1.532518874604E-04
  1.550909101099E-04  1.569520010312E-04  1.588354250436E-04  1.607414501441E-04
  1.626703475459E-04  1.646223917164E-04  1.665978604170E-04  1.685970347420E-04
  1.706201991589E-04  1.726676415488E-04  1.747396532474E-04  1.768365290864E-04
  1.789585674354E-04  1.811060702446E-04  1.832793430876E-04  1.854786952046E-04
  1.877044395471E-04  1.899568928216E-04  1.922363755355E-04  1.945432120419E-04
  1.968777305864E-04  1.992402633535E-04  2.016311465137E-04  2.040507202719E-04
  2.064993289151E-04  2.089773208621E-04  2.114850487125E-04  2.140228692970E-04
  2.165911437286E-04  2.191902374533E-04  2.218205203028E-04  2.244823665464E-04
  2.271761549450E-04  2.299022688043E-04  2.326610960299E-04  2.354530291823E-04
  2.382784655325E-04  2.411378071189E-04  2.440314608043E-04  2.469598383340E-04
  2.499233563940E-04  2.529224366707E-04  2.559575059107E-04  2.590289959817E-04
  2.621373439335E-04  2.652829920607E-04  2.684663879654E-04  2.716879846210E-04
  2.749482404364E-04  2.782476193217E-04  2.815865907535E-04  2.849656298426E-04
  2.883852174007E-04  2.918458400095E-04  2.953479900896E-04  2.988921659707E-04
  3.024788719623E-04  3.061086184259E-04  3.097819218470E-04  3.134993049091E-04
  3.172612965680E-04  3.210684321269E-04  3.249212533124E-04  3.288203083521E-04
  3.327661520524E-04  3.367593458770E-04  3.408004580275E-04  3.448900635238E-04
  3.490287442861E-04  3.532170892176E-04  3.574556942882E-04  3.617451626196E-04
  3.660861045711E-04  3.704791378259E-04  3.749248874798E-04  3.794239861296E-04
  3.839770739631E-04  3.885847988507E-04  3.932478164369E-04  3.979667902342E-04
  4.027423917170E-04  4.075753004176E-04  4.124662040226E-04  4.174157984708E-04
  4.224247880525E-04  4.274938855091E-04  4.326238121352E-04  4.378152978809E-04
  4.430690814554E-04  4.483859104329E-04  4.537665413581E-04  4.592117398544E-04
  4.647222807326E-04  4.702989481014E-04  4.759425354786E-04  4.816538459044E-04
  4.874336920552E-04  4.932828963599E-04  4.992022911162E-04  5.051927186096E-04
  5.112550312329E-04  5.173900916077E-04  5.235987727070E-04  5.298819579795E-04
  5.362405414753E-04  5.426754279730E-04  5.491875331086E-04  5.557777835059E-04
  5.624471169080E-04  5.691964823109E-04  5.760268400986E-04  5.829391621798E-04
  5.899344321260E-04  5.970136453115E-04  6.041778090552E-04  6.114279427639E-04
  6.187650780771E-04  6.261902590140E-04  6.337045421222E-04  6.413089966276E-04
  6.490047045872E-04  6.567927610422E-04  6.646742741747E-04  6.726503654648E-04
  6.807221698504E-04  6.888908358886E-04  6.971575259192E-04  7.055234162303E-04
  7.139896972250E-04  7.225575735917E-04  7.312282644748E-04  7.400030036485E-04
  7.488830396923E-04  7.578696361686E-04  7.669640718027E-04  7.761676406643E-04
  7.854816523523E-04  7.949074321805E-04  8.044463213667E-04  8.140996772231E-04
  8.238688733497E-04  8.337552998299E-04  8.437603634279E-04  8.538854877890E-04
  8.641321136425E-04  8.745016990062E-04  8.849957193943E-04  8.956156680270E-04
  9.063630560433E-04  9.172394127158E-04  9.282462856684E-04  9.393852410965E-04
  9.506578639896E-04  9.620657583575E-04  9.736105474578E-04  9.852938740273E-04
  9.971174005156E-04  1.009082809322E-03  1.021191803034E-03  1.033446104670E-03
  1.045847457926E-03  1.058397627421E-03  1.071098398950E-03  1.083951579738E-03
  1.096958998695E-03  1.110122506679E-03  1.123443976759E-03  1.136925304480E-03
  1.150568408134E-03  1.164375229031E-03  1.178347731780E-03  1.192487904561E-03
  1.206797759416E-03  1.221279332529E-03  1.235934684519E-03  1.250765900734E-03
  1.265775091542E-03  1.280964392641E-03  1.296335965353E-03  1.311891996937E-03
  1.327634700900E-03  1.343566317311E-03  1.359689113119E-03  1.376005382476E-03
  1.392517447066E-03  1.409227656430E-03  1.426138388308E-03  1.443252048967E-03
  1.460571073555E-03  1.478097926438E-03  1.495835101555E-03  1.513785122773E-03
  1.531950544247E-03  1.550333950778E-03  1.568937958187E-03  1.587765213685E-03
  1.606818396250E-03  1.626100217005E-03  1.645613419609E-03  1.665360780644E-03
  1.685345110012E-03  1.705569251332E-03  1.726036082348E-03  1.746748515336E-03
  1.767709497520E-03  1.788922011490E-03  1.810389075628E-03  1.832113744536E-03
  1.854099109470E-03  1.876348298784E-03  1.898864478369E-03  1.921650852109E-03
  1.944710662335E-03  1.968047190283E-03  1.991663756566E-03  2.015563721645E-03
  2.039750486305E-03  2.064227492140E-03  2.088998222046E-03  2.114066200711E-03
  2.139434995119E-03  2.165108215061E-03  2.191089513641E-03  2.217382587805E-03
  2.243991178859E-03  2.270919073005E-03  2.298170101881E-03  2.325748143104E-03
  2.353657120821E-03  2.381901006271E-03  2.410483818346E-03  2.439409624166E-03
  2.468682539656E-03  2.498306730132E-03  2.528286410894E-03  2.558625847824E-03
  2.589329357998E-03  2.620401310294E-03  2.651846126018E-03  2.683668279530E-03
  2.715872298884E-03  2.748462766471E-03  2.781444319668E-03  2.814821651505E-03
  2.848599511323E-03  2.882782705458E-03  2.917376097924E-03  2.952384611099E-03
  2.987813226432E-03  3.023666985149E-03  3.059950988971E-03  3.096670400839E-03
  3.133830445649E-03  3.171436410997E-03  3.209493647929E-03  3.248007571704E-03
  3.286983662564E-03  3.326427466515E-03  3.366344596113E-03  3.406740731267E-03
  3.447621620042E-03  3.488993079482E-03  3.530860996436E-03  3.573231328393E-03
  3.616110104334E-03  3.659503425586E-03  3.703417466693E-03  3.747858476293E-03
  3.792832778009E-03  3.838346771345E-03  3.884406932601E-03  3.931019815792E-03
  3.978192053582E-03  4.025930358225E-03  4.074241522524E-03  4.123132420794E-03
  4.172610009843E-03  4.222681329961E-03  4.273353505921E-03  4.324633747992E-03
  4.376529352968E-03  4.429047705204E-03  4.482196277666E-03  4.535982632998E-03
  4.590414424594E-03  4.645499397689E-03  4.701245390461E-03  4.757660335147E-03
  4.814752259169E-03  4.872529286279E-03  4.930999637714E-03  4.990171633367E-03
  5.050053692967E-03  5.110654337283E-03  5.171982189330E-03  5.234045975602E-03
  5.296854527309E-03  5.360416781637E-03  5.424741783017E-03  5.489838684413E-03
  5.555716748626E-03  5.622385349609E-03  5.689853973805E-03  5.758132221490E-03
  5.827229808148E-03  5.897156565846E-03  5.967922444636E-03  6.039537513972E-03
  6.112011964139E-03  6.185356107709E-03  6.259580381001E-03  6.334695345573E-03
  6.410711689720E-03  6.487640229997E-03  6.565491912757E-03  6.644277815710E-03
  6.724009149499E-03  6.804697259293E-03  6.886353626404E-03  6.968989869921E-03
  7.052617748360E-03  7.137249161340E-03  7.222896151276E-03  7.309570905092E-03
  7.397285755953E-03  7.486053185024E-03  7.575885823245E-03  7.666796453123E-03
  7.758798010561E-03  7.851903586688E-03  7.946126429728E-03  8.041479946885E-03
  8.137977706247E-03  8.235633438722E-03  8.334461039987E-03  8.434474572467E-03
  8.535688267336E-03  8.638116526544E-03  8.741773924863E-03  8.846675211961E-03
  8.952835314505E-03  9.060269338279E-03  9.168992570338E-03  9.279020481182E-03
  9.390368726956E-03  9.503053151680E-03  9.617089789500E-03  9.732494866974E-03
  9.849284805378E-03  9.967476223042E-03  1.008708593772E-02  1.020813096897E-02
  1.033062854060E-02  1.045459608309E-02  1.058005123608E-02  1.070701185092E-02
  1.083549599313E-02  1.096552194504E-02  1.109710820839E-02  1.123027350689E-02
  1.136503678897E-02  1.150141723044E-02  1.163943423720E-02  1.177910744805E-02
  1.192045673742E-02  1.206350221827E-02  1.220826424489E-02  1.235476341583E-02
  1.250302057682E-02  1.265305682374E-02  1.280489350563E-02  1.295855222770E-02
  1.311405485443E-02  1.327142351268E-02  1.343068059483E-02  1.359184876197E-02
  1.375495094712E-02  1.392001035848E-02  1.408705048278E-02  1.425609508858E-02
  1.442716822964E-02  1.460029424839E-02  1.477549777938E-02  1.495280375273E-02
  1.513223739776E-02  1.531382424653E-02  1.549759013749E-02  1.568356121914E-02
  1.587176395377E-02  1.606222512122E-02  1.625497182267E-02  1.645003148454E-02
  1.664743186236E-02  1.684720104471E-02  1.704936745724E-02  1.725395986673E-02
  1.746100738513E-02  1.767053947375E-02  1.788258594744E-02  1.809717697881E-02
  1.831434310255E-02  1.853411521978E-02  1.875652460242E-02  1.898160289765E-02
  1.920938213242E-02  1.943989471801E-02  1.967317345463E-02  1.990925153608E-02
  2.014816255451E-02  2.038994050517E-02  2.063461979123E-02  2.088223522873E-02
  2.113282205147E-02  2.138641591609E-02  2.164305290708E-02  2.190276954197E-02
  2.216560277647E-02  2.243159000979E-02  2.270076908990E-02  2.297317831898E-02
  2.324885645881E-02  2.352784273632E-02  2.381017684915E-02  2.409589897134E-02
  2.438504975900E-02  2.467767035611E-02  2.497380240038E-02  2.527348802918E-02
  2.557676988553E-02  2.588369112416E-02  2.619429541765E-02  2.650862696266E-02
  2.682673048621E-02  2.714865125205E-02  2.747443506707E-02  2.780412828788E-02
  2.813777782733E-02  2.847543116126E-02  2.881713633520E-02  2.916294197122E-02
  2.951289727487E-02  2.986705204217E-02  3.022545666668E-02  3.058816214668E-02
  3.095522009244E-02  3.132668273355E-02  3.170260292635E-02  3.208303416147E-02
  3.246803057140E-02  3.285764693826E-02  3.325193870152E-02  3.365096196594E-02
  3.405477350953E-02  3.446343079164E-02  3.487699196114E-02  3.529551586468E-02
  3.571906205505E-02  3.614769079971E-02  3.658146308931E-02  3.702044064638E-02
  3.746468593414E-02  3.791426216535E-02  3.836923331133E-02  3.882966411107E-02
  3.929562008040E-02  3.976716752137E-02  4.024437353162E-02  4.072730601400E-02
  4.121603368617E-02  4.171062609040E-02  4.221115360349E-02  4.271768744673E-02
  4.323029969609E-02  4.374906329244E-02  4.427405205195E-02  4.480534067658E-02
  4.534300476470E-02  4.588712082187E-02  4.643776627173E-02  4.699501946700E-02
  4.755895970060E-02  4.812966721701E-02  4.870722322361E-02  4.929170990229E-02
  4.988321042112E-02  5.048180894618E-02  5.108759065353E-02  5.170064174137E-02
  5.232104944227E-02  5.294890203558E-02  5.358428886000E-02  5.422730032632E-02
  5.487802793024E-02  5.553656426540E-02  5.620300303659E-02  5.687743907302E-02
  5.755996834190E-02  5.825068796200E-02  5.894969621755E-02  5.965709257216E-02
  6.037297768302E-02  6.109745341522E-02  6.183062285620E-02  6.257259033048E-02
  6.332346141444E-02  6.408334295142E-02  6.485234306683E-02  6.563057118364E-02
  6.641813803784E-02  6.721515569429E-02  6.802173756263E-02  6.883799841338E-02
  6.966405439434E-02  7.050002304707E-02  7.134602332363E-02  7.220217560352E-02
  7.306860171076E-02  7.394542493129E-02  7.483277003046E-02  7.573076327083E-02
  7.663953243008E-02  7.755920681924E-02  7.848991730107E-02  7.943179630868E-02
  8.038497786439E-02  8.134959759876E-02  8.232579276995E-02  8.331370228319E-02
  8.431346671058E-02  8.532522831111E-02  8.634913105084E-02  8.738532062346E-02
  8.843394447094E-02  8.949515180459E-02  9.056909362624E-02  9.165592274976E-02
  9.275579382275E-02  9.386886334863E-02  9.499528970881E-02  9.613523318532E-02
  9.728885598354E-02  9.845632225534E-02  9.963779812241E-02  1.008334516999E-01
  1.020434531203E-01  1.032679745577E-01  1.045071902524E-01  1.057612765354E-01
  1.070304118539E-01  1.083147767961E-01  1.096145541177E-01  1.109299287671E-01
  1.122610879123E-01  1.136082209672E-01  1.149715196188E-01  1.163511778543E-01
  1.177473919885E-01  1.191603606924E-01  1.205902850207E-01  1.220373684409E-01
  1.235018168622E-01  1.249838386646E-01  1.264836447285E-01  1.280014484653E-01
  1.295374658469E-01  1.310919154370E-01  1.326650184223E-01  1.342569986433E-01
  1.358680826271E-01  1.374984996186E-01  1.391484816140E-01  1.408182633934E-01
  1.425080825541E-01  1.442181795448E-01  1.459487976993E-01  1.477001832717E-01
  1.494725854709E-01  1.512662564966E-01  1.530814515745E-01  1.549184289934E-01
  1.567774501414E-01  1.586587795431E-01  1.605626848976E-01  1.624894371163E-01
  1.644393103617E-01  1.664125820861E-01  1.684095330711E-01  1.704304474680E-01
  1.724756128376E-01  1.745453201916E-01  1.766398640339E-01  1.787595424023E-01
  1.809046569112E-01  1.830755127941E-01  1.852724189476E-01  1.874956879750E-01
  1.897456362307E-01  1.920225838655E-01  1.943268548719E-01  1.966587771303E-01
  1.990186824559E-01  2.014069066454E-01  2.038237895251E-01  2.062696749994E-01
  2.087449110994E-01  2.112498500326E-01  2.137848482330E-01  2.163502664118E-01
  2.189464696087E-01  2.215738272440E-01  2.242327131710E-01  2.269235057290E-01
  2.296465877978E-01  2.324023468513E-01  2.351911750135E-01  2.380134691137E-01
  2.408696307431E-01  2.437600663120E-01  2.466851871077E-01  2.496454093530E-01
  2.526411542653E-01  2.556728481164E-01  2.587409222938E-01  2.618458133614E-01
  2.649879631217E-01  2.681678186792E-01  2.713858325033E-01  2.746424624934E-01
  2.779381720433E-01  2.812734301078E-01  2.846487112691E-01  2.880644958043E-01
  2.915212697540E-01  2.950195249910E-01  2.985597592909E-01  3.021424764024E-01
  3.057681861192E-01  3.094374043527E-01  3.131506532049E-01  3.169084610433E-01
  3.207113625759E-01  3.245598989268E-01  3.284546177139E-01  3.323960731265E-01
  3.363848260040E-01  3.404214439160E-01  3.445065012430E-01  3.486405792579E-01
  3.528242662090E-01  3.570581574035E-01  3.613428552924E-01  3.656789695559E-01
  3.700671171906E-01  3.745079225969E-01  3.790020176680E-01  3.835500418800E-01
  3.881526423826E-01  3.928104740912E-01  3.975241997803E-01  4.022944901776E-01
  4.071220240598E-01  4.120074883485E-01  4.169515782087E-01  4.219549971472E-01
  4.270184571129E-01  4.321426785983E-01  4.373283907415E-01  4.425763314304E-01
  4.478872474075E-01  4.532618943764E-01  4.587010371089E-01  4.642054495543E-01
  4.697759149489E-01  4.754132259283E-01  4.811181846394E-01  4.868916028551E-01
  4.927343020894E-01  4.986471137144E-01  5.046308790790E-01  5.106864496280E-01
  5.168146870235E-01  5.230164632678E-01  5.292926608270E-01  5.356441727569E-01
  5.420719028300E-01  5.485767656640E-01  5.551596868519E-01  5.618216030941E-01
  5.685634623313E-01  5.753862238793E-01  5.822908585658E-01  5.892783488686E-01
  5.963496890550E-01  6.035058853237E-01  6.107479559476E-01  6.180769314189E-01
  6.254938545960E-01  6.329997808511E-01  6.405957782213E-01  6.482829275600E-01
  6.560623226907E-01  6.639350705630E-01  6.719022914097E-01  6.799651189067E-01
  6.881247003335E-01  6.963821967375E-01  7.047387830984E-01  7.131956484956E-01
  7.217539962775E-01  7.304150442328E-01  7.391800247636E-01  7.480501850608E-01
  7.570267872815E-01  7.661111087289E-01  7.753044420337E-01  7.846080953381E-01
  7.940233924821E-01  8.035516731919E-01  8.131942932702E-01  8.229526247895E-01
  8.328280562869E-01  8.428219929624E-01  8.529358568779E-01  8.631710871605E-01
  8.735291402064E-01  8.840114898889E-01  8.946196277675E-01  9.053550633007E-01
  9.162193240603E-01  9.272139559491E-01  9.383405234205E-01  9.496006097015E-01
  9.609958170179E-01  9.725277668221E-01  9.841981000240E-01  9.960084772243E-01
  1.007960578951E+00  1.020056105898E+00  1.032296779169E+00  1.044684340519E+00
  1.057220552605E+00  1.069907199237E+00  1.082746085628E+00  1.095739038655E+00
  1.108887907119E+00  1.122194562004E+00  1.135660896748E+00  1.149288827509E+00
  1.163080293440E+00  1.177037256961E+00  1.191161704044E+00  1.205455644493E+00
  1.219921112227E+00  1.234560165573E+00  1.249374887560E+00  1.264367386211E+00
  1.279539794846E+00  1.294894272384E+00  1.310433003652E+00  1.326158199696E+00
  1.342072098093E+00  1.358176963270E+00  1.374475086829E+00  1.390968787871E+00
  1.407660413325E+00  1.424552338285E+00  1.441646966345E+00  1.458946729941E+00
  1.476454090700E+00  1.494171539788E+00  1.512101598266E+00  1.530246817445E+00
  1.548609779254E+00  1.567193096605E+00  1.585999413765E+00  1.605031406730E+00
  1.624291783611E+00  1.643783285014E+00  1.663508684434E+00  1.683470788647E+00
  1.703672438111E+00  1.724116507368E+00  1.744805905457E+00  1.765743576322E+00
  1.786932499238E+00  1.808375689229E+00  1.830076197500E+00  1.852037111870E+00
  1.874261557212E+00  1.896752695899E+00  1.919513728250E+00  1.942547892989E+00
  1.965858467705E+00  1.989448769317E+00  2.013322154549E+00  2.037482020403E+00
  2.061931804648E+00  2.086674986304E+00  2.111715086140E+00  2.137055667173E+00
  2.162700335179E+00  2.188652739202E+00  2.214916572072E+00  2.241495570937E+00
  2.268393517788E+00  2.295614240002E+00  2.323161610882E+00  2.351039550212E+00
  2.379252024815E+00  2.407803049112E+00  2.436696685702E+00  2.465937045930E+00
  2.495528290481E+00  2.525474629967E+00  2.555780325527E+00  2.586449689433E+00
  2.617487085706E+00  2.648896930735E+00  2.680683693904E+00  2.712851898230E+00
  2.745406121009E+00  2.778350994461E+00  2.811691206395E+00  2.845431500872E+00
  2.879576678882E+00  2.914131599029E+00  2.949101178217E+00  2.984490392356E+00
  3.020304277064E+00  3.056547928389E+00  3.093226503529E+00  3.130345221572E+00
  3.167909364230E+00  3.205924276601E+00  3.244395367920E+00  3.283328112335E+00
  3.322728049683E+00  3.362600786280E+00  3.402951995715E+00  3.443787419664E+00
  3.485112868700E+00  3.526934223124E+00  3.569257433801E+00  3.612088523007E+00
  3.655433585283E+00  3.699298788307E+00  3.743690373766E+00  3.788614658251E+00
  3.834078034150E+00  3.880086970560E+00  3.926648014207E+00  3.973767790377E+00
  4.021453003862E+00  4.069710439908E+00  4.118546965187E+00  4.167969528769E+00
  4.217985163115E+00  4.268600985072E+00  4.319824196893E+00  4.371662087256E+00
  4.424122032303E+00  4.477211496690E+00  4.530938034651E+00  4.585309291066E+00
  4.640333002559E+00  4.696016998590E+00  4.752369202573E+00  4.809397633004E+00
  4.867110404600E+00  4.925515729455E+00  4.984621918209E+00  5.044437381227E+00
  5.104970629802E+00  5.166230277360E+00  5.228225040688E+00  5.290963741176E+00
  5.354455306070E+00  5.418708769743E+00  5.483733274980E+00  5.549538074280E+00
  5.616132531171E+00  5.683526121545E+00  5.751728435004E+00  5.820749176224E+00
  5.890598166338E+00  5.961285344334E+00  6.032820768466E+00  6.105214617688E+00
  6.178477193100E+00  6.252618919418E+00  6.327650346451E+00  6.403582150608E+00
  6.480425136415E+00  6.558190238052E+00  6.636888520909E+00  6.716531183160E+00
  6.797129557358E+00  6.878695112046E+00  6.961239453391E+00  7.044774326831E+00
  7.129311618753E+00  7.214863358178E+00  7.301441718476E+00  7.389059019098E+00
  7.477727727327E+00  7.567460460055E+00  7.658269985576E+00  7.750169225403E+00
  7.843171256108E+00  7.937289311181E+00  8.032536782915E+00  8.128927224310E+00
  8.226474351002E+00  8.325192043214E+00  8.425094347732E+00  8.526195479905E+00
  8.628509825664E+00  8.732051943572E+00  8.836836566895E+00  8.942878605698E+00
  9.050193148966E+00  9.158795466753E+00  9.268701012355E+00  9.379925424503E+00
  9.492484529597E+00  9.606394343952E+00  9.721671076079E+00  9.838331128992E+00
  9.956391102540E+00  1.007586779577E+01  1.019677820932E+01  1.031913954783E+01
  1.044296922241E+01  1.056828485307E+01  1.069510427131E+01  1.082344552257E+01
  1.095332686884E+01  1.108476679126E+01  1.121778399276E+01  1.135239740067E+01
  1.148862616948E+01  1.162648968351E+01  1.176600755972E+01  1.190719965043E+01
  1.205008604624E+01  1.219468707879E+01  1.234102332374E+01  1.248911560362E+01
  1.263898499087E+01  1.279065281076E+01  1.294414064449E+01  1.309947033222E+01
  1.325666397621E+01  1.341574394392E+01  1.357673287125E+01  1.373965366570E+01
  1.390452950969E+01  1.407138386381E+01  1.424024047017E+01  1.441112335582E+01
  1.458405683609E+01  1.475906551812E+01  1.493617430434E+01  1.511540839599E+01
  1.529679329674E+01  1.548035481630E+01  1.566611907410E+01  1.585411250299E+01
  1.604436185302E+01  1.623689419526E+01  1.643173692560E+01  1.662891776871E+01
  1.682846478193E+01  1.703040635932E+01  1.723477123563E+01  1.744158849046E+01
  1.765088755234E+01  1.786269820297E+01  1.807705058140E+01  1.829397518838E+01
  1.851350289064E+01  1.873566492533E+01  1.896049290443E+01  1.918801881929E+01
  1.941827504512E+01  1.965129434566E+01  1.988710987781E+01  2.012575519634E+01
  2.036726425870E+01  2.061167142980E+01  2.085901148696E+01  2.110931962480E+01
  2.136263146030E+01  2.161898303782E+01  2.187841083428E+01  2.214095176429E+01
  2.240664318546E+01  2.267552290369E+01  2.294762917853E+01  2.322300072867E+01
  2.350167673742E+01  2.378369685827E+01  2.406910122057E+01  2.435793043521E+01
  2.465022560043E+01  2.494602830764E+01  2.524538064733E+01  2.554832521510E+01
  2.585490511768E+01  2.616516397909E+01  2.647914594684E+01  2.679689569820E+01
  2.711845844658E+01  2.744387994794E+01  2.777320650732E+01  2.810648498540E+01
  2.844376280523E+01  2.878508795889E+01  2.913050901440E+01  2.948007512257E+01
  2.983383602404E+01  3.019184205633E+01  3.055414416101E+01  3.092079389094E+01
  3.129184341763E+01  3.166734553864E+01  3.204735368511E+01  3.243192192933E+01
  3.282110499248E+01  3.321495825239E+01  3.361353775142E+01  3.401690020443E+01
  3.442510300689E+01  3.483820424297E+01  3.525626269389E+01  3.567933784621E+01
  3.610748990037E+01  3.654077977917E+01  3.697926913652E+01  3.742302036616E+01
  3.787209661055E+01  3.832656176988E+01  3.878648051112E+01  3.925191827725E+01
  3.972294129658E+01  4.019961659214E+01  4.068201199124E+01  4.117019613514E+01
  4.166423848876E+01  4.216420935063E+01  4.267017986283E+01  4.318222202119E+01
  4.370040868544E+01  4.422481358967E+01

</grid-data>
</grid>
<semilocal-potentials set="scalar_relativistic">
<slps n="3" l="s" rc="1.31043300365" flavor="Hamann's oncvpsp">
<radfunc>
<data>
 -1.952580548640E+01 -1.952580703245E+01 -1.952580705145E+01 -1.952580707023E+01
 -1.952580708912E+01 -1.952580710705E+01 -1.952580712521E+01 -1.952580714313E+01
 -1.952580716083E+01 -1.952580717834E+01 -1.952580719564E+01 -1.952580721275E+01
 -1.952580722967E+01 -1.952580724639E+01 -1.952580726292E+01 -1.952580727926E+01
 -1.952580729542E+01 -1.952580731139E+01 -1.952580732718E+01 -1.952580734280E+01
 -1.952580735824E+01 -1.952580737350E+01 -1.952580738860E+01 -1.952580740353E+01
 -1.952580741829E+01 -1.952580743288E+01 -1.952580744731E+01 -1.952580746159E+01
 -1.952580747570E+01 -1.952580748966E+01 -1.952580750347E+01 -1.952580751712E+01
 -1.952580753063E+01 -1.952580754398E+01 -1.952580755720E+01 -1.952580757026E+01
 -1.952580758319E+01 -1.952580759598E+01 -1.952580760863E+01 -1.952580762115E+01
 -1.952580763353E+01 -1.952580764578E+01 -1.952580765790E+01 -1.952580766990E+01
 -1.952580768177E+01 -1.952580769351E+01 -1.952580770514E+01 -1.952580771664E+01
 -1.952580772803E+01 -1.952580773929E+01 -1.952580775045E+01 -1.952580776149E+01
 -1.952580777242E+01 -1.952580778325E+01 -1.952580779396E+01 -1.952580780457E+01
 -1.952580781508E+01 -1.952580782548E+01 -1.952580783579E+01 -1.952580784599E+01
 -1.952580785610E+01 -1.952580786612E+01 -1.952580787604E+01 -1.952580788587E+01
 -1.952580789561E+01 -1.952580790526E+01 -1.952580791482E+01 -1.952580792431E+01
 -1.952580793370E+01 -1.952580794302E+01 -1.952580795226E+01 -1.952580796142E+01
 -1.952580797050E+01 -1.952580797951E+01 -1.952580798845E+01 -1.952580799731E+01
 -1.952580800611E+01 -1.952580801484E+01 -1.952580802350E+01 -1.952580803210E+01
 -1.952580804063E+01 -1.952580804911E+01 -1.952580805752E+01 -1.952580806588E+01
 -1.952580807418E+01 -1.952580808243E+01 -1.952580809062E+01 -1.952580809877E+01
 -1.952580810686E+01 -1.952580811491E+01 -1.952580812291E+01 -1.952580813087E+01
 -1.952580813879E+01 -1.952580814667E+01 -1.952580815450E+01 -1.952580816231E+01
 -1.952580817007E+01 -1.952580817781E+01 -1.952580818551E+01 -1.952580819318E+01
 -1.952580820083E+01 -1.952580820845E+01 -1.952580821604E+01 -1.952580822361E+01
 -1.952580823117E+01 -1.952580823870E+01 -1.952580824622E+01 -1.952580825373E+01
 -1.952580826122E+01 -1.952580826870E+01 -1.952580827618E+01 -1.952580828364E+01
 -1.952580829111E+01 -1.952580829857E+01 -1.952580830603E+01 -1.952580831349E+01
 -1.952580832096E+01 -1.952580832843E+01 -1.952580833592E+01 -1.952580834341E+01
 -1.952580835092E+01 -1.952580835844E+01 -1.952580836598E+01 -1.952580837354E+01
 -1.952580838113E+01 -1.952580838874E+01 -1.952580839637E+01 -1.952580840404E+01