<?xml version="1.0" encoding="UTF-8" ?>
<psml version="1.1" energy_unit="hartree" length_unit="bohr"
 uuid="380bf290-7639-11e7-6b9b-248da77fbc7e"
 xmlns="http://esl.cecam.org/PSML/ns/1.1">
<provenance record-number="2" creator="psop-1.1" date="2017-07-31">
<annotation source-uuid="b45f9230-6d46-11e7-4de8-8cbded534816"
 command-line="/Users/javier/Code/Launchpad/trunk-psml/Pseudo/vnl-operator/psop -K -o Au.psml Au.tm2.psml"
 action="inserted-local-potential" action-cont="inserted-nonlocal-projectors" />
</provenance>
<provenance record-number="1" creator="ATM4.2.6" date="20-JUL-17">
<annotation action="semilocal-pseudopotential-generation" />
<input-file name="INP">
<![CDATA[   pg      Gold with 5d in the valence.
        tm2     2.60
 n=Au c=car
       0.0       0.0       0.0       0.0       0.0       0.0
   12    4
    6    0      1.00      0.00
    6    1      0.00      0.00
    5    2     10.00      0.00
    5    3      0.00      0.00
      3.00      3.00      2.40      2.40

#23456789012345678901234567890123456789012345678901234567890

]]>
</input-file>
</provenance>
<pseudo-atom-spec atomic-label="Au" atomic-number="79" z-pseudo="11"
 flavor="Troullier-Martins" relativity="dirac" spin-dft="no"
 core-corrections="no">
<annotation pseudo-energy="-33.1011836451" />
<exchange-correlation>
<annotation atom-xc-code="ca" siesta-xc-type="LDA" siesta-xc-authors="CA" />
<libxc-info number-of-functionals="2">
<functional name="XC_LDA_X" type="XC_EXCHANGE" id="1" />
<functional name="XC_LDA_C_PZ" type="XC_CORRELATION" id="9" />
</libxc-info>
</exchange-correlation>
<valence-configuration total-valence-charge="11">
<shell n="6" l="s" occupation="1" />
<shell n="5" l="d" occupation="10" />
</valence-configuration>
</pseudo-atom-spec>
<grid npts="376">
<annotation type="sampled-log-atom"
 recipe="r(i:1..N) = a*(exp(b*(i-1))-1); resampled"
 recipe-cont="a: scale; b: step" scale="0.313766098312E-04"
 step="0.125000000000E-01" delta="0.500000000000E-02" rmax="20" />
<grid-data>
  0.000000000000E+00  5.051144533386E-03  1.007642362763E-02  1.523736072461E-02
  2.032323348493E-02  2.545916399106E-02  3.071608453706E-02  3.614142235299E-02
  4.147335462990E-02  4.699964538942E-02  5.259973532379E-02  5.813499768519E-02
  6.345386266516E-02  6.925909670317E-02  7.465572638155E-02  8.047266798007E-02
  8.566473277659E-02  9.119165698283E-02  9.707503717524E-02  1.033378627898E-01
  1.086377170253E-01  1.142093005982E-01  1.200665453694E-01  1.262240975017E-01
  1.326973540829E-01  1.377691839528E-01  1.430348185709E-01  1.485016636037E-01
  1.541774077029E-01  1.600700333190E-01  1.661878279280E-01  1.725393956868E-01
  1.791336695342E-01  1.859799237546E-01  1.930877870213E-01  2.004672559384E-01
  2.055429029864E-01  2.107470406511E-01  2.160829216880E-01  2.215538811964E-01
  2.271633387042E-01  2.329148003049E-01  2.388118608492E-01  2.448582061919E-01
  2.510576154957E-01  2.574139635933E-01  2.639312234089E-01  2.706134684424E-01
  2.774648753142E-01  2.844897263767E-01  2.916924123906E-01  2.990774352689E-01
  3.066494108916E-01  3.144130719897E-01  3.223732711042E-01  3.305349836188E-01
  3.389033108693E-01  3.474834833327E-01  3.562808638962E-01  3.653009512089E-01
  3.745493831191E-01  3.840319401978E-01  3.937545493518E-01  4.037232875283E-01
  4.088018960055E-01  4.139443855133E-01  4.191515595761E-01  4.244242318256E-01
  4.297632261275E-01  4.351693767104E-01  4.406435282965E-01  4.461865362331E-01
  4.517992666263E-01  4.574825964768E-01  4.632374138165E-01  4.690646178471E-01
  4.749651190813E-01  4.809398394843E-01  4.869897126184E-01  4.931156837885E-01
  4.993187101902E-01  5.055997610588E-01  5.119598178214E-01  5.183998742498E-01
  5.249209366159E-01  5.315240238489E-01  5.382101676948E-01  5.449804128770E-01
  5.518358172601E-01  5.587774520150E-01  5.658064017864E-01  5.729237648618E-01
  5.801306533438E-01  5.874281933232E-01  5.948175250557E-01  6.022998031393E-01
  6.098761966952E-01  6.175478895503E-01  6.253160804222E-01  6.331819831065E-01
  6.411468266666E-01  6.492118556254E-01  6.573783301602E-01  6.656475262991E-01
  6.740207361210E-01  6.824992679568E-01  6.910844465945E-01  6.997776134857E-01
  7.085801269553E-01  7.174933624140E-01  7.265187125730E-01  7.356575876617E-01
  7.449114156477E-01  7.542816424607E-01  7.637697322175E-01  7.733771674516E-01
  7.831054493442E-01  7.929560979591E-01  8.029306524803E-01  8.130306714522E-01
  8.232577330233E-01  8.336134351927E-01  8.440993960601E-01  8.547172540781E-01
  8.654686683086E-01  8.763553186821E-01  8.873789062596E-01  8.985411534994E-01
  9.098438045251E-01  9.212886253990E-01  9.328774043977E-01  9.446119522914E-01
  9.564941026272E-01  9.685257120152E-01  9.807086604188E-01  9.930448514485E-01
  1.005536212659E+00  1.018184695852E+00  1.030992277377E+00  1.043960958446E+00
  1.057092765441E+00  1.070389750235E+00  1.083853990507E+00  1.097487590073E+00
  1.111292679210E+00  1.125271414992E+00  1.139425981625E+00  1.153758590788E+00
  1.168271481981E+00  1.182966922872E+00  1.197847209655E+00  1.212914667404E+00
  1.228171650440E+00  1.243620542698E+00  1.259263758098E+00  1.275103740925E+00
  1.291142966209E+00  1.307383940111E+00  1.323829200316E+00  1.340481316429E+00
  1.357342890378E+00  1.374416556818E+00  1.391704983544E+00  1.409210871907E+00
  1.426936957239E+00  1.444886009276E+00  1.463060832595E+00  1.481464267048E+00
  1.500099188209E+00  1.518968507824E+00  1.538075174260E+00  1.557422172975E+00
  1.577012526975E+00  1.596849297294E+00  1.616935583466E+00  1.637274524017E+00
  1.657869296945E+00  1.678723120226E+00  1.699839252313E+00  1.721220992645E+00
  1.742871682161E+00  1.764794703825E+00  1.786993483156E+00  1.809471488756E+00
  1.832232232861E+00  1.855279271882E+00  1.878616206967E+00  1.902246684559E+00
  1.926174396968E+00  1.950403082949E+00  1.974936528281E+00  1.999778566367E+00
  2.024933078825E+00  2.050403996100E+00  2.076195298072E+00  2.102311014687E+00
  2.128755226578E+00  2.155532065707E+00  2.182645716009E+00  2.210100414047E+00
  2.237900449674E+00  2.266050166702E+00  2.294553963582E+00  2.323416294089E+00
  2.352641668023E+00  2.382234651905E+00  2.412199869702E+00  2.442542003538E+00
  2.473265794435E+00  2.504376043047E+00  2.535877610413E+00  2.567775418718E+00
  2.600074452058E+00  2.632779757225E+00  2.665896444487E+00  2.699429688396E+00
  2.733384728588E+00  2.767766870607E+00  2.802581486734E+00  2.837834016823E+00
  2.873529969153E+00  2.909674921290E+00  2.946274520956E+00  2.983334486912E+00
  3.020860609854E+00  3.058858753315E+00  3.097334854583E+00  3.136294925625E+00
  3.175745054034E+00  3.215691403971E+00  3.256140217134E+00  3.297097813734E+00
  3.338570593478E+00  3.380565036572E+00  3.423087704734E+00  3.466145242216E+00
  3.509744376848E+00  3.553891921081E+00  3.598594773060E+00  3.643859917697E+00
  3.689694427761E+00  3.736105464990E+00  3.783100281201E+00  3.830686219431E+00
  3.878870715078E+00  3.927661297069E+00  3.977065589032E+00  4.027091310487E+00
  4.077746278054E+00  4.129038406677E+00  4.180975710854E+00  4.233566305895E+00
  4.286818409187E+00  4.340740341479E+00  4.395340528184E+00  4.450627500692E+00
  4.506609897704E+00  4.563296466584E+00  4.620696064723E+00  4.678817660927E+00
  4.737670336811E+00  4.797263288228E+00  4.857605826695E+00  4.918707380859E+00
  4.980577497961E+00  5.043225845333E+00  5.106662211906E+00  5.170896509742E+00
  5.235938775580E+00  5.301799172408E+00  5.368487991045E+00  5.436015651756E+00
  5.504392705875E+00  5.573629837456E+00  5.643737864941E+00  5.714727742852E+00
  5.786610563503E+00  5.859397558730E+00  5.933100101649E+00  6.007729708432E+00
  6.083298040108E+00  6.159816904382E+00  6.237298257482E+00  6.315754206027E+00
  6.395197008920E+00  6.475639079258E+00  6.557092986281E+00  6.639571457325E+00
  6.723087379821E+00  6.807653803301E+00  6.893283941440E+00  6.979991174122E+00
  7.067789049529E+00  7.156691286257E+00  7.246711775462E+00  7.337864583028E+00
  7.430163951766E+00  7.523624303642E+00  7.618260242024E+00  7.714086553972E+00
  7.811118212540E+00  7.909370379124E+00  8.008858405824E+00  8.109597837846E+00
  8.211604415933E+00  8.314894078819E+00  8.419482965724E+00  8.525387418875E+00
  8.632623986057E+00  8.741209423204E+00  8.851160697009E+00  8.962494987584E+00
  9.075229691138E+00  9.189382422697E+00  9.304971018858E+00  9.422013540575E+00
  9.540528275980E+00  9.660533743240E+00  9.782048693455E+00  9.905092113583E+00
  1.002968322941E+01  1.015584150855E+01  1.028358666349E+01  1.041293865467E+01
  1.054391769360E+01  1.067654424602E+01  1.081083903511E+01  1.094682304470E+01
  1.108451752256E+01  1.122394398374E+01  1.136512421390E+01  1.150808027275E+01
  1.165283449745E+01  1.179940950616E+01  1.194782820151E+01  1.209811377423E+01
  1.225028970674E+01  1.240437977684E+01  1.256040806143E+01  1.271839894023E+01
  1.287837709964E+01  1.304036753658E+01  1.320439556238E+01  1.337048680676E+01
  1.353866722180E+01  1.370896308604E+01  1.388140100856E+01  1.405600793313E+01
  1.423281114244E+01  1.441183826235E+01  1.459311726622E+01  1.477667647925E+01
  1.496254458294E+01  1.515075061957E+01  1.534132399671E+01  1.553429449184E+01
  1.572969225700E+01  1.592754782347E+01  1.612789210660E+01  1.633075641058E+01
  1.653617243338E+01  1.674417227167E+01  1.695478842585E+01  1.716805380512E+01
  1.738400173262E+01  1.760266595067E+01  1.782408062598E+01  1.804828035506E+01
  1.827530016957E+01  1.850517554181E+01  1.873794239028E+01  1.897363708528E+01
  1.921229645458E+01  1.945395778918E+01  1.969865884918E+01  1.994643786960E+01
</grid-data>
</grid>
<valence-charge total-charge="11">
<radfunc>
<data>
  3.764792031239E-02  3.764840491757E-02  3.765021611194E-02  3.765461287809E-02
  3.766337712656E-02  3.767941554073E-02  3.770698478819E-02  3.775214370170E-02
  3.781884279535E-02  3.791843678878E-02  3.805947481024E-02  3.824806007352E-02
  3.848503539355E-02  3.881806725621E-02  3.920936812861E-02  3.973374832510E-02
  4.030473487156E-02  4.103367737814E-02  4.196425836584E-02  4.315213076332E-02
  4.433467419871E-02  4.577176788119E-02  4.751780278929E-02  4.963859147559E-02
  5.221369036818E-02  5.450023609522E-02  5.714362963418E-02  6.019868893129E-02
  6.372840725785E-02  6.780510856320E-02  7.251174968013E-02  7.794338373346E-02
  8.420879928709E-02  9.143234952021E-02  9.975598488930E-02  1.093415011119E-01
  1.165228119826E-01  1.244068845885E-01  1.330596499089E-01  1.425527590366E-01
  1.529640032527E-01  1.643777520126E-01  1.768854071258E-01  1.905858707854E-01
  2.055860243646E-01  2.220012140317E-01  2.399557382336E-01  2.595833309384E-01
  2.810276332036E-01  3.044426441204E-01  3.299931404776E-01  3.578550525605E-01
  3.882157813541E-01  4.212744400391E-01  4.572420000506E-01  4.963413191202E-01
  5.388070256506E-01  5.848852304928E-01  6.348330337579E-01  6.889177907330E-01
  7.474160973657E-01  8.106124522264E-01  8.787975484699E-01  9.522661462650E-01
  9.910743537681E-01  1.031314473627E+00  1.073023251226E+00  1.116237101821E+00
  1.160991980327E+00  1.207323240784E+00  1.255265485100E+00  1.304852400691E+00
  1.356116586669E+00  1.409089368231E+00  1.463800598972E+00  1.520278450859E+00
  1.578549191662E+00  1.638636949699E+00  1.700563465799E+00  1.764347832491E+00
  1.830006220473E+00  1.897551592542E+00  1.966993405251E+00  2.038337298686E+00
  2.111584774863E+00  2.186732865423E+00  2.263773789405E+00  2.342694602099E+00
  2.423476836095E+00  2.506096135897E+00  2.590521887626E+00  2.676716845580E+00
  2.764636757636E+00  2.854229991705E+00  2.945437165730E+00  3.038190783933E+00
  3.132414882317E+00  3.228024686656E+00  3.324926286517E+00  3.423016329087E+00
  3.522181736864E+00  3.622299453516E+00  3.723236222456E+00  3.824848402906E+00
  3.926981828420E+00  4.029471713023E+00  4.132142610239E+00  4.234808430399E+00
  4.337272521667E+00  4.439327820200E+00  4.540757074816E+00  4.641333151377E+00
  4.740819421899E+00  4.838970243091E+00  4.935531528623E+00  5.030241418942E+00
  5.122831051842E+00  5.213025436307E+00  5.300544431291E+00  5.385103830190E+00
  5.466416550700E+00  5.544193928570E+00  5.618147112504E+00  5.687988556068E+00
  5.753433600983E+00  5.814202144630E+00  5.870020382974E+00  5.920622618422E+00
  5.965753120462E+00  6.005168025224E+00  6.038637258441E+00  6.065946464700E+00
  6.086898924382E+00  6.101317438317E+00  6.109046159020E+00  6.109952346392E+00
  6.103928025084E+00  6.090891520289E+00  6.070788848691E+00  6.043594941538E+00
  6.009314677554E+00  5.967983704472E+00  5.919669029515E+00  5.864469361179E+00
  5.802515187030E+00  5.733968575140E+00  5.659022689987E+00  5.577901017293E+00
  5.490856296190E+00  5.398169161277E+00  5.300146501503E+00  5.197119547285E+00
  5.089441701729E+00  4.977486136196E+00  4.861643174683E+00  4.742317495361E+00
  4.619925181135E+00  4.494890654111E+00  4.367643531301E+00  4.238615440696E+00
  4.108236837902E+00  3.976933863866E+00  3.845125283767E+00  3.713219545872E+00
  3.581611997169E+00  3.450682289820E+00  3.320792009077E+00  3.192282549299E+00
  3.065473260214E+00  2.940659880721E+00  2.818113272403E+00  2.698078459679E+00
  2.580773978326E+00  2.466391528986E+00  2.355095927478E+00  2.247025339275E+00
  2.142291781529E+00  2.040981872608E+00  1.943157806275E+00  1.848858524371E+00
  1.758101066631E+00  1.670882058504E+00  1.587179326791E+00  1.506953595604E+00
  1.430150251589E+00  1.356701145832E+00  1.286526409688E+00  1.219536262174E+00
  1.155632788376E+00  1.094711670131E+00  1.036663852045E+00  9.813771274711E-01
  9.287376305056E-01  8.786312211724E-01  8.309447518393E-01  7.855672035135E-01
  7.423906810361E-01  7.013112564148E-01  6.622296496930E-01  6.250517369528E-01
  5.896888756426E-01  5.560580364547E-01  5.240817363874E-01  4.936877694805E-01
  4.648086614708E-01  4.373811222926E-01  4.113449849217E-01  3.866424049025E-01
  3.632176043478E-01  3.410168013533E-01  3.199881419905E-01  3.000816157799E-01
  2.812489592386E-01  2.634435522051E-01  2.466203116752E-01  2.307355878147E-01
  2.157470666730E-01  2.016136839114E-01  1.882955536266E-01  1.757539160938E-01
  1.639511080198E-01  1.528505586759E-01  1.424168150854E-01  1.326155992524E-01
  1.234138962296E-01  1.147800417041E-01  1.066837339499E-01  9.909597811360E-02
  9.198906411261E-02  8.533652501480E-02  7.911309849588E-02  7.329468836880E-02
  6.785832621878E-02  6.278213105494E-02  5.804527563674E-02  5.362793950106E-02
  4.951128372863E-02  4.567741137249E-02  4.210932329402E-02  3.879088277336E-02
  3.570678221503E-02  3.284251008165E-02  3.018431829249E-02  2.771919025120E-02
  2.543480961527E-02  2.331952988253E-02  2.136234484325E-02  1.955285992716E-02
  1.788126446067E-02  1.633830483945E-02  1.491525861403E-02  1.360390948053E-02
  1.239652316473E-02  1.128582418447E-02  1.026497347342E-02  9.327546847379E-03
  8.467514293422E-03  7.679220061187E-03  6.957363535277E-03  6.296980867422E-03
  5.693427346986E-03  5.142360488500E-03  4.639723815075E-03  4.181731316843E-03
  3.764852563937E-03  3.385798453916E-03  3.041507574012E-03  2.729133159015E-03
  2.446030626139E-03  2.189745668655E-03  1.958002890594E-03  1.748694965278E-03
  1.559872300899E-03  1.389733196798E-03  1.236614474502E-03  1.098982567986E-03
  9.754250579534E-04  8.646426352977E-04  7.654414791951E-04  6.767260355769E-04
  5.974921819881E-04  5.268207650878E-04  4.638714972678E-04  4.078771990867E-04
  3.581383744082E-04  3.140181053309E-04  2.749372541780E-04  2.403699600002E-04
  2.098394172255E-04  1.829139242745E-04  1.592031901472E-04  1.383548871828E-04
  1.200514383966E-04  1.040070280104E-04  8.996482401666E-05  7.769440185220E-05
  6.698935850255E-05  5.766510662107E-05  4.955683851676E-05  4.251765015035E-05
  3.641681557423E-05  3.113820255859E-05  2.657882046305E-05  2.264749173849E-05
  1.926363877666E-05  1.635617816409E-05  1.386251474001E-05  1.172762820476E-05
  9.903245372331E-06  8.347091509019E-06  7.022214545428E-06  5.896376292357E-06
  4.941505128974E-06  4.133204964029E-06  3.450315595892E-06  2.874519913923E-06
  2.389993691105E-06  1.983094015019E-06  1.642082690415E-06  1.356881221162E-06
  1.118854241734E-06  9.206185182296E-07  7.558748759315E-07  6.192606344941E-07
  5.062203429087E-07  4.128928045040E-07  3.360125675606E-07  2.728242298681E-07
  2.210080660324E-07  1.786156349287E-07  1.440141618020E-07  1.158386156143E-07
  9.295051782008E-08  7.440262435477E-08  5.940871878477E-08  4.731784185314E-08
  3.759236162471E-08  2.978935964962E-08  2.354487257841E-08  1.856058601877E-08
  1.459262865068E-08  1.144216022126E-08  8.947487509662E-09  6.977478149639E-09
  5.426073759606E-09  4.207731569443E-09  3.253648034011E-09  2.508639143173E-09
  1.928570607507E-09  1.478247122328E-09  1.129683768652E-09  8.606945523383E-10
  6.537433423234E-10  4.950112535642E-10  3.736420172176E-10  2.811332570942E-10
  2.108469967748E-10  1.576172884094E-10  1.174366991404E-10  8.720661727878E-11
  6.453903804407E-11  4.759973658432E-11  3.498460255476E-11  2.562245496118E-11
  1.869892930997E-11  1.359707515976E-11  9.851158389807E-12  7.110860771529E-12
  5.113636783506E-12  3.663446870767E-12  2.614456709493E-12  1.858589568739E-12
  1.316056963575E-12  9.281825981649E-13  6.519853052009E-13  4.561058777205E-13
</data>
</radfunc>
</valence-charge>
<semilocal-potentials set="scalar_relativistic">
<slps n="6" l="s" rc="2.98333448691" flavor="Troullier-Martins">
<radfunc>
<data>
 -6.925014665912E+00 -6.925013817560E+00 -6.925010768286E+00 -6.925003709388E+00
 -6.924990146405E+00 -6.924965941399E+00 -6.924925042680E+00 -6.924858862559E+00
 -6.924761988147E+00 -6.924618372609E+00 -6.924416289516E+00 -6.924147723386E+00
 -6.923812315631E+00 -6.923344226280E+00 -6.922798579786E+00 -6.922074106966E+00
 -6.921293485954E+00 -6.920308747401E+00 -6.919069955944E+00 -6.917517025969E+00
 -6.916001033352E+00 -6.914196793409E+00 -6.912057680411E+00 -6.909532543073E+00
 -6.906566245614E+00 -6.904017044316E+00 -6.901161573658E+00 -6.897974141987E+00
 -6.894429101598E+00 -6.890501217601E+00 -6.886166030715E+00 -6.881400193531E+00
 -6.876181761325E+00 -6.870490422301E+00 -6.864307657710E+00 -6.857616828898E+00
 -6.852866661819E+00 -6.847880192276E+00 -6.842653870253E+00 -6.837184487856E+00
 -6.831469162967E+00 -6.825505321706E+00 -6.819290680635E+00 -6.812823229547E+00
 -6.806101215571E+00 -6.799123129213E+00 -6.791887692816E+00 -6.784393851786E+00
 -6.776640768805E+00 -6.768627821138E+00 -6.760354601024E+00 -6.751820919039E+00
 -6.743026810235E+00 -6.733972542778E+00 -6.724658628733E+00 -6.715085836588E+00
 -6.705255205045E+00 -6.695168057538E+00 -6.684826016921E+00 -6.674231019674E+00
 -6.663385328961E+00 -6.652291545792E+00 -6.640952617537E+00 -6.629371842941E+00
 -6.623491890470E+00 -6.617552872792E+00 -6.611555300516E+00 -6.605499705347E+00
 -6.599386639601E+00 -6.593216675581E+00 -6.586990404848E+00 -6.580708437343E+00
 -6.574371400382E+00 -6.567979937494E+00 -6.561534707120E+00 -6.555036381139E+00
 -6.548485643245E+00 -6.541883187143E+00 -6.535229714582E+00 -6.528525933207E+00
 -6.521772554234E+00 -6.514970289949E+00 -6.508119851021E+00 -6.501221943640E+00
 -6.494277266483E+00 -6.487286507497E+00 -6.480250340533E+00 -6.473169421804E+00
 -6.466044386214E+00 -6.458875843537E+00 -6.451664374488E+00 -6.444410526685E+00
 -6.437114810535E+00 -6.429777695057E+00 -6.422399603681E+00 -6.414998688316E+00
 -6.407515131887E+00 -6.399991285459E+00 -6.392427391207E+00 -6.384823626169E+00
 -6.377180098600E+00 -6.369496844588E+00 -6.361773824965E+00 -6.354010922606E+00
 -6.346207940142E+00 -6.338364598173E+00 -6.330480534051E+00 -6.322555301284E+00
 -6.314588369649E+00 -6.306579126084E+00 -6.298526876418E+00 -6.290430848033E+00
 -6.282290193497E+00 -6.274103995272E+00 -6.265871271520E+00 -6.257590983097E+00
 -6.249262041764E+00 -6.240883319662E+00 -6.232453660079E+00 -6.223971889534E+00
 -6.215436831165E+00 -6.206847319425E+00 -6.198202216032E+00 -6.189500427139E+00
 -6.180740921627E+00 -6.171922750432E+00 -6.163045066753E+00 -6.154107147002E+00
 -6.145108412277E+00 -6.136048450141E+00 -6.126927036433E+00 -6.117744156804E+00
 -6.108500027646E+00 -6.099195116006E+00 -6.089830158090E+00 -6.080406175869E+00
 -6.070924491294E+00 -6.061386737581E+00 -6.051794866983E+00 -6.042151154440E+00
 -6.032458196480E+00 -6.022718904684E+00 -6.012936493055E+00 -6.003114458577E+00
 -5.993256554266E+00 -5.983366754008E+00 -5.973449208490E+00 -5.963508191550E+00
 -5.953548036290E+00 -5.943573060366E+00 -5.933587479879E+00 -5.923595311391E+00
 -5.913600261658E+00 -5.903605604747E+00 -5.893614046338E+00 -5.883627575115E+00
 -5.873647301284E+00 -5.863673282439E+00 -5.853704337115E+00 -5.843737846616E+00
 -5.833769545850E+00 -5.823793304179E+00 -5.813800897494E+00 -5.803781773004E+00
 -5.793722808512E+00 -5.783608068221E+00 -5.773418557479E+00 -5.763131979150E+00
 -5.752722494705E+00 -5.742117194085E+00 -5.731336927759E+00 -5.720333367391E+00
 -5.709064461072E+00 -5.697483623972E+00 -5.685539613174E+00 -5.673176439694E+00
 -5.660333323922E+00 -5.646944701051E+00 -5.632940283395E+00 -5.618245186700E+00
 -5.602780127749E+00 -5.586461700622E+00 -5.569202738932E+00 -5.550912771144E+00
 -5.531498575767E+00 -5.510864842626E+00 -5.488914945660E+00 -5.465551831684E+00
 -5.440679028240E+00 -5.414201772092E+00 -5.386028258003E+00 -5.356071005194E+00
 -5.324248336312E+00 -5.290485960822E+00 -5.254718651513E+00 -5.216891999242E+00
 -5.176964227289E+00 -5.134908042657E+00 -5.090712497514E+00 -5.044384829742E+00
 -4.995952247323E+00 -4.945463617156E+00 -4.892991014847E+00 -4.838631088185E+00
 -4.782506183333E+00 -4.724765179039E+00 -4.665584030086E+00 -4.605165504064E+00
 -4.543738822469E+00 -4.481557893637E+00 -4.418899029877E+00 -4.356057632781E+00
 -4.293343750203E+00 -4.231076313947E+00 -4.169575828174E+00 -4.109155229045E+00
 -4.050108575254E+00 -3.992697156029E+00 -3.937132518148E+00 -3.883555818013E+00
 -3.832012801824E+00 -3.782423610561E+00 -3.734546501540E+00 -3.687934477128E+00
 -3.642037166213E+00 -3.596719350840E+00 -3.551972888135E+00 -3.507789826320E+00
 -3.464162389915E+00 -3.421082971491E+00 -3.378544123914E+00 -3.336538553040E+00
 -3.295059110855E+00 -3.254098789025E+00 -3.213650712848E+00 -3.173708135580E+00
 -3.134238372573E+00 -3.095272305227E+00 -3.056799788182E+00 -3.018811902189E+00
 -2.981300636393E+00 -2.944258655185E+00 -2.907679127799E+00 -2.871555604275E+00
 -2.835881925516E+00 -2.800652158300E+00 -2.765860548475E+00 -2.731501487349E+00
 -2.697569487595E+00 -2.664059165990E+00 -2.630965231056E+00 -2.598282474170E+00
 -2.566005763141E+00 -2.534130037530E+00 -2.502650305182E+00 -2.471561639614E+00
 -2.440859177999E+00 -2.410538119557E+00 -2.380593724234E+00 -2.351021311583E+00
 -2.321816259768E+00 -2.292974004683E+00 -2.264490039118E+00 -2.236359911987E+00
 -2.208579227581E+00 -2.181143644852E+00 -2.154048876714E+00 -2.127290689361E+00
 -2.100864901595E+00 -2.074767384169E+00 -2.048994059138E+00 -2.023540899220E+00
 -1.998403927166E+00 -1.973579215134E+00 -1.949062884080E+00 -1.924851103148E+00
 -1.900940089073E+00 -1.877326105586E+00 -1.854005462835E+00 -1.830974516807E+00
 -1.808229668755E+00 -1.785767364640E+00 -1.763584094573E+00 -1.741676392267E+00
 -1.720040834498E+00 -1.698674040564E+00 -1.677572671764E+00 -1.656733430870E+00
 -1.636153061615E+00 -1.615828348185E+00 -1.595756114712E+00 -1.575933224784E+00
 -1.556356580950E+00 -1.537023124237E+00 -1.517929833673E+00 -1.499073725814E+00
 -1.480451854280E+00 -1.462061309292E+00 -1.443899217215E+00 -1.425962740117E+00
 -1.408249075317E+00 -1.390755454952E+00 -1.373479145542E+00 -1.356417447566E+00
 -1.339567695036E+00 -1.322927255083E+00 -1.306493527546E+00 -1.290263944562E+00
 -1.274235970172E+00 -1.258407099915E+00 -1.242774860445E+00 -1.227336809141E+00
 -1.212090533724E+00 -1.197033651884E+00 -1.182163810903E+00 -1.167478687292E+00
 -1.152975986424E+00 -1.138653442176E+00 -1.124508816579E+00 -1.110539899464E+00
 -1.096744508116E+00 -1.083120486938E+00 -1.069665707108E+00 -1.056378066250E+00
 -1.043255488108E+00 -1.030295922212E+00 -1.017497343571E+00 -1.004857752344E+00
 -9.923751735348E-01 -9.800476566826E-01 -9.678732755551E-01 -9.558501278487E-01
 -9.439763348911E-01 -9.322500413480E-01 -9.206694149325E-01 -9.092326461197E-01
 -8.979379478632E-01 -8.867835553160E-01 -8.757677255550E-01 -8.648887373085E-01
 -8.541448906870E-01 -8.435345069180E-01 -8.330559280834E-01 -8.227075168604E-01
 -8.124876562657E-01 -8.023947494031E-01 -7.924272192134E-01 -7.825835082286E-01
 -7.728620783281E-01 -7.632614104984E-01 -7.537800045960E-01 -7.444163791126E-01
 -7.351690709440E-01 -7.260366351612E-01 -7.170176447845E-01 -7.081106905611E-01
 -6.993143807443E-01 -6.906273408761E-01 -6.820482135728E-01 -6.735756583125E-01
 -6.652083512260E-01 -6.569449848893E-01 -6.487842681203E-01 -6.407249257759E-01
 -6.327656985537E-01 -6.249053427946E-01 -6.171426302889E-01 -6.094763480841E-01
 -6.019052982953E-01 -5.944282979184E-01 -5.870441786449E-01 -5.797517866795E-01
 -5.725499825597E-01 -5.654376409779E-01 -5.584136506054E-01 -5.514769139189E-01
</data>
</radfunc>
</slps>
<slps n="6" l="p" rc="2.98333448691" flavor="Troullier-Martins">
<radfunc>
<data>
 -7.019994026230E+00 -7.019993177832E+00 -7.019990127817E+00 -7.019983065570E+00
 -7.019969493614E+00 -7.019945269417E+00 -7.019904334541E+00 -7.019838091646E+00
 -7.019741120888E+00 -7.019597357562E+00 -7.019395060960E+00 -7.019126204993E+00
 -7.018790428764E+00 -7.018321816465E+00 -7.017775550374E+00 -7.017050241126E+00
 -7.016268703465E+00 -7.015282787865E+00 -7.014042485007E+00 -7.012487614318E+00
 -7.010969679187E+00 -7.009163066651E+00 -7.007021055785E+00 -7.004492379040E+00
 -7.001521758646E+00 -6.998968698014E+00 -6.996108743590E+00 -6.992916102721E+00
 -6.989365010375E+00 -6.985430095368E+00 -6.981086740097E+00 -6.976311413243E+00
 -6.971081956460E+00 -6.965377809813E+00 -6.959180166342E+00 -6.952472052633E+00
 -6.947708836090E+00 -6.942707945932E+00 -6.937465688178E+00 -6.931978695878E+00
 -6.926243911179E+00 -6.920258566050E+00 -6.914020162559E+00 -6.907526453536E+00
 -6.900775424330E+00 -6.893765276270E+00 -6.886494412254E+00 -6.878961424833E+00
 -6.871165086936E+00 -6.863104345346E+00 -6.854778316853E+00 -6.846186286946E+00
 -6.837327710809E+00 -6.828202216276E+00 -6.818809608368E+00 -6.809149874922E+00
 -6.799223192784E+00 -6.789029933972E+00 -6.778570671160E+00 -6.767846181748E+00
 -6.756857449784E+00 -6.745605664878E+00 -6.734092217246E+00 -6.722318687947E+00
 -6.716334935241E+00 -6.710286833317E+00 -6.704174625437E+00 -6.697998562598E+00
 -6.691758902383E+00 -6.685455907671E+00 -6.679089845180E+00 -6.672660983853E+00
 -6.666169593064E+00 -6.659615940652E+00 -6.653000290755E+00 -6.646322901458E+00
 -6.639584022233E+00 -6.632783891169E+00 -6.625922731993E+00 -6.619000750866E+00
 -6.612018132961E+00 -6.604975038809E+00 -6.597871600425E+00 -6.590707917205E+00
 -6.583484051587E+00 -6.576200024508E+00 -6.568855810623E+00 -6.561451333328E+00
 -6.553986459574E+00 -6.546460994491E+00 -6.538874675839E+00 -6.531227168298E+00
 -6.523518057625E+00 -6.515746844688E+00 -6.507912939419E+00 -6.500033432986E+00
 -6.492047398365E+00 -6.483996025461E+00 -6.475878342007E+00 -6.467693255207E+00
 -6.459439545923E+00 -6.451115863082E+00 -6.442720718345E+00 -6.434252481111E+00
 -6.425709373924E+00 -6.417089468345E+00 -6.408390681378E+00 -6.399610772516E+00
 -6.390747341497E+00 -6.381797826852E+00 -6.372759505325E+00 -6.363629492259E+00
 -6.354404743032E+00 -6.345082055623E+00 -6.335658074405E+00 -6.326129295229E+00
 -6.316492071890E+00 -6.306742624040E+00 -6.296877046603E+00 -6.286891320760E+00
 -6.276781326540E+00 -6.266542857039E+00 -6.256171634300E+00 -6.245663326839E+00
 -6.235013568796E+00 -6.224217980683E+00 -6.213272191653E+00 -6.202171863209E+00
 -6.190912714233E+00 -6.179490547202E+00 -6.167901275410E+00 -6.156140950999E+00
 -6.144205793566E+00 -6.132092219075E+00 -6.119796868790E+00 -6.107316637877E+00
 -6.094648703341E+00 -6.081790550888E+00 -6.068740000299E+00 -6.055495228884E+00
 -6.042054792527E+00 -6.028417643863E+00 -6.014583147064E+00 -6.000551088744E+00
 -5.986321684458E+00 -5.971895580282E+00 -5.957273848979E+00 -5.942457980253E+00
 -5.927449864627E+00 -5.912251770507E+00 -5.896866314024E+00 -5.881296421311E+00
 -5.865545282890E+00 -5.849616299949E+00 -5.833513022298E+00 -5.817239077935E+00
 -5.800798094163E+00 -5.784193610352E+00 -5.767428982472E+00 -5.750507279673E+00
 -5.733431173246E+00 -5.716202818451E+00 -5.698823729753E+00 -5.681294650182E+00
 -5.663615415604E+00 -5.645784814833E+00 -5.627800446630E+00 -5.609658574769E+00
 -5.591353982469E+00 -5.572836528250E+00 -5.554152054383E+00 -5.535279511823E+00
 -5.516206464811E+00 -5.496918312934E+00 -5.477398176118E+00 -5.457626791966E+00
 -5.437582427914E+00 -5.417240810753E+00 -5.396575076259E+00 -5.375555741775E+00
 -5.354150704727E+00 -5.332325270166E+00 -5.310042210512E+00 -5.287261860754E+00
 -5.263942252407E+00 -5.240039289509E+00 -5.215506969931E+00 -5.190297655167E+00
 -5.164362391631E+00 -5.137651286267E+00 -5.110113938991E+00 -5.081699934103E+00
 -5.052359392339E+00 -5.022043584658E+00 -4.990705608189E+00 -4.958301123973E+00
 -4.924789155250E+00 -4.890132944015E+00 -4.854300862485E+00 -4.817267374876E+00
 -4.779014043581E+00 -4.739530572419E+00 -4.698815878136E+00 -4.656879179666E+00
 -4.613741093027E+00 -4.569434717677E+00 -4.524006757787E+00 -4.477518206443E+00
 -4.430045350054E+00 -4.381679829787E+00 -4.332528706586E+00 -4.282714074878E+00
 -4.232372199986E+00 -4.181652074277E+00 -4.130713267756E+00 -4.079722925041E+00
 -4.028851731955E+00 -3.978268640420E+00 -3.928134099214E+00 -3.878591489745E+00
 -3.829756409838E+00 -3.781703384383E+00 -3.734449509382E+00 -3.687934455301E+00
 -3.642037166213E+00 -3.596719350840E+00 -3.551972888135E+00 -3.507789826320E+00
 -3.464162389915E+00 -3.421082971491E+00 -3.378544123914E+00 -3.336538553040E+00
 -3.295059110855E+00 -3.254098789025E+00 -3.213650712848E+00 -3.173708135580E+00