Al    ONCVPSP  r_core=  1.77  1.77  1.71
     13.0000      3.0000      150709    zatom,zion,pspd
     8      11   2     4   600     0    pspcod,pspxc,lmax,lloc,mmax,r2well
  5.99000000  0.65000000  0.00000000    rchrg fchrg qchrg
     2     2     2     0     0    nproj
     1                 extension_switch
   0                         5.1906631078161D+00  7.4180790069031D-01
     1  0.0000000000000D+00 -1.3011139943231D-09  2.8257475491456D-09
     2  1.0000000000000D-02  1.9597440986826D-02 -2.5036882763002D-03
     3  2.0000000000000D-02  3.9107246340395D-02 -4.8090423306848D-03
     4  3.0000000000000D-02  5.8443345258797D-02 -6.7211792569672D-03
     5  4.0000000000000D-02  7.7522772933512D-02 -8.0520672819515D-03
     6  5.0000000000000D-02  9.6267164709743D-02 -8.6238233174327D-03
     7  6.0000000000000D-02  1.1460418058173D-01 -8.2718589333002D-03
     8  7.0000000000000D-02  1.3246883835178D-01 -6.8478275925422D-03
     9  8.0000000000000D-02  1.4980473508279D-01 -4.2223288146997D-03
    10  9.0000000000000D-02  1.6656513806625D-01 -2.8732839204038D-04
    11  1.0000000000000D-01  1.8271392838857D-01  5.0417421756891D-03
    12  1.1000000000000D-01  1.9822638228249D-01  1.1824239292953D-02
    13  1.2000000000000D-01  2.1308977776782D-01  2.0092941158417D-02
    14  1.3000000000000D-01  2.2730381658451D-01  2.9853083738254D-02
    15  1.4000000000000D-01  2.4088085406652D-01  4.1081814882758D-02
    16  1.5000000000000D-01  2.5384593235947D-01  5.3728076663289D-02
    17  1.6000000000000D-01  2.6623661521150D-01  6.7712919869136D-02
    18  1.7000000000000D-01  2.7810262542377D-01  8.2930248397966D-02
    19  1.8000000000000D-01  2.8950528889665D-01  9.9247985085593D-02
    20  1.9000000000000D-01  3.0051679200816D-01  1.1650964443796D-01
    21  2.0000000000000D-01  3.1121926177459D-01  1.3453629183562D-01
    22  2.1000000000000D-01  3.2170368083078D-01  1.5312886316128D-01
    23  2.2000000000000D-01  3.3206865169246D-01  1.7207081353365D-01
    24  2.3000000000000D-01  3.4241902699210D-01  1.9113105899050D-01
    25  2.4000000000000D-01  3.5286442438030D-01  2.1006717061763D-01
    26  2.5000000000000D-01  3.6351764652860D-01  2.2862877683320D-01
    27  2.6000000000000D-01  3.7449302813240D-01  2.4656112635903D-01
    28  2.7000000000000D-01  3.8590473297224D-01  2.6360876189132D-01
    29  2.8000000000000D-01  3.9786502493176D-01  2.7951925265780D-01
    30  2.9000000000000D-01  4.1048253737849D-01  2.9404693294400D-01
    31  3.0000000000000D-01  4.2386056548088D-01  3.0695659330652D-01
    32  3.1000000000000D-01  4.3809540585892D-01  3.1802707157207D-01
    33  3.2000000000000D-01  4.5327476744679D-01  3.2705469184523D-01
    34  3.3000000000000D-01  4.6947627659163D-01  3.3385650160158D-01
    35  3.4000000000000D-01  4.8676609823216D-01  3.3827325950301D-01
    36  3.5000000000000D-01  5.0519769351082D-01  3.4017212980484D-01
    37  3.6000000000000D-01  5.2481073239266D-01  3.3944904308790D-01
    38  3.7000000000000D-01  5.4563017781686D-01  3.3603068749043D-01
    39  3.8000000000000D-01  5.6766555562013D-01  3.2987609957633D-01
    40  3.9000000000000D-01  5.9091042197653D-01  3.2097782938943D-01
    41  4.0000000000000D-01  6.1534203742799D-01  3.0936266003631D-01
    42  4.1000000000000D-01  6.4092125377215D-01  2.9509186823239D-01
    43  4.2000000000000D-01  6.6759261716564D-01  2.7826101855553D-01
    44  4.3000000000000D-01  6.9528468783223D-01  2.5899929059162D-01
    45  4.4000000000000D-01  7.2391057377701D-01  2.3746834463822D-01
    46  4.5000000000000D-01  7.5336867294139D-01  2.1386073806704D-01
    47  4.6000000000000D-01  7.8354361532929D-01  1.8839791074438D-01
    48  4.7000000000000D-01  8.1430739383355D-01  1.6132776398287D-01
    49  4.8000000000000D-01  8.4552066983268D-01  1.3292186326344D-01
    50  4.9000000000000D-01  8.7703423714670D-01  1.0347230034399D-01
    51  5.0000000000000D-01  9.0869062567560D-01  7.3288255280703D-02
    52  5.1000000000000D-01  9.4032582402226D-01  4.2692303267320D-02
    53  5.2000000000000D-01  9.7177109865668D-01  1.2016514975811D-02
    54  5.3000000000000D-01  1.0028548857329D+00 -1.8401597790787D-02
    55  5.4000000000000D-01  1.0334047305453D+00 -4.8223236891030D-02
    56  5.5000000000000D-01  1.0632492488243D+00 -7.7112517146877D-02
    57  5.6000000000000D-01  1.0922200836377D+00 -1.0474065328301D-01
    58  5.7000000000000D-01  1.1201538315824D+00 -1.3079007747662D-01
    59  5.8000000000000D-01  1.1468939122390D+00 -1.5495843111458D-01
    60  5.9000000000000D-01  1.1722923554995D+00 -1.7696237576559D-01
    61  6.0000000000000D-01  1.1962114823739D+00 -1.9654117053476D-01
    62  6.1000000000000D-01  1.2185254562152D+00 -2.1345996588941D-01
    63  6.2000000000000D-01  1.2391216829546D+00 -2.2751276763141D-01
    64  6.3000000000000D-01  1.2579020409047D+00 -2.3852502897845D-01
    65  6.4000000000000D-01  1.2747839229175D+00 -2.4635583356551D-01
    66  6.5000000000000D-01  1.2897010761684D+00 -2.5089963758025D-01
    67  6.6000000000000D-01  1.3026042275429D+00 -2.5208754513021D-01
    68  6.7000000000000D-01  1.3134614854747D+00 -2.4988809718311D-01
    69  6.8000000000000D-01  1.3222585121032D+00 -2.4430756098660D-01
    70  6.9000000000000D-01  1.3289984627482D+00 -2.3538971367134D-01
    71  7.0000000000000D-01  1.3337016928737D+00 -2.2321512064293D-01
    72  7.1000000000000D-01  1.3364052359092D+00 -2.0789991630730D-01
    73  7.2000000000000D-01  1.3371620584680D+00 -1.8959410156583D-01
    74  7.3000000000000D-01  1.3360401026041D+00 -1.6847937925074D-01
    75  7.4000000000000D-01  1.3331211277312D+00 -1.4476655514548D-01
    76  7.5000000000000D-01  1.3284993676602D+00 -1.1869253838573D-01
    77  7.6000000000000D-01  1.3222800208554D+00 -9.0516980768909D-02
    78  7.7000000000000D-01  1.3145775944043D+00 -6.0518599703511D-02
    79  7.8000000000000D-01  1.3055141243579D+00 -2.8991234203277D-02
    80  7.9000000000000D-01  1.2952172969289D+00  3.7603126834986D-03
    81  8.0000000000000D-01  1.2838184965725D+00  3.7424588309915D-02
    82  8.1000000000000D-01  1.2714508081480D+00  7.1687902480411D-02
    83  8.2000000000000D-01  1.2582470011798D+00  1.0623877610144D-01
    84  8.3000000000000D-01  1.2443375246754D+00  1.4077236447761D-01
    85  8.4000000000000D-01  1.2298485410129D+00  1.7499479319395D-01
    86  8.5000000000000D-01  1.2149000270768D+00  2.0862734526543D-01
    87  8.6000000000000D-01  1.1996039700984D+00  2.4141043981817D-01
    88  8.7000000000000D-01  1.1840626845566D+00  2.7310734497536D-01
    89  8.8000000000000D-01  1.1683672750259D+00  3.0350757082926D-01
    90  8.9000000000000D-01  1.1525962680367D+00  3.3242989235324D-01
    91  9.0000000000000D-01  1.1368144338625D+00  3.5972495679337D-01
    92  9.1000000000000D-01  1.1210718166991D+00  3.8527743542440D-01
    93  9.2000000000000D-01  1.1054029889723D+00  4.0900768548994D-01
    94  9.3000000000000D-01  1.0898265425501D+00  4.3087289459883D-01
    95  9.4000000000000D-01  1.0743448264724D+00  4.5086768673543D-01
    96  9.5000000000000D-01  1.0589439374939D+00  4.6902417626147D-01
    97  9.6000000000000D-01  1.0435939662709D+00  4.8541146382685D-01
    98  9.7000000000000D-01  1.0282494985678D+00  5.0013457562957D-01
    99  9.8000000000000D-01  1.0128503672788D+00  5.1333285525024D-01
   100  9.9000000000000D-01  9.9732264755392D-01  5.2517782491536D-01
   101  1.0000000000000D+00  9.8157988389350D-01  5.3587054049379D-01
   102  1.0100000000000D+00  9.6552453473702D-01  5.4563847179418D-01
   103  1.0200000000000D+00  9.4904961691258D-01  5.5473194659545D-01
   104  1.0300000000000D+00  9.3204052930655D-01  5.6342020338544D-01
   105  1.0400000000000D+00  9.1437703250306D-01  5.7198710345404D-01
   106  1.0500000000000D+00  8.9593535859632D-01  5.8072655852276D-01
   107  1.0600000000000D+00  8.7659042330133D-01  5.8993773460691D-01
   108  1.0700000000000D+00  8.5621811074332D-01  5.9992009659732D-01
   109  1.0800000000000D+00  8.3469759988528D-01  6.1096836113425D-01
   110  1.0900000000000D+00  8.1191370061310D-01  6.2336742738419D-01
   111  1.1000000000000D+00  7.8775916684004D-01  6.3738735675563D-01
   112  1.1100000000000D+00  7.6213695388087D-01  6.5327847282508D-01
   113  1.1200000000000D+00  7.3496238761256D-01  6.7126665215964D-01
   114  1.1300000000000D+00  7.0616521380124D-01  6.9154887483832D-01
   115  1.1400000000000D+00  6.7569149670711D-01  7.1428910187781D-01
   116  1.1500000000000D+00  6.4350533809353D-01  7.3961454237873D-01
   117  1.1600000000000D+00  6.0959038946151D-01  7.6761236951725D-01
   118  1.1700000000000D+00  5.7395113295963D-01  7.9832693878300D-01
   119  1.1800000000000D+00  5.3661390830247D-01  8.3175755776456D-01
   120  1.1900000000000D+00  4.9762766707831D-01  8.6785684797318D-01
   121  1.2000000000000D+00  4.5706443882930D-01  9.0652973266228D-01
   122  1.2100000000000D+00  4.1501949604030D-01  9.4763307860859D-01
   123  1.2200000000000D+00  3.7161120967851D-01  9.9097601001575D-01
   124  1.2300000000000D+00  3.2698059108059D-01  1.0363209036630D+00
   125  1.2400000000000D+00  2.8129051937062D-01  1.0833850670531D+00
   126  1.2500000000000D+00  2.3472465694800D-01  1.1318430940131D+00
   127  1.2600000000000D+00  1.8748606177852D-01  1.1813298787269D+00
   128  1.2700000000000D+00  1.3979550776819D-01  1.2314442636419D+00
   129  1.2800000000000D+00  9.1889527080759D-02  1.2817532910745D+00
   130  1.2900000000000D+00  4.4018195535290D-02  1.3317970125171D+00
   131  1.3000000000000D+00 -3.5573169386283D-03  1.3810938078208D+00
   132  1.3100000000000D+00 -5.0567406078543D-02  1.4291461604849D+00
   133  1.3200000000000D+00 -9.6736872128500D-02  1.4754468212341D+00
   134  1.3300000000000D+00 -1.4178790757523D-01  1.5194852942551D+00
   135  1.3400000000000D+00 -1.8544319982480D-01  1.5607545722162D+00
   136  1.3500000000000D+00 -2.2742911175475D-01  1.5987580394413D+00
   137  1.3600000000000D+00 -2.6747890440572D-01  1.6330164655802D+00
   138  1.3700000000000D+00 -3.0533596222844D-01  1.6630750096264D+00
   139  1.3800000000000D+00 -3.4075698280482D-01  1.6885101152313D+00
   140  1.3900000000000D+00 -3.7351509001818D-01  1.7089362923401D+00
   141  1.4000000000000D+00 -4.0340283906111D-01  1.7240126183191D+00
   142  1.4100000000000D+00 -4.3023506157715D-01  1.7334489087499D+00
   143  1.4200000000000D+00 -4.5385151606504D-01  1.7370105357655D+00
   144  1.4300000000000D+00 -4.7411928036399D-01  1.7345225005217D+00
   145  1.4400000000000D+00 -4.9093468362476D-01  1.7258686251813D+00
   146  1.4500000000000D+00 -5.0422486936848D-01  1.7109909856142D+00
   147  1.4600000000000D+00 -5.1394892828308D-01  1.6898902955128D+00
   148  1.4700000000000D+00 -5.2009859279367D-01  1.6626248953890D+00
   149  1.4800000000000D+00 -5.2269851507936D-01  1.6293093025207D+00
   150  1.4900000000000D+00 -5.2180611335431D-01  1.5901126274940D+00
   151  1.5000000000000D+00 -5.1751104194429D-01  1.5452567684248D+00
   152  1.5100000000000D+00 -5.0993429026345D-01  1.4950146420420D+00
   153  1.5200000000000D+00 -4.9922696256188D-01  1.4397083658560D+00
   154  1.5300000000000D+00 -4.8556876027115D-01  1.3797074839668D+00
   155  1.5400000000000D+00 -4.6916620944912D-01  1.3154271330026D+00
   156  1.5500000000000D+00 -4.5025064814139D-01  1.2473260861958D+00
   157  1.5600000000000D+00 -4.2907601106134D-01  1.1759045287368D+00
   158  1.5700000000000D+00 -4.0591641297470D-01  1.1017015103416D+00
   159  1.5800000000000D+00 -3.8106355749735D-01  1.0252918251810D+00
   160  1.5900000000000D+00 -3.5482397680008D-01  9.4728242233957D-01
   161  1.6000000000000D+00 -3.2751610909815D-01  8.6830802187651D-01
   162  1.6100000000000D+00 -2.9946724044443D-01  7.8902618810794D-01
   163  1.6200000000000D+00 -2.7101030674742D-01  7.1011160168879D-01
   164  1.6300000000000D+00 -2.4248060018117D-01  6.3224981681974D-01
   165  1.6400000000000D+00 -2.1421238030969D-01  5.5613038262273D-01
   166  1.6500000000000D+00 -1.8653544416410D-01  4.8243960040896D-01
   167  1.6600000000000D+00 -1.5977166855205D-01  4.1185292203595D-01
   168  1.6700000000000D+00 -1.3423158144190D-01  3.4502721830970D-01
   169  1.6800000000000D+00 -1.1021098765839D-01  2.8259299968242D-01
   170  1.6900000000000D+00 -8.7987704142122D-02  2.2514677328391D-01
   171  1.7000000000000D+00 -6.7818437046912D-02  1.7324365145861D-01
   172  1.7100000000000D+00 -4.9943791349483D-02  1.2741062484658D-01
   173  1.7200000000000D+00 -3.4558594208012D-02  8.8071193650297D-02
   174  1.7300000000000D+00 -2.1783717323754D-02  5.5473994751284D-02
   175  1.7400000000000D+00 -1.1833491288894D-02  3.0119790244333D-02
   176  1.7500000000000D+00 -5.0361212119550D-03  1.2813013631951D-02
   177  1.7600000000000D+00 -1.2915226339764D-03  3.2817521541595D-03
   178  1.7700000000000D+00  1.7517722444170D-04 -4.5040246550726D-04
   179  1.7800000000000D+00  3.0273615039071D-04 -7.7249042351789D-04
   180  1.7900000000000D+00 -1.5804721518408D-05  4.0298174085031D-05
   181  1.8000000000000D+00 -1.0616334791157D-04  2.7058971321365D-04
   182  1.8100000000000D+00 -9.5945646306766D-06  2.4449662424267D-05
   183  1.8200000000000D+00  1.9319375372525D-05 -4.9293564562432D-05
   184  1.8300000000000D+00  6.3361444512236D-06 -1.6164756170210D-05
   185  1.8400000000000D+00 -5.5349252653162D-08  1.5394882461132D-07
   186  1.8500000000000D+00 -3.3623493307551D-08  9.3520635345531D-08
   187  1.8600000000000D+00  0.0000000000000D+00  0.0000000000000D+00
   188  1.8700000000000D+00  0.0000000000000D+00  0.0000000000000D+00
   189  1.8800000000000D+00  0.0000000000000D+00  0.0000000000000D+00
   190  1.8900000000000D+00  0.0000000000000D+00  0.0000000000000D+00
   191  1.9000000000000D+00  0.0000000000000D+00  0.0000000000000D+00
   192  1.9100000000000D+00  0.0000000000000D+00  0.0000000000000D+00
   193  1.9200000000000D+00  0.0000000000000D+00  0.0000000000000D+00
   194  1.9300000000000D+00  0.0000000000000D+00  0.0000000000000D+00
   195  1.9400000000000D+00  0.0000000000000D+00  0.0000000000000D+00
   196  1.9500000000000D+00  0.0000000000000D+00  0.0000000000000D+00
   197  1.9600000000000D+00  0.0000000000000D+00  0.0000000000000D+00
   198  1.9700000000000D+00  0.0000000000000D+00  0.0000000000000D+00
   199  1.9800000000000D+00  0.0000000000000D+00  0.0000000000000D+00
   200  1.9900000000000D+00  0.0000000000000D+00  0.0000000000000D+00
   201  2.0000000000000D+00  0.0000000000000D+00  0.0000000000000D+00
   202  2.0100000000000D+00  0.0000000000000D+00  0.0000000000000D+00
   203  2.0200000000000D+00  0.0000000000000D+00  0.0000000000000D+00
   204  2.0300000000000D+00  0.0000000000000D+00  0.0000000000000D+00
   205  2.0400000000000D+00  0.0000000000000D+00  0.0000000000000D+00
   206  2.0500000000000D+00  0.0000000000000D+00  0.0000000000000D+00
   207  2.0600000000000D+00  0.0000000000000D+00  0.0000000000000D+00
   208  2.0700000000000D+00  0.0000000000000D+00  0.0000000000000D+00
   209  2.0800000000000D+00  0.0000000000000D+00  0.0000000000000D+00
   210  2.0900000000000D+00  0.0000000000000D+00  0.0000000000000D+00
   211  2.1000000000000D+00  0.0000000000000D+00  0.0000000000000D+00
   212  2.1100000000000D+00  0.0000000000000D+00  0.0000000000000D+00
   213  2.1200000000000D+00  0.0000000000000D+00  0.0000000000000D+00
   214  2.1300000000000D+00  0.0000000000000D+00  0.0000000000000D+00
   215  2.1400000000000D+00  0.0000000000000D+00  0.0000000000000D+00
   216  2.1500000000000D+00  0.0000000000000D+00  0.0000000000000D+00
   217  2.1600000000000D+00  0.0000000000000D+00  0.0000000000000D+00
   218  2.1700000000000D+00  0.0000000000000D+00  0.0000000000000D+00
   219  2.1800000000000D+00  0.0000000000000D+00  0.0000000000000D+00
   220  2.1900000000000D+00  0.0000000000000D+00  0.0000000000000D+00
   221  2.2000000000000D+00  0.0000000000000D+00  0.0000000000000D+00
   222  2.2100000000000D+00  0.0000000000000D+00  0.0000000000000D+00
   223  2.2200000000000D+00  0.0000000000000D+00  0.0000000000000D+00
   224  2.2300000000000D+00  0.0000000000000D+00  0.0000000000000D+00
   225  2.2400000000000D+00  0.0000000000000D+00  0.0000000000000D+00
   226  2.2500000000000D+00  0.0000000000000D+00  0.0000000000000D+00
   227  2.2600000000000D+00  0.0000000000000D+00  0.0000000000000D+00
   228  2.2700000000000D+00  0.0000000000000D+00  0.0000000000000D+00
   229  2.2800000000000D+00  0.0000000000000D+00  0.0000000000000D+00
   230  2.2900000000000D+00  0.0000000000000D+00  0.0000000000000D+00
   231  2.3000000000000D+00  0.0000000000000D+00  0.0000000000000D+00
   232  2.3100000000000D+00  0.0000000000000D+00  0.0000000000000D+00
   233  2.3200000000000D+00  0.0000000000000D+00  0.0000000000000D+00
   234  2.3300000000000D+00  0.0000000000000D+00  0.0000000000000D+00
   235  2.3400000000000D+00  0.0000000000000D+00  0.0000000000000D+00
   236  2.3500000000000D+00  0.0000000000000D+00  0.0000000000000D+00
   237  2.3600000000000D+00  0.0000000000000D+00  0.0000000000000D+00
   238  2.3700000000000D+00  0.0000000000000D+00  0.0000000000000D+00
   239  2.3800000000000D+00  0.0000000000000D+00  0.0000000000000D+00
   240  2.3900000000000D+00  0.0000000000000D+00  0.0000000000000D+00
   241  2.4000000000000D+00  0.0000000000000D+00  0.0000000000000D+00
   242  2.4100000000000D+00  0.0000000000000D+00  0.0000000000000D+00
   243  2.4200000000000D+00  0.0000000000000D+00  0.0000000000000D+00
   244  2.4300000000000D+00  0.0000000000000D+00  0.0000000000000D+00
   245  2.4400000000000D+00  0.0000000000000D+00  0.0000000000000D+00
   246  2.4500000000000D+00  0.0000000000000D+00  0.0000000000000D+00
   247  2.4600000000000D+00  0.0000000000000D+00  0.0000000000000D+00
   248  2.4700000000000D+00  0.0000000000000D+00  0.0000000000000D+00
   249  2.4800000000000D+00  0.0000000000000D+00  0.0000000000000D+00
   250  2.4900000000000D+00  0.0000000000000D+00  0.0000000000000D+00
   251  2.5000000000000D+00  0.0000000000000D+00  0.0000000000000D+00
   252  2.5100000000000D+00  0.0000000000000D+00  0.0000000000000D+00
   253  2.5200000000000D+00  0.0000000000000D+00  0.0000000000000D+00
   254  2.5300000000000D+00  0.0000000000000D+00  0.0000000000000D+00
   255  2.5400000000000D+00  0.0000000000000D+00  0.0000000000000D+00
   256  2.5500000000000D+00  0.0000000000000D+00  0.0000000000000D+00
   257  2.5600000000000D+00  0.0000000000000D+00  0.0000000000000D+00
   258  2.5700000000000D+00  0.0000000000000D+00  0.0000000000000D+00
   259  2.5800000000000D+00  0.0000000000000D+00  0.0000000000000D+00
   260  2.5900000000000D+00  0.0000000000000D+00  0.0000000000000D+00
   261  2.6000000000000D+00  0.0000000000000D+00  0.0000000000000D+00
   262  2.6100000000000D+00  0.0000000000000D+00  0.0000000000000D+00
   263  2.6200000000000D+00  0.0000000000000D+00  0.0000000000000D+00
   264  2.6300000000000D+00  0.0000000000000D+00  0.0000000000000D+00
   265  2.6400000000000D+00  0.0000000000000D+00  0.0000000000000D+00
   266  2.6500000000000D+00  0.0000000000000D+00  0.0000000000000D+00
   267  2.6600000000000D+00  0.0000000000000D+00  0.0000000000000D+00
   268  2.6700000000000D+00  0.0000000000000D+00  0.0000000000000D+00
   269  2.6800000000000D+00  0.0000000000000D+00  0.0000000000000D+00
   270  2.6900000000000D+00  0.0000000000000D+00  0.0000000000000D+00
   271  2.7000000000000D+00  0.0000000000000D+00  0.0000000000000D+00
   272  2.7100000000000D+00  0.0000000000000D+00  0.0000000000000D+00
   273  2.7200000000000D+00  0.0000000000000D+00  0.0000000000000D+00
   274  2.7300000000000D+00  0.0000000000000D+00  0.0000000000000D+00
   275  2.7400000000000D+00  0.0000000000000D+00  0.0000000000000D+00
   276  2.7500000000000D+00  0.0000000000000D+00  0.0000000000000D+00
   277  2.7600000000000D+00  0.0000000000000D+00  0.0000000000000D+00
   278  2.7700000000000D+00  0.0000000000000D+00  0.0000000000000D+00
   279  2.7800000000000D+00  0.0000000000000D+00  0.0000000000000D+00
   280  2.7900000000000D+00  0.0000000000000D+00  0.0000000000000D+00
   281  2.8000000000000D+00  0.0000000000000D+00  0.0000000000000D+00
   282  2.8100000000000D+00  0.0000000000000D+00  0.0000000000000D+00
   283  2.8200000000000D+00  0.0000000000000D+00  0.0000000000000D+00
   284  2.8300000000000D+00  0.0000000000000D+00  0.0000000000000D+00
   285  2.8400000000000D+00  0.0000000000000D+00  0.0000000000000D+00
   286  2.8500000000000D+00  0.0000000000000D+00  0.0000000000000D+00
   287  2.8600000000000D+00  0.0000000000000D+00  0.0000000000000D+00
   288  2.8700000000000D+00  0.0000000000000D+00  0.0000000000000D+00
   289  2.8800000000000D+00  0.0000000000000D+00  0.0000000000000D+00
   290  2.8900000000000D+00  0.0000000000000D+00  0.0000000000000D+00
   291  2.9000000000000D+00  0.0000000000000D+00  0.0000000000000D+00
   292  2.9100000000000D+00  0.0000000000000D+00  0.0000000000000D+00
   293  2.9200000000000D+00  0.0000000000000D+00  0.0000000000000D+00
   294  2.9300000000000D+00  0.0000000000000D+00  0.0000000000000D+00
   295  2.9400000000000D+00  0.0000000000000D+00  0.0000000000000D+00
   296  2.9500000000000D+00  0.0000000000000D+00  0.0000000000000D+00
   297  2.9600000000000D+00  0.0000000000000D+00  0.0000000000000D+00
   298  2.9700000000000D+00  0.0000000000000D+00  0.0000000000000D+00
   299  2.9800000000000D+00  0.0000000000000D+00  0.0000000000000D+00
   300  2.9900000000000D+00  0.0000000000000D+00  0.0000000000000D+00
   301  3.0000000000000D+00  0.0000000000000D+00  0.0000000000000D+00
   302  3.0100000000000D+00  0.0000000000000D+00  0.0000000000000D+00
   303  3.0200000000000D+00  0.0000000000000D+00  0.0000000000000D+00
   304  3.0300000000000D+00  0.0000000000000D+00  0.0000000000000D+00
   305  3.0400000000000D+00  0.0000000000000D+00  0.0000000000000D+00
   306  3.0500000000000D+00  0.0000000000000D+00  0.0000000000000D+00
   307  3.0600000000000D+00  0.0000000000000D+00  0.0000000000000D+00
   308  3.0700000000000D+00  0.0000000000000D+00  0.0000000000000D+00
   309  3.0800000000000D+00  0.0000000000000D+00  0.0000000000000D+00
   310  3.0900000000000D+00  0.0000000000000D+00  0.0000000000000D+00
   311  3.1000000000000D+00  0.0000000000000D+00  0.0000000000000D+00
   312  3.1100000000000D+00  0.0000000000000D+00  0.0000000000000D+00
   313  3.1200000000000D+00  0.0000000000000D+00  0.0000000000000D+00
   314  3.1300000000000D+00  0.0000000000000D+00  0.0000000000000D+00
   315  3.1400000000000D+00  0.0000000000000D+00  0.0000000000000D+00
   316  3.1500000000000D+00  0.0000000000000D+00  0.0000000000000D+00
   317  3.1600000000000D+00  0.0000000000000D+00  0.0000000000000D+00
   318  3.1700000000000D+00  0.0000000000000D+00  0.0000000000000D+00
   319  3.1800000000000D+00  0.0000000000000D+00  0.0000000000000D+00
   320  3.1900000000000D+00  0.0000000000000D+00  0.0000000000000D+00
   321  3.2000000000000D+00  0.0000000000000D+00  0.0000000000000D+00
   322  3.2100000000000D+00  0.0000000000000D+00  0.0000000000000D+00
   323  3.2200000000000D+00  0.0000000000000D+00  0.0000000000000D+00
   324  3.2300000000000D+00  0.0000000000000D+00  0.0000000000000D+00
   325  3.2400000000000D+00  0.0000000000000D+00  0.0000000000000D+00
   326  3.2500000000000D+00  0.0000000000000D+00  0.0000000000000D+00
   327  3.2600000000000D+00  0.0000000000000D+00  0.0000000000000D+00
   328  3.2700000000000D+00  0.0000000000000D+00  0.0000000000000D+00
   329  3.2800000000000D+00  0.0000000000000D+00  0.0000000000000D+00
   330  3.2900000000000D+00  0.0000000000000D+00  0.0000000000000D+00
   331  3.3000000000000D+00  0.0000000000000D+00  0.0000000000000D+00
   332  3.3100000000000D+00  0.0000000000000D+00  0.0000000000000D+00
   333  3.3200000000000D+00  0.0000000000000D+00  0.0000000000000D+00
   334  3.3300000000000D+00  0.0000000000000D+00  0.0000000000000D+00
   335  3.3400000000000D+00  0.0000000000000D+00  0.0000000000000D+00
   336  3.3500000000000D+00  0.0000000000000D+00  0.0000000000000D+00
   337  3.3600000000000D+00  0.0000000000000D+00  0.0000000000000D+00
   338  3.3700000000000D+00  0.0000000000000D+00  0.0000000000000D+00
   339  3.3800000000000D+00  0.0000000000000D+00  0.0000000000000D+00
   340  3.3900000000000D+00  0.0000000000000D+00  0.0000000000000D+00
   341  3.4000000000000D+00  0.0000000000000D+00  0.0000000000000D+00
   342  3.4100000000000D+00  0.0000000000000D+00  0.0000000000000D+00
   343  3.4200000000000D+00  0.0000000000000D+00  0.0000000000000D+00
   344  3.4300000000000D+00  0.0000000000000D+00  0.0000000000000D+00
   345  3.4400000000000D+00  0.0000000000000D+00  0.0000000000000D+00
   346  3.4500000000000D+00  0.0000000000000D+00  0.0000000000000D+00
   347  3.4600000000000D+00  0.0000000000000D+00  0.0000000000000D+00
   348  3.4700000000000D+00  0.0000000000000D+00  0.0000000000000D+00
   349  3.4800000000000D+00  0.0000000000000D+00  0.0000000000000D+00
   350  3.4900000000000D+00  0.0000000000000D+00  0.0000000000000D+00
   351  3.5000000000000D+00  0.0000000000000D+00  0.0000000000000D+00
   352  3.5100000000000D+00  0.0000000000000D+00  0.0000000000000D+00
   353  3.5200000000000D+00  0.0000000000000D+00  0.0000000000000D+00
   354  3.5300000000000D+00  0.0000000000000D+00  0.0000000000000D+00
   355  3.5400000000000D+00  0.0000000000000D+00  0.0000000000000D+00
   356  3.5500000000000D+00  0.0000000000000D+00  0.0000000000000D+00
   357  3.5600000000000D+00  0.0000000000000D+00  0.0000000000000D+00
   358  3.5700000000000D+00  0.0000000000000D+00  0.0000000000000D+00
   359  3.5800000000000D+00  0.0000000000000D+00  0.0000000000000D+00
   360  3.5900000000000D+00  0.0000000000000D+00  0.0000000000000D+00
   361  3.6000000000000D+00  0.0000000000000D+00  0.0000000000000D+00
   362  3.6100000000000D+00  0.0000000000000D+00  0.0000000000000D+00
   363  3.6200000000000D+00  0.0000000000000D+00  0.0000000000000D+00
   364  3.6300000000000D+00  0.0000000000000D+00  0.0000000000000D+00
   365  3.6400000000000D+00  0.0000000000000D+00  0.0000000000000D+00
   366  3.6500000000000D+00  0.0000000000000D+00  0.0000000000000D+00
   367  3.6600000000000D+00  0.0000000000000D+00  0.0000000000000D+00
   368  3.6700000000000D+00  0.0000000000000D+00  0.0000000000000D+00
   369  3.6800000000000D+00  0.0000000000000D+00  0.0000000000000D+00
   370  3.6900000000000D+00  0.0000000000000D+00  0.0000000000000D+00
   371  3.7000000000000D+00  0.0000000000000D+00  0.0000000000000D+00
   372  3.7100000000000D+00  0.0000000000000D+00  0.0000000000000D+00
   373  3.7200000000000D+00  0.0000000000000D+00  0.0000000000000D+00
   374  3.7300000000000D+00  0.0000000000000D+00  0.0000000000000D+00
   375  3.7400000000000D+00  0.0000000000000D+00  0.0000000000000D+00
   376  3.7500000000000D+00  0.0000000000000D+00  0.0000000000000D+00
   377  3.7600000000000D+00  0.0000000000000D+00  0.0000000000000D+00
   378  3.7700000000000D+00  0.0000000000000D+00  0.0000000000000D+00
   379  3.7800000000000D+00  0.0000000000000D+00  0.0000000000000D+00
   380  3.7900000000000D+00  0.0000000000000D+00  0.0000000000000D+00
   381  3.8000000000000D+00  0.0000000000000D+00  0.0000000000000D+00
   382  3.8100000000000D+00  0.0000000000000D+00  0.0000000000000D+00
   383  3.8200000000000D+00  0.0000000000000D+00  0.0000000000000D+00
   384  3.8300000000000D+00  0.0000000000000D+00  0.0000000000000D+00
   385  3.8400000000000D+00  0.0000000000000D+00  0.0000000000000D+00
   386  3.8500000000000D+00  0.0000000000000D+00  0.0000000000000D+00
   387  3.8600000000000D+00  0.0000000000000D+00  0.0000000000000D+00
   388  3.8700000000000D+00  0.0000000000000D+00  0.0000000000000D+00
   389  3.8800000000000D+00  0.0000000000000D+00  0.0000000000000D+00
   390  3.8900000000000D+00  0.0000000000000D+00  0.0000000000000D+00
   391  3.9000000000000D+00  0.0000000000000D+00  0.0000000000000D+00
   392  3.9100000000000D+00  0.0000000000000D+00  0.0000000000000D+00
   393  3.9200000000000D+00  0.0000000000000D+00  0.0000000000000D+00
   394  3.9300000000000D+00  0.0000000000000D+00  0.0000000000000D+00
   395  3.9400000000000D+00  0.0000000000000D+00  0.0000000000000D+00
   396  3.9500000000000D+00  0.0000000000000D+00  0.0000000000000D+00
   397  3.9600000000000D+00  0.0000000000000D+00  0.0000000000000D+00
   398  3.9700000000000D+00  0.0000000000000D+00  0.0000000000000D+00
   399  3.9800000000000D+00  0.0000000000000D+00  0.0000000000000D+00
   400  3.9900000000000D+00  0.0000000000000D+00  0.0000000000000D+00
   401  4.0000000000000D+00  0.0000000000000D+00  0.0000000000000D+00
   402  4.0100000000000D+00  0.0000000000000D+00  0.0000000000000D+00
   403  4.0200000000000D+00  0.0000000000000D+00  0.0000000000000D+00
   404  4.0300000000000D+00  0.0000000000000D+00  0.0000000000000D+00
   405  4.0400000000000D+00  0.0000000000000D+00  0.0000000000000D+00
   406  4.0500000000000D+00  0.0000000000000D+00  0.0000000000000D+00
   407  4.0600000000000D+00  0.0000000000000D+00  0.0000000000000D+00
   408  4.0700000000000D+00  0.0000000000000D+00  0.0000000000000D+00
   409  4.0800000000000D+00  0.0000000000000D+00  0.0000000000000D+00
   410  4.0900000000000D+00  0.0000000000000D+00  0.0000000000000D+00
   411  4.1000000000000D+00  0.0000000000000D+00  0.0000000000000D+00
   412  4.1100000000000D+00  0.0000000000000D+00  0.0000000000000D+00
   413  4.1200000000000D+00  0.0000000000000D+00  0.0000000000000D+00
   414  4.1300000000000D+00  0.0000000000000D+00  0.0000000000000D+00
   415  4.1400000000000D+00  0.0000000000000D+00  0.0000000000000D+00
   416  4.1500000000000D+00  0.0000000000000D+00  0.0000000000000D+00
   417  4.1600000000000D+00  0.0000000000000D+00  0.0000000000000D+00
   418  4.1700000000000D+00  0.0000000000000D+00  0.0000000000000D+00
   419  4.1800000000000D+00  0.0000000000000D+00  0.0000000000000D+00
   420  4.1900000000000D+00  0.0000000000000D+00  0.0000000000000D+00
   421  4.2000000000000D+00  0.0000000000000D+00  0.0000000000000D+00
   422  4.2100000000000D+00  0.0000000000000D+00  0.0000000000000D+00
   423  4.2200000000000D+00  0.0000000000000D+00  0.0000000000000D+00