Ba    ONCVPSP-3.2.3.1  r_core=   2.15444   1.91218   2.15444
56.0000     10.0000      170501    zatom,zion,pspd
8      11   2     4   600     0    pspcod,pspxc,lmax,lloc,mmax,r2well
5.99000000  5.00000000  0.00000000    rchrg fchrg qchrg
2     2     2     0     0    nproj
1     1           extension_switch
0                         6.6678684059886D+00  6.7431880527511D-01
1  0.0000000000000D+00  5.7940596764894D-12 -1.6872943146840D-11
2  1.0000000000000D-02  2.6414244397867D-02  2.8452882567193D-04
3  2.0000000000000D-02  5.2831185362528D-02  5.2792191566979D-04
4  3.0000000000000D-02  7.9253434231425D-02  6.8929780171688D-04
5  4.0000000000000D-02  1.0568343227222D-01  7.2828243201435D-04
6  5.0000000000000D-02  1.3212336661874D-01  6.0526008795930D-04
7  6.0000000000000D-02  1.5857508736785D-01  2.8162096295681D-04
8  7.0000000000000D-02  1.8504002621741D-01 -2.7999568943746D-04
9  8.0000000000000D-02  2.1151911701958D-01 -1.1154639139345D-03
10  9.0000000000000D-02  2.3801271861675D-01 -2.2589399732759D-03
11  1.0000000000000D-01  2.6452054031837D-01 -3.7426388590309D-03
12  1.1000000000000D-01  2.9104157036740D-01 -5.5966193940250D-03
13  1.2000000000000D-01  3.1757400773336D-01 -7.8485788940104D-03
14  1.3000000000000D-01  3.4411519755667D-01 -1.0523658319443D-02
15  1.4000000000000D-01  3.7066157055484D-01 -1.3644258807780D-02
16  1.5000000000000D-01  3.9720858668630D-01 -1.7229870432862D-02
17  1.6000000000000D-01  4.2375068335101D-01 -2.1296913990496D-02
18  1.7000000000000D-01  4.5028122839004D-01 -2.5858596558996D-02
19  1.8000000000000D-01  4.7679247812771D-01 -3.0924781529673D-02
20  1.9000000000000D-01  5.0327554068053D-01 -3.6501873745947D-02
21  2.0000000000000D-01  5.2972034473696D-01 -4.2592720330580D-02
22  2.1000000000000D-01  5.5611561399088D-01 -4.9196527718854D-02
23  2.2000000000000D-01  5.8244884738954D-01 -5.6308795351653D-02
24  2.3000000000000D-01  6.0870630533456D-01 -6.3921266416574D-02
25  2.4000000000000D-01  6.3487300195086D-01 -7.2021895957342D-02
26  2.5000000000000D-01  6.6093270351493D-01 -8.0594836602333D-02
27  2.6000000000000D-01  6.8686793310945D-01 -8.9620442092618D-02
28  2.7000000000000D-01  7.1265998154682D-01 -9.9075288717980D-02
29  2.8000000000000D-01  7.3828892457903D-01 -1.0893221469669D-01
30  2.9000000000000D-01  7.6373364638641D-01 -1.1916037746190D-01
31  3.0000000000000D-01  7.8897186931253D-01 -1.2972532874369D-01
32  3.1000000000000D-01  8.1398018978722D-01 -1.4058910726274D-01
33  3.2000000000000D-01  8.3873412035473D-01 -1.5171034877780D-01
34  3.3000000000000D-01  8.6320813769878D-01 -1.6304441315692D-01
35  3.4000000000000D-01  8.8737573653193D-01 -1.7454352807002D-01
36  3.5000000000000D-01  9.1120948919191D-01 -1.8615694882978D-01
37  3.6000000000000D-01  9.3468111076409D-01 -1.9783113383818D-01
38  3.7000000000000D-01  9.5776152952547D-01 -2.0950993502813D-01
39  3.8000000000000D-01  9.8042096248319D-01 -2.2113480262361D-01
40  3.9000000000000D-01  1.0026289957584D+00 -2.3264500347800D-01
41  4.0000000000000D-01  1.0243546695448D+00 -2.4397785218871D-01
42  4.1000000000000D-01  1.0455665673520D+00 -2.5506895412776D-01
43  4.2000000000000D-01  1.0662329092228D+00 -2.6585245947172D-01
44  4.3000000000000D-01  1.0863216485959D+00 -2.7626132726252D-01
45  4.4000000000000D-01  1.1058005724704D+00 -2.8622759848073D-01
46  4.5000000000000D-01  1.1246374045084D+00 -2.9568267706790D-01
47  4.6000000000000D-01  1.1427999107013D+00 -3.0455761779288D-01
48  4.7000000000000D-01  1.1602560072098D+00 -3.1278341981882D-01
49  4.8000000000000D-01  1.1769738699763D+00 -3.2029132479527D-01
50  4.9000000000000D-01  1.1929220456991D+00 -3.2701311826983D-01
51  5.0000000000000D-01  1.2080695637460D+00 -3.3288143319015D-01
52  5.1000000000000D-01  1.2223860485812D+00 -3.3783005424714D-01
53  5.2000000000000D-01  1.2358418322712D+00 -3.4179422179587D-01
54  5.3000000000000D-01  1.2484080666312D+00 -3.4471093408039D-01
55  5.4000000000000D-01  1.2600568345737D+00 -3.4651924648460D-01
56  5.5000000000000D-01  1.2707612602161D+00 -3.4716056653114D-01
57  5.6000000000000D-01  1.2804956173103D+00 -3.4657894335659D-01
58  5.7000000000000D-01  1.2892354355539D+00 -3.4472135040171D-01
59  5.8000000000000D-01  1.2969576043535D+00 -3.4153796007150D-01
60  5.9000000000000D-01  1.3036404736119D+00 -3.3698240914184D-01
61  6.0000000000000D-01  1.3092639511204D+00 -3.3101205371550D-01
62  6.1000000000000D-01  1.3138095961491D+00 -3.2358821256218D-01
63  6.2000000000000D-01  1.3172607088356D+00 -3.1467639771433D-01
64  6.3000000000000D-01  1.3196024149887D+00 -3.0424653123212D-01
65  6.4000000000000D-01  1.3208217459374D+00 -2.9227314709780D-01
66  6.5000000000000D-01  1.3209077130694D+00 -2.7873557725092D-01
67  6.6000000000000D-01  1.3198513767260D+00 -2.6361812083247D-01
68  6.7000000000000D-01  1.3176459091333D+00 -2.4691019576564D-01
69  6.8000000000000D-01  1.3142866510755D+00 -2.2860647186660D-01
70  6.9000000000000D-01  1.3097711620344D+00 -2.0870698474645D-01
71  7.0000000000000D-01  1.3040992635450D+00 -1.8721722983813D-01
72  7.1000000000000D-01  1.2972730755380D+00 -1.6414823595853D-01
73  7.2000000000000D-01  1.2892970454705D+00 -1.3951661789420D-01
74  7.3000000000000D-01  1.2801779700669D+00 -1.1334460758167D-01
75  7.4000000000000D-01  1.2699250095235D+00 -8.5660063537700D-02
76  7.5000000000000D-01  1.2585496940568D+00 -5.6496458281533D-02
77  7.6000000000000D-01  1.2460659227040D+00 -2.5892843580336D-02
78  7.7000000000000D-01  1.2324899543143D+00  6.1062065613228D-03
79  7.8000000000000D-01  1.2178403906992D+00  3.9450675154922D-02
80  7.9000000000000D-01  1.2021381519389D+00  7.4085203619656D-02
81  8.0000000000000D-01  1.1854064438754D+00  1.0994921511444D-01
82  8.1000000000000D-01  1.1676707178489D+00  1.4697705951972D-01
83  8.2000000000000D-01  1.1489586227690D+00  1.8509817968642D-01
84  8.3000000000000D-01  1.1292999496388D+00  2.2423729847720D-01
85  8.4000000000000D-01  1.1087265686826D+00  2.6431462603521D-01
86  8.5000000000000D-01  1.0872723592555D+00  3.0524608662651D-01
87  8.6000000000000D-01  1.0649731327439D+00  3.4694356431488D-01
88  8.7000000000000D-01  1.0418665486927D+00  3.8931516664430D-01
89  8.8000000000000D-01  1.0179920244238D+00  4.3226550542107D-01
90  8.9000000000000D-01  9.9339063843671D-01  4.7569599361055D-01
91  9.0000000000000D-01  9.6810502790671D-01  5.1950515728692D-01
92  9.1000000000000D-01  9.4217928062277D-01  5.6358896150402D-01
93  9.2000000000000D-01  9.1565882172816D-01  6.0784114888795D-01
94  9.3000000000000D-01  8.8859029565026D-01  6.5215358968981D-01
95  9.4000000000000D-01  8.6102144362565D-01  6.9641664197937D-01
96  9.5000000000000D-01  8.3300097724573D-01  7.4051952060804D-01
97  9.6000000000000D-01  8.0457844846513D-01  7.8435067352281D-01
98  9.7000000000000D-01  7.7580411653071D-01  8.2779816397157D-01
99  9.8000000000000D-01  7.4672881230262D-01  8.7075005710504D-01
100  9.9000000000000D-01  7.1740380045057D-01  9.1309480945154D-01
101  1.0000000000000D+00  6.8788064001832D-01  9.5472165971827D-01
102  1.0100000000000D+00  6.5821104385713D-01  9.9552101935686D-01
103  1.0200000000000D+00  6.2844673743495D-01  1.0353848613208D+00
104  1.0300000000000D+00  5.9863931753156D-01  1.0742071054403D+00
105  1.0400000000000D+00  5.6884011133161D-01  1.1118839988444D+00
106  1.0500000000000D+00  5.3910003642697D-01  1.1483144898700D+00
107  1.0600000000000D+00  5.0946946223702D-01  1.1834005939173D+00
108  1.0700000000000D+00  4.7999807335122D-01  1.2170477497335D+00
109  1.0800000000000D+00  4.5073473529063D-01  1.2491651646392D+00
110  1.0900000000000D+00  4.2172736317704D-01  1.2796661472510D+00
111  1.1000000000000D+00  3.9302279378592D-01  1.3084684262978D+00
112  1.1100000000000D+00  3.6466666144784D-01  1.3354944541791D+00
113  1.1200000000000D+00  3.3670327824754D-01  1.3606716939687D+00
114  1.1300000000000D+00  3.0917551895202D-01  1.3839328886375D+00
115  1.1400000000000D+00  2.8212471108061D-01  1.4052163113321D+00
116  1.1500000000000D+00  2.5559053050951D-01  1.4244659956247D+00
117  1.1600000000000D+00  2.2961090298279D-01  1.4416319447207D+00
118  1.1700000000000D+00  2.0422191187449D-01  1.4566703187082D+00
119  1.1800000000000D+00  1.7945771252127D-01  1.4695435990228D+00
120  1.1900000000000D+00  1.5535045342352D-01  1.4802207293752D+00
121  1.2000000000000D+00  1.3193020458002D-01  1.4886772325038D+00
122  1.2100000000000D+00  1.0922489319150D-01  1.4948953022175D+00
123  1.2200000000000D+00  8.7260246938108D-02  1.4988638702959D+00
124  1.2300000000000D+00  6.6059745015495D-02  1.5005786478857D+00
125  1.2400000000000D+00  4.5644577065244D-02  1.5000421411954D+00
126  1.2500000000000D+00  2.6033610106988D-02  1.4972636413881D+00
127  1.2600000000000D+00  7.2433635680917D-03  1.4922591886092D+00
128  1.2700000000000D+00 -1.0712007558082D-02  1.4850515103028D+00
129  1.2800000000000D+00 -2.7820721416911D-02  1.4756699340445D+00
130  1.2900000000000D+00 -4.4073369860866D-02  1.4641502751492D+00
131  1.3000000000000D+00 -5.9462910952183D-02  1.4505346995410D+00
132  1.3100000000000D+00 -7.3984653493832D-02  1.4348715624491D+00
133  1.3200000000000D+00 -8.7636233678692D-02  1.4172152234792D+00
134  1.3300000000000D+00 -1.0041758403746D-01  1.3976258389032D+00
135  1.3400000000000D+00 -1.1233089486147D-01  1.3761691319936D+00
136  1.3500000000000D+00 -1.2338056829098D-01  1.3529161422760D+00
137  1.3600000000000D+00 -1.3357316534325D-01  1.3279429548372D+00
138  1.3700000000000D+00 -1.4291734612643D-01  1.3013304107347D+00
139  1.3800000000000D+00 -1.5142380353420D-01  1.2731637997077D+00
140  1.3900000000000D+00 -1.5910519076772D-01  1.2435325365448D+00
141  1.4000000000000D+00 -1.6597604298889D-01  1.2125298223334D+00
142  1.4100000000000D+00 -1.7205269350666D-01  1.1802522921115D+00
143  1.4200000000000D+00 -1.7735318486747D-01  1.1467996503398D+00
144  1.4300000000000D+00 -1.8189717524426D-01  1.1122742956951D+00
145  1.4400000000000D+00 -1.8570584057310D-01  1.0767809368172D+00
146  1.4500000000000D+00 -1.8880177283613D-01  1.0404262005199D+00
147  1.4600000000000D+00 -1.9120887496977D-01  1.0033182341749D+00
148  1.4700000000000D+00 -1.9295225283402D-01  9.6556630386043D-01
149  1.4800000000000D+00 -1.9405810471658D-01  9.2728038997795D-01
150  1.4900000000000D+00 -1.9455360883944D-01  8.8857078196401D-01
151  1.5000000000000D+00 -1.9446680934169D-01  8.4954767381838D-01
152  1.5100000000000D+00 -1.9382650120937D-01  8.1032076202924D-01
153  1.5200000000000D+00 -1.9266211463138D-01  7.7099884761482D-01
154  1.5300000000000D+00 -1.9100359924373D-01  7.3168944381958D-01
155  1.5400000000000D+00 -1.8888130872599D-01  6.9249839107319D-01
156  1.5500000000000D+00 -1.8632588621639D-01  6.5352948077889D-01
157  1.5600000000000D+00 -1.8336815095886D-01  6.1488408929055D-01
158  1.5700000000000D+00 -1.8003898667153D-01  5.7666082374549D-01
159  1.5800000000000D+00 -1.7636923196387D-01  5.3895518074092D-01
160  1.5900000000000D+00 -1.7238957333159D-01  5.0185921967587D-01
161  1.6000000000000D+00 -1.6813044094309D-01  4.6546125128767D-01
162  1.6100000000000D+00 -1.6362190778377D-01  4.2984554334007D-01
163  1.6200000000000D+00 -1.5889359227263D-01  3.9509204360618D-01
164  1.6300000000000D+00 -1.5397456490024D-01  3.6127612201800D-01
165  1.6400000000000D+00 -1.4889325894901D-01  3.2846833193149D-01
166  1.6500000000000D+00 -1.4367738578743D-01  2.9673419213805D-01
167  1.6600000000000D+00 -1.3835385475400D-01  2.6613398941130D-01
168  1.6700000000000D+00 -1.3294869805793D-01  2.3672260295928D-01
169  1.6800000000000D+00 -1.2748700065968D-01  2.0854935038149D-01
170  1.6900000000000D+00 -1.2199283549794D-01  1.8165785626231D-01
171  1.7000000000000D+00 -1.1648920395776D-01  1.5608594275260D-01
172  1.7100000000000D+00 -1.1099798190078D-01  1.3186554309105D-01
173  1.7200000000000D+00 -1.0553987106053D-01  1.0902263708663D-01
174  1.7300000000000D+00 -1.0013435610210D-01  8.7577209422530D-02
175  1.7400000000000D+00 -9.4799667028659D-02  6.7543229372914D-02
176  1.7500000000000D+00 -8.9552747242873D-02  4.8928652810905D-02
177  1.7600000000000D+00 -8.4409226795012D-02  3.1735444567054D-02
178  1.7700000000000D+00 -7.9383401165817D-02  1.5959622144039D-02
179  1.7800000000000D+00 -7.4488214940539D-02  1.5913182367106D-03
180  1.7900000000000D+00 -6.9735250784583D-02 -1.1385136738050D-02
181  1.8000000000000D+00 -6.5134722902232D-02 -2.2991115245315D-02
182  1.8100000000000D+00 -6.0695475417138D-02 -3.3253575097727D-02
183  1.8200000000000D+00 -5.6424984795173D-02 -4.2204927105569D-02
184  1.8300000000000D+00 -5.2329366604375D-02 -4.9882887175918D-02
185  1.8400000000000D+00 -4.8413385861613D-02 -5.6330315700498D-02
186  1.8500000000000D+00 -4.4680469912278D-02 -6.1595049412659D-02
187  1.8600000000000D+00 -4.1132729271065D-02 -6.5729700384129D-02
188  1.8700000000000D+00 -3.7770969926743D-02 -6.8791497183646D-02
189  1.8800000000000D+00 -3.4594721982151D-02 -7.0842057071769D-02
190  1.8900000000000D+00 -3.1602290314605D-02 -7.1947061219489D-02
191  1.9000000000000D+00 -2.8790736110268D-02 -7.2176234873633D-02
192  1.9100000000000D+00 -2.6155798424431D-02 -7.1603638061124D-02
193  1.9200000000000D+00 -2.3692217259970D-02 -7.0306086430981D-02
194  1.9300000000000D+00 -2.1393904868930D-02 -6.8362258888321D-02
195  1.9400000000000D+00 -1.9254176318434D-02 -6.5851643102664D-02
196  1.9500000000000D+00 -1.7266065450494D-02 -6.2853094005998D-02
197  1.9600000000000D+00 -1.5422505647531D-02 -5.9444024600128D-02
198  1.9700000000000D+00 -1.3716341979229D-02 -5.5700389760971D-02
199  1.9800000000000D+00 -1.2140383583798D-02 -5.1696505461302D-02
200  1.9900000000000D+00 -1.0687549695112D-02 -4.7504398653537D-02
201  2.0000000000000D+00 -9.3509334656289D-03 -4.3193559839639D-02
202  2.0100000000000D+00 -8.1238906759980D-03 -3.8830574294614D-02
203  2.0200000000000D+00 -7.0001204305607D-03 -3.4478790515975D-02
204  2.0300000000000D+00 -5.9737414387373D-03 -3.0198008264971D-02
205  2.0400000000000D+00 -5.0393646333227D-03 -2.6044182035426D-02
206  2.0500000000000D+00 -4.1921624398342D-03 -2.2069138985551D-02
207  2.0600000000000D+00 -3.4279304594654D-03 -1.8320328585536D-02
208  2.0700000000000D+00 -2.7431448136258D-03 -1.4840590602253D-02
209  2.0800000000000D+00 -2.1350970342008D-03 -1.1668407668796D-02
210  2.0900000000000D+00 -1.6020674882988D-03 -8.8384277851298D-03
211  2.1000000000000D+00 -1.1417823054914D-03 -6.3723659833195D-03
212  2.1100000000000D+00 -7.5271418024555D-04 -4.2833886534912D-03
213  2.1200000000000D+00 -4.3847260009049D-04 -2.6100182293795D-03
214  2.1300000000000D+00 -2.0395666419501D-04 -1.3895084360265D-03
215  2.1400000000000D+00 -5.0358522064023D-05 -6.2839545932193D-04
216  2.1500000000000D+00  3.0080590921250D-05 -2.1991057430393D-04
217  2.1600000000000D+00  4.8863687875138D-05 -4.2239561348272D-05
218  2.1700000000000D+00  2.9422116998942D-05  7.6159242478955D-06
219  2.1800000000000D+00  7.3994479346645D-07  4.8241692819099D-07
220  2.1900000000000D+00 -8.9895922928559D-06 -7.9465828476064D-06
221  2.2000000000000D+00 -5.5948693669616D-06 -5.8629198837228D-06
222  2.2100000000000D+00  8.9104296996725D-07  3.8877402114471D-07
223  2.2200000000000D+00  1.8426762497791D-06  9.9330132711547D-07
224  2.2300000000000D+00  5.8199412198807D-07  3.6027958085069D-07
225  2.2400000000000D+00 -1.0274896362203D-07  2.7434321732619D-07
226  2.2500000000000D+00 -1.1388197744819D-07  3.0406874178834D-07
227  2.2600000000000D+00  0.0000000000000D+00  0.0000000000000D+00
228  2.2700000000000D+00  0.0000000000000D+00  0.0000000000000D+00
229  2.2800000000000D+00  0.0000000000000D+00  0.0000000000000D+00
230  2.2900000000000D+00  0.0000000000000D+00  0.0000000000000D+00
231  2.3000000000000D+00  0.0000000000000D+00  0.0000000000000D+00
232  2.3100000000000D+00  0.0000000000000D+00  0.0000000000000D+00
233  2.3200000000000D+00  0.0000000000000D+00  0.0000000000000D+00
234  2.3300000000000D+00  0.0000000000000D+00  0.0000000000000D+00
235  2.3400000000000D+00  0.0000000000000D+00  0.0000000000000D+00
236  2.3500000000000D+00  0.0000000000000D+00  0.0000000000000D+00
237  2.3600000000000D+00  0.0000000000000D+00  0.0000000000000D+00
238  2.3700000000000D+00  0.0000000000000D+00  0.0000000000000D+00
239  2.3800000000000D+00  0.0000000000000D+00  0.0000000000000D+00
240  2.3900000000000D+00  0.0000000000000D+00  0.0000000000000D+00
241  2.4000000000000D+00  0.0000000000000D+00  0.0000000000000D+00
242  2.4100000000000D+00  0.0000000000000D+00  0.0000000000000D+00
243  2.4200000000000D+00  0.0000000000000D+00  0.0000000000000D+00
244  2.4300000000000D+00  0.0000000000000D+00  0.0000000000000D+00
245  2.4400000000000D+00  0.0000000000000D+00  0.0000000000000D+00
246  2.4500000000000D+00  0.0000000000000D+00  0.0000000000000D+00
247  2.4600000000000D+00  0.0000000000000D+00  0.0000000000000D+00
248  2.4700000000000D+00  0.0000000000000D+00  0.0000000000000D+00
249  2.4800000000000D+00  0.0000000000000D+00  0.0000000000000D+00
250  2.4900000000000D+00  0.0000000000000D+00  0.0000000000000D+00
251  2.5000000000000D+00  0.0000000000000D+00  0.0000000000000D+00
252  2.5100000000000D+00  0.0000000000000D+00  0.0000000000000D+00
253  2.5200000000000D+00  0.0000000000000D+00  0.0000000000000D+00
254  2.5300000000000D+00  0.0000000000000D+00  0.0000000000000D+00
255  2.5400000000000D+00  0.0000000000000D+00  0.0000000000000D+00
256  2.5500000000000D+00  0.0000000000000D+00  0.0000000000000D+00
257  2.5600000000000D+00  0.0000000000000D+00  0.0000000000000D+00
258  2.5700000000000D+00  0.0000000000000D+00  0.0000000000000D+00
259  2.5800000000000D+00  0.0000000000000D+00  0.0000000000000D+00
260  2.5900000000000D+00  0.0000000000000D+00  0.0000000000000D+00
261  2.6000000000000D+00  0.0000000000000D+00  0.0000000000000D+00
262  2.6100000000000D+00  0.0000000000000D+00  0.0000000000000D+00
263  2.6200000000000D+00  0.0000000000000D+00  0.0000000000000D+00
264  2.6300000000000D+00  0.0000000000000D+00  0.0000000000000D+00
265  2.6400000000000D+00  0.0000000000000D+00  0.0000000000000D+00
266  2.6500000000000D+00  0.0000000000000D+00  0.0000000000000D+00
267  2.6600000000000D+00  0.0000000000000D+00  0.0000000000000D+00
268  2.6700000000000D+00  0.0000000000000D+00  0.0000000000000D+00
269  2.6800000000000D+00  0.0000000000000D+00  0.0000000000000D+00
270  2.6900000000000D+00  0.0000000000000D+00  0.0000000000000D+00
271  2.7000000000000D+00  0.0000000000000D+00  0.0000000000000D+00
272  2.7100000000000D+00  0.0000000000000D+00  0.0000000000000D+00
273  2.7200000000000D+00  0.0000000000000D+00  0.0000000000000D+00
274  2.7300000000000D+00  0.0000000000000D+00  0.0000000000000D+00
275  2.7400000000000D+00  0.0000000000000D+00  0.0000000000000D+00
276  2.7500000000000D+00  0.0000000000000D+00  0.0000000000000D+00
277  2.7600000000000D+00  0.0000000000000D+00  0.0000000000000D+00
278  2.7700000000000D+00  0.0000000000000D+00  0.0000000000000D+00
279  2.7800000000000D+00  0.0000000000000D+00  0.0000000000000D+00
280  2.7900000000000D+00  0.0000000000000D+00  0.0000000000000D+00
281  2.8000000000000D+00  0.0000000000000D+00  0.0000000000000D+00
282  2.8100000000000D+00  0.0000000000000D+00  0.0000000000000D+00
283  2.8200000000000D+00  0.0000000000000D+00  0.0000000000000D+00
284  2.8300000000000D+00  0.0000000000000D+00  0.0000000000000D+00
285  2.8400000000000D+00  0.0000000000000D+00  0.0000000000000D+00
286  2.8500000000000D+00  0.0000000000000D+00  0.0000000000000D+00
287  2.8600000000000D+00  0.0000000000000D+00  0.0000000000000D+00
288  2.8700000000000D+00  0.0000000000000D+00  0.0000000000000D+00
289  2.8800000000000D+00  0.0000000000000D+00  0.0000000000000D+00
290  2.8900000000000D+00  0.0000000000000D+00  0.0000000000000D+00
291  2.9000000000000D+00  0.0000000000000D+00  0.0000000000000D+00
292  2.9100000000000D+00  0.0000000000000D+00  0.0000000000000D+00
293  2.9200000000000D+00  0.0000000000000D+00  0.0000000000000D+00
294  2.9300000000000D+00  0.0000000000000D+00  0.0000000000000D+00
295  2.9400000000000D+00  0.0000000000000D+00  0.0000000000000D+00
296  2.9500000000000D+00  0.0000000000000D+00  0.0000000000000D+00
297  2.9600000000000D+00  0.0000000000000D+00  0.0000000000000D+00
298  2.9700000000000D+00  0.0000000000000D+00  0.0000000000000D+00
299  2.9800000000000D+00  0.0000000000000D+00  0.0000000000000D+00
300  2.9900000000000D+00  0.0000000000000D+00  0.0000000000000D+00
301  3.0000000000000D+00  0.0000000000000D+00  0.0000000000000D+00
302  3.0100000000000D+00  0.0000000000000D+00  0.0000000000000D+00
303  3.0200000000000D+00  0.0000000000000D+00  0.0000000000000D+00
304  3.0300000000000D+00  0.0000000000000D+00  0.0000000000000D+00
305  3.0400000000000D+00  0.0000000000000D+00  0.0000000000000D+00
306  3.0500000000000D+00  0.0000000000000D+00  0.0000000000000D+00
307  3.0600000000000D+00  0.0000000000000D+00  0.0000000000000D+00
308  3.0700000000000D+00  0.0000000000000D+00  0.0000000000000D+00
309  3.0800000000000D+00  0.0000000000000D+00  0.0000000000000D+00
310  3.0900000000000D+00  0.0000000000000D+00  0.0000000000000D+00
311  3.1000000000000D+00  0.0000000000000D+00  0.0000000000000D+00
312  3.1100000000000D+00  0.0000000000000D+00  0.0000000000000D+00
313  3.1200000000000D+00  0.0000000000000D+00  0.0000000000000D+00
314  3.1300000000000D+00  0.0000000000000D+00  0.0000000000000D+00
315  3.1400000000000D+00  0.0000000000000D+00  0.0000000000000D+00
316  3.1500000000000D+00  0.0000000000000D+00  0.0000000000000D+00
317  3.1600000000000D+00  0.0000000000000D+00  0.0000000000000D+00
318  3.1700000000000D+00  0.0000000000000D+00  0.0000000000000D+00
319  3.1800000000000D+00  0.0000000000000D+00  0.0000000000000D+00
320  3.1900000000000D+00  0.0000000000000D+00  0.0000000000000D+00
321  3.2000000000000D+00  0.0000000000000D+00  0.0000000000000D+00
322  3.2100000000000D+00  0.0000000000000D+00  0.0000000000000D+00
323  3.2200000000000D+00  0.0000000000000D+00  0.0000000000000D+00
324  3.2300000000000D+00  0.0000000000000D+00  0.0000000000000D+00
325  3.2400000000000D+00  0.0000000000000D+00  0.0000000000000D+00
326  3.2500000000000D+00  0.0000000000000D+00  0.0000000000000D+00
327  3.2600000000000D+00  0.0000000000000D+00  0.0000000000000D+00
328  3.2700000000000D+00  0.0000000000000D+00  0.0000000000000D+00
329  3.2800000000000D+00  0.0000000000000D+00  0.0000000000000D+00
330  3.2900000000000D+00  0.0000000000000D+00  0.0000000000000D+00
331  3.3000000000000D+00  0.0000000000000D+00  0.0000000000000D+00
332  3.3100000000000D+00  0.0000000000000D+00  0.0000000000000D+00
333  3.3200000000000D+00  0.0000000000000D+00  0.0000000000000D+00
334  3.3300000000000D+00  0.0000000000000D+00  0.0000000000000D+00
335  3.3400000000000D+00  0.0000000000000D+00  0.0000000000000D+00
336  3.3500000000000D+00  0.0000000000000D+00  0.0000000000000D+00
337  3.3600000000000D+00  0.0000000000000D+00  0.0000000000000D+00
338  3.3700000000000D+00  0.0000000000000D+00  0.0000000000000D+00
339  3.3800000000000D+00  0.0000000000000D+00  0.0000000000000D+00
340  3.3900000000000D+00  0.0000000000000D+00  0.0000000000000D+00
341  3.4000000000000D+00  0.0000000000000D+00  0.0000000000000D+00
342  3.4100000000000D+00  0.0000000000000D+00  0.0000000000000D+00
343  3.4200000000000D+00  0.0000000000000D+00  0.0000000000000D+00
344  3.4300000000000D+00  0.0000000000000D+00  0.0000000000000D+00
345  3.4400000000000D+00  0.0000000000000D+00  0.0000000000000D+00
346  3.4500000000000D+00  0.0000000000000D+00  0.0000000000000D+00
347  3.4600000000000D+00  0.0000000000000D+00  0.0000000000000D+00
348  3.4700000000000D+00  0.0000000000000D+00  0.0000000000000D+00
349  3.4800000000000D+00  0.0000000000000D+00  0.0000000000000D+00
350  3.4900000000000D+00  0.0000000000000D+00  0.0000000000000D+00
351  3.5000000000000D+00  0.0000000000000D+00  0.0000000000000D+00
352  3.5100000000000D+00  0.0000000000000D+00  0.0000000000000D+00
353  3.5200000000000D+00  0.0000000000000D+00  0.0000000000000D+00
354  3.5300000000000D+00  0.0000000000000D+00  0.0000000000000D+00
355  3.5400000000000D+00  0.0000000000000D+00  0.0000000000000D+00
356  3.5500000000000D+00  0.0000000000000D+00  0.0000000000000D+00
357  3.5600000000000D+00  0.0000000000000D+00  0.0000000000000D+00
358  3.5700000000000D+00  0.0000000000000D+00  0.0000000000000D+00
359  3.5800000000000D+00  0.0000000000000D+00  0.0000000000000D+00
360  3.5900000000000D+00  0.0000000000000D+00  0.0000000000000D+00
361  3.6000000000000D+00  0.0000000000000D+00  0.0000000000000D+00
362  3.6100000000000D+00  0.0000000000000D+00  0.0000000000000D+00
363  3.6200000000000D+00  0.0000000000000D+00  0.0000000000000D+00
364  3.6300000000000D+00  0.0000000000000D+00  0.0000000000000D+00
365  3.6400000000000D+00  0.0000000000000D+00  0.0000000000000D+00
366  3.6500000000000D+00  0.0000000000000D+00  0.0000000000000D+00
367  3.6600000000000D+00  0.0000000000000D+00  0.0000000000000D+00
368  3.6700000000000D+00  0.0000000000000D+00  0.0000000000000D+00
369  3.6800000000000D+00  0.0000000000000D+00  0.0000000000000D+00
370  3.6900000000000D+00  0.0000000000000D+00  0.0000000000000D+00
371  3.7000000000000D+00  0.0000000000000D+00  0.0000000000000D+00
372  3.7100000000000D+00  0.0000000000000D+00  0.0000000000000D+00
373  3.7200000000000D+00  0.0000000000000D+00  0.0000000000000D+00
374  3.7300000000000D+00  0.0000000000000D+00  0.0000000000000D+00
375  3.7400000000000D+00  0.0000000000000D+00  0.0000000000000D+00
376  3.7500000000000D+00  0.0000000000000D+00  0.0000000000000D+00
377  3.7600000000000D+00  0.0000000000000D+00  0.0000000000000D+00
378  3.7700000000000D+00  0.0000000000000D+00  0.0000000000000D+00
379  3.7800000000000D+00  0.0000000000000D+00  0.0000000000000D+00
380  3.7900000000000D+00  0.0000000000000D+00  0.0000000000000D+00
381  3.8000000000000D+00  0.0000000000000D+00  0.0000000000000D+00
382  3.8100000000000D+00  0.0000000000000D+00  0.0000000000000D+00
383  3.8200000000000D+00  0.0000000000000D+00  0.0000000000000D+00
384  3.8300000000000D+00  0.0000000000000D+00  0.0000000000000D+00
385  3.8400000000000D+00  0.0000000000000D+00  0.0000000000000D+00
386  3.8500000000000D+00  0.0000000000000D+00  0.0000000000000D+00
387  3.8600000000000D+00  0.0000000000000D+00  0.0000000000000D+00
388  3.8700000000000D+00  0.0000000000000D+00  0.0000000000000D+00
389  3.8800000000000D+00  0.0000000000000D+00  0.0000000000000D+00
390  3.8900000000000D+00  0.0000000000000D+00  0.0000000000000D+00
391  3.9000000000000D+00  0.0000000000000D+00  0.0000000000000D+00
392  3.9100000000000D+00  0.0000000000000D+00  0.0000000000000D+00
393  3.9200000000000D+00  0.0000000000000D+00  0.0000000000000D+00
394  3.9300000000000D+00  0.0000000000000D+00  0.0000000000000D+00
395  3.9400000000000D+00  0.0000000000000D+00  0.0000000000000D+00
396  3.9500000000000D+00  0.0000000000000D+00  0.0000000000000D+00
397  3.9600000000000D+00  0.0000000000000D+00  0.0000000000000D+00
398  3.9700000000000D+00  0.0000000000000D+00  0.0000000000000D+00
399  3.9800000000000D+00  0.0000000000000D+00  0.0000000000000D+00
400  3.9900000000000D+00  0.0000000000000D+00  0.0000000000000D+00
401  4.0000000000000D+00  0.0000000000000D+00  0.0000000000000D+00
402  4.0100000000000D+00  0.0000000000000D+00  0.0000000000000D+00
403  4.0200000000000D+00  0.0000000000000D+00  0.0000000000000D+00
404  4.0300000000000D+00  0.0000000000000D+00  0.0000000000000D+00
405  4.0400000000000D+00  0.0000000000000D+00  0.0000000000000D+00
406  4.0500000000000D+00  0.0000000000000D+00  0.0000000000000D+00
407  4.0600000000000D+00  0.0000000000000D+00  0.0000000000000D+00
408  4.0700000000000D+00  0.0000000000000D+00  0.0000000000000D+00
409  4.0800000000000D+00  0.0000000000000D+00  0.0000000000000D+00
410  4.0900000000000D+00  0.0000000000000D+00  0.0000000000000D+00
411  4.1000000000000D+00  0.0000000000000D+00  0.0000000000000D+00
412  4.1100000000000D+00  0.0000000000000D+00  0.0000000000000D+00
413  4.1200000000000D+00  0.0000000000000D+00  0.0000000000000D+00
414  4.1300000000000D+00  0.0000000000000D+00  0.0000000000000D+00
415  4.1400000000000D+00  0.0000000000000D+00  0.0000000000000D+00
416  4.1500000000000D+00  0.0000000000000D+00  0.0000000000000D+00
417  4.1600000000000D+00  0.0000000000000D+00  0.0000000000000D+00
418  4.1700000000000D+00  0.0000000000000D+00  0.0000000000000D+00
419  4.1800000000000D+00  0.0000000000000D+00  0.0000000000000D+00
420  4.1900000000000D+00  0.0000000000000D+00  0.0000000000000D+00
421  4.2000000000000D+00  0.0000000000000D+00  0.0000000000000D+00
422  4.2100000000000D+00  0.0000000000000D+00  0.0000000000000D+00
423  4.2200000000000D+00  0.0000000000000D+00  0.0000000000000D+00
424  4.2300000000000D+00  0.0000000000000D+00  0.0000000000000D+00
425  4.2400000000000D+00  0.0000000000000D+00  0.0000000000000D+00
426  4.2500000000000D+00  0.0000000000000D+00  0.0000000000000D+00
427  4.2600000000000D+00  0.0000000000000D+00  0.0000000000000D+00
428  4.2700000000000D+00  0.0000000000000D+00  0.0000000000000D+00
429  4.2800000000000D+00  0.0000000000000D+00  0.0000000000000D+00
430  4.2900000000000D+00  0.0000000000000D+00  0.0000000000000D+00
431  4.3000000000000D+00  0.0000000000000D+00  0.0000000000000D+00
432  4.3100000000000D+00  0.0000000000000D+00  0.0000000000000D+00
433  4.3200000000000D+00  0.0000000000000D+00  0.0000000000000D+00
434  4.3300000000000D+00  0.0000000000000D+00  0.0000000000000D+00
435  4.3400000000000D+00  0.0000000000000D+00  0.0000000000000D+00
436  4.3500000000000D+00  0.0000000000000D+00  0.0000000000000D+00
437  4.3600000000000D+00  0.0000000000000D+00  0.0000000000000D+00
438  4.3700000000000D+00  0.0000000000000D+00  0.0000000000000D+00
439  4.3800000000000D+00  0.0000000000000D+00  0.0000000000000D+00
440  4.3900000000000D+00  0.0000000000000D+00  0.0000000000000D+00
441  4.4000000000000D+00  0.0000000000000D+00  0.0000000000000D+00
442  4.4100000000000D+00  0.0000000000000D+00  0.0000000000000D+00
443  4.4200000000000D+00  0.0000000000000D+00  0.0000000000000D+00