C     ONCVPSP-3.2.3  r_core=   1.51078   1.70218
6.0000      4.0000      160922    zatom,zion,pspd
8      11   1     4   600     0    pspcod,pspxc,lmax,lloc,mmax,r2well
5.99000000  4.00000000  0.00000000    rchrg fchrg qchrg
2     2     0     0     0    nproj
1     1           extension_switch
0                         5.3850692506017D+00  6.1907379027076D-01
1  0.0000000000000D+00  2.3696850037780D-10 -7.6948424021506D-10
2  1.0000000000000D-02  5.9294776150644D-02  8.2728590571259D-03
3  2.0000000000000D-02  1.1854115354506D-01  1.6379620002482D-02
4  3.0000000000000D-02  1.7769026605274D-01  2.4156354956988D-02
5  4.0000000000000D-02  2.3669231907185D-01  3.1443454910093D-02
6  5.0000000000000D-02  2.9549614092635D-01  3.8087735358519D-02
7  6.0000000000000D-02  3.5404875285310D-01  4.3944477939309D-02
8  7.0000000000000D-02  4.1229496349573D-01  4.8879387631565D-02
9  8.0000000000000D-02  4.7017699358454D-01  5.2770445870826D-02
10  9.0000000000000D-02  5.2763413618992D-01  5.5509640869176D-02
11  1.0000000000000D-01  5.8460245759136D-01  5.7004557554763D-02
12  1.1000000000000D-01  6.4101454340997D-01  5.7179810826588D-02
13  1.2000000000000D-01  6.9679929421152D-01  5.5978307252958D-02
14  1.3000000000000D-01  7.5188177430413D-01  5.3362321912383D-02
15  1.4000000000000D-01  8.0618311693415D-01  4.9314378770137D-02
16  1.5000000000000D-01  8.5962048852962D-01  4.3837924787377D-02
17  1.6000000000000D-01  9.1210711405861D-01  3.6957789856651D-02
18  1.7000000000000D-01  9.6355236496407D-01  2.8720426631471D-02
19  1.8000000000000D-01  1.0138619105143D+00  1.9193926350463D-02
20  1.9000000000000D-01  1.0629379327724D+00  8.4678088310855D-03
21  2.0000000000000D-01  1.1106794047480D+00 -3.3474130947050D-03
22  2.1000000000000D-01  1.1569824306505D+00 -1.6120892328388D-02
23  2.2000000000000D-01  1.2017406465294D+00 -2.9702324974514D-02
24  2.3000000000000D-01  1.2448456789582D+00 -4.3923040014654D-02
25  2.4000000000000D-01  1.2861876588134D+00 -5.8597292664648D-02
26  2.5000000000000D-01  1.3256557866113D+00 -7.3523750958783D-02
27  2.6000000000000D-01  1.3631389453067D+00 -8.8487163255997D-02
28  2.7000000000000D-01  1.3985263559332D+00 -1.0326019261736D-01
29  2.8000000000000D-01  1.4317082709781D+00 -1.1760540237724D-01
30  2.9000000000000D-01  1.4625766999347D+00 -1.3127737573721D-01
31  3.0000000000000D-01  1.4910261610842D+00 -1.4402495086581D-01
32  3.1000000000000D-01  1.5169544532035D+00 -1.5559355180130D-01
33  3.2000000000000D-01  1.5402634406075D+00 -1.6572759443886D-01
34  3.3000000000000D-01  1.5608598446944D+00 -1.7417294604959D-01
35  3.4000000000000D-01  1.5786560349861D+00 -1.8067941613222D-01
36  3.5000000000000D-01  1.5935708125405D+00 -1.8500325594761D-01
37  3.6000000000000D-01  1.6055301785579D+00 -1.8690964383563D-01
38  3.7000000000000D-01  1.6144680810173D+00 -1.8617513336572D-01
39  3.8000000000000D-01  1.6203271322507D+00 -1.8259004152921D-01
40  3.9000000000000D-01  1.6230592905042D+00 -1.7596075454233D-01
41  4.0000000000000D-01  1.6226264987368D+00 -1.6611192939027D-01
42  4.1000000000000D-01  1.6190012741709D+00 -1.5288857000356D-01
43  4.2000000000000D-01  1.6121672424337D+00 -1.3615795790913D-01
44  4.3000000000000D-01  1.6021196105105D+00 -1.1581141833513D-01
45  4.4000000000000D-01  1.5888655731657D+00 -9.1765904060460D-02
46  4.5000000000000D-01  1.5724246479768D+00 -6.3965380776213D-02
47  4.6000000000000D-01  1.5528289346608D+00 -3.2381999355719D-02
48  4.7000000000000D-01  1.5301232949491D+00  2.9829578022697D-03
49  4.8000000000000D-01  1.5043654498876D+00  4.2098367299867D-02
50  4.9000000000000D-01  1.4756259920817D+00  8.4902801078222D-02
51  5.0000000000000D-01  1.4439883110901D+00  1.3130431541707D-01
52  5.1000000000000D-01  1.4095484308663D+00  1.8118049728101D-01
53  5.2000000000000D-01  1.3724147588638D+00  2.3437877047632D-01
54  5.3000000000000D-01  1.3327077471486D+00  2.9071696182639D-01
55  5.4000000000000D-01  1.2905594665907D+00  3.4998412530341D-01
56  5.5000000000000D-01  1.2461130959345D+00  4.1194161978256D-01
57  5.6000000000000D-01  1.1995223282682D+00  4.7632443384366D-01
58  5.7000000000000D-01  1.1509506981159D+00  5.4284274884141D-01
59  5.8000000000000D-01  1.1005708330586D+00  6.1118372932790D-01
60  5.9000000000000D-01  1.0485636344494D+00  6.8101352785497D-01
61  6.0000000000000D-01  9.9511739240761D-01  7.5197948922671D-01
62  6.1000000000000D-01  9.4042684086634D-01  8.2371253743501D-01
63  6.2000000000000D-01  8.8469215898421D-01  8.9582972680866D-01
64  6.3000000000000D-01  8.2811792572987D-01  9.6793693734945D-01
65  6.4000000000000D-01  7.7091203488297D-01  1.0396316928471D+00
66  6.5000000000000D-01  7.1328457808046D-01  1.1105060791473D+00
67  6.6000000000000D-01  6.5544670385737D-01  1.1801497389299D+00
68  6.7000000000000D-01  5.9760946088793D-01  1.2481529185327D+00
69  6.8000000000000D-01  5.3998263382462D-01  1.3141095417388D+00
70  6.9000000000000D-01  4.8277358025393D-01  1.3776202850483D+00
71  7.0000000000000D-01  4.2618607733942D-01  1.4382956287710D+00
72  7.1000000000000D-01  3.7041918670382D-01  1.4957588583184D+00
73  7.2000000000000D-01  3.1566614601099D-01  1.5496489903337D+00
74  7.3000000000000D-01  2.6211329554743D-01  1.5996235987833D+00
75  7.4000000000000D-01  2.0993904787191D-01  1.6453615168335D+00
76  7.5000000000000D-01  1.5931290830131D-01  1.6865653912516D+00
77  7.6000000000000D-01  1.1039455363707D-01  1.7229640671904D+00
78  7.7000000000000D-01  6.3332976105196D-02  1.7543147825348D+00
79  7.8000000000000D-01  1.8265698995202D-02  1.7804051524961D+00
80  7.9000000000000D-01 -2.4681930062003D-02  1.8010549268169D+00
81  8.0000000000000D-01 -6.5397362834666D-02  1.8161175037954D+00
82  8.1000000000000D-01 -1.0378138654997D-01  1.8254811873241D+00
83  8.2000000000000D-01 -1.3974856825959D-01  1.8290701752548D+00
84  8.3000000000000D-01 -1.7322760421887D-01  1.8268452696319D+00
85  8.4000000000000D-01 -2.0416157173899D-01  1.8188043016579D+00
86  8.5000000000000D-01 -2.3250808174642D-01  1.8049822666473D+00
87  8.6000000000000D-01 -2.5823933107626D-01  1.7854511666740D+00
88  8.7000000000000D-01 -2.8134205432862D-01  1.7603195610945D+00
89  8.8000000000000D-01 -3.0181737592331D-01  1.7297318276138D+00
90  8.9000000000000D-01 -3.1968056379126D-01  1.6938671390425D+00
91  9.0000000000000D-01 -3.3496068693334D-01  1.6529381633263D+00
92  9.1000000000000D-01 -3.4770017985333D-01  1.6071894968244D+00
93  9.2000000000000D-01 -3.5795431762333D-01  1.5568958431153D+00
94  9.3000000000000D-01 -3.6579060606167D-01  1.5023599518268D+00
95  9.4000000000000D-01 -3.7128809218826D-01  1.4439103340788D+00
96  9.5000000000000D-01 -3.7453660076454D-01  1.3818987730914D+00
97  9.6000000000000D-01 -3.7563590331952D-01  1.3166976503141D+00
98  9.7000000000000D-01 -3.7469482660331D-01  1.2486971090701D+00
99  9.8000000000000D-01 -3.7183030789517D-01  1.1783020791704D+00
100  9.9000000000000D-01 -3.6716640500188D-01  1.1059291871741D+00
101  1.0000000000000D+00 -3.6083326915125D-01  1.0320035780614D+00
102  1.0100000000000D+00 -3.5296608925587D-01  9.5695567487002D-01
103  1.0200000000000D+00 -3.4370401623870D-01  8.8121790345640D-01
104  1.0300000000000D+00 -3.3318907624821D-01  8.0522140989881D-01
105  1.0400000000000D+00 -3.2156508164868D-01  7.2939279817165D-01
106  1.0500000000000D+00 -3.0897654865866D-01  6.5415091560934D-01
107  1.0600000000000D+00 -2.9556763042143D-01  5.7990371332372D-01
108  1.0700000000000D+00 -2.8148107411663D-01  5.0704520811664D-01
109  1.0800000000000D+00 -2.6685721048904D-01  4.3595257162528D-01
110  1.0900000000000D+00 -2.5183298383343D-01  3.6698337130118D-01
111  1.1000000000000D+00 -2.3654103012758D-01  3.0047298666738D-01
112  1.1100000000000D+00 -2.2110881053119D-01  2.3673222272996D-01
113  1.1200000000000D+00 -2.0565780695054D-01  1.7604514072162D-01
114  1.1300000000000D+00 -1.9030278579555D-01  1.1866712448354D-01
115  1.1400000000000D+00 -1.7515113543315D-01  6.4823198766464D-02
116  1.1500000000000D+00 -1.6030228222824D-01  1.4706613743149D-02
117  1.1600000000000D+00 -1.4584718923195D-01 -3.1522292664230D-02
118  1.1700000000000D+00 -1.3186794086755D-01 -7.3736945324567D-02
119  1.1800000000000D+00 -1.1843741626062D-01 -1.1184508825633D-01
120  1.1900000000000D+00 -1.0561905300448D-01 -1.4578904250582D-01
121  1.2000000000000D+00 -9.3466702282810D-02 -1.7554566403448D-01
122  1.2100000000000D+00 -8.2024575387234D-02 -2.0112600293354D-01
123  1.2200000000000D+00 -7.1327281242863D-02 -2.2257466664820D-01
124  1.2300000000000D+00 -6.1399953157338D-02 -2.3996889435707D-01
125  1.2400000000000D+00 -5.2258462473848D-02 -2.5341735135386D-01
126  1.2500000000000D+00 -4.3909716263650D-02 -2.6305865401829D-01
127  1.2600000000000D+00 -3.6352035031051D-02 -2.6905963966256D-01
128  1.2700000000000D+00 -2.9575605749949D-02 -2.7161339760802D-01
129  1.2800000000000D+00 -2.3563005228442D-02 -2.7093707887189D-01
130  1.2900000000000D+00 -1.8289787773172D-02 -2.6726950509124D-01
131  1.3000000000000D+00 -1.3725130536558D-02 -2.6086859915378D-01
132  1.3100000000000D+00 -9.8325298546281D-03 -2.5200866024815D-01
133  1.3200000000000D+00 -6.5705409129642D-03 -2.4097750909679D-01
134  1.3300000000000D+00 -3.8935528491580D-03 -2.2807352981636D-01
135  1.3400000000000D+00 -1.7525913857184D-03 -2.1360263492101D-01
136  1.3500000000000D+00 -9.6140293625773D-05 -1.9787518241841D-01
137  1.3600000000000D+00  1.1290266909679D-03 -1.8120287289586D-01
138  1.3700000000000D+00  1.9770122602211D-03 -1.6389565574598D-01
139  1.3800000000000D+00  2.5019688923345D-03 -1.4625867317609D-01
140  1.3900000000000D+00  2.7572877090269D-03 -1.2858927032499D-01
141  1.4000000000000D+00  2.7948115876049D-03 -1.1117410043736D-01
142  1.4100000000000D+00  2.6640801567974D-03 -9.4286350315374D-02
143  1.4200000000000D+00  2.4116154881498D-03 -7.8183115188207D-02
144  1.4300000000000D+00  2.0802552439838D-03 -6.3102945304944D-02
145  1.4400000000000D+00  1.7085407439916D-03 -4.9263588919505D-02
146  1.4500000000000D+00  1.3301670483471D-03 -3.6859955082280D-02
147  1.4600000000000D+00  9.7364745739300D-04 -2.6065153667950D-02
148  1.4700000000000D+00  6.6150430692682D-04 -1.7021257223903D-02
149  1.4800000000000D+00  4.0747664359557D-04 -9.8003935427988D-03
150  1.4900000000000D+00  2.2749324822892D-04 -4.5787818862274D-03
151  1.5000000000000D+00  1.3617196277077D-04 -1.5454257492684D-03
152  1.5100000000000D+00  9.3668432364797D-05 -2.6980192055732D-04
153  1.5200000000000D+00  4.0945102508064D-05  4.1748740266522D-05
154  1.5300000000000D+00 -2.2925083974515D-06 -5.7740324026805D-06
155  1.5400000000000D+00 -6.9939732476021D-06 -2.5133852828104D-05
156  1.5500000000000D+00  1.0081948461798D-06  1.8594292963497D-06
157  1.5600000000000D+00  1.4595483877709D-06  3.2447612395613D-06
158  1.5700000000000D+00 -1.8110001580288D-07  4.4345607879375D-07
159  1.5800000000000D+00 -1.7029118934769D-07  4.1698871613267D-07
160  1.5900000000000D+00  0.0000000000000D+00  0.0000000000000D+00
161  1.6000000000000D+00  0.0000000000000D+00  0.0000000000000D+00
162  1.6100000000000D+00  0.0000000000000D+00  0.0000000000000D+00
163  1.6200000000000D+00  0.0000000000000D+00  0.0000000000000D+00
164  1.6300000000000D+00  0.0000000000000D+00  0.0000000000000D+00
165  1.6400000000000D+00  0.0000000000000D+00  0.0000000000000D+00
166  1.6500000000000D+00  0.0000000000000D+00  0.0000000000000D+00
167  1.6600000000000D+00  0.0000000000000D+00  0.0000000000000D+00
168  1.6700000000000D+00  0.0000000000000D+00  0.0000000000000D+00
169  1.6800000000000D+00  0.0000000000000D+00  0.0000000000000D+00
170  1.6900000000000D+00  0.0000000000000D+00  0.0000000000000D+00
171  1.7000000000000D+00  0.0000000000000D+00  0.0000000000000D+00
172  1.7100000000000D+00  0.0000000000000D+00  0.0000000000000D+00
173  1.7200000000000D+00  0.0000000000000D+00  0.0000000000000D+00
174  1.7300000000000D+00  0.0000000000000D+00  0.0000000000000D+00
175  1.7400000000000D+00  0.0000000000000D+00  0.0000000000000D+00
176  1.7500000000000D+00  0.0000000000000D+00  0.0000000000000D+00
177  1.7600000000000D+00  0.0000000000000D+00  0.0000000000000D+00
178  1.7700000000000D+00  0.0000000000000D+00  0.0000000000000D+00
179  1.7800000000000D+00  0.0000000000000D+00  0.0000000000000D+00
180  1.7900000000000D+00  0.0000000000000D+00  0.0000000000000D+00
181  1.8000000000000D+00  0.0000000000000D+00  0.0000000000000D+00
182  1.8100000000000D+00  0.0000000000000D+00  0.0000000000000D+00
183  1.8200000000000D+00  0.0000000000000D+00  0.0000000000000D+00
184  1.8300000000000D+00  0.0000000000000D+00  0.0000000000000D+00
185  1.8400000000000D+00  0.0000000000000D+00  0.0000000000000D+00
186  1.8500000000000D+00  0.0000000000000D+00  0.0000000000000D+00
187  1.8600000000000D+00  0.0000000000000D+00  0.0000000000000D+00
188  1.8700000000000D+00  0.0000000000000D+00  0.0000000000000D+00
189  1.8800000000000D+00  0.0000000000000D+00  0.0000000000000D+00
190  1.8900000000000D+00  0.0000000000000D+00  0.0000000000000D+00
191  1.9000000000000D+00  0.0000000000000D+00  0.0000000000000D+00
192  1.9100000000000D+00  0.0000000000000D+00  0.0000000000000D+00
193  1.9200000000000D+00  0.0000000000000D+00  0.0000000000000D+00
194  1.9300000000000D+00  0.0000000000000D+00  0.0000000000000D+00
195  1.9400000000000D+00  0.0000000000000D+00  0.0000000000000D+00
196  1.9500000000000D+00  0.0000000000000D+00  0.0000000000000D+00
197  1.9600000000000D+00  0.0000000000000D+00  0.0000000000000D+00
198  1.9700000000000D+00  0.0000000000000D+00  0.0000000000000D+00
199  1.9800000000000D+00  0.0000000000000D+00  0.0000000000000D+00
200  1.9900000000000D+00  0.0000000000000D+00  0.0000000000000D+00
201  2.0000000000000D+00  0.0000000000000D+00  0.0000000000000D+00
202  2.0100000000000D+00  0.0000000000000D+00  0.0000000000000D+00
203  2.0200000000000D+00  0.0000000000000D+00  0.0000000000000D+00
204  2.0300000000000D+00  0.0000000000000D+00  0.0000000000000D+00
205  2.0400000000000D+00  0.0000000000000D+00  0.0000000000000D+00
206  2.0500000000000D+00  0.0000000000000D+00  0.0000000000000D+00
207  2.0600000000000D+00  0.0000000000000D+00  0.0000000000000D+00
208  2.0700000000000D+00  0.0000000000000D+00  0.0000000000000D+00
209  2.0800000000000D+00  0.0000000000000D+00  0.0000000000000D+00
210  2.0900000000000D+00  0.0000000000000D+00  0.0000000000000D+00
211  2.1000000000000D+00  0.0000000000000D+00  0.0000000000000D+00
212  2.1100000000000D+00  0.0000000000000D+00  0.0000000000000D+00
213  2.1200000000000D+00  0.0000000000000D+00  0.0000000000000D+00
214  2.1300000000000D+00  0.0000000000000D+00  0.0000000000000D+00
215  2.1400000000000D+00  0.0000000000000D+00  0.0000000000000D+00
216  2.1500000000000D+00  0.0000000000000D+00  0.0000000000000D+00
217  2.1600000000000D+00  0.0000000000000D+00  0.0000000000000D+00
218  2.1700000000000D+00  0.0000000000000D+00  0.0000000000000D+00
219  2.1800000000000D+00  0.0000000000000D+00  0.0000000000000D+00
220  2.1900000000000D+00  0.0000000000000D+00  0.0000000000000D+00
221  2.2000000000000D+00  0.0000000000000D+00  0.0000000000000D+00
222  2.2100000000000D+00  0.0000000000000D+00  0.0000000000000D+00
223  2.2200000000000D+00  0.0000000000000D+00  0.0000000000000D+00
224  2.2300000000000D+00  0.0000000000000D+00  0.0000000000000D+00
225  2.2400000000000D+00  0.0000000000000D+00  0.0000000000000D+00
226  2.2500000000000D+00  0.0000000000000D+00  0.0000000000000D+00
227  2.2600000000000D+00  0.0000000000000D+00  0.0000000000000D+00
228  2.2700000000000D+00  0.0000000000000D+00  0.0000000000000D+00
229  2.2800000000000D+00  0.0000000000000D+00  0.0000000000000D+00
230  2.2900000000000D+00  0.0000000000000D+00  0.0000000000000D+00
231  2.3000000000000D+00  0.0000000000000D+00  0.0000000000000D+00
232  2.3100000000000D+00  0.0000000000000D+00  0.0000000000000D+00
233  2.3200000000000D+00  0.0000000000000D+00  0.0000000000000D+00
234  2.3300000000000D+00  0.0000000000000D+00  0.0000000000000D+00
235  2.3400000000000D+00  0.0000000000000D+00  0.0000000000000D+00
236  2.3500000000000D+00  0.0000000000000D+00  0.0000000000000D+00
237  2.3600000000000D+00  0.0000000000000D+00  0.0000000000000D+00
238  2.3700000000000D+00  0.0000000000000D+00  0.0000000000000D+00
239  2.3800000000000D+00  0.0000000000000D+00  0.0000000000000D+00
240  2.3900000000000D+00  0.0000000000000D+00  0.0000000000000D+00
241  2.4000000000000D+00  0.0000000000000D+00  0.0000000000000D+00
242  2.4100000000000D+00  0.0000000000000D+00  0.0000000000000D+00
243  2.4200000000000D+00  0.0000000000000D+00  0.0000000000000D+00
244  2.4300000000000D+00  0.0000000000000D+00  0.0000000000000D+00
245  2.4400000000000D+00  0.0000000000000D+00  0.0000000000000D+00
246  2.4500000000000D+00  0.0000000000000D+00  0.0000000000000D+00
247  2.4600000000000D+00  0.0000000000000D+00  0.0000000000000D+00
248  2.4700000000000D+00  0.0000000000000D+00  0.0000000000000D+00
249  2.4800000000000D+00  0.0000000000000D+00  0.0000000000000D+00
250  2.4900000000000D+00  0.0000000000000D+00  0.0000000000000D+00
251  2.5000000000000D+00  0.0000000000000D+00  0.0000000000000D+00
252  2.5100000000000D+00  0.0000000000000D+00  0.0000000000000D+00
253  2.5200000000000D+00  0.0000000000000D+00  0.0000000000000D+00
254  2.5300000000000D+00  0.0000000000000D+00  0.0000000000000D+00
255  2.5400000000000D+00  0.0000000000000D+00  0.0000000000000D+00
256  2.5500000000000D+00  0.0000000000000D+00  0.0000000000000D+00
257  2.5600000000000D+00  0.0000000000000D+00  0.0000000000000D+00
258  2.5700000000000D+00  0.0000000000000D+00  0.0000000000000D+00
259  2.5800000000000D+00  0.0000000000000D+00  0.0000000000000D+00
260  2.5900000000000D+00  0.0000000000000D+00  0.0000000000000D+00
261  2.6000000000000D+00  0.0000000000000D+00  0.0000000000000D+00
262  2.6100000000000D+00  0.0000000000000D+00  0.0000000000000D+00
263  2.6200000000000D+00  0.0000000000000D+00  0.0000000000000D+00
264  2.6300000000000D+00  0.0000000000000D+00  0.0000000000000D+00
265  2.6400000000000D+00  0.0000000000000D+00  0.0000000000000D+00
266  2.6500000000000D+00  0.0000000000000D+00  0.0000000000000D+00
267  2.6600000000000D+00  0.0000000000000D+00  0.0000000000000D+00
268  2.6700000000000D+00  0.0000000000000D+00  0.0000000000000D+00
269  2.6800000000000D+00  0.0000000000000D+00  0.0000000000000D+00
270  2.6900000000000D+00  0.0000000000000D+00  0.0000000000000D+00
271  2.7000000000000D+00  0.0000000000000D+00  0.0000000000000D+00
272  2.7100000000000D+00  0.0000000000000D+00  0.0000000000000D+00
273  2.7200000000000D+00  0.0000000000000D+00  0.0000000000000D+00
274  2.7300000000000D+00  0.0000000000000D+00  0.0000000000000D+00
275  2.7400000000000D+00  0.0000000000000D+00  0.0000000000000D+00
276  2.7500000000000D+00  0.0000000000000D+00  0.0000000000000D+00
277  2.7600000000000D+00  0.0000000000000D+00  0.0000000000000D+00
278  2.7700000000000D+00  0.0000000000000D+00  0.0000000000000D+00
279  2.7800000000000D+00  0.0000000000000D+00  0.0000000000000D+00
280  2.7900000000000D+00  0.0000000000000D+00  0.0000000000000D+00
281  2.8000000000000D+00  0.0000000000000D+00  0.0000000000000D+00
282  2.8100000000000D+00  0.0000000000000D+00  0.0000000000000D+00
283  2.8200000000000D+00  0.0000000000000D+00  0.0000000000000D+00
284  2.8300000000000D+00  0.0000000000000D+00  0.0000000000000D+00
285  2.8400000000000D+00  0.0000000000000D+00  0.0000000000000D+00
286  2.8500000000000D+00  0.0000000000000D+00  0.0000000000000D+00
287  2.8600000000000D+00  0.0000000000000D+00  0.0000000000000D+00
288  2.8700000000000D+00  0.0000000000000D+00  0.0000000000000D+00
289  2.8800000000000D+00  0.0000000000000D+00  0.0000000000000D+00
290  2.8900000000000D+00  0.0000000000000D+00  0.0000000000000D+00
291  2.9000000000000D+00  0.0000000000000D+00  0.0000000000000D+00
292  2.9100000000000D+00  0.0000000000000D+00  0.0000000000000D+00
293  2.9200000000000D+00  0.0000000000000D+00  0.0000000000000D+00
294  2.9300000000000D+00  0.0000000000000D+00  0.0000000000000D+00
295  2.9400000000000D+00  0.0000000000000D+00  0.0000000000000D+00
296  2.9500000000000D+00  0.0000000000000D+00  0.0000000000000D+00
297  2.9600000000000D+00  0.0000000000000D+00  0.0000000000000D+00
298  2.9700000000000D+00  0.0000000000000D+00  0.0000000000000D+00
299  2.9800000000000D+00  0.0000000000000D+00  0.0000000000000D+00
300  2.9900000000000D+00  0.0000000000000D+00  0.0000000000000D+00
301  3.0000000000000D+00  0.0000000000000D+00  0.0000000000000D+00
302  3.0100000000000D+00  0.0000000000000D+00  0.0000000000000D+00
303  3.0200000000000D+00  0.0000000000000D+00  0.0000000000000D+00
304  3.0300000000000D+00  0.0000000000000D+00  0.0000000000000D+00
305  3.0400000000000D+00  0.0000000000000D+00  0.0000000000000D+00
306  3.0500000000000D+00  0.0000000000000D+00  0.0000000000000D+00
307  3.0600000000000D+00  0.0000000000000D+00  0.0000000000000D+00
308  3.0700000000000D+00  0.0000000000000D+00  0.0000000000000D+00
309  3.0800000000000D+00  0.0000000000000D+00  0.0000000000000D+00
310  3.0900000000000D+00  0.0000000000000D+00  0.0000000000000D+00
311  3.1000000000000D+00  0.0000000000000D+00  0.0000000000000D+00
312  3.1100000000000D+00  0.0000000000000D+00  0.0000000000000D+00
313  3.1200000000000D+00  0.0000000000000D+00  0.0000000000000D+00
314  3.1300000000000D+00  0.0000000000000D+00  0.0000000000000D+00
315  3.1400000000000D+00  0.0000000000000D+00  0.0000000000000D+00
316  3.1500000000000D+00  0.0000000000000D+00  0.0000000000000D+00
317  3.1600000000000D+00  0.0000000000000D+00  0.0000000000000D+00
318  3.1700000000000D+00  0.0000000000000D+00  0.0000000000000D+00
319  3.1800000000000D+00  0.0000000000000D+00  0.0000000000000D+00
320  3.1900000000000D+00  0.0000000000000D+00  0.0000000000000D+00
321  3.2000000000000D+00  0.0000000000000D+00  0.0000000000000D+00
322  3.2100000000000D+00  0.0000000000000D+00  0.0000000000000D+00
323  3.2200000000000D+00  0.0000000000000D+00  0.0000000000000D+00
324  3.2300000000000D+00  0.0000000000000D+00  0.0000000000000D+00
325  3.2400000000000D+00  0.0000000000000D+00  0.0000000000000D+00
326  3.2500000000000D+00  0.0000000000000D+00  0.0000000000000D+00
327  3.2600000000000D+00  0.0000000000000D+00  0.0000000000000D+00
328  3.2700000000000D+00  0.0000000000000D+00  0.0000000000000D+00
329  3.2800000000000D+00  0.0000000000000D+00  0.0000000000000D+00
330  3.2900000000000D+00  0.0000000000000D+00  0.0000000000000D+00
331  3.3000000000000D+00  0.0000000000000D+00  0.0000000000000D+00
332  3.3100000000000D+00  0.0000000000000D+00  0.0000000000000D+00
333  3.3200000000000D+00  0.0000000000000D+00  0.0000000000000D+00
334  3.3300000000000D+00  0.0000000000000D+00  0.0000000000000D+00
335  3.3400000000000D+00  0.0000000000000D+00  0.0000000000000D+00
336  3.3500000000000D+00  0.0000000000000D+00  0.0000000000000D+00
337  3.3600000000000D+00  0.0000000000000D+00  0.0000000000000D+00
338  3.3700000000000D+00  0.0000000000000D+00  0.0000000000000D+00
339  3.3800000000000D+00  0.0000000000000D+00  0.0000000000000D+00
340  3.3900000000000D+00  0.0000000000000D+00  0.0000000000000D+00
341  3.4000000000000D+00  0.0000000000000D+00  0.0000000000000D+00
342  3.4100000000000D+00  0.0000000000000D+00  0.0000000000000D+00
343  3.4200000000000D+00  0.0000000000000D+00  0.0000000000000D+00
344  3.4300000000000D+00  0.0000000000000D+00  0.0000000000000D+00
345  3.4400000000000D+00  0.0000000000000D+00  0.0000000000000D+00
346  3.4500000000000D+00  0.0000000000000D+00  0.0000000000000D+00
347  3.4600000000000D+00  0.0000000000000D+00  0.0000000000000D+00
348  3.4700000000000D+00  0.0000000000000D+00  0.0000000000000D+00
349  3.4800000000000D+00  0.0000000000000D+00  0.0000000000000D+00
350  3.4900000000000D+00  0.0000000000000D+00  0.0000000000000D+00
351  3.5000000000000D+00  0.0000000000000D+00  0.0000000000000D+00
352  3.5100000000000D+00  0.0000000000000D+00  0.0000000000000D+00
353  3.5200000000000D+00  0.0000000000000D+00  0.0000000000000D+00
354  3.5300000000000D+00  0.0000000000000D+00  0.0000000000000D+00
355  3.5400000000000D+00  0.0000000000000D+00  0.0000000000000D+00
356  3.5500000000000D+00  0.0000000000000D+00  0.0000000000000D+00
357  3.5600000000000D+00  0.0000000000000D+00  0.0000000000000D+00
358  3.5700000000000D+00  0.0000000000000D+00  0.0000000000000D+00
359  3.5800000000000D+00  0.0000000000000D+00  0.0000000000000D+00
360  3.5900000000000D+00  0.0000000000000D+00  0.0000000000000D+00
361  3.6000000000000D+00  0.0000000000000D+00  0.0000000000000D+00
362  3.6100000000000D+00  0.0000000000000D+00  0.0000000000000D+00
363  3.6200000000000D+00  0.0000000000000D+00  0.0000000000000D+00
364  3.6300000000000D+00  0.0000000000000D+00  0.0000000000000D+00
365  3.6400000000000D+00  0.0000000000000D+00  0.0000000000000D+00
366  3.6500000000000D+00  0.0000000000000D+00  0.0000000000000D+00
367  3.6600000000000D+00  0.0000000000000D+00  0.0000000000000D+00
368  3.6700000000000D+00  0.0000000000000D+00  0.0000000000000D+00
369  3.6800000000000D+00  0.0000000000000D+00  0.0000000000000D+00
370  3.6900000000000D+00  0.0000000000000D+00  0.0000000000000D+00
371  3.7000000000000D+00  0.0000000000000D+00  0.0000000000000D+00
372  3.7100000000000D+00  0.0000000000000D+00  0.0000000000000D+00
373  3.7200000000000D+00  0.0000000000000D+00  0.0000000000000D+00
374  3.7300000000000D+00  0.0000000000000D+00  0.0000000000000D+00
375  3.7400000000000D+00  0.0000000000000D+00  0.0000000000000D+00
376  3.7500000000000D+00  0.0000000000000D+00  0.0000000000000D+00
377  3.7600000000000D+00  0.0000000000000D+00  0.0000000000000D+00
378  3.7700000000000D+00  0.0000000000000D+00  0.0000000000000D+00
379  3.7800000000000D+00  0.0000000000000D+00  0.0000000000000D+00
380  3.7900000000000D+00  0.0000000000000D+00  0.0000000000000D+00
381  3.8000000000000D+00  0.0000000000000D+00  0.0000000000000D+00
382  3.8100000000000D+00  0.0000000000000D+00  0.0000000000000D+00
383  3.8200000000000D+00  0.0000000000000D+00  0.0000000000000D+00
384  3.8300000000000D+00  0.0000000000000D+00  0.0000000000000D+00
385  3.8400000000000D+00  0.0000000000000D+00  0.0000000000000D+00
386  3.8500000000000D+00  0.0000000000000D+00  0.0000000000000D+00
387  3.8600000000000D+00  0.0000000000000D+00  0.0000000000000D+00
388  3.8700000000000D+00  0.0000000000000D+00  0.0000000000000D+00
389  3.8800000000000D+00  0.0000000000000D+00  0.0000000000000D+00
390  3.8900000000000D+00  0.0000000000000D+00  0.0000000000000D+00
391  3.9000000000000D+00  0.0000000000000D+00  0.0000000000000D+00
392  3.9100000000000D+00  0.0000000000000D+00  0.0000000000000D+00
393  3.9200000000000D+00  0.0000000000000D+00  0.0000000000000D+00
394  3.9300000000000D+00  0.0000000000000D+00  0.0000000000000D+00
395  3.9400000000000D+00  0.0000000000000D+00  0.0000000000000D+00
396  3.9500000000000D+00  0.0000000000000D+00  0.0000000000000D+00
397  3.9600000000000D+00  0.0000000000000D+00  0.0000000000000D+00
398  3.9700000000000D+00  0.0000000000000D+00  0.0000000000000D+00
399  3.9800000000000D+00  0.0000000000000D+00  0.0000000000000D+00
400  3.9900000000000D+00  0.0000000000000D+00  0.0000000000000D+00
401  4.0000000000000D+00  0.0000000000000D+00  0.0000000000000D+00
402  4.0100000000000D+00  0.0000000000000D+00  0.0000000000000D+00
403  4.0200000000000D+00  0.0000000000000D+00  0.0000000000000D+00
404  4.0300000000000D+00  0.0000000000000D+00  0.0000000000000D+00
405  4.0400000000000D+00  0.0000000000000D+00  0.0000000000000D+00
406  4.0500000000000D+00  0.0000000000000D+00  0.0000000000000D+00
407  4.0600000000000D+00  0.0000000000000D+00  0.0000000000000D+00
408  4.0700000000000D+00  0.0000000000000D+00  0.0000000000000D+00
409  4.0800000000000D+00  0.0000000000000D+00  0.0000000000000D+00
410  4.0900000000000D+00  0.0000000000000D+00  0.0000000000000D+00
411  4.1000000000000D+00  0.0000000000000D+00  0.0000000000000D+00
412  4.1100000000000D+00  0.0000000000000D+00  0.0000000000000D+00
413  4.1200000000000D+00  0.0000000000000D+00  0.0000000000000D+00
414  4.1300000000000D+00  0.0000000000000D+00  0.0000000000000D+00
415  4.1400000000000D+00  0.0000000000000D+00  0.0000000000000D+00
416  4.1500000000000D+00  0.0000000000000D+00  0.0000000000000D+00
417  4.1600000000000D+00  0.0000000000000D+00  0.0000000000000D+00
418  4.1700000000000D+00  0.0000000000000D+00  0.0000000000000D+00
419  4.1800000000000D+00  0.0000000000000D+00  0.0000000000000D+00
420  4.1900000000000D+00  0.0000000000000D+00  0.0000000000000D+00
421  4.2000000000000D+00  0.0000000000000D+00  0.0000000000000D+00
422  4.2100000000000D+00  0.0000000000000D+00  0.0000000000000D+00
423  4.2200000000000D+00  0.0000000000000D+00  0.0000000000000D+00
424  4.2300000000000D+00  0.0000000000000D+00  0.0000000000000D+00
425  4.2400000000000D+00  0.0000000000000D+00  0.0000000000000D+00
426  4.2500000000000D+00  0.0000000000000D+00  0.0000000000000D+00
427  4.2600000000000D+00  0.0000000000000D+00  0.0000000000000D+00
428  4.2700000000000D+00  0.0000000000000D+00  0.0000000000000D+00
429  4.2800000000000D+00  0.0000000000000D+00  0.0000000000000D+00
430  4.2900000000000D+00  0.0000000000000D+00  0.0000000000000D+00
431  4.3000000000000D+00  0.0000000000000D+00  0.0000000000000D+00
432  4.3100000000000D+00  0.0000000000000D+00  0.0000000000000D+00
433  4.3200000000000D+00  0.0000000000000D+00  0.0000000000000D+00
434  4.3300000000000D+00  0.0000000000000D+00  0.0000000000000D+00
435  4.3400000000000D+00  0.0000000000000D+00  0.0000000000000D+00
436  4.3500000000000D+00  0.0000000000000D+00  0.0000000000000D+00
437  4.3600000000000D+00  0.0000000000000D+00  0.0000000000000D+00
438  4.3700000000000D+00  0.0000000000000D+00  0.0000000000000D+00
439  4.3800000000000D+00  0.0000000000000D+00  0.0000000000000D+00
440  4.3900000000000D+00  0.0000000000000D+00  0.0000000000000D+00
441  4.4000000000000D+00  0.0000000000000D+00  0.0000000000000D+00
442  4.4100000000000D+00  0.0000000000000D+00  0.0000000000000D+00
443  4.4200000000000D+00  0.0000000000000D+00  0.0000000000000D+00