O     ONCVPSP-3.3.0  r_core=   1.35509   1.45563   1.35509
      8.0000      6.0000      171117    zatom,zion,pspd
     8   -1012   2     4   600     0    pspcod,pspxc,lmax,lloc,mmax,r2well
  5.99000000  4.00000000  0.00000000    rchrg fchrg qchrg
     2     2     2     0    nproj
     3     1           extension_switch
     2     2     0    nprojso
   0                         8.1615335106874D-01  6.0260201726548D+00
     1  0.0000000000000D+00  5.7017650600955D-09 -2.2644814912098D-09
     2  1.0000000000000D-02 -3.8196600835582D-02  9.6781845174385D-02
     3  2.0000000000000D-02 -7.5916944180707D-02  1.9319059992874D-01
     4  3.0000000000000D-02 -1.1269068176092D-01  2.8885604162803D-01
     5  4.0000000000000D-02 -1.4805919315947D-01  3.8341364584459D-01
     6  5.0000000000000D-02 -1.8158122479633D-01  4.7650734264523D-01
     7  6.0000000000000D-02 -2.1283826310384D-01  5.6779216314081D-01
     8  7.0000000000000D-02 -2.4143956011892D-01  6.5693674242756D-01
     9  8.0000000000000D-02 -2.6702673541337D-01  7.4362564731407D-01
    10  9.0000000000000D-02 -2.8927788523332D-01  8.2756149998806D-01
    11  1.0000000000000D-01 -3.0791113780072D-01  9.0846687198840D-01
    12  1.1000000000000D-01 -3.2268760281114D-01  9.8608592645719D-01
    13  1.2000000000000D-01 -3.3341367309401D-01  1.0601857905953D+00
    14  1.3000000000000D-01 -3.3994264701806D-01  1.1305576444678D+00
    15  1.4000000000000D-01 -3.4217565135270D-01  1.1970175167342D+00
    16  1.5000000000000D-01 -3.4006185575006D-01  1.2594067824404D+00
    17  1.6000000000000D-01 -3.3359798160290D-01  1.3175923626261D+00
    18  1.7000000000000D-01 -3.2282711956925D-01  1.3714666301076D+00
    19  1.8000000000000D-01 -3.0783688134269D-01  1.4209470302991D+00
    20  1.9000000000000D-01 -2.8875692210102D-01  1.4659754302792D+00
    21  2.0000000000000D-01 -2.6575588030415D-01  1.5065172134135D+00
    22  2.1000000000000D-01 -2.3903779096327D-01  1.5425601406346D+00
    23  2.2000000000000D-01 -2.0883803700958D-01  1.5741130029147D+00
    24  2.3000000000000D-01 -1.7541891080947D-01  1.6012040924644D+00
    25  2.4000000000000D-01 -1.3906486407727D-01  1.6238795227186D+00
    26  2.5000000000000D-01 -1.0007752932266D-01  1.6422014291862D+00
    27  2.6000000000000D-01 -5.8770599452458D-02  1.6562460846949D+00
    28  2.7000000000000D-01 -1.5464654165424D-02  1.6661019634576D+00
    29  2.8000000000000D-01  2.9517977702601D-02  1.6718677886825D+00
    30  2.9000000000000D-01  7.5858231720667D-02  1.6736505981553D+00
    31  3.0000000000000D-01  1.2324511162096D-01  1.6715638613435D+00
    32  3.1000000000000D-01  1.7138020155780D-01  1.6657256801150D+00
    33  3.2000000000000D-01  2.1998181050260D-01  1.6562571031608D+00
    34  3.3000000000000D-01  2.6878867907456D-01  1.6432805816928D+00
    35  3.4000000000000D-01  3.1756318697296D-01  1.6269185909975D+00
    36  3.5000000000000D-01  3.6609400811800D-01  1.6072924390107D+00
    37  3.6000000000000D-01  4.1419817047490D-01  1.5845212793050D+00
    38  3.7000000000000D-01  4.6172248816545D-01  1.5587213418004D+00
    39  3.8000000000000D-01  5.0854434468697D-01  1.5300053902042D+00
    40  3.9000000000000D-01  5.5457181767163D-01  1.4984824107192D+00
    41  4.0000000000000D-01  5.9974314743476D-01  1.4642575320151D+00
    42  4.1000000000000D-01  6.4402556337625D-01  1.4274321719128D+00
    43  4.2000000000000D-01  6.8741349391921D-01  1.3881044017571D+00
    44  4.3000000000000D-01  7.2992619688830D-01  1.3463695151421D+00
    45  4.4000000000000D-01  7.7160485786055D-01  1.3023207835662D+00
    46  4.5000000000000D-01  8.1250921387359D-01  1.2560503778100D+00
    47  4.6000000000000D-01  8.5271376878134D-01  1.2076504304191D+00
    48  4.7000000000000D-01  8.9230367434536D-01  1.1572142116918D+00
    49  4.8000000000000D-01  9.3137035770218D-01  1.1048373890744D+00
    50  4.9000000000000D-01  9.7000698103098D-01  1.0506193379077D+00
    51  5.0000000000000D-01  1.0083038229667D+00  9.9466447007336D-01
    52  5.1000000000000D-01  1.0463436734829D+00  9.3708354630059D-01
    53  5.2000000000000D-01  1.0841973345627D+00  8.7799493771569D-01
    54  5.3000000000000D-01  1.1219193179559D+00  8.1752580267528D-01
    55  5.4000000000000D-01  1.1595438286957D+00  7.5581314599754D-01
    56  5.5000000000000D-01  1.1970811188515D+00  6.9300472939671D-01
    57  5.6000000000000D-01  1.2345142902704D+00  6.2925980420456D-01
    58  5.7000000000000D-01  1.2717966179217D+00  5.6474964028978D-01
    59  5.8000000000000D-01  1.3088494569676D+00  4.9965782843779D-01
    60  5.9000000000000D-01  1.3455607870411D+00  4.3418033724367D-01
    61  6.0000000000000D-01  1.3817844364774D+00  3.6852530978593D-01
    62  6.1000000000000D-01  1.4173400177035D+00  3.0291258986537D-01
    63  6.2000000000000D-01  1.4520135927161D+00  2.3757297239107D-01
    64  6.3000000000000D-01  1.4855590748494D+00  1.7274717745877D-01
    65  6.4000000000000D-01  1.5177003600653D+00  1.0868455271438D-01
    66  6.5000000000000D-01  1.5481341679012D+00  4.5641513681330D-02
    67  6.6000000000000D-01  1.5765335593726D+00 -1.6120263295579D-02
    68  6.7000000000000D-01  1.6025520866330D+00 -7.6335876010689D-02
    69  6.8000000000000D-01  1.6258285172827D+00 -1.3473943519621D-01
    70  6.9000000000000D-01  1.6459920651604D+00 -1.9106647885182D-01
    71  7.0000000000000D-01  1.6626680493962D+00 -2.4505652996197D-01
    72  7.1000000000000D-01  1.6754838945863D+00 -2.9645576207724D-01
    73  7.2000000000000D-01  1.6840753774343D+00 -3.4501973441713D-01
    74  7.3000000000000D-01  1.6880930191528D+00 -3.9051615591557D-01
    75  7.4000000000000D-01  1.6872085184735D+00 -4.3272763603519D-01
    76  7.5000000000000D-01  1.6811211173785D+00 -4.7145437925594D-01
    77  7.6000000000000D-01  1.6695637906772D+00 -5.0651677991977D-01
    78  7.7000000000000D-01  1.6523091513804D+00 -5.3775787460581D-01
    79  7.8000000000000D-01  1.6291749664526D+00 -5.6504561041223D-01
    80  7.9000000000000D-01  1.6000291819281D+00 -5.8827488942750D-01
    81  8.0000000000000D-01  1.5647943625217D+00 -6.0736935226046D-01
    82  8.1000000000000D-01  1.5234514586502D+00 -6.2228286673228D-01
    83  8.2000000000000D-01  1.4760428231058D+00 -6.3300069166917D-01
    84  8.3000000000000D-01  1.4226744103507D+00 -6.3954029011743D-01
    85  8.4000000000000D-01  1.3635171033595D+00 -6.4195177116652D-01
    86  8.5000000000000D-01  1.2988071259633D+00 -6.4031794483954D-01
    87  8.6000000000000D-01  1.2288455125124D+00 -6.3475398011019D-01
    88  8.7000000000000D-01  1.1539966211874D+00 -6.2540666194668D-01
    89  8.8000000000000D-01  1.0746856921917D+00 -6.1245324927095D-01
    90  8.9000000000000D-01  9.9139546713340D-01 -5.9609994176362D-01
    91  9.0000000000000D-01  9.0466190089080D-01 -5.7657996944071D-01
    92  9.1000000000000D-01  8.1506901192143D-01 -5.5415132478301D-01
    93  9.2000000000000D-01  7.2324293106212D-01 -5.2909416281396D-01
    94  9.3000000000000D-01  6.2984522215598D-01 -5.0170789980537D-01
    95  9.4000000000000D-01  5.3556556009663D-01 -4.7230804615359D-01
    96  9.5000000000000D-01  4.4111386289556D-01 -4.4122281332738D-01
    97  9.6000000000000D-01  3.4721198396333D-01 -4.0878953856948D-01
    98  9.7000000000000D-01  2.5458507877996D-01 -3.7535097416841D-01
    99  9.8000000000000D-01  1.6395276637865D-01 -3.4125149055324D-01
   100  9.9000000000000D-01  7.6020210404349D-02 -3.0683324413163D-01
   101  1.0000000000000D+00 -8.5307530178064D-03 -2.7243236171346D-01
   102  1.0100000000000D+00 -8.9050312952284D-02 -2.3837519345607D-01
   103  1.0200000000000D+00 -1.6492908085735D-01 -2.0497468553883D-01
   104  1.0300000000000D+00 -2.3560606493364D-01 -1.7252692225815D-01
   105  1.0400000000000D+00 -3.0057610476326D-01 -1.4130788495087D-01
   106  1.0500000000000D+00 -3.5939665746242D-01 -1.1157047185352D-01
   107  1.0600000000000D+00 -4.1169383464585D-01 -8.3541819716264D-02
   108  1.0700000000000D+00 -4.5716760200322D-01 -5.7420962919931D-02
   109  1.0800000000000D+00 -4.9559606481816D-01 -3.3376861180078D-02
   110  1.0900000000000D+00 -5.2683877685818D-01 -1.1546821226438D-02
   111  1.1000000000000D+00 -5.5083902587082D-01  7.9646685282402D-03
   112  1.1100000000000D+00 -5.6762506209348D-01  2.5086676625164D-02
   113  1.1200000000000D+00 -5.7731025623830D-01  3.9782134869756D-02
   114  1.1300000000000D+00 -5.8009218742778D-01  5.2047712319029D-02
   115  1.1400000000000D+00 -5.7625068110279D-01  6.1913264806995D-02
   116  1.1500000000000D+00 -5.6614482932986D-01  6.9440872854364D-02
   117  1.1600000000000D+00 -5.5020904759746D-01  7.4723489508834D-02
   118  1.1700000000000D+00 -5.2894824161777D-01  7.7883226928765D-02
   119  1.1800000000000D+00 -5.0293216646049D-01  7.9069315051689D-02
   120  1.1900000000000D+00 -4.7278880525500D-01  7.8455679847471D-02
   121  1.2000000000000D+00 -4.3919801462811D-01  7.6238564867667D-02
   122  1.2100000000000D+00 -4.0288359421163D-01  7.2633589114595D-02
   123  1.2200000000000D+00 -3.6459711520339D-01  6.7870084844993D-02
   124  1.2300000000000D+00 -3.2510072046357D-01  6.2184944777590D-02
   125  1.2400000000000D+00 -2.8515174235544D-01  5.5816968843841D-02
   126  1.2500000000000D+00 -2.4549428589571D-01  4.9003437811134D-02
   127  1.2600000000000D+00 -2.0684914904743D-01  4.1976158286935D-02
   128  1.2700000000000D+00 -1.6990434581406D-01  3.4957717445294D-02
   129  1.2800000000000D+00 -1.3530600173907D-01  2.8157883265621D-02
   130  1.2900000000000D+00 -1.0364984205638D-01  2.1770232929213D-02
   131  1.3000000000000D+00 -7.5473346465517D-02  1.5969042671250D-02
   132  1.3100000000000D+00 -5.1255235576550D-02  1.0907896026175D-02
   133  1.3200000000000D+00 -3.1386208114287D-02  6.7122654372225D-03
   134  1.3300000000000D+00 -1.6095856107813D-02  3.4624378951639D-03
   135  1.3400000000000D+00 -5.9470029392386D-03  1.3015897817941D-03
   136  1.3500000000000D+00 -1.0323055452702D-03  2.5863858389166D-04
   137  1.3600000000000D+00  2.9006930275740D-04 -3.5193050797928D-05
   138  1.3700000000000D+00  5.5288080613828D-05 -9.1893780750037D-06
   139  1.3800000000000D+00 -9.6919498542376D-05  1.6917099687241D-05
   140  1.3900000000000D+00  8.1153937431123D-06 -1.3078708707645D-06
   141  1.4000000000000D+00  1.2671200331250D-05 -2.0959642992449D-06
   142  1.4100000000000D+00  1.1065742198406D-07 -1.1647204266500D-07
   143  1.4200000000000D+00  2.8084354435361D-08 -2.9560078929776D-08
   144  1.4300000000000D+00  0.0000000000000D+00  0.0000000000000D+00
   145  1.4400000000000D+00  0.0000000000000D+00  0.0000000000000D+00
   146  1.4500000000000D+00  0.0000000000000D+00  0.0000000000000D+00
   147  1.4600000000000D+00  0.0000000000000D+00  0.0000000000000D+00
   148  1.4700000000000D+00  0.0000000000000D+00  0.0000000000000D+00
   149  1.4800000000000D+00  0.0000000000000D+00  0.0000000000000D+00
   150  1.4900000000000D+00  0.0000000000000D+00  0.0000000000000D+00
   151  1.5000000000000D+00  0.0000000000000D+00  0.0000000000000D+00
   152  1.5100000000000D+00  0.0000000000000D+00  0.0000000000000D+00
   153  1.5200000000000D+00  0.0000000000000D+00  0.0000000000000D+00
   154  1.5300000000000D+00  0.0000000000000D+00  0.0000000000000D+00
   155  1.5400000000000D+00  0.0000000000000D+00  0.0000000000000D+00
   156  1.5500000000000D+00  0.0000000000000D+00  0.0000000000000D+00
   157  1.5600000000000D+00  0.0000000000000D+00  0.0000000000000D+00
   158  1.5700000000000D+00  0.0000000000000D+00  0.0000000000000D+00
   159  1.5800000000000D+00  0.0000000000000D+00  0.0000000000000D+00
   160  1.5900000000000D+00  0.0000000000000D+00  0.0000000000000D+00
   161  1.6000000000000D+00  0.0000000000000D+00  0.0000000000000D+00
   162  1.6100000000000D+00  0.0000000000000D+00  0.0000000000000D+00
   163  1.6200000000000D+00  0.0000000000000D+00  0.0000000000000D+00
   164  1.6300000000000D+00  0.0000000000000D+00  0.0000000000000D+00
   165  1.6400000000000D+00  0.0000000000000D+00  0.0000000000000D+00
   166  1.6500000000000D+00  0.0000000000000D+00  0.0000000000000D+00
   167  1.6600000000000D+00  0.0000000000000D+00  0.0000000000000D+00
   168  1.6700000000000D+00  0.0000000000000D+00  0.0000000000000D+00
   169  1.6800000000000D+00  0.0000000000000D+00  0.0000000000000D+00
   170  1.6900000000000D+00  0.0000000000000D+00  0.0000000000000D+00
   171  1.7000000000000D+00  0.0000000000000D+00  0.0000000000000D+00
   172  1.7100000000000D+00  0.0000000000000D+00  0.0000000000000D+00
   173  1.7200000000000D+00  0.0000000000000D+00  0.0000000000000D+00
   174  1.7300000000000D+00  0.0000000000000D+00  0.0000000000000D+00
   175  1.7400000000000D+00  0.0000000000000D+00  0.0000000000000D+00
   176  1.7500000000000D+00  0.0000000000000D+00  0.0000000000000D+00
   177  1.7600000000000D+00  0.0000000000000D+00  0.0000000000000D+00
   178  1.7700000000000D+00  0.0000000000000D+00  0.0000000000000D+00
   179  1.7800000000000D+00  0.0000000000000D+00  0.0000000000000D+00
   180  1.7900000000000D+00  0.0000000000000D+00  0.0000000000000D+00
   181  1.8000000000000D+00  0.0000000000000D+00  0.0000000000000D+00
   182  1.8100000000000D+00  0.0000000000000D+00  0.0000000000000D+00
   183  1.8200000000000D+00  0.0000000000000D+00  0.0000000000000D+00
   184  1.8300000000000D+00  0.0000000000000D+00  0.0000000000000D+00
   185  1.8400000000000D+00  0.0000000000000D+00  0.0000000000000D+00
   186  1.8500000000000D+00  0.0000000000000D+00  0.0000000000000D+00
   187  1.8600000000000D+00  0.0000000000000D+00  0.0000000000000D+00
   188  1.8700000000000D+00  0.0000000000000D+00  0.0000000000000D+00
   189  1.8800000000000D+00  0.0000000000000D+00  0.0000000000000D+00
   190  1.8900000000000D+00  0.0000000000000D+00  0.0000000000000D+00
   191  1.9000000000000D+00  0.0000000000000D+00  0.0000000000000D+00
   192  1.9100000000000D+00  0.0000000000000D+00  0.0000000000000D+00
   193  1.9200000000000D+00  0.0000000000000D+00  0.0000000000000D+00
   194  1.9300000000000D+00  0.0000000000000D+00  0.0000000000000D+00
   195  1.9400000000000D+00  0.0000000000000D+00  0.0000000000000D+00
   196  1.9500000000000D+00  0.0000000000000D+00  0.0000000000000D+00
   197  1.9600000000000D+00  0.0000000000000D+00  0.0000000000000D+00
   198  1.9700000000000D+00  0.0000000000000D+00  0.0000000000000D+00
   199  1.9800000000000D+00  0.0000000000000D+00  0.0000000000000D+00
   200  1.9900000000000D+00  0.0000000000000D+00  0.0000000000000D+00
   201  2.0000000000000D+00  0.0000000000000D+00  0.0000000000000D+00
   202  2.0100000000000D+00  0.0000000000000D+00  0.0000000000000D+00
   203  2.0200000000000D+00  0.0000000000000D+00  0.0000000000000D+00
   204  2.0300000000000D+00  0.0000000000000D+00  0.0000000000000D+00
   205  2.0400000000000D+00  0.0000000000000D+00  0.0000000000000D+00
   206  2.0500000000000D+00  0.0000000000000D+00  0.0000000000000D+00
   207  2.0600000000000D+00  0.0000000000000D+00  0.0000000000000D+00
   208  2.0700000000000D+00  0.0000000000000D+00  0.0000000000000D+00
   209  2.0800000000000D+00  0.0000000000000D+00  0.0000000000000D+00
   210  2.0900000000000D+00  0.0000000000000D+00  0.0000000000000D+00
   211  2.1000000000000D+00  0.0000000000000D+00  0.0000000000000D+00
   212  2.1100000000000D+00  0.0000000000000D+00  0.0000000000000D+00
   213  2.1200000000000D+00  0.0000000000000D+00  0.0000000000000D+00
   214  2.1300000000000D+00  0.0000000000000D+00  0.0000000000000D+00
   215  2.1400000000000D+00  0.0000000000000D+00  0.0000000000000D+00
   216  2.1500000000000D+00  0.0000000000000D+00  0.0000000000000D+00
   217  2.1600000000000D+00  0.0000000000000D+00  0.0000000000000D+00
   218  2.1700000000000D+00  0.0000000000000D+00  0.0000000000000D+00
   219  2.1800000000000D+00  0.0000000000000D+00  0.0000000000000D+00
   220  2.1900000000000D+00  0.0000000000000D+00  0.0000000000000D+00
   221  2.2000000000000D+00  0.0000000000000D+00  0.0000000000000D+00
   222  2.2100000000000D+00  0.0000000000000D+00  0.0000000000000D+00
   223  2.2200000000000D+00  0.0000000000000D+00  0.0000000000000D+00
   224  2.2300000000000D+00  0.0000000000000D+00  0.0000000000000D+00
   225  2.2400000000000D+00  0.0000000000000D+00  0.0000000000000D+00
   226  2.2500000000000D+00  0.0000000000000D+00  0.0000000000000D+00
   227  2.2600000000000D+00  0.0000000000000D+00  0.0000000000000D+00
   228  2.2700000000000D+00  0.0000000000000D+00  0.0000000000000D+00
   229  2.2800000000000D+00  0.0000000000000D+00  0.0000000000000D+00
   230  2.2900000000000D+00  0.0000000000000D+00  0.0000000000000D+00
   231  2.3000000000000D+00  0.0000000000000D+00  0.0000000000000D+00
   232  2.3100000000000D+00  0.0000000000000D+00  0.0000000000000D+00
   233  2.3200000000000D+00  0.0000000000000D+00  0.0000000000000D+00
   234  2.3300000000000D+00  0.0000000000000D+00  0.0000000000000D+00
   235  2.3400000000000D+00  0.0000000000000D+00  0.0000000000000D+00
   236  2.3500000000000D+00  0.0000000000000D+00  0.0000000000000D+00
   237  2.3600000000000D+00  0.0000000000000D+00  0.0000000000000D+00
   238  2.3700000000000D+00  0.0000000000000D+00  0.0000000000000D+00
   239  2.3800000000000D+00  0.0000000000000D+00  0.0000000000000D+00
   240  2.3900000000000D+00  0.0000000000000D+00  0.0000000000000D+00
   241  2.4000000000000D+00  0.0000000000000D+00  0.0000000000000D+00
   242  2.4100000000000D+00  0.0000000000000D+00  0.0000000000000D+00
   243  2.4200000000000D+00  0.0000000000000D+00  0.0000000000000D+00
   244  2.4300000000000D+00  0.0000000000000D+00  0.0000000000000D+00
   245  2.4400000000000D+00  0.0000000000000D+00  0.0000000000000D+00
   246  2.4500000000000D+00  0.0000000000000D+00  0.0000000000000D+00
   247  2.4600000000000D+00  0.0000000000000D+00  0.0000000000000D+00
   248  2.4700000000000D+00  0.0000000000000D+00  0.0000000000000D+00
   249  2.4800000000000D+00  0.0000000000000D+00  0.0000000000000D+00
   250  2.4900000000000D+00  0.0000000000000D+00  0.0000000000000D+00
   251  2.5000000000000D+00  0.0000000000000D+00  0.0000000000000D+00
   252  2.5100000000000D+00  0.0000000000000D+00  0.0000000000000D+00
   253  2.5200000000000D+00  0.0000000000000D+00  0.0000000000000D+00
   254  2.5300000000000D+00  0.0000000000000D+00  0.0000000000000D+00
   255  2.5400000000000D+00  0.0000000000000D+00  0.0000000000000D+00
   256  2.5500000000000D+00  0.0000000000000D+00  0.0000000000000D+00
   257  2.5600000000000D+00  0.0000000000000D+00  0.0000000000000D+00
   258  2.5700000000000D+00  0.0000000000000D+00  0.0000000000000D+00
   259  2.5800000000000D+00  0.0000000000000D+00  0.0000000000000D+00
   260  2.5900000000000D+00  0.0000000000000D+00  0.0000000000000D+00
   261  2.6000000000000D+00  0.0000000000000D+00  0.0000000000000D+00
   262  2.6100000000000D+00  0.0000000000000D+00  0.0000000000000D+00
   263  2.6200000000000D+00  0.0000000000000D+00  0.0000000000000D+00
   264  2.6300000000000D+00  0.0000000000000D+00  0.0000000000000D+00
   265  2.6400000000000D+00  0.0000000000000D+00  0.0000000000000D+00
   266  2.6500000000000D+00  0.0000000000000D+00  0.0000000000000D+00
   267  2.6600000000000D+00  0.0000000000000D+00  0.0000000000000D+00
   268  2.6700000000000D+00  0.0000000000000D+00  0.0000000000000D+00
   269  2.6800000000000D+00  0.0000000000000D+00  0.0000000000000D+00
   270  2.6900000000000D+00  0.0000000000000D+00  0.0000000000000D+00
   271  2.7000000000000D+00  0.0000000000000D+00  0.0000000000000D+00
   272  2.7100000000000D+00  0.0000000000000D+00  0.0000000000000D+00
   273  2.7200000000000D+00  0.0000000000000D+00  0.0000000000000D+00
   274  2.7300000000000D+00  0.0000000000000D+00  0.0000000000000D+00
   275  2.7400000000000D+00  0.0000000000000D+00  0.0000000000000D+00
   276  2.7500000000000D+00  0.0000000000000D+00  0.0000000000000D+00
   277  2.7600000000000D+00  0.0000000000000D+00  0.0000000000000D+00
   278  2.7700000000000D+00  0.0000000000000D+00  0.0000000000000D+00
   279  2.7800000000000D+00  0.0000000000000D+00  0.0000000000000D+00
   280  2.7900000000000D+00  0.0000000000000D+00  0.0000000000000D+00
   281  2.8000000000000D+00  0.0000000000000D+00  0.0000000000000D+00
   282  2.8100000000000D+00  0.0000000000000D+00  0.0000000000000D+00
   283  2.8200000000000D+00  0.0000000000000D+00  0.0000000000000D+00
   284  2.8300000000000D+00  0.0000000000000D+00  0.0000000000000D+00
   285  2.8400000000000D+00  0.0000000000000D+00  0.0000000000000D+00
   286  2.8500000000000D+00  0.0000000000000D+00  0.0000000000000D+00
   287  2.8600000000000D+00  0.0000000000000D+00  0.0000000000000D+00
   288  2.8700000000000D+00  0.0000000000000D+00  0.0000000000000D+00
   289  2.8800000000000D+00  0.0000000000000D+00  0.0000000000000D+00
   290  2.8900000000000D+00  0.0000000000000D+00  0.0000000000000D+00
   291  2.9000000000000D+00  0.0000000000000D+00  0.0000000000000D+00
   292  2.9100000000000D+00  0.0000000000000D+00  0.0000000000000D+00
   293  2.9200000000000D+00  0.0000000000000D+00  0.0000000000000D+00
   294  2.9300000000000D+00  0.0000000000000D+00  0.0000000000000D+00
   295  2.9400000000000D+00  0.0000000000000D+00  0.0000000000000D+00
   296  2.9500000000000D+00  0.0000000000000D+00  0.0000000000000D+00
   297  2.9600000000000D+00  0.0000000000000D+00  0.0000000000000D+00
   298  2.9700000000000D+00  0.0000000000000D+00  0.0000000000000D+00
   299  2.9800000000000D+00  0.0000000000000D+00  0.0000000000000D+00
   300  2.9900000000000D+00  0.0000000000000D+00  0.0000000000000D+00
   301  3.0000000000000D+00  0.0000000000000D+00  0.0000000000000D+00
   302  3.0100000000000D+00  0.0000000000000D+00  0.0000000000000D+00
   303  3.0200000000000D+00  0.0000000000000D+00  0.0000000000000D+00
   304  3.0300000000000D+00  0.0000000000000D+00  0.0000000000000D+00
   305  3.0400000000000D+00  0.0000000000000D+00  0.0000000000000D+00
   306  3.0500000000000D+00  0.0000000000000D+00  0.0000000000000D+00
   307  3.0600000000000D+00  0.0000000000000D+00  0.0000000000000D+00
   308  3.0700000000000D+00  0.0000000000000D+00  0.0000000000000D+00
   309  3.0800000000000D+00  0.0000000000000D+00  0.0000000000000D+00
   310  3.0900000000000D+00  0.0000000000000D+00  0.0000000000000D+00
   311  3.1000000000000D+00  0.0000000000000D+00  0.0000000000000D+00
   312  3.1100000000000D+00  0.0000000000000D+00  0.0000000000000D+00
   313  3.1200000000000D+00  0.0000000000000D+00  0.0000000000000D+00
   314  3.1300000000000D+00  0.0000000000000D+00  0.0000000000000D+00
   315  3.1400000000000D+00  0.0000000000000D+00  0.0000000000000D+00
   316  3.1500000000000D+00  0.0000000000000D+00  0.0000000000000D+00
   317  3.1600000000000D+00  0.0000000000000D+00  0.0000000000000D+00
   318  3.1700000000000D+00  0.0000000000000D+00  0.0000000000000D+00
   319  3.1800000000000D+00  0.0000000000000D+00  0.0000000000000D+00
   320  3.1900000000000D+00  0.0000000000000D+00  0.0000000000000D+00
   321  3.2000000000000D+00  0.0000000000000D+00  0.0000000000000D+00
   322  3.2100000000000D+00  0.0000000000000D+00  0.0000000000000D+00
   323  3.2200000000000D+00  0.0000000000000D+00  0.0000000000000D+00
   324  3.2300000000000D+00  0.0000000000000D+00  0.0000000000000D+00
   325  3.2400000000000D+00  0.0000000000000D+00  0.0000000000000D+00
   326  3.2500000000000D+00  0.0000000000000D+00  0.0000000000000D+00
   327  3.2600000000000D+00  0.0000000000000D+00  0.0000000000000D+00
   328  3.2700000000000D+00  0.0000000000000D+00  0.0000000000000D+00
   329  3.2800000000000D+00  0.0000000000000D+00  0.0000000000000D+00
   330  3.2900000000000D+00  0.0000000000000D+00  0.0000000000000D+00
   331  3.3000000000000D+00  0.0000000000000D+00  0.0000000000000D+00
   332  3.3100000000000D+00  0.0000000000000D+00  0.0000000000000D+00
   333  3.3200000000000D+00  0.0000000000000D+00  0.0000000000000D+00
   334  3.3300000000000D+00  0.0000000000000D+00  0.0000000000000D+00
   335  3.3400000000000D+00  0.0000000000000D+00  0.0000000000000D+00
   336  3.3500000000000D+00  0.0000000000000D+00  0.0000000000000D+00
   337  3.3600000000000D+00  0.0000000000000D+00  0.0000000000000D+00
   338  3.3700000000000D+00  0.0000000000000D+00  0.0000000000000D+00
   339  3.3800000000000D+00  0.0000000000000D+00  0.0000000000000D+00
   340  3.3900000000000D+00  0.0000000000000D+00  0.0000000000000D+00
   341  3.4000000000000D+00  0.0000000000000D+00  0.0000000000000D+00
   342  3.4100000000000D+00  0.0000000000000D+00  0.0000000000000D+00
   343  3.4200000000000D+00  0.0000000000000D+00  0.0000000000000D+00
   344  3.4300000000000D+00  0.0000000000000D+00  0.0000000000000D+00
   345  3.4400000000000D+00  0.0000000000000D+00  0.0000000000000D+00
   346  3.4500000000000D+00  0.0000000000000D+00  0.0000000000000D+00
   347  3.4600000000000D+00  0.0000000000000D+00  0.0000000000000D+00
   348  3.4700000000000D+00  0.0000000000000D+00  0.0000000000000D+00
   349  3.4800000000000D+00  0.0000000000000D+00  0.0000000000000D+00
   350  3.4900000000000D+00  0.0000000000000D+00  0.0000000000000D+00
   351  3.5000000000000D+00  0.0000000000000D+00  0.0000000000000D+00
   352  3.5100000000000D+00  0.0000000000000D+00  0.0000000000000D+00
   353  3.5200000000000D+00  0.0000000000000D+00  0.0000000000000D+00
   354  3.5300000000000D+00  0.0000000000000D+00  0.0000000000000D+00
   355  3.5400000000000D+00  0.0000000000000D+00  0.0000000000000D+00
   356  3.5500000000000D+00  0.0000000000000D+00  0.0000000000000D+00
   357  3.5600000000000D+00  0.0000000000000D+00  0.0000000000000D+00
   358  3.5700000000000D+00  0.0000000000000D+00  0.0000000000000D+00
   359  3.5800000000000D+00  0.0000000000000D+00  0.0000000000000D+00
   360  3.5900000000000D+00  0.0000000000000D+00  0.0000000000000D+00
   361  3.6000000000000D+00  0.0000000000000D+00  0.0000000000000D+00
   362  3.6100000000000D+00  0.0000000000000D+00  0.0000000000000D+00
   363  3.6200000000000D+00  0.0000000000000D+00  0.0000000000000D+00
   364  3.6300000000000D+00  0.0000000000000D+00  0.0000000000000D+00
   365  3.6400000000000D+00  0.0000000000000D+00  0.0000000000000D+00
   366  3.6500000000000D+00  0.0000000000000D+00  0.0000000000000D+00
   367  3.6600000000000D+00  0.0000000000000D+00  0.0000000000000D+00
   368  3.6700000000000D+00  0.0000000000000D+00  0.0000000000000D+00
   369  3.6800000000000D+00  0.0000000000000D+00  0.0000000000000D+00
   370  3.6900000000000D+00  0.0000000000000D+00  0.0000000000000D+00
   371  3.7000000000000D+00  0.0000000000000D+00  0.0000000000000D+00
   372  3.7100000000000D+00  0.0000000000000D+00  0.0000000000000D+00
   373  3.7200000000000D+00  0.0000000000000D+00  0.0000000000000D+00
   374  3.7300000000000D+00  0.0000000000000D+00  0.0000000000000D+00
   375  3.7400000000000D+00  0.0000000000000D+00  0.0000000000000D+00
   376  3.7500000000000D+00  0.0000000000000D+00  0.0000000000000D+00
   377  3.7600000000000D+00  0.0000000000000D+00  0.0000000000000D+00
   378  3.7700000000000D+00  0.0000000000000D+00  0.0000000000000D+00
   379  3.7800000000000D+00  0.0000000000000D+00  0.0000000000000D+00
   380  3.7900000000000D+00  0.0000000000000D+00  0.0000000000000D+00
   381  3.8000000000000D+00  0.0000000000000D+00  0.0000000000000D+00
   382  3.8100000000000D+00  0.0000000000000D+00  0.0000000000000D+00
   383  3.8200000000000D+00  0.0000000000000D+00  0.0000000000000D+00
   384  3.8300000000000D+00  0.0000000000000D+00  0.0000000000000D+00
   385  3.8400000000000D+00  0.0000000000000D+00  0.0000000000000D+00
   386  3.8500000000000D+00  0.0000000000000D+00  0.0000000000000D+00
   387  3.8600000000000D+00  0.0000000000000D+00  0.0000000000000D+00
   388  3.8700000000000D+00  0.0000000000000D+00  0.0000000000000D+00
   389  3.8800000000000D+00  0.0000000000000D+00  0.0000000000000D+00
   390  3.8900000000000D+00  0.0000000000000D+00  0.0000000000000D+00
   391  3.9000000000000D+00  0.0000000000000D+00  0.0000000000000D+00
   392  3.9100000000000D+00  0.0000000000000D+00  0.0000000000000D+00
   393  3.9200000000000D+00  0.0000000000000D+00  0.0000000000000D+00
   394  3.9300000000000D+00  0.0000000000000D+00  0.0000000000000D+00
   395  3.9400000000000D+00  0.0000000000000D+00  0.0000000000000D+00
   396  3.9500000000000D+00  0.0000000000000D+00  0.0000000000000D+00
   397  3.9600000000000D+00  0.0000000000000D+00  0.0000000000000D+00
   398  3.9700000000000D+00  0.0000000000000D+00  0.0000000000000D+00
   399  3.9800000000000D+00  0.0000000000000D+00  0.0000000000000D+00
   400  3.9900000000000D+00  0.0000000000000D+00  0.0000000000000D+00
   401  4.0000000000000D+00  0.0000000000000D+00  0.0000000000000D+00
   402  4.0100000000000D+00  0.0000000000000D+00  0.0000000000000D+00
   403  4.0200000000000D+00  0.0000000000000D+00  0.0000000000000D+00
   404  4.0300000000000D+00  0.0000000000000D+00  0.0000000000000D+00
   405  4.0400000000000D+00  0.0000000000000D+00  0.0000000000000D+00
   406  4.0500000000000D+00  0.0000000000000D+00  0.0000000000000D+00
   407  4.0600000000000D+00  0.0000000000000D+00  0.0000000000000D+00
   408  4.0700000000000D+00  0.0000000000000D+00  0.0000000000000D+00
   409  4.0800000000000D+00  0.0000000000000D+00  0.0000000000000D+00
   410  4.0900000000000D+00  0.0000000000000D+00  0.0000000000000D+00
   411  4.1000000000000D+00  0.0000000000000D+00  0.0000000000000D+00
   412  4.1100000000000D+00  0.0000000000000D+00  0.0000000000000D+00
   413  4.1200000000000D+00  0.0000000000000D+00  0.0000000000000D+00
   414  4.1300000000000D+00  0.0000000000000D+00  0.0000000000000D+00
   415  4.1400000000000D+00  0.0000000000000D+00  0.0000000000000D+00
   416  4.1500000000000D+00  0.0000000000000D+00  0.0000000000000D+00
   417  4.1600000000000D+00  0.0000000000000D+00  0.0000000000000D+00
   418  4.1700000000000D+00  0.0000000000000D+00  0.0000000000000D+00
   419  4.1800000000000D+00  0.0000000000000D+00  0.0000000000000D+00
   420  4.1900000000000D+00  0.0000000000000D+00  0.0000000000000D+00
   421  4.2000000000000D+00  0.0000000000000D+00  0.0000000000000D+00
   422  4.2100000000000D+00  0.0000000000000D+00  0.0000000000000D+00