Sb    ONCVPSP-3.3.0  r_core=   2.51105   2.15035   2.60253
     51.0000      5.0000      170607    zatom,zion,pspd
     8      11   2     4   600     0    pspcod,pspxc,lmax,lloc,mmax,r2well
  5.99000000  7.00000000  0.00000000    rchrg fchrg qchrg
     2     4     4     0    nproj
     3     1           extension_switch
     4     4     0    nprojso
   0                         5.6041271002365D-01  4.8481373430661D+00
     1  0.0000000000000D+00  6.2846117199200D-12 -7.4231454316731D-12
     2  1.0000000000000D-02 -7.4234792893140D-03  2.2705703960035D-02
     3  2.0000000000000D-02 -1.4839367762917D-02  4.5401271797344D-02
     4  3.0000000000000D-02 -2.2240101324583D-02  6.8076598545080D-02
     5  4.0000000000000D-02 -2.9618169078134D-02  9.0721641284832D-02
     6  5.0000000000000D-02 -3.6966139331738D-02  1.1332644951443D-01
     7  6.0000000000000D-02 -4.4276684891808D-02  1.3588119473334D-01
     8  7.0000000000000D-02 -5.1542607417157D-02  1.5837619899357D-01
     9  8.0000000000000D-02 -5.8756860610317D-02  1.8080196217157D-01
    10  9.0000000000000D-02 -6.5912572030814D-02  2.0314918772554D-01
    11  1.0000000000000D-01 -7.3003063324489D-02  2.2540880671383D-01
    12  1.1000000000000D-01 -8.0021868673601D-02  2.4757199986240D-01
    13  1.2000000000000D-01 -8.6962751284615D-02  2.6963021748349D-01
    14  1.3000000000000D-01 -9.3819717743839D-02  2.9157519706318D-01
    15  1.4000000000000D-01 -1.0058703008574D-01  3.1339897835273D-01
    16  1.5000000000000D-01 -1.0725921543444D-01  3.3509391581614D-01
    17  1.6000000000000D-01 -1.1383107309555D-01  3.5665268830662D-01
    18  1.7000000000000D-01 -1.2029767899347D-01  3.7806830586397D-01
    19  1.8000000000000D-01 -1.2665438736747D-01  3.9933411354700D-01
    20  1.9000000000000D-01 -1.3289682965947D-01  4.2044379223647D-01
    21  2.0000000000000D-01 -1.3902091054619D-01  4.4139135636673D-01
    22  2.1000000000000D-01 -1.4502280108893D-01  4.6217114856745D-01
    23  2.2000000000000D-01 -1.5089892899491D-01  4.8277783121977D-01
    24  2.3000000000000D-01 -1.5664596600536D-01  5.0320637495485D-01
    25  2.4000000000000D-01 -1.6226081244690D-01  5.2345204414625D-01
    26  2.5000000000000D-01 -1.6774057900389D-01  5.4351037947056D-01
    27  2.6000000000000D-01 -1.7308256579074D-01  5.6337717763392D-01
    28  2.7000000000000D-01 -1.7828423882442D-01  5.8304846838432D-01
    29  2.8000000000000D-01 -1.8334320401752D-01  6.0252048895148D-01
    30  2.9000000000000D-01 -1.8825717883312D-01  6.2178965607700D-01
    31  3.0000000000000D-01 -1.9302396176171D-01  6.4085253581783D-01
    32  3.1000000000000D-01 -1.9764139979971D-01  6.5970581132492D-01
    33  3.2000000000000D-01 -2.0210735412705D-01  6.7834624881694D-01
    34  3.3000000000000D-01 -2.0641966419828D-01  6.9677066198531D-01
    35  3.4000000000000D-01 -2.1057611047802D-01  7.1497587508223D-01
    36  3.5000000000000D-01 -2.1457437606629D-01  7.3295868495659D-01
    37  3.6000000000000D-01 -2.1841200747267D-01  7.5071582231477D-01
    38  3.7000000000000D-01 -2.2208637481110D-01  7.6824391249361D-01
    39  3.8000000000000D-01 -2.2559463169737D-01  7.8553943604095D-01
    40  3.9000000000000D-01 -2.2893367514099D-01  8.0259868940587D-01
    41  4.0000000000000D-01 -2.3210010573073D-01  8.1941774604536D-01
    42  4.1000000000000D-01 -2.3509018841922D-01  8.3599241825643D-01
    43  4.2000000000000D-01 -2.3789981421615D-01  8.5231822004361D-01
    44  4.3000000000000D-01 -2.4052446310247D-01  8.6839033133008D-01
    45  4.4000000000000D-01 -2.4295916847829D-01  8.8420356381737D-01
    46  4.5000000000000D-01 -2.4519848345650D-01  8.9975232879270D-01
    47  4.6000000000000D-01 -2.4723644931077D-01  9.1503060717595D-01
    48  4.7000000000000D-01 -2.4906656638216D-01  9.3003192208830D-01
    49  4.8000000000000D-01 -2.5068176774127D-01  9.4474931421319D-01
    50  4.9000000000000D-01 -2.5207439589493D-01  9.5917532020720D-01
    51  5.0000000000000D-01 -2.5323618281550D-01  9.7330195440265D-01
    52  5.1000000000000D-01 -2.5415823355862D-01  9.8712069402740D-01
    53  5.2000000000000D-01 -2.5483101372166D-01  1.0006224681484D+00
    54  5.3000000000000D-01 -2.5524434097875D-01  1.0137976505255D+00
    55  5.4000000000000D-01 -2.5538738091117D-01  1.0266360565405D+00
    56  5.5000000000000D-01 -2.5524864733292D-01  1.0391269443434D+00
    57  5.6000000000000D-01 -2.5481600729038D-01  1.0512590203343D+00
    58  5.7000000000000D-01 -2.5407669089333D-01  1.0630204490732D+00
    59  5.8000000000000D-01 -2.5301730611101D-01  1.0743988676859D+00
    60  5.9000000000000D-01 -2.5162385864248D-01  1.0853814048041D+00
    61  6.0000000000000D-01 -2.4988177694467D-01  1.0959547040553D+00
    62  6.1000000000000D-01 -2.4777594247506D-01  1.1061049520854D+00
    63  6.2000000000000D-01 -2.4529072517809D-01  1.1158179110729D+00
    64  6.3000000000000D-01 -2.4241002421610D-01  1.1250789556620D+00
    65  6.4000000000000D-01 -2.3911731391704D-01  1.1338731142178D+00
    66  6.5000000000000D-01 -2.3539569488111D-01  1.1421851142750D+00
    67  6.6000000000000D-01 -2.3122795015955D-01  1.1499994320279D+00
    68  6.7000000000000D-01 -2.2659660638830D-01  1.1573003456795D+00
    69  6.8000000000000D-01 -2.2148399972968D-01  1.1640719924441D+00
    70  6.9000000000000D-01 -2.1587234644559D-01  1.1702984289712D+00
    71  7.0000000000000D-01 -2.0974381789602D-01  1.1759636949361D+00
    72  7.1000000000000D-01 -2.0308061972798D-01  1.1810518795165D+00
    73  7.2000000000000D-01 -1.9586507499144D-01  1.1855471904588D+00
    74  7.3000000000000D-01 -1.8807971089139D-01  1.1894340254117D+00
    75  7.4000000000000D-01 -1.7970734885866D-01  1.1926970451916D+00
    76  7.5000000000000D-01 -1.7073119759636D-01  1.1953212486236D+00
    77  7.6000000000000D-01 -1.6113494873469D-01  1.1972920485926D+00
    78  7.7000000000000D-01 -1.5090287470390D-01  1.1985953489202D+00
    79  7.8000000000000D-01 -1.4001992841406D-01  1.1992176216786D+00
    80  7.9000000000000D-01 -1.2847184431001D-01  1.1991459845402D+00
    81  8.0000000000000D-01 -1.1624524035267D-01  1.1983682777579D+00
    82  8.1000000000000D-01 -1.0332772046134D-01  1.1968731403656D+00
    83  8.2000000000000D-01 -8.9707976937772D-02  1.1946500851891D+00
    84  8.3000000000000D-01 -7.5375892381118D-02  1.1916895722557D+00
    85  8.4000000000000D-01 -6.0322640592795D-02  1.1879830801958D+00
    86  8.5000000000000D-01 -4.4540785963375D-02  1.1835231752359D+00
    87  8.6000000000000D-01 -2.8024380828275D-02  1.1783035773872D+00
    88  8.7000000000000D-01 -1.0769060276814D-02  1.1723192234478D+00
    89  8.8000000000000D-01  7.2278661012836D-03  1.1655663264459D+00
    90  8.9000000000000D-01  2.5967326045103D-02  1.1580424311682D+00
    91  9.0000000000000D-01  4.5448400535528D-02  1.1497464654324D+00
    92  9.1000000000000D-01  6.5668244293036D-02  1.1406787867823D+00
    93  9.2000000000000D-01  8.6622011350360D-02  1.1308412243056D+00
    94  9.3000000000000D-01  1.0830278617827D-01  1.1202371152941D+00
    95  9.4000000000000D-01  1.3070152082679D-01  1.1088713364934D+00
    96  9.5000000000000D-01  1.5380697852683D-01  1.0967503297128D+00
    97  9.6000000000000D-01  1.7760568417692D-01  1.0838821215931D+00
    98  9.7000000000000D-01  2.0208188211725D-01  1.0702763373603D+00
    99  9.8000000000000D-01  2.2721750156824D-01  1.0559442084200D+00
   100  9.9000000000000D-01  2.5299213008396D-01  1.0408985736810D+00
   101  1.0000000000000D+00  2.7938299534142D-01  1.0251538745237D+00
   102  1.0100000000000D+00  3.0636495555512D-01  1.0087261433655D+00
   103  1.0200000000000D+00  3.3391049877476D-01  9.9163298580307D-01
   104  1.0300000000000D+00  3.6198975128677D-01  9.7389355634788D-01
   105  1.0400000000000D+00  3.9057049530589D-01  9.5552852780048D-01
   106  1.0500000000000D+00  4.1961819610416D-01  9.3656005434433D-01
   107  1.0600000000000D+00  4.4909603868537D-01  9.1701172847050D-01
   108  1.0700000000000D+00  4.7896497407329D-01  8.9690853187635D-01
   109  1.0800000000000D+00  5.0918377524131D-01  8.7627678051208D-01
   110  1.0900000000000D+00  5.3970910266693D-01  8.5514406398024D-01
   111  1.1000000000000D+00  5.7049557945447D-01  8.3353917952101D-01
   112  1.1100000000000D+00  6.0149587592256D-01  8.1149206084571D-01
   113  1.1200000000000D+00  6.3266080351733D-01  7.8903370210375D-01
   114  1.1300000000000D+00  6.6393941786026D-01  7.6619607729791D-01
   115  1.1400000000000D+00  6.9527913070262D-01  7.4301205548305D-01
   116  1.1500000000000D+00  7.2662583051091D-01  7.1951531210719D-01
   117  1.1600000000000D+00  7.5792401137492D-01  6.9574023686936D-01
   118  1.1700000000000D+00  7.8911690987886D-01  6.7172183849144D-01
   119  1.1800000000000D+00  8.2014664954168D-01  6.4749564681363D-01
   120  1.1900000000000D+00  8.5095439238882D-01  6.2309761263772D-01
   121  1.2000000000000D+00  8.8148049719424D-01  5.9856400575047D-01
   122  1.2100000000000D+00  9.1166468387623D-01  5.7393131157339D-01
   123  1.2200000000000D+00  9.4144620350726D-01  5.4923612688684D-01
   124  1.2300000000000D+00  9.7076401337169D-01  5.2451505508136D-01
   125  1.2400000000000D+00  9.9955695646489D-01  4.9980460139280D-01
   126  1.2500000000000D+00  1.0277639448011D+00  4.7514106857340D-01
   127  1.2600000000000D+00  1.0553241458806D+00  4.5056045344922D-01
   128  1.2700000000000D+00  1.0821771716397D+00  4.2609834481107D-01
   129  1.2800000000000D+00  1.1082632691793D+00  4.0178982307150D-01
   130  1.2900000000000D+00  1.1335235125672D+00  3.7766936211458D-01
   131  1.3000000000000D+00  1.1578999949838D+00  3.5377073375710D-01
   132  1.3100000000000D+00  1.1813360204697D+00  3.3012691520939D-01
   133  1.3200000000000D+00  1.2037762945354D+00  3.0676999992424D-01
   134  1.3300000000000D+00  1.2251671128772D+00  2.8373111220049D-01
   135  1.3400000000000D+00  1.2454565474520D+00  2.6104032586562D-01
   136  1.3500000000000D+00  1.2645946291590D+00  2.3872658737867D-01
   137  1.3600000000000D+00  1.2825335263793D+00  2.1681764363943D-01
   138  1.3700000000000D+00  1.2992277186535D+00  1.9533997475631D-01
   139  1.3800000000000D+00  1.3146341647460D+00  1.7431873205855D-01
   140  1.3900000000000D+00  1.3287124644137D+00  1.5377768152185D-01
   141  1.4000000000000D+00  1.3414250131754D+00  1.3373915281961D-01
   142  1.4100000000000D+00  1.3527371493967D+00  1.1422399416892D-01
   143  1.4200000000000D+00  1.3626172930935D+00  9.5251533047743D-02
   144  1.4300000000000D+00  1.3710370757626D+00  7.6839542956544D-02
   145  1.4400000000000D+00  1.3779714607211D+00  5.9004216217654D-02
   146  1.4500000000000D+00  1.3833988533650D+00  4.1760142888853D-02
   147  1.4600000000000D+00  1.3873012008035D+00  2.5120295803601D-02
   148  1.4700000000000D+00  1.3896640804771D+00  9.0960216552334D-03
   149  1.4800000000000D+00  1.3904767771721D+00 -6.3029618331183D-03
   150  1.4900000000000D+00  1.3897323482032D+00 -2.1068562848497D-02
   151  1.5000000000000D+00  1.3874276762541D+00 -3.5194306550383D-02
   152  1.5100000000000D+00  1.3835635096737D+00 -4.8675320463395D-02
   153  1.5200000000000D+00  1.3781444899347D+00 -6.1508314337470D-02
   154  1.5300000000000D+00  1.3711791659882D+00 -7.3691554652122D-02
   155  1.5400000000000D+00  1.3626799955020D+00 -8.5224834031745D-02
   156  1.5500000000000D+00  1.3526633326316D+00 -9.6109435720795D-02
   157  1.5600000000000D+00  1.3411494025894D+00 -1.0634809348603D-01
   158  1.5700000000000D+00  1.3281622626292D+00 -1.1594494709740D-01
   159  1.5800000000000D+00  1.3137297498817D+00 -1.2490549379622D-01
   160  1.5900000000000D+00  1.2978834157865D+00 -1.3323653595629D-01
   161  1.6000000000000D+00  1.2806584475727D+00 -1.4094612533391D-01
   162  1.6100000000000D+00  1.2620935767568D+00 -1.4804350417811D-01
   163  1.6200000000000D+00  1.2422309750905D+00 -1.5453904358000D-01
   164  1.6300000000000D+00  1.2211161381491D+00 -1.6044417937535D-01
   165  1.6400000000000D+00  1.1987977569804D+00 -1.6577134597151D-01
   166  1.6500000000000D+00  1.1753275782070D+00 -1.7053390842878D-01
   167  1.6600000000000D+00  1.1507602530028D+00 -1.7474609316875D-01
   168  1.6700000000000D+00  1.1251531755097D+00 -1.7842291763156D-01
   169  1.6800000000000D+00  1.0985663111374D+00 -1.8158011926133D-01
   170  1.6900000000000D+00  1.0710620154436D+00 -1.8423408411446D-01
   171  1.7000000000000D+00  1.0427048440895D+00 -1.8640177547648D-01
   172  1.7100000000000D+00  1.0135613546491D+00 -1.8810066274445D-01
   173  1.7200000000000D+00  9.8369990084960D-01 -1.8934865095734D-01
   174  1.7300000000000D+00  9.5319042005433D-01 -1.9016401119474D-01
   175  1.7400000000000D+00  9.2210421466944D-01 -1.9056531220272D-01
   176  1.7500000000000D+00  8.9051372828119D-01 -1.9057135344500D-01
   177  1.7600000000000D+00  8.5849231731353D-01 -1.9020109988160D-01
   178  1.7700000000000D+00  8.2611401898844D-01 -1.8947361868009D-01
   179  1.7800000000000D+00  7.9345331646975D-01 -1.8840801806006D-01
   180  1.7900000000000D+00  7.6058490195463D-01 -1.8702338852491D-01
   181  1.8000000000000D+00  7.2758343863186D-01 -1.8533874652599D-01
   182  1.8100000000000D+00  6.9452332230015D-01 -1.8337298091305D-01
   183  1.8200000000000D+00  6.6147844350501D-01 -1.8114480200420D-01
   184  1.8300000000000D+00  6.2852195111218D-01 -1.7867269377895D-01
   185  1.8400000000000D+00  5.9572601797191D-01 -1.7597486877498D-01
   186  1.8500000000000D+00  5.6316160982448D-01 -1.7306922633940D-01
   187  1.8600000000000D+00  5.3089825782309D-01 -1.6997331365554D-01
   188  1.8700000000000D+00  4.9900383599647D-01 -1.6670429014638D-01
   189  1.8800000000000D+00  4.6754434389352D-01 -1.6327889476527D-01
   190  1.8900000000000D+00  4.3658369564703D-01 -1.5971341650515D-01
   191  1.9000000000000D+00  4.0618351585521D-01 -1.5602366788997D-01
   192  1.9100000000000D+00  3.7640294307648D-01 -1.5222496141251D-01
   193  1.9200000000000D+00  3.4729844185667D-01 -1.4833208898846D-01
   194  1.9300000000000D+00  3.1892362324794D-01 -1.4435930402670D-01
   195  1.9400000000000D+00  2.9132907554170D-01 -1.4032030643031D-01
   196  1.9500000000000D+00  2.6456220430413D-01 -1.3622822993591D-01
   197  1.9600000000000D+00  2.3866708382503D-01 -1.3209563208328D-01
   198  1.9700000000000D+00  2.1368431904856D-01 -1.2793448635616D-01
   199  1.9800000000000D+00  1.8965091931740D-01 -1.2375617649603D-01
   200  1.9900000000000D+00  1.6660018415273D-01 -1.1957149281229D-01
   201  2.0000000000000D+00  1.4456160067309D-01 -1.1539063022737D-01
   202  2.0100000000000D+00  1.2356075452415D-01 -1.1122318801033D-01
   203  2.0200000000000D+00  1.0361925237097D-01 -1.0707817091677D-01
   204  2.0300000000000D+00  8.4754658410633D-02 -1.0296399158898D-01
   205  2.0400000000000D+00  6.6980443266477D-02 -9.8888474060430D-02
   206  2.0500000000000D+00  5.0305946059670D-02 -9.4858858153168D-02
   207  2.0600000000000D+00  3.4736350323138D-02 -9.0881804542969D-02
   208  2.0700000000000D+00  2.0272671716625D-02 -8.6963400526507D-02
   209  2.0800000000000D+00  6.9117571346959D-03 -8.3109165222992D-02
   210  2.0900000000000D+00 -5.3536905473282D-03 -7.9324058342247D-02
   211  2.1000000000000D+00 -1.6535091720960D-02 -7.5612485040576D-02
   212  2.1100000000000D+00 -2.6647999907789D-02 -7.1978290566426D-02
   213  2.1200000000000D+00 -3.5711873369387D-02 -6.8424807769457D-02
   214  2.1300000000000D+00 -4.3750166845243D-02 -6.4954825116004D-02
   215  2.1400000000000D+00 -5.0790429382064D-02 -6.1570554893903D-02
   216  2.1500000000000D+00 -5.6864060889911D-02 -5.8273673002755D-02
   217  2.1600000000000D+00 -6.2005721295931D-02 -5.5065434864474D-02
   218  2.1700000000000D+00 -6.6252934570488D-02 -5.1946738033346D-02
   219  2.1800000000000D+00 -6.9645683739854D-02 -4.8918204179273D-02
   220  2.1900000000000D+00 -7.2225826144301D-02 -4.5980291592519D-02
   221  2.2000000000000D+00 -7.4036629380304D-02 -4.3133380784460D-02
   222  2.2100000000000D+00 -7.5122816966861D-02 -4.0377742665468D-02
   223  2.2200000000000D+00 -7.5530498491219D-02 -3.7713535167948D-02
   224  2.2300000000000D+00 -7.5306874533716D-02 -3.5140841572509D-02
   225  2.2400000000000D+00 -7.4500030135702D-02 -3.2659688306886D-02
   226  2.2500000000000D+00 -7.3158779349994D-02 -3.0270050093207D-02
   227  2.2600000000000D+00 -7.1332443825123D-02 -2.7971866486848D-02
   228  2.2700000000000D+00 -6.9070660003821D-02 -2.5765050899317D-02
   229  2.2800000000000D+00 -6.6423180000892D-02 -2.3649499200797D-02
   230  2.2900000000000D+00 -6.3439672945109D-02 -2.1625096615555D-02
   231  2.3000000000000D+00 -6.0169527393670D-02 -1.9691723549307D-02
   232  2.3100000000000D+00 -5.6661656066213D-02 -1.7849259752821D-02
   233  2.3200000000000D+00 -5.2964303424533D-02 -1.6097587267443D-02
   234  2.3300000000000D+00 -4.9124856188865D-02 -1.4436592403602D-02
   235  2.3400000000000D+00 -4.5189659333109D-02 -1.2866166341258D-02
   236  2.3500000000000D+00 -4.1203836427426D-02 -1.1386204932956D-02
   237  2.3600000000000D+00 -3.7211115541523D-02 -9.9966076332684D-03
   238  2.3700000000000D+00 -3.3253662937327D-02 -8.6972756156499D-03
   239  2.3800000000000D+00 -2.9371922630356D-02 -7.4881092590877D-03
   240  2.3900000000000D+00 -2.5604464207370D-02 -6.3690051058968D-03
   241  2.4000000000000D+00 -2.1987840165329D-02 -5.3398524668851D-03
   242  2.4100000000000D+00 -1.8556450429410D-02 -4.4005295379740D-03
   243  2.4200000000000D+00 -1.5342417795649D-02 -3.5508994542301D-03
   244  2.4300000000000D+00 -1.2378320220662D-02 -2.7912165751495D-03
   245  2.4400000000000D+00 -9.6871047156016D-03 -2.1206835174465D-03
   246  2.4500000000000D+00 -7.2902398956537D-03 -1.5386357093630D-03
   247  2.4600000000000D+00 -5.1968321988269D-03 -1.0435865274545D-03
   248  2.4700000000000D+00 -3.4559348864179D-03 -6.3855828908293D-04
   249  2.4800000000000D+00 -2.1029138509777D-03 -3.2548213491510D-04
   250  2.4900000000000D+00 -1.1708431441859D-03 -1.0364242565169D-04
   251  2.5000000000000D+00 -5.8614772936578D-04  3.2280677686059D-05
   252  2.5100000000000D+00 -2.6212975746033D-04  9.2731094042014D-05
   253  2.5200000000000D+00 -9.0589483410319D-05  8.7928950728423D-05
   254  2.5300000000000D+00 -1.9137969781797D-05  4.9200977057753D-05
   255  2.5400000000000D+00 -4.3869315446247D-07  4.5589426426452D-06
   256  2.5500000000000D+00 -5.1719186895252D-07 -1.4466512695757D-05
   257  2.5600000000000D+00 -2.4421174537010D-06 -1.3826013440118D-05
   258  2.5700000000000D+00 -6.2020093740381D-07 -2.2529517807224D-06
   259  2.5800000000000D+00 -8.1605223625513D-07  2.7686632868323D-06
   260  2.5900000000000D+00 -7.1184977577902D-07  3.1157817667441D-06
   261  2.6000000000000D+00 -1.3655314691029D-07  7.8344070209050D-07
   262  2.6100000000000D+00  5.0341306764745D-07 -2.0026789995539D-07
   263  2.6200000000000D+00  6.5506594235547D-07 -2.6059848072856D-07
   264  2.6300000000000D+00  2.3639012611885D-07 -9.4040773214823D-08
   265  2.6400000000000D+00  0.0000000000000D+00  0.0000000000000D+00
   266  2.6500000000000D+00  0.0000000000000D+00  0.0000000000000D+00
   267  2.6600000000000D+00  0.0000000000000D+00  0.0000000000000D+00
   268  2.6700000000000D+00  0.0000000000000D+00  0.0000000000000D+00
   269  2.6800000000000D+00  0.0000000000000D+00  0.0000000000000D+00
   270  2.6900000000000D+00  0.0000000000000D+00  0.0000000000000D+00
   271  2.7000000000000D+00  0.0000000000000D+00  0.0000000000000D+00
   272  2.7100000000000D+00  0.0000000000000D+00  0.0000000000000D+00
   273  2.7200000000000D+00  0.0000000000000D+00  0.0000000000000D+00
   274  2.7300000000000D+00  0.0000000000000D+00  0.0000000000000D+00
   275  2.7400000000000D+00  0.0000000000000D+00  0.0000000000000D+00
   276  2.7500000000000D+00  0.0000000000000D+00  0.0000000000000D+00
   277  2.7600000000000D+00  0.0000000000000D+00  0.0000000000000D+00
   278  2.7700000000000D+00  0.0000000000000D+00  0.0000000000000D+00
   279  2.7800000000000D+00  0.0000000000000D+00  0.0000000000000D+00
   280  2.7900000000000D+00  0.0000000000000D+00  0.0000000000000D+00
   281  2.8000000000000D+00  0.0000000000000D+00  0.0000000000000D+00
   282  2.8100000000000D+00  0.0000000000000D+00  0.0000000000000D+00
   283  2.8200000000000D+00  0.0000000000000D+00  0.0000000000000D+00
   284  2.8300000000000D+00  0.0000000000000D+00  0.0000000000000D+00
   285  2.8400000000000D+00  0.0000000000000D+00  0.0000000000000D+00
   286  2.8500000000000D+00  0.0000000000000D+00  0.0000000000000D+00
   287  2.8600000000000D+00  0.0000000000000D+00  0.0000000000000D+00
   288  2.8700000000000D+00  0.0000000000000D+00  0.0000000000000D+00
   289  2.8800000000000D+00  0.0000000000000D+00  0.0000000000000D+00
   290  2.8900000000000D+00  0.0000000000000D+00  0.0000000000000D+00
   291  2.9000000000000D+00  0.0000000000000D+00  0.0000000000000D+00
   292  2.9100000000000D+00  0.0000000000000D+00  0.0000000000000D+00
   293  2.9200000000000D+00  0.0000000000000D+00  0.0000000000000D+00
   294  2.9300000000000D+00  0.0000000000000D+00  0.0000000000000D+00
   295  2.9400000000000D+00  0.0000000000000D+00  0.0000000000000D+00
   296  2.9500000000000D+00  0.0000000000000D+00  0.0000000000000D+00
   297  2.9600000000000D+00  0.0000000000000D+00  0.0000000000000D+00
   298  2.9700000000000D+00  0.0000000000000D+00  0.0000000000000D+00
   299  2.9800000000000D+00  0.0000000000000D+00  0.0000000000000D+00
   300  2.9900000000000D+00  0.0000000000000D+00  0.0000000000000D+00
   301  3.0000000000000D+00  0.0000000000000D+00  0.0000000000000D+00
   302  3.0100000000000D+00  0.0000000000000D+00  0.0000000000000D+00
   303  3.0200000000000D+00  0.0000000000000D+00  0.0000000000000D+00
   304  3.0300000000000D+00  0.0000000000000D+00  0.0000000000000D+00
   305  3.0400000000000D+00  0.0000000000000D+00  0.0000000000000D+00
   306  3.0500000000000D+00  0.0000000000000D+00  0.0000000000000D+00
   307  3.0600000000000D+00  0.0000000000000D+00  0.0000000000000D+00
   308  3.0700000000000D+00  0.0000000000000D+00  0.0000000000000D+00
   309  3.0800000000000D+00  0.0000000000000D+00  0.0000000000000D+00
   310  3.0900000000000D+00  0.0000000000000D+00  0.0000000000000D+00
   311  3.1000000000000D+00  0.0000000000000D+00  0.0000000000000D+00
   312  3.1100000000000D+00  0.0000000000000D+00  0.0000000000000D+00
   313  3.1200000000000D+00  0.0000000000000D+00  0.0000000000000D+00
   314  3.1300000000000D+00  0.0000000000000D+00  0.0000000000000D+00
   315  3.1400000000000D+00  0.0000000000000D+00  0.0000000000000D+00
   316  3.1500000000000D+00  0.0000000000000D+00  0.0000000000000D+00
   317  3.1600000000000D+00  0.0000000000000D+00  0.0000000000000D+00
   318  3.1700000000000D+00  0.0000000000000D+00  0.0000000000000D+00
   319  3.1800000000000D+00  0.0000000000000D+00  0.0000000000000D+00
   320  3.1900000000000D+00  0.0000000000000D+00  0.0000000000000D+00
   321  3.2000000000000D+00  0.0000000000000D+00  0.0000000000000D+00
   322  3.2100000000000D+00  0.0000000000000D+00  0.0000000000000D+00
   323  3.2200000000000D+00  0.0000000000000D+00  0.0000000000000D+00
   324  3.2300000000000D+00  0.0000000000000D+00  0.0000000000000D+00
   325  3.2400000000000D+00  0.0000000000000D+00  0.0000000000000D+00
   326  3.2500000000000D+00  0.0000000000000D+00  0.0000000000000D+00
   327  3.2600000000000D+00  0.0000000000000D+00  0.0000000000000D+00
   328  3.2700000000000D+00  0.0000000000000D+00  0.0000000000000D+00
   329  3.2800000000000D+00  0.0000000000000D+00  0.0000000000000D+00
   330  3.2900000000000D+00  0.0000000000000D+00  0.0000000000000D+00
   331  3.3000000000000D+00  0.0000000000000D+00  0.0000000000000D+00
   332  3.3100000000000D+00  0.0000000000000D+00  0.0000000000000D+00
   333  3.3200000000000D+00  0.0000000000000D+00  0.0000000000000D+00
   334  3.3300000000000D+00  0.0000000000000D+00  0.0000000000000D+00
   335  3.3400000000000D+00  0.0000000000000D+00  0.0000000000000D+00
   336  3.3500000000000D+00  0.0000000000000D+00  0.0000000000000D+00
   337  3.3600000000000D+00  0.0000000000000D+00  0.0000000000000D+00
   338  3.3700000000000D+00  0.0000000000000D+00  0.0000000000000D+00
   339  3.3800000000000D+00  0.0000000000000D+00  0.0000000000000D+00
   340  3.3900000000000D+00  0.0000000000000D+00  0.0000000000000D+00
   341  3.4000000000000D+00  0.0000000000000D+00  0.0000000000000D+00
   342  3.4100000000000D+00  0.0000000000000D+00  0.0000000000000D+00
   343  3.4200000000000D+00  0.0000000000000D+00  0.0000000000000D+00
   344  3.4300000000000D+00  0.0000000000000D+00  0.0000000000000D+00
   345  3.4400000000000D+00  0.0000000000000D+00  0.0000000000000D+00
   346  3.4500000000000D+00  0.0000000000000D+00  0.0000000000000D+00
   347  3.4600000000000D+00  0.0000000000000D+00  0.0000000000000D+00
   348  3.4700000000000D+00  0.0000000000000D+00  0.0000000000000D+00
   349  3.4800000000000D+00  0.0000000000000D+00  0.0000000000000D+00
   350  3.4900000000000D+00  0.0000000000000D+00  0.0000000000000D+00
   351  3.5000000000000D+00  0.0000000000000D+00  0.0000000000000D+00
   352  3.5100000000000D+00  0.0000000000000D+00  0.0000000000000D+00
   353  3.5200000000000D+00  0.0000000000000D+00  0.0000000000000D+00
   354  3.5300000000000D+00  0.0000000000000D+00  0.0000000000000D+00
   355  3.5400000000000D+00  0.0000000000000D+00  0.0000000000000D+00
   356  3.5500000000000D+00  0.0000000000000D+00  0.0000000000000D+00
   357  3.5600000000000D+00  0.0000000000000D+00  0.0000000000000D+00
   358  3.5700000000000D+00  0.0000000000000D+00  0.0000000000000D+00
   359  3.5800000000000D+00  0.0000000000000D+00  0.0000000000000D+00
   360  3.5900000000000D+00  0.0000000000000D+00  0.0000000000000D+00
   361  3.6000000000000D+00  0.0000000000000D+00  0.0000000000000D+00
   362  3.6100000000000D+00  0.0000000000000D+00  0.0000000000000D+00
   363  3.6200000000000D+00  0.0000000000000D+00  0.0000000000000D+00
   364  3.6300000000000D+00  0.0000000000000D+00  0.0000000000000D+00
   365  3.6400000000000D+00  0.0000000000000D+00  0.0000000000000D+00
   366  3.6500000000000D+00  0.0000000000000D+00  0.0000000000000D+00
   367  3.6600000000000D+00  0.0000000000000D+00  0.0000000000000D+00
   368  3.6700000000000D+00  0.0000000000000D+00  0.0000000000000D+00
   369  3.6800000000000D+00  0.0000000000000D+00  0.0000000000000D+00
   370  3.6900000000000D+00  0.0000000000000D+00  0.0000000000000D+00
   371  3.7000000000000D+00  0.0000000000000D+00  0.0000000000000D+00
   372  3.7100000000000D+00  0.0000000000000D+00  0.0000000000000D+00
   373  3.7200000000000D+00  0.0000000000000D+00  0.0000000000000D+00
   374  3.7300000000000D+00  0.0000000000000D+00  0.0000000000000D+00
   375  3.7400000000000D+00  0.0000000000000D+00  0.0000000000000D+00
   376  3.7500000000000D+00  0.0000000000000D+00  0.0000000000000D+00
   377  3.7600000000000D+00  0.0000000000000D+00  0.0000000000000D+00
   378  3.7700000000000D+00  0.0000000000000D+00  0.0000000000000D+00
   379  3.7800000000000D+00  0.0000000000000D+00  0.0000000000000D+00
   380  3.7900000000000D+00  0.0000000000000D+00  0.0000000000000D+00
   381  3.8000000000000D+00  0.0000000000000D+00  0.0000000000000D+00
   382  3.8100000000000D+00  0.0000000000000D+00  0.0000000000000D+00
   383  3.8200000000000D+00  0.0000000000000D+00  0.0000000000000D+00
   384  3.8300000000000D+00  0.0000000000000D+00  0.0000000000000D+00
   385  3.8400000000000D+00  0.0000000000000D+00  0.0000000000000D+00
   386  3.8500000000000D+00  0.0000000000000D+00  0.0000000000000D+00
   387  3.8600000000000D+00  0.0000000000000D+00  0.0000000000000D+00
   388  3.8700000000000D+00  0.0000000000000D+00  0.0000000000000D+00
   389  3.8800000000000D+00  0.0000000000000D+00  0.0000000000000D+00
   390  3.8900000000000D+00  0.0000000000000D+00  0.0000000000000D+00
   391  3.9000000000000D+00  0.0000000000000D+00  0.0000000000000D+00
   392  3.9100000000000D+00  0.0000000000000D+00  0.0000000000000D+00
   393  3.9200000000000D+00  0.0000000000000D+00  0.0000000000000D+00
   394  3.9300000000000D+00  0.0000000000000D+00  0.0000000000000D+00
   395  3.9400000000000D+00  0.0000000000000D+00  0.0000000000000D+00
   396  3.9500000000000D+00  0.0000000000000D+00  0.0000000000000D+00
   397  3.9600000000000D+00  0.0000000000000D+00  0.0000000000000D+00
   398  3.9700000000000D+00  0.0000000000000D+00  0.0000000000000D+00
   399  3.9800000000000D+00  0.0000000000000D+00  0.0000000000000D+00
   400  3.9900000000000D+00  0.0000000000000D+00  0.0000000000000D+00
   401  4.0000000000000D+00  0.0000000000000D+00  0.0000000000000D+00
   402  4.0100000000000D+00  0.0000000000000D+00  0.0000000000000D+00
   403  4.0200000000000D+00  0.0000000000000D+00  0.0000000000000D+00
   404  4.0300000000000D+00  0.0000000000000D+00  0.0000000000000D+00
   405  4.0400000000000D+00  0.0000000000000D+00  0.0000000000000D+00
   406  4.0500000000000D+00  0.0000000000000D+00  0.0000000000000D+00
   407  4.0600000000000D+00  0.0000000000000D+00  0.0000000000000D+00
   408  4.0700000000000D+00  0.0000000000000D+00  0.0000000000000D+00
   409  4.0800000000000D+00  0.0000000000000D+00  0.0000000000000D+00
   410  4.0900000000000D+00  0.0000000000000D+00  0.0000000000000D+00
   411  4.1000000000000D+00  0.0000000000000D+00  0.0000000000000D+00
   412  4.1100000000000D+00  0.0000000000000D+00  0.0000000000000D+00
   413  4.1200000000000D+00  0.0000000000000D+00  0.0000000000000D+00
   414  4.1300000000000D+00  0.0000000000000D+00  0.0000000000000D+00
   415  4.1400000000000D+00  0.0000000000000D+00  0.0000000000000D+00
   416  4.1500000000000D+00  0.0000000000000D+00  0.0000000000000D+00
   417  4.1600000000000D+00  0.0000000000000D+00  0.0000000000000D+00
   418  4.1700000000000D+00  0.0000000000000D+00  0.0000000000000D+00
   419  4.1800000000000D+00  0.0000000000000D+00  0.0000000000000D+00
   420  4.1900000000000D+00  0.0000000000000D+00  0.0000000000000D+00
   421  4.2000000000000D+00  0.0000000000000D+00  0.0000000000000D+00
   422  4.2100000000000D+00  0.0000000000000D+00  0.0000000000000D+00