Si    ONCVPSP  r_core=  1.60  1.72  1.92
14.0000      4.0000      150713    zatom,zion,pspd
8      11   2     4   600     0    pspcod,pspxc,lmax,lloc,mmax,r2well
5.99000000  4.00000000  0.00000000    rchrg fchrg qchrg
2     2     2     0     0    nproj
1                 extension_switch
0                         5.0775960945478D+00  8.4052467417172D-01
1  0.0000000000000D+00 -6.5889829148347D-09  1.4823731547819D-08
2  1.0000000000000D-02  4.2170160980794D-02 -2.5836588730117D-02
3  2.0000000000000D-02  8.4006141303319D-02 -5.0960023996195D-02
4  3.0000000000000D-02  1.2517957148065D-01 -7.4670189880616D-02
5  4.0000000000000D-02  1.6537360338062D-01 -9.6292818535038D-02
6  5.0000000000000D-02  2.0428842015189D-01 -1.1519185052246D-01
7  6.0000000000000D-02  2.4164645003139D-01 -1.3078112948913D-01
8  7.0000000000000D-02  2.7719719321262D-01 -1.4253522701767D-01
9  8.0000000000000D-02  3.1072157754345D-01 -1.4999920833673D-01
10  9.0000000000000D-02  3.4203576684851D-01 -1.5279716762015D-01
11  1.0000000000000D-01  3.7099435500143D-01 -1.5063938259804D-01
12  1.1000000000000D-01  3.9749288934900D-01 -1.4332796177076D-01
13  1.2000000000000D-01  4.2146967853679D-01 -1.3076088326807D-01
14  1.3000000000000D-01  4.4290685201271D-01 -1.1293435189849D-01
15  1.4000000000000D-01  4.6183065128462D-01 -8.9943429724150D-02
16  1.5000000000000D-01  4.7831094616665D-01 -6.1980925090927D-02
17  1.6000000000000D-01  4.9245998254340D-01 -2.9334554942931D-02
18  1.7000000000000D-01  5.0443038138899D-01  7.6175750495557D-03
19  1.8000000000000D-01  5.1441242167509D-01  4.8413099020027D-02
20  1.9000000000000D-01  5.2263065217105D-01  9.2513026757614D-02
21  2.0000000000000D-01  5.2933988877028D-01  1.3931075940019D-01
22  2.1000000000000D-01  5.3482066467295D-01  1.8814233345134D-01
23  2.2000000000000D-01  5.3937421033278D-01  2.3829772008489D-01
24  2.3000000000000D-01  5.4331704837227D-01  2.8903298806772D-01
25  2.4000000000000D-01  5.4697529554258D-01  3.3958312320663D-01
26  2.5000000000000D-01  5.5067876913256D-01  3.8917528527519D-01
27  2.6000000000000D-01  5.5475499892200D-01  4.3704227511316D-01
28  2.7000000000000D-01  5.5952324776085D-01  4.8243598016248D-01
29  2.8000000000000D-01  5.6528864410077D-01  5.2464056619715D-01
30  2.9000000000000D-01  5.7233652829746D-01  5.6298518643789D-01
31  3.0000000000000D-01  5.8092711126416D-01  5.9685598657177D-01
32  3.1000000000000D-01  5.9129053913455D-01  6.2570719531095D-01
33  3.2000000000000D-01  6.0362245106709D-01  6.4907110484788D-01
34  3.3000000000000D-01  6.1808010929449D-01  6.6656676366271D-01
35  3.4000000000000D-01  6.3477917112316D-01  6.7790722531840D-01
36  3.5000000000000D-01  6.5379116196935D-01  6.8290522079528D-01
37  3.6000000000000D-01  6.7514169685647D-01  6.8147714818011D-01
38  3.7000000000000D-01  6.9880948528276D-01  6.7364530169731D-01
39  3.8000000000000D-01  7.2472614120671D-01  6.5953829169373D-01
40  3.9000000000000D-01  7.5277680630813D-01  6.3938963776457D-01
41  4.0000000000000D-01  7.8280158089166D-01  6.1353454823061D-01
42  4.1000000000000D-01  8.1459774303578D-01  5.8240493012948D-01
43  4.2000000000000D-01  8.4792272308705D-01  5.4652270424065D-01
44  4.3000000000000D-01  8.8249778758176D-01  5.0649152891923D-01
45  4.4000000000000D-01  9.1801237436631D-01  4.6298706416957D-01
46  4.5000000000000D-01  9.5412900929338D-01  4.1674593297422D-01
47  4.6000000000000D-01  9.9048872458649D-01  3.6855355997160D-01
48  4.7000000000000D-01  1.0267168899706D+00  3.1923108774497D-01
49  4.8000000000000D-01  1.0624293601155D+00  2.6962158789595D-01
50  4.9000000000000D-01  1.0972388359664D+00  2.2057579742856D-01
51  5.0000000000000D-01  1.1307613332504D+00  1.7293762052028D-01
52  5.1000000000000D-01  1.1626226489278D+00  1.2752964132953D-01
53  5.2000000000000D-01  1.1924647156550D+00  8.5138894967353D-02
54  5.3000000000000D-01  1.2199517354650D+00  4.6503141090951D-02
55  5.4000000000000D-01  1.2447759868371D+00  1.2297877804430D-02
56  5.5000000000000D-01  1.2666632040907D+00 -1.6875677278935D-02
57  5.6000000000000D-01  1.2853774345170D+00 -4.0501426635291D-02
58  5.7000000000000D-01  1.3007252867689D+00 -5.8157859252026D-02
59  5.8000000000000D-01  1.3125594936408D+00 -6.9525971761485D-02
60  5.9000000000000D-01  1.3207817233116D+00 -7.4395496877663D-02
61  6.0000000000000D-01  1.3253445852687D+00 -7.2669319138089D-02
62  6.1000000000000D-01  1.3262527902296D+00 -6.4365987492638D-02
63  6.2000000000000D-01  1.3235634372488D+00 -4.9620265554103D-02
64  6.3000000000000D-01  1.3173854156618D+00 -2.8681692912645D-02
65  6.4000000000000D-01  1.3078779241729D+00 -1.9111639290799D-03
66  6.5000000000000D-01  1.2952481242773D+00  3.0224436082073D-02
67  6.6000000000000D-01  1.2797479597864D+00  6.7159464554846D-02
68  6.7000000000000D-01  1.2616701884025D+00  1.0823852065964D-01
69  6.8000000000000D-01  1.2413436848970D+00  1.5272707438994D-01
70  6.9000000000000D-01  1.2191280880613D+00  1.9982356222635D-01
71  7.0000000000000D-01  1.1954078751672D+00  2.4867275990268D-01
72  7.1000000000000D-01  1.1705859579393D+00  2.9838021978223D-01
73  7.2000000000000D-01  1.1450769028443D+00  3.4802754065952D-01
74  7.3000000000000D-01  1.1192998856393D+00  3.9668822185319D-01
75  7.4000000000000D-01  1.0936714955359D+00  4.4344384142098D-01
76  7.5000000000000D-01  1.0685985078685D+00  4.8740029052092D-01
77  7.6000000000000D-01  1.0444707457775D+00  5.2770379246614D-01
78  7.7000000000000D-01  1.0216541510478D+00  5.6355643601509D-01
79  7.8000000000000D-01  1.0004841819115D+00  5.9423095788017D-01
80  7.9000000000000D-01  9.8125965132913D-01  6.1908451928180D-01
81  8.0000000000000D-01  9.6423711307375D-01  6.3757123549642D-01
82  8.1000000000000D-01  9.4962589494331D-01  6.4925323554328D-01
83  8.2000000000000D-01  9.3758386873260D-01  6.5381005115793D-01
84  8.3000000000000D-01  9.2821403535584D-01  6.5104615968261D-01
85  8.4000000000000D-01  9.2156199089566D-01  6.4089653407220D-01
86  8.5000000000000D-01  9.1761432555914D-01  6.2343008442898D-01
87  8.6000000000000D-01  9.1629799276223D-01  5.9885090885112D-01
88  8.7000000000000D-01  9.1748067007321D-01  5.6749730638290D-01
89  8.8000000000000D-01  9.2097211777005D-01  5.2983854093195D-01
90  8.9000000000000D-01  9.2652652456117D-01  4.8646938159431D-01
91  9.0000000000000D-01  9.3384581384439D-01  4.3810248131136D-01
92  9.1000000000000D-01  9.4258386799802D-01  3.8555869158335D-01
93  9.2000000000000D-01  9.5235161286863D-01  3.2975544549755D-01
94  9.3000000000000D-01  9.6272289009500D-01  2.7169337402725D-01
95  9.4000000000000D-01  9.7324103142654D-01  2.1244135087883D-01
96  9.5000000000000D-01  9.8342603698262D-01  1.5312018860233D-01
97  9.6000000000000D-01  9.9278224866210D-01  9.4885232771041D-02
98  9.7000000000000D-01  1.0008064008369D+00  3.8908121360611D-02
99  9.8000000000000D-01  1.0069959231761D+00 -1.3642007271867D-02
100  9.9000000000000D-01  1.0108573652312D+00 -6.1617562820865D-02
101  1.0000000000000D+00  1.0119148089821D+00 -1.0391150534477D-01
102  1.0100000000000D+00  1.0097181345178D+00 -1.3947599682711D-01
103  1.0200000000000D+00  1.0038510049712D+00 -1.6734039969481D-01
104  1.0300000000000D+00  9.9393843993254D-01 -1.8662832724043D-01
105  1.0400000000000D+00  9.7965385196355D-01 -1.9657346329572D-01
106  1.0500000000000D+00  9.6072542800045D-01 -1.9653388490444D-01
107  1.0600000000000D+00  9.3694174643419D-01 -1.8600464226973D-01
108  1.0700000000000D+00  9.0815653226351D-01 -1.6462837667568D-01
109  1.0800000000000D+00  8.7429246482411D-01 -1.3220378460785D-01
110  1.0900000000000D+00  8.3534396743303D-01 -8.8691769987145D-02
111  1.1000000000000D+00  7.9137892285113D-01 -3.4219159478668D-02
112  1.1100000000000D+00  7.4253927489759D-01  3.0920106903024D-02
113  1.1200000000000D+00  6.8904049467186D-01  1.0626635661083D-01
114  1.1300000000000D+00  6.3116990654323D-01  1.9119814569336D-01
115  1.1400000000000D+00  5.6928388771708D-01  2.8493876691602D-01
116  1.1500000000000D+00  5.0380397038352D-01  3.8656523716990D-01
117  1.1600000000000D+00  4.3521189699849D-01  4.9501964775400D-01
118  1.1700000000000D+00  3.6404369340745D-01  6.0912272912789D-01
119  1.1800000000000D+00  2.9088284020382D-01  7.2758944631677D-01
120  1.1900000000000D+00  2.1635263757779D-01  8.4904640759590D-01
121  1.2000000000000D+00  1.4110787416759D-01  9.7205083469059D-01
122  1.2100000000000D+00  6.5825920719749D-02  1.0951108195744D+00
123  1.2200000000000D+00 -8.8026233024992D-03  1.2167065764181D+00
124  1.2300000000000D+00 -8.2083588381703D-02  1.3353123666237D+00
125  1.2400000000000D+00 -1.5332905585725D-01  1.4494187722093D+00
126  1.2500000000000D+00 -2.2186719370745D-01  1.5575549830727D+00
127  1.2600000000000D+00 -2.8705195584463D-01  1.6583107548987D+00
128  1.2700000000000D+00 -3.4827249841219D-01  1.7503577056652D+00
129  1.2800000000000D+00 -4.0496216741512D-01  1.8324696207041D+00
130  1.2900000000000D+00 -4.5660691544449D-01  1.9035414442816D+00
131  1.3000000000000D+00 -5.0275302098245D-01  1.9626066715354D+00
132  1.3100000000000D+00 -5.4301398361791D-01  2.0088528542639D+00
133  1.3200000000000D+00 -5.7707648314710D-01  2.0416349675179D+00
134  1.3300000000000D+00 -6.0470531633680D-01  2.0604864425966D+00
135  1.3400000000000D+00 -6.2574721497215D-01  2.0651276489890D+00
136  1.3500000000000D+00 -6.4013348738137D-01  2.0554716955301D+00
137  1.3600000000000D+00 -6.4788144560311D-01  2.0316274663291D+00
138  1.3700000000000D+00 -6.4909456266832D-01  1.9938997669230D+00
139  1.3800000000000D+00 -6.4396137841535D-01  1.9427866239750D+00
140  1.3900000000000D+00 -6.3275314691153D-01  1.8789737242608D+00
141  1.4000000000000D+00 -6.1582024686272D-01  1.8033260430002D+00
142  1.4100000000000D+00 -5.9358742858154D-01  1.7168768298800D+00
143  1.4200000000000D+00 -5.6654792397203D-01  1.6208140143282D+00
144  1.4300000000000D+00 -5.3525653540333D-01  1.5164642943057D+00
145  1.4400000000000D+00 -5.0032178406354D-01  1.4052750928421D+00
146  1.4500000000000D+00 -4.6239722612178D-01  1.2887946295035D+00
147  1.4600000000000D+00 -4.2217208388977D-01  1.1686504418321D+00
148  1.4700000000000D+00 -3.8036129637358D-01  1.0465265950479D+00
149  1.4800000000000D+00 -3.3769516623026D-01  9.2413998250909D-01
150  1.4900000000000D+00 -2.9490873077392D-01  8.0321600777438D-01
151  1.5000000000000D+00 -2.5273103035993D-01  6.8546404243073D-01
152  1.5100000000000D+00 -2.1187441856226D-01  5.7255298818805D-01
153  1.5200000000000D+00 -1.7302409108757D-01  4.6608734571897D-01
154  1.5300000000000D+00 -1.3682795978265D-01  3.6758407735783D-01
155  1.5400000000000D+00 -1.0388706461212D-01  2.7845070236093D-01
156  1.5500000000000D+00 -7.4757269932528D-02  1.9999326129008D-01
157  1.5600000000000D+00 -4.9905925425355D-02  1.3330380619643D-01
158  1.5700000000000D+00 -2.9634346319550D-02  7.9056897588593D-02
159  1.5800000000000D+00 -1.4478688827199D-02  3.8579412103103D-02
160  1.5900000000000D+00 -5.0322930159807D-03  1.3377888463811D-02
161  1.6000000000000D+00 -6.1808484513080D-04  1.6116082442660D-03
162  1.6100000000000D+00  4.8659131811978D-04 -1.3179537827934D-03
163  1.6200000000000D+00  1.2340982200361D-04 -3.3197189754104D-04
164  1.6300000000000D+00 -1.5159978623501D-04  4.0732171973976D-04
165  1.6400000000000D+00 -3.7047426205256D-05  9.9441690843647D-05
166  1.6500000000000D+00  2.7227742619427D-05 -7.3386798601951D-05
167  1.6600000000000D+00  5.9040560224286D-06 -1.5903291192003D-05
168  1.6700000000000D+00  6.5614749849227D-08 -8.1354727007339D-08
169  1.6800000000000D+00  1.3380123256675D-08 -1.6589810635149D-08
170  1.6900000000000D+00  0.0000000000000D+00  0.0000000000000D+00
171  1.7000000000000D+00  0.0000000000000D+00  0.0000000000000D+00
172  1.7100000000000D+00  0.0000000000000D+00  0.0000000000000D+00
173  1.7200000000000D+00  0.0000000000000D+00  0.0000000000000D+00
174  1.7300000000000D+00  0.0000000000000D+00  0.0000000000000D+00
175  1.7400000000000D+00  0.0000000000000D+00  0.0000000000000D+00
176  1.7500000000000D+00  0.0000000000000D+00  0.0000000000000D+00
177  1.7600000000000D+00  0.0000000000000D+00  0.0000000000000D+00
178  1.7700000000000D+00  0.0000000000000D+00  0.0000000000000D+00
179  1.7800000000000D+00  0.0000000000000D+00  0.0000000000000D+00
180  1.7900000000000D+00  0.0000000000000D+00  0.0000000000000D+00
181  1.8000000000000D+00  0.0000000000000D+00  0.0000000000000D+00
182  1.8100000000000D+00  0.0000000000000D+00  0.0000000000000D+00
183  1.8200000000000D+00  0.0000000000000D+00  0.0000000000000D+00
184  1.8300000000000D+00  0.0000000000000D+00  0.0000000000000D+00
185  1.8400000000000D+00  0.0000000000000D+00  0.0000000000000D+00
186  1.8500000000000D+00  0.0000000000000D+00  0.0000000000000D+00
187  1.8600000000000D+00  0.0000000000000D+00  0.0000000000000D+00
188  1.8700000000000D+00  0.0000000000000D+00  0.0000000000000D+00
189  1.8800000000000D+00  0.0000000000000D+00  0.0000000000000D+00
190  1.8900000000000D+00  0.0000000000000D+00  0.0000000000000D+00
191  1.9000000000000D+00  0.0000000000000D+00  0.0000000000000D+00
192  1.9100000000000D+00  0.0000000000000D+00  0.0000000000000D+00
193  1.9200000000000D+00  0.0000000000000D+00  0.0000000000000D+00
194  1.9300000000000D+00  0.0000000000000D+00  0.0000000000000D+00
195  1.9400000000000D+00  0.0000000000000D+00  0.0000000000000D+00
196  1.9500000000000D+00  0.0000000000000D+00  0.0000000000000D+00
197  1.9600000000000D+00  0.0000000000000D+00  0.0000000000000D+00
198  1.9700000000000D+00  0.0000000000000D+00  0.0000000000000D+00
199  1.9800000000000D+00  0.0000000000000D+00  0.0000000000000D+00
200  1.9900000000000D+00  0.0000000000000D+00  0.0000000000000D+00
201  2.0000000000000D+00  0.0000000000000D+00  0.0000000000000D+00
202  2.0100000000000D+00  0.0000000000000D+00  0.0000000000000D+00
203  2.0200000000000D+00  0.0000000000000D+00  0.0000000000000D+00
204  2.0300000000000D+00  0.0000000000000D+00  0.0000000000000D+00
205  2.0400000000000D+00  0.0000000000000D+00  0.0000000000000D+00
206  2.0500000000000D+00  0.0000000000000D+00  0.0000000000000D+00
207  2.0600000000000D+00  0.0000000000000D+00  0.0000000000000D+00
208  2.0700000000000D+00  0.0000000000000D+00  0.0000000000000D+00
209  2.0800000000000D+00  0.0000000000000D+00  0.0000000000000D+00
210  2.0900000000000D+00  0.0000000000000D+00  0.0000000000000D+00
211  2.1000000000000D+00  0.0000000000000D+00  0.0000000000000D+00
212  2.1100000000000D+00  0.0000000000000D+00  0.0000000000000D+00
213  2.1200000000000D+00  0.0000000000000D+00  0.0000000000000D+00
214  2.1300000000000D+00  0.0000000000000D+00  0.0000000000000D+00
215  2.1400000000000D+00  0.0000000000000D+00  0.0000000000000D+00
216  2.1500000000000D+00  0.0000000000000D+00  0.0000000000000D+00
217  2.1600000000000D+00  0.0000000000000D+00  0.0000000000000D+00
218  2.1700000000000D+00  0.0000000000000D+00  0.0000000000000D+00
219  2.1800000000000D+00  0.0000000000000D+00  0.0000000000000D+00
220  2.1900000000000D+00  0.0000000000000D+00  0.0000000000000D+00
221  2.2000000000000D+00  0.0000000000000D+00  0.0000000000000D+00
222  2.2100000000000D+00  0.0000000000000D+00  0.0000000000000D+00
223  2.2200000000000D+00  0.0000000000000D+00  0.0000000000000D+00
224  2.2300000000000D+00  0.0000000000000D+00  0.0000000000000D+00
225  2.2400000000000D+00  0.0000000000000D+00  0.0000000000000D+00
226  2.2500000000000D+00  0.0000000000000D+00  0.0000000000000D+00
227  2.2600000000000D+00  0.0000000000000D+00  0.0000000000000D+00
228  2.2700000000000D+00  0.0000000000000D+00  0.0000000000000D+00
229  2.2800000000000D+00  0.0000000000000D+00  0.0000000000000D+00
230  2.2900000000000D+00  0.0000000000000D+00  0.0000000000000D+00
231  2.3000000000000D+00  0.0000000000000D+00  0.0000000000000D+00
232  2.3100000000000D+00  0.0000000000000D+00  0.0000000000000D+00
233  2.3200000000000D+00  0.0000000000000D+00  0.0000000000000D+00
234  2.3300000000000D+00  0.0000000000000D+00  0.0000000000000D+00
235  2.3400000000000D+00  0.0000000000000D+00  0.0000000000000D+00
236  2.3500000000000D+00  0.0000000000000D+00  0.0000000000000D+00
237  2.3600000000000D+00  0.0000000000000D+00  0.0000000000000D+00
238  2.3700000000000D+00  0.0000000000000D+00  0.0000000000000D+00
239  2.3800000000000D+00  0.0000000000000D+00  0.0000000000000D+00
240  2.3900000000000D+00  0.0000000000000D+00  0.0000000000000D+00
241  2.4000000000000D+00  0.0000000000000D+00  0.0000000000000D+00
242  2.4100000000000D+00  0.0000000000000D+00  0.0000000000000D+00
243  2.4200000000000D+00  0.0000000000000D+00  0.0000000000000D+00
244  2.4300000000000D+00  0.0000000000000D+00  0.0000000000000D+00
245  2.4400000000000D+00  0.0000000000000D+00  0.0000000000000D+00
246  2.4500000000000D+00  0.0000000000000D+00  0.0000000000000D+00
247  2.4600000000000D+00  0.0000000000000D+00  0.0000000000000D+00
248  2.4700000000000D+00  0.0000000000000D+00  0.0000000000000D+00
249  2.4800000000000D+00  0.0000000000000D+00  0.0000000000000D+00
250  2.4900000000000D+00  0.0000000000000D+00  0.0000000000000D+00
251  2.5000000000000D+00  0.0000000000000D+00  0.0000000000000D+00
252  2.5100000000000D+00  0.0000000000000D+00  0.0000000000000D+00
253  2.5200000000000D+00  0.0000000000000D+00  0.0000000000000D+00
254  2.5300000000000D+00  0.0000000000000D+00  0.0000000000000D+00
255  2.5400000000000D+00  0.0000000000000D+00  0.0000000000000D+00
256  2.5500000000000D+00  0.0000000000000D+00  0.0000000000000D+00
257  2.5600000000000D+00  0.0000000000000D+00  0.0000000000000D+00
258  2.5700000000000D+00  0.0000000000000D+00  0.0000000000000D+00
259  2.5800000000000D+00  0.0000000000000D+00  0.0000000000000D+00
260  2.5900000000000D+00  0.0000000000000D+00  0.0000000000000D+00
261  2.6000000000000D+00  0.0000000000000D+00  0.0000000000000D+00
262  2.6100000000000D+00  0.0000000000000D+00  0.0000000000000D+00
263  2.6200000000000D+00  0.0000000000000D+00  0.0000000000000D+00
264  2.6300000000000D+00  0.0000000000000D+00  0.0000000000000D+00
265  2.6400000000000D+00  0.0000000000000D+00  0.0000000000000D+00
266  2.6500000000000D+00  0.0000000000000D+00  0.0000000000000D+00
267  2.6600000000000D+00  0.0000000000000D+00  0.0000000000000D+00
268  2.6700000000000D+00  0.0000000000000D+00  0.0000000000000D+00
269  2.6800000000000D+00  0.0000000000000D+00  0.0000000000000D+00
270  2.6900000000000D+00  0.0000000000000D+00  0.0000000000000D+00
271  2.7000000000000D+00  0.0000000000000D+00  0.0000000000000D+00
272  2.7100000000000D+00  0.0000000000000D+00  0.0000000000000D+00
273  2.7200000000000D+00  0.0000000000000D+00  0.0000000000000D+00
274  2.7300000000000D+00  0.0000000000000D+00  0.0000000000000D+00
275  2.7400000000000D+00  0.0000000000000D+00  0.0000000000000D+00
276  2.7500000000000D+00  0.0000000000000D+00  0.0000000000000D+00
277  2.7600000000000D+00  0.0000000000000D+00  0.0000000000000D+00
278  2.7700000000000D+00  0.0000000000000D+00  0.0000000000000D+00
279  2.7800000000000D+00  0.0000000000000D+00  0.0000000000000D+00
280  2.7900000000000D+00  0.0000000000000D+00  0.0000000000000D+00
281  2.8000000000000D+00  0.0000000000000D+00  0.0000000000000D+00
282  2.8100000000000D+00  0.0000000000000D+00  0.0000000000000D+00
283  2.8200000000000D+00  0.0000000000000D+00  0.0000000000000D+00
284  2.8300000000000D+00  0.0000000000000D+00  0.0000000000000D+00
285  2.8400000000000D+00  0.0000000000000D+00  0.0000000000000D+00
286  2.8500000000000D+00  0.0000000000000D+00  0.0000000000000D+00
287  2.8600000000000D+00  0.0000000000000D+00  0.0000000000000D+00
288  2.8700000000000D+00  0.0000000000000D+00  0.0000000000000D+00
289  2.8800000000000D+00  0.0000000000000D+00  0.0000000000000D+00
290  2.8900000000000D+00  0.0000000000000D+00  0.0000000000000D+00
291  2.9000000000000D+00  0.0000000000000D+00  0.0000000000000D+00
292  2.9100000000000D+00  0.0000000000000D+00  0.0000000000000D+00
293  2.9200000000000D+00  0.0000000000000D+00  0.0000000000000D+00
294  2.9300000000000D+00  0.0000000000000D+00  0.0000000000000D+00
295  2.9400000000000D+00  0.0000000000000D+00  0.0000000000000D+00
296  2.9500000000000D+00  0.0000000000000D+00  0.0000000000000D+00
297  2.9600000000000D+00  0.0000000000000D+00  0.0000000000000D+00
298  2.9700000000000D+00  0.0000000000000D+00  0.0000000000000D+00
299  2.9800000000000D+00  0.0000000000000D+00  0.0000000000000D+00
300  2.9900000000000D+00  0.0000000000000D+00  0.0000000000000D+00
301  3.0000000000000D+00  0.0000000000000D+00  0.0000000000000D+00
302  3.0100000000000D+00  0.0000000000000D+00  0.0000000000000D+00
303  3.0200000000000D+00  0.0000000000000D+00  0.0000000000000D+00
304  3.0300000000000D+00  0.0000000000000D+00  0.0000000000000D+00
305  3.0400000000000D+00  0.0000000000000D+00  0.0000000000000D+00
306  3.0500000000000D+00  0.0000000000000D+00  0.0000000000000D+00
307  3.0600000000000D+00  0.0000000000000D+00  0.0000000000000D+00
308  3.0700000000000D+00  0.0000000000000D+00  0.0000000000000D+00
309  3.0800000000000D+00  0.0000000000000D+00  0.0000000000000D+00
310  3.0900000000000D+00  0.0000000000000D+00  0.0000000000000D+00
311  3.1000000000000D+00  0.0000000000000D+00  0.0000000000000D+00
312  3.1100000000000D+00  0.0000000000000D+00  0.0000000000000D+00
313  3.1200000000000D+00  0.0000000000000D+00  0.0000000000000D+00
314  3.1300000000000D+00  0.0000000000000D+00  0.0000000000000D+00
315  3.1400000000000D+00  0.0000000000000D+00  0.0000000000000D+00
316  3.1500000000000D+00  0.0000000000000D+00  0.0000000000000D+00
317  3.1600000000000D+00  0.0000000000000D+00  0.0000000000000D+00
318  3.1700000000000D+00  0.0000000000000D+00  0.0000000000000D+00
319  3.1800000000000D+00  0.0000000000000D+00  0.0000000000000D+00
320  3.1900000000000D+00  0.0000000000000D+00  0.0000000000000D+00
321  3.2000000000000D+00  0.0000000000000D+00  0.0000000000000D+00
322  3.2100000000000D+00  0.0000000000000D+00  0.0000000000000D+00
323  3.2200000000000D+00  0.0000000000000D+00  0.0000000000000D+00
324  3.2300000000000D+00  0.0000000000000D+00  0.0000000000000D+00
325  3.2400000000000D+00  0.0000000000000D+00  0.0000000000000D+00
326  3.2500000000000D+00  0.0000000000000D+00  0.0000000000000D+00
327  3.2600000000000D+00  0.0000000000000D+00  0.0000000000000D+00
328  3.2700000000000D+00  0.0000000000000D+00  0.0000000000000D+00
329  3.2800000000000D+00  0.0000000000000D+00  0.0000000000000D+00
330  3.2900000000000D+00  0.0000000000000D+00  0.0000000000000D+00
331  3.3000000000000D+00  0.0000000000000D+00  0.0000000000000D+00
332  3.3100000000000D+00  0.0000000000000D+00  0.0000000000000D+00
333  3.3200000000000D+00  0.0000000000000D+00  0.0000000000000D+00
334  3.3300000000000D+00  0.0000000000000D+00  0.0000000000000D+00
335  3.3400000000000D+00  0.0000000000000D+00  0.0000000000000D+00
336  3.3500000000000D+00  0.0000000000000D+00  0.0000000000000D+00
337  3.3600000000000D+00  0.0000000000000D+00  0.0000000000000D+00
338  3.3700000000000D+00  0.0000000000000D+00  0.0000000000000D+00
339  3.3800000000000D+00  0.0000000000000D+00  0.0000000000000D+00
340  3.3900000000000D+00  0.0000000000000D+00  0.0000000000000D+00
341  3.4000000000000D+00  0.0000000000000D+00  0.0000000000000D+00
342  3.4100000000000D+00  0.0000000000000D+00  0.0000000000000D+00
343  3.4200000000000D+00  0.0000000000000D+00  0.0000000000000D+00
344  3.4300000000000D+00  0.0000000000000D+00  0.0000000000000D+00
345  3.4400000000000D+00  0.0000000000000D+00  0.0000000000000D+00
346  3.4500000000000D+00  0.0000000000000D+00  0.0000000000000D+00
347  3.4600000000000D+00  0.0000000000000D+00  0.0000000000000D+00
348  3.4700000000000D+00  0.0000000000000D+00  0.0000000000000D+00
349  3.4800000000000D+00  0.0000000000000D+00  0.0000000000000D+00
350  3.4900000000000D+00  0.0000000000000D+00  0.0000000000000D+00
351  3.5000000000000D+00  0.0000000000000D+00  0.0000000000000D+00
352  3.5100000000000D+00  0.0000000000000D+00  0.0000000000000D+00
353  3.5200000000000D+00  0.0000000000000D+00  0.0000000000000D+00
354  3.5300000000000D+00  0.0000000000000D+00  0.0000000000000D+00
355  3.5400000000000D+00  0.0000000000000D+00  0.0000000000000D+00
356  3.5500000000000D+00  0.0000000000000D+00  0.0000000000000D+00
357  3.5600000000000D+00  0.0000000000000D+00  0.0000000000000D+00
358  3.5700000000000D+00  0.0000000000000D+00  0.0000000000000D+00
359  3.5800000000000D+00  0.0000000000000D+00  0.0000000000000D+00
360  3.5900000000000D+00  0.0000000000000D+00  0.0000000000000D+00
361  3.6000000000000D+00  0.0000000000000D+00  0.0000000000000D+00
362  3.6100000000000D+00  0.0000000000000D+00  0.0000000000000D+00
363  3.6200000000000D+00  0.0000000000000D+00  0.0000000000000D+00
364  3.6300000000000D+00  0.0000000000000D+00  0.0000000000000D+00
365  3.6400000000000D+00  0.0000000000000D+00  0.0000000000000D+00
366  3.6500000000000D+00  0.0000000000000D+00  0.0000000000000D+00
367  3.6600000000000D+00  0.0000000000000D+00  0.0000000000000D+00
368  3.6700000000000D+00  0.0000000000000D+00  0.0000000000000D+00
369  3.6800000000000D+00  0.0000000000000D+00  0.0000000000000D+00
370  3.6900000000000D+00  0.0000000000000D+00  0.0000000000000D+00
371  3.7000000000000D+00  0.0000000000000D+00  0.0000000000000D+00
372  3.7100000000000D+00  0.0000000000000D+00  0.0000000000000D+00
373  3.7200000000000D+00  0.0000000000000D+00  0.0000000000000D+00
374  3.7300000000000D+00  0.0000000000000D+00  0.0000000000000D+00
375  3.7400000000000D+00  0.0000000000000D+00  0.0000000000000D+00
376  3.7500000000000D+00  0.0000000000000D+00  0.0000000000000D+00
377  3.7600000000000D+00  0.0000000000000D+00  0.0000000000000D+00
378  3.7700000000000D+00  0.0000000000000D+00  0.0000000000000D+00
379  3.7800000000000D+00  0.0000000000000D+00  0.0000000000000D+00
380  3.7900000000000D+00  0.0000000000000D+00  0.0000000000000D+00
381  3.8000000000000D+00  0.0000000000000D+00  0.0000000000000D+00
382  3.8100000000000D+00  0.0000000000000D+00  0.0000000000000D+00
383  3.8200000000000D+00  0.0000000000000D+00  0.0000000000000D+00
384  3.8300000000000D+00  0.0000000000000D+00  0.0000000000000D+00
385  3.8400000000000D+00  0.0000000000000D+00  0.0000000000000D+00
386  3.8500000000000D+00  0.0000000000000D+00  0.0000000000000D+00
387  3.8600000000000D+00  0.0000000000000D+00  0.0000000000000D+00
388  3.8700000000000D+00  0.0000000000000D+00  0.0000000000000D+00
389  3.8800000000000D+00  0.0000000000000D+00  0.0000000000000D+00
390  3.8900000000000D+00  0.0000000000000D+00  0.0000000000000D+00
391  3.9000000000000D+00  0.0000000000000D+00  0.0000000000000D+00
392  3.9100000000000D+00  0.0000000000000D+00  0.0000000000000D+00
393  3.9200000000000D+00  0.0000000000000D+00  0.0000000000000D+00
394  3.9300000000000D+00  0.0000000000000D+00  0.0000000000000D+00
395  3.9400000000000D+00  0.0000000000000D+00  0.0000000000000D+00
396  3.9500000000000D+00  0.0000000000000D+00  0.0000000000000D+00
397  3.9600000000000D+00  0.0000000000000D+00  0.0000000000000D+00
398  3.9700000000000D+00  0.0000000000000D+00  0.0000000000000D+00
399  3.9800000000000D+00  0.0000000000000D+00  0.0000000000000D+00
400  3.9900000000000D+00  0.0000000000000D+00  0.0000000000000D+00
401  4.0000000000000D+00  0.0000000000000D+00  0.0000000000000D+00
402  4.0100000000000D+00  0.0000000000000D+00  0.0000000000000D+00
403  4.0200000000000D+00  0.0000000000000D+00  0.0000000000000D+00
404  4.0300000000000D+00  0.0000000000000D+00  0.0000000000000D+00
405  4.0400000000000D+00  0.0000000000000D+00  0.0000000000000D+00
406  4.0500000000000D+00  0.0000000000000D+00  0.0000000000000D+00
407  4.0600000000000D+00  0.0000000000000D+00  0.0000000000000D+00
408  4.0700000000000D+00  0.0000000000000D+00  0.0000000000000D+00
409  4.0800000000000D+00  0.0000000000000D+00  0.0000000000000D+00
410  4.0900000000000D+00  0.0000000000000D+00  0.0000000000000D+00
411  4.1000000000000D+00  0.0000000000000D+00  0.0000000000000D+00
412  4.1100000000000D+00  0.0000000000000D+00  0.0000000000000D+00
413  4.1200000000000D+00  0.0000000000000D+00  0.0000000000000D+00
414  4.1300000000000D+00  0.0000000000000D+00  0.0000000000000D+00
415  4.1400000000000D+00  0.0000000000000D+00  0.0000000000000D+00
416  4.1500000000000D+00  0.0000000000000D+00  0.0000000000000D+00
417  4.1600000000000D+00  0.0000000000000D+00  0.0000000000000D+00
418  4.1700000000000D+00  0.0000000000000D+00  0.0000000000000D+00
419  4.1800000000000D+00  0.0000000000000D+00  0.0000000000000D+00
420  4.1900000000000D+00  0.0000000000000D+00  0.0000000000000D+00
421  4.2000000000000D+00  0.0000000000000D+00  0.0000000000000D+00
422  4.2100000000000D+00  0.0000000000000D+00  0.0000000000000D+00
423  4.2200000000000D+00  0.0000000000000D+00  0.0000000000000D+00
424  4.2300000000000D+00  0.0000000000000D+00  0.0000000000000D+00
425  4.2400000000000D+00  0.0000000000000D+00  0.0000000000000D+00
426  4.2500000000000D+00  0.0000000000000D+00  0.0000000000000D+00
427  4.2600000000000D+00  0.0000000000000D+00  0.0000000000000D+00
428  4.2700000000000D+00  0.0000000000000D+00  0.0000000000000D+00
429  4.2800000000000D+00  0.0000000000000D+00  0.0000000000000D+00
430  4.2900000000000D+00  0.0000000000000D+00  0.0000000000000D+00
431  4.3000000000000D+00  0.0000000000000D+00  0.0000000000000D+00
432  4.3100000000000D+00  0.0000000000000D+00  0.0000000000000D+00
433  4.3200000000000D+00  0.0000000000000D+00  0.0000000000000D+00
434  4.3300000000000D+00  0.0000000000000D+00  0.0000000000000D+00
435  4.3400000000000D+00  0.0000000000000D+00  0.0000000000000D+00
436  4.3500000000000D+00  0.0000000000000D+00  0.0000000000000D+00
437  4.3600000000000D+00  0.0000000000000D+00  0.0000000000000D+00
438  4.3700000000000D+00  0.0000000000000D+00  0.0000000000000D+00
439  4.3800000000000D+00  0.0000000000000D+00  0.0000000000000D+00
440  4.3900000000000D+00  0.0000000000000D+00  0.0000000000000D+00
441  4.4000000000000D+00  0.0000000000000D+00  0.0000000000000D+00
442  4.4100000000000D+00  0.0000000000000D+00  0.0000000000000D+00
443  4.4200000000000D+00  0.0000000000000D+00  0.0000000000000D+00
444  4.4300000000000D+00  0.0000000000000D+00  0.0000000000000D+00