Si    ONCVPSP  r_core=  1.60  1.72  1.92
14.0000      4.0000      160518    zatom,zion,pspd
8      11   2     4   600     0    pspcod,pspxc,lmax,lloc,mmax,r2well
5.99000000  4.00000000  0.00000000    rchrg fchrg qchrg
2     3     2     0    nproj
3                 extension_switch
4     3     0    nprojso
0                         8.4089085836935D-01  5.0778062243863D+00
1  0.0000000000000D+00  1.4826292915604D-08 -6.5931134440866D-09
2  1.0000000000000D-02 -2.5838076879940D-02  4.2174549670555D-02
3  2.0000000000000D-02 -5.0962859282795D-02  8.4014716101210D-02
4  3.0000000000000D-02 -7.4674092732887D-02  1.2519193094917D-01
5  4.0000000000000D-02 -9.6297375692931D-02  1.6538915461386D-01
6  5.0000000000000D-02 -1.1519652223917D-01  2.0430638969768D-01
7  6.0000000000000D-02 -1.3078525894646D-01  2.4166589816018D-01
8  7.0000000000000D-02 -1.4253805179778D-01  2.7721703128772D-01
9  8.0000000000000D-02 -1.4999987375916D-01  3.1074058819335D-01
10  9.0000000000000D-02 -1.5279474172193D-01  3.4205262659380D-01
11  1.0000000000000D-01 -1.5063287250716D-01  3.7100765894621D-01
12  1.1000000000000D-01 -1.4331633119979D-01  3.9750117751032D-01
13  1.2000000000000D-01 -1.3074307083613D-01  4.2147146335726D-01
14  1.3000000000000D-01 -1.1290928997535D-01  4.4290064657980D-01
15  1.4000000000000D-01 -8.9910063481575D-02  4.6181499776753D-01
16  1.5000000000000D-01 -6.1938231442303D-02  4.7828444397641D-01
17  1.6000000000000D-01 -2.9281561053848D-02  4.9242131572567D-01
18  1.7000000000000D-01  7.6817739904573D-03  5.0437834477087D-01
19  1.8000000000000D-01  4.8489323068805D-02  5.1434594530728D-01
20  1.9000000000000D-01  9.2601995803325D-02  5.2254882363454D-01
21  2.0000000000000D-01  1.3941307933431D-01  5.2924197295209D-01
22  2.1000000000000D-01  1.8825848415299D-01  5.3470612065724D-01
23  2.2000000000000D-01  2.3842804542683D-01  5.3924270510206D-01
24  2.3000000000000D-01  2.8917768811489D-01  5.4316846706664D-01
25  2.4000000000000D-01  3.3974224874295D-01  5.4680974808285D-01
26  2.5000000000000D-01  3.8934873475603D-01  5.5049659307434D-01
27  2.6000000000000D-01  4.3722979410065D-01  5.5455675847162D-01
28  2.7000000000000D-01  4.8263716326004D-01  5.5930972894909D-01
29  2.8000000000000D-01  5.2485486145801D-01  5.6506084617561D-01
30  2.9000000000000D-01  5.6321190218123D-01  5.7209565146180D-01
31  3.0000000000000D-01  5.9709430050026D-01  5.8067454094695D-01
32  3.1000000000000D-01  6.2595616578470D-01  5.9102782704357D-01
33  3.2000000000000D-01  6.4932968413407D-01  6.0335129332724D-01
34  3.3000000000000D-01  6.6683381294653D-01  6.1780232202650D-01
35  3.4000000000000D-01  6.7818153123140D-01  6.3449666386220D-01
36  3.5000000000000D-01  6.8318551319112D-01  6.5350590936214D-01
37  3.6000000000000D-01  6.8176211886655D-01  6.7485570910598D-01
38  3.7000000000000D-01  6.7393362381596D-01  6.9852477783379D-01
39  3.8000000000000D-01  6.5982863942782D-01  7.2444470418039D-01
40  3.9000000000000D-01  6.3968070604808D-01  7.5250057420043D-01
41  4.0000000000000D-01  6.1382507213108D-01  7.8253240304916D-01
42  4.1000000000000D-01  5.8269370358083D-01  8.1433735541132D-01
43  4.2000000000000D-01  5.4680859781184D-01  8.4767272175918D-01
44  4.3000000000000D-01  5.0677350631921D-01  8.8225960449445D-01
45  4.4000000000000D-01  4.6326419720854D-01  9.1778725571075D-01
46  4.5000000000000D-01  4.1701741472539D-01  9.5391799691114D-01
47  4.6000000000000D-01  3.6881871590622D-01  9.9029264072477D-01
48  4.7000000000000D-01  3.1948938464540D-01  1.0265363256657D+00
49  4.8000000000000D-01  2.6987264038768D-01  1.0622646674208D+00
50  4.9000000000000D-01  2.2081937200973D-01  1.0970901241786D+00
51  5.0000000000000D-01  1.7317363700813D-01  1.1306284692200D+00
52  5.1000000000000D-01  1.2775817168500D-01  1.1625052614733D+00
53  5.2000000000000D-01  8.5360159501766D-02  1.1923622040299D+00
54  5.3000000000000D-01  4.6717502101417D-02  1.2198632817594D+00
55  5.4000000000000D-01  1.2505830727023D-02  1.2447005721281D+00
56  5.5000000000000D-01 -1.6673515068354D-02  1.2665996280920D+00
57  5.6000000000000D-01 -4.0304329203569D-02  1.2853243384180D+00
58  5.7000000000000D-01 -5.7965007469077D-02  1.3006811788967D+00
59  5.8000000000000D-01 -6.9336470399790D-02  1.3125227775312D+00
60  5.9000000000000D-01 -7.4208393182102D-02  1.3207507277280D+00
61  6.0000000000000D-01 -7.2483622572797D-02  1.3253175956766D+00
62  6.1000000000000D-01 -6.4180690349436D-02  1.3262280812021D+00
63  6.2000000000000D-01 -4.9434364092228D-02  1.3235393052622D+00
64  6.3000000000000D-01 -2.8494208688362D-02  1.3173602117271D+00
65  6.4000000000000D-01 -1.7211649683455D-03  1.3078500857505D+00
66  6.5000000000000D-01  3.0417814614239D-02  1.2952162059263D+00
67  6.6000000000000D-01  6.7357000528790D-02  1.2797106620200D+00
68  6.7000000000000D-01  1.0844088632918D-01  1.2616263842437D+00
69  6.8000000000000D-01  1.5293481922692D-01  1.2412924436647D+00
70  6.9000000000000D-01  2.0003709753317D-01  1.2190686959582D+00
71  7.0000000000000D-01  2.4889234546829D-01  1.1953398522896D+00
72  7.1000000000000D-01  2.9860595281633D-01  1.1705090713877D+00
73  7.2000000000000D-01  3.4825934720535D-01  1.1449911756701D+00
74  7.3000000000000D-01  3.9692585084190D-01  1.1192056014358D+00
75  7.4000000000000D-01  4.4368686148980D-01  1.0935691985464D+00
76  7.5000000000000D-01  4.8764808967534D-01  1.0684889985609D+00
77  7.6000000000000D-01  5.2795558062216D-01  1.0443550719049D+00
78  7.7000000000000D-01  5.6381125041296D-01  1.0215335942941D+00
79  7.8000000000000D-01  5.9448767131665D-01  1.0003602402896D+00
80  7.9000000000000D-01  6.1934185106367D-01  9.8113401757177D-01
81  8.0000000000000D-01  6.3782776497576D-01  9.6411164932685D-01
82  8.1000000000000D-01  6.4950741805385D-01  9.4950260413189D-01
83  8.2000000000000D-01  6.5406023613472D-01  9.3746486302889D-01
84  8.3000000000000D-01  6.5129061071143D-01  9.2810150222975D-01
85  8.4000000000000D-01  6.4113345058577D-01  9.2145815727164D-01
86  8.5000000000000D-01  6.2365762473883D-01  9.1752142063941D-01
87  8.6000000000000D-01  5.9906721418353D-01  9.1621821010283D-01
88  8.7000000000000D-01  5.6770052556966D-01  9.1741612951739D-01
89  8.8000000000000D-01  5.3002685539579D-01  9.2092482785138D-01
90  8.9000000000000D-01  4.8664103026240D-01  9.2649834598721D-01
91  9.0000000000000D-01  4.3825578509054D-01  9.3383842466015D-01
92  9.1000000000000D-01  3.8569207703558D-01  9.4259873100726D-01
93  9.2000000000000D-01  3.2986746736526D-01  9.5238994586055D-01
94  9.3000000000000D-01  2.7178273627414D-01  9.6278563938410D-01
95  9.4000000000000D-01  2.1250692593336D-01  9.7332884916572D-01
96  9.5000000000000D-01  1.5316103451703D-01  9.8353926265365D-01
97  9.6000000000000D-01  9.4900608041471D-02  9.9292089508529D-01
98  9.7000000000000D-01  3.8897497182075D-02  1.0009701449733D+00
99  9.8000000000000D-01 -1.3678937493841D-02  1.0071841019223D+00
100  9.9000000000000D-01 -6.1680876849598D-02  1.0110689763306D+00
101  1.0000000000000D+00 -1.0400104848171D-01  1.0121485170949D+00
102  1.0100000000000D+00 -1.3959138132761D-01  1.0099722824154D+00
103  1.0200000000000D+00 -1.6748100724176D-01  1.0041236297348D+00
104  1.0300000000000D+00 -1.8679331444168D-01  9.9422729396224D-01
105  1.0400000000000D+00 -1.9676177012664D-01  9.7995642852154D-01
106  1.0500000000000D+00 -1.9674424597409D-01  9.6103899094455D-01
107  1.0600000000000D+00 -1.8623560074688D-01  9.3726336372600D-01
108  1.0700000000000D+00 -1.6487830067281D-01  9.0848311277564D-01
109  1.0800000000000D+00 -1.3247088578541D-01  8.7462079791568D-01
110  1.0900000000000D+00 -8.8974124108315D-02  8.3567076471588D-01
111  1.1000000000000D+00 -3.4514728617258D-02  7.9170086153127D-01
112  1.1100000000000D+00  3.0613450822014D-02  7.4285304204767D-01
113  1.1200000000000D+00  1.0595080727660D-01  6.8934283177207D-01
114  1.1300000000000D+00  1.9087593723220D-01  6.3145765361946D-01
115  1.1400000000000D+00  2.8461214843037D-01  5.6955402640781D-01
116  1.1500000000000D+00  3.8623644735497D-01  5.0405366527810D-01
117  1.1600000000000D+00  4.9469088994902D-01  4.3543853461352D-01
118  1.1700000000000D+00  6.0879614715031D-01  3.6424491820072D-01
119  1.1800000000000D+00  7.2726710141328D-01  2.9105658706709D-01
120  1.1900000000000D+00  8.4873025682548D-01  2.1649716030062D-01
121  1.2000000000000D+00  9.7174271102987D-01  1.4122176942477D-01
122  1.2100000000000D+00  1.0948124140069D+00  6.5908147201660D-02
123  1.2200000000000D+00  1.2164194222388D+00 -8.7527309264659D-03
124  1.2300000000000D+00  1.3350378261516D+00 -8.2066310896118D-02
125  1.2400000000000D+00  1.4491580260647D+00 -1.5334428647878D-01
126  1.2500000000000D+00  1.5573090221357D+00 -2.2191444067281D-01
127  1.2600000000000D+00  1.6580803750198D+00 -2.8713035058619D-01
128  1.2700000000000D+00  1.7501435051618D+00 -3.4838080921413D-01
129  1.2800000000000D+00  1.8322720006281D+00 -4.0509881835852D-01
130  1.2900000000000D+00  1.9033606114044D+00 -4.5677001036655D-01
131  1.3000000000000D+00  1.9624426439545D+00 -5.0294037210014D-01
132  1.3100000000000D+00  2.0087054694956D+00 -5.4322314439124D-01
133  1.3200000000000D+00  2.0415038929031D+00 -5.7730478489009D-01
134  1.3300000000000D+00  2.0603711878155D+00 -6.0494990803115D-01
135  1.3400000000000D+00  2.0650275804466D+00 -6.2600510567998D-01
136  1.3500000000000D+00  2.0553860523502D+00 -6.4040159061611D-01
137  1.3600000000000D+00  2.0315553776751D+00 -6.4815662499187D-01
138  1.3700000000000D+00  1.9938402703399D+00 -6.4937367820286D-01
139  1.3800000000000D+00  1.9427386844429D+00 -6.4424133259487D-01
140  1.3900000000000D+00  1.8789362536400D+00 -6.3303093007197D-01
141  1.4000000000000D+00  1.8032979195428D+00 -6.1609298099499D-01
142  1.4100000000000D+00  1.7168569174957D+00 -5.9385240897854D-01
143  1.4200000000000D+00  1.6208011812913D+00 -5.6680265805531D-01
144  1.4300000000000D+00  1.5164574311106D+00 -5.3549877814197D-01
145  1.4400000000000D+00  1.4052731289323D+00 -5.0054956943994D-01
146  1.4500000000000D+00  1.2887965486183D+00 -4.6260889415676D-01
147  1.4600000000000D+00  1.1686552957502D+00 -4.2236630282060D-01
148  1.4700000000000D+00  1.0465335155289D+00 -3.8053707963374D-01
149  1.4800000000000D+00  9.2414819127580D-01 -3.3785188397880D-01
150  1.4900000000000D+00  8.0322482440911D-01 -2.9504611579165D-01
151  1.5000000000000D+00  6.8547289010167D-01 -2.5284917822654D-01
152  1.5100000000000D+00  5.7256139715748D-01 -2.1197378210899D-01
153  1.5200000000000D+00  4.6609495462908D-01 -1.7310546921844D-01
154  1.5300000000000D+00  3.6759063232446D-01 -1.3689248082921D-01
155  1.5400000000000D+00  2.7845605395287D-01 -1.0393616449398D-01
156  1.5500000000000D+00  1.9999736012805D-01 -7.4792670453294D-02
157  1.5600000000000D+00  1.3330669461686D-01 -4.9929591598745D-02
158  1.5700000000000D+00  7.9058695893417D-02 -2.9648407107143D-02
159  1.5800000000000D+00  3.8580325722775D-02 -1.4485544156241D-02
160  1.5900000000000D+00  1.3378202244086D-02 -5.0346355103262D-03
161  1.6000000000000D+00  1.6116164340207D-03 -6.1831167366329D-04
162  1.6100000000000D+00 -1.3180142370378D-03  4.8686964467374D-04
163  1.6200000000000D+00 -3.3198513293920D-04  1.2347608646045D-04
164  1.6300000000000D+00  4.0733648961600D-04 -1.5167969546815D-04
165  1.6400000000000D+00  9.9445221675302D-05 -3.7066782868681D-05
166  1.6500000000000D+00 -7.3389486122375D-05  2.7242359366711D-05
167  1.6600000000000D+00 -1.5903863272632D-05  5.9072057278798D-06
168  1.6700000000000D+00 -8.1257985068935D-08  6.5458759858268D-08
169  1.6800000000000D+00 -1.6570083072933D-08  1.3348313864570D-08
170  1.6900000000000D+00  0.0000000000000D+00  0.0000000000000D+00
171  1.7000000000000D+00  0.0000000000000D+00  0.0000000000000D+00
172  1.7100000000000D+00  0.0000000000000D+00  0.0000000000000D+00
173  1.7200000000000D+00  0.0000000000000D+00  0.0000000000000D+00
174  1.7300000000000D+00  0.0000000000000D+00  0.0000000000000D+00
175  1.7400000000000D+00  0.0000000000000D+00  0.0000000000000D+00
176  1.7500000000000D+00  0.0000000000000D+00  0.0000000000000D+00
177  1.7600000000000D+00  0.0000000000000D+00  0.0000000000000D+00
178  1.7700000000000D+00  0.0000000000000D+00  0.0000000000000D+00
179  1.7800000000000D+00  0.0000000000000D+00  0.0000000000000D+00
180  1.7900000000000D+00  0.0000000000000D+00  0.0000000000000D+00
181  1.8000000000000D+00  0.0000000000000D+00  0.0000000000000D+00
182  1.8100000000000D+00  0.0000000000000D+00  0.0000000000000D+00
183  1.8200000000000D+00  0.0000000000000D+00  0.0000000000000D+00
184  1.8300000000000D+00  0.0000000000000D+00  0.0000000000000D+00
185  1.8400000000000D+00  0.0000000000000D+00  0.0000000000000D+00
186  1.8500000000000D+00  0.0000000000000D+00  0.0000000000000D+00
187  1.8600000000000D+00  0.0000000000000D+00  0.0000000000000D+00
188  1.8700000000000D+00  0.0000000000000D+00  0.0000000000000D+00
189  1.8800000000000D+00  0.0000000000000D+00  0.0000000000000D+00
190  1.8900000000000D+00  0.0000000000000D+00  0.0000000000000D+00
191  1.9000000000000D+00  0.0000000000000D+00  0.0000000000000D+00
192  1.9100000000000D+00  0.0000000000000D+00  0.0000000000000D+00
193  1.9200000000000D+00  0.0000000000000D+00  0.0000000000000D+00
194  1.9300000000000D+00  0.0000000000000D+00  0.0000000000000D+00
195  1.9400000000000D+00  0.0000000000000D+00  0.0000000000000D+00
196  1.9500000000000D+00  0.0000000000000D+00  0.0000000000000D+00
197  1.9600000000000D+00  0.0000000000000D+00  0.0000000000000D+00
198  1.9700000000000D+00  0.0000000000000D+00  0.0000000000000D+00
199  1.9800000000000D+00  0.0000000000000D+00  0.0000000000000D+00
200  1.9900000000000D+00  0.0000000000000D+00  0.0000000000000D+00
201  2.0000000000000D+00  0.0000000000000D+00  0.0000000000000D+00
202  2.0100000000000D+00  0.0000000000000D+00  0.0000000000000D+00
203  2.0200000000000D+00  0.0000000000000D+00  0.0000000000000D+00
204  2.0300000000000D+00  0.0000000000000D+00  0.0000000000000D+00
205  2.0400000000000D+00  0.0000000000000D+00  0.0000000000000D+00
206  2.0500000000000D+00  0.0000000000000D+00  0.0000000000000D+00
207  2.0600000000000D+00  0.0000000000000D+00  0.0000000000000D+00
208  2.0700000000000D+00  0.0000000000000D+00  0.0000000000000D+00
209  2.0800000000000D+00  0.0000000000000D+00  0.0000000000000D+00
210  2.0900000000000D+00  0.0000000000000D+00  0.0000000000000D+00
211  2.1000000000000D+00  0.0000000000000D+00  0.0000000000000D+00
212  2.1100000000000D+00  0.0000000000000D+00  0.0000000000000D+00
213  2.1200000000000D+00  0.0000000000000D+00  0.0000000000000D+00
214  2.1300000000000D+00  0.0000000000000D+00  0.0000000000000D+00
215  2.1400000000000D+00  0.0000000000000D+00  0.0000000000000D+00
216  2.1500000000000D+00  0.0000000000000D+00  0.0000000000000D+00
217  2.1600000000000D+00  0.0000000000000D+00  0.0000000000000D+00
218  2.1700000000000D+00  0.0000000000000D+00  0.0000000000000D+00
219  2.1800000000000D+00  0.0000000000000D+00  0.0000000000000D+00
220  2.1900000000000D+00  0.0000000000000D+00  0.0000000000000D+00
221  2.2000000000000D+00  0.0000000000000D+00  0.0000000000000D+00
222  2.2100000000000D+00  0.0000000000000D+00  0.0000000000000D+00
223  2.2200000000000D+00  0.0000000000000D+00  0.0000000000000D+00
224  2.2300000000000D+00  0.0000000000000D+00  0.0000000000000D+00
225  2.2400000000000D+00  0.0000000000000D+00  0.0000000000000D+00
226  2.2500000000000D+00  0.0000000000000D+00  0.0000000000000D+00
227  2.2600000000000D+00  0.0000000000000D+00  0.0000000000000D+00
228  2.2700000000000D+00  0.0000000000000D+00  0.0000000000000D+00
229  2.2800000000000D+00  0.0000000000000D+00  0.0000000000000D+00
230  2.2900000000000D+00  0.0000000000000D+00  0.0000000000000D+00
231  2.3000000000000D+00  0.0000000000000D+00  0.0000000000000D+00
232  2.3100000000000D+00  0.0000000000000D+00  0.0000000000000D+00
233  2.3200000000000D+00  0.0000000000000D+00  0.0000000000000D+00
234  2.3300000000000D+00  0.0000000000000D+00  0.0000000000000D+00
235  2.3400000000000D+00  0.0000000000000D+00  0.0000000000000D+00
236  2.3500000000000D+00  0.0000000000000D+00  0.0000000000000D+00
237  2.3600000000000D+00  0.0000000000000D+00  0.0000000000000D+00
238  2.3700000000000D+00  0.0000000000000D+00  0.0000000000000D+00
239  2.3800000000000D+00  0.0000000000000D+00  0.0000000000000D+00
240  2.3900000000000D+00  0.0000000000000D+00  0.0000000000000D+00
241  2.4000000000000D+00  0.0000000000000D+00  0.0000000000000D+00
242  2.4100000000000D+00  0.0000000000000D+00  0.0000000000000D+00
243  2.4200000000000D+00  0.0000000000000D+00  0.0000000000000D+00
244  2.4300000000000D+00  0.0000000000000D+00  0.0000000000000D+00
245  2.4400000000000D+00  0.0000000000000D+00  0.0000000000000D+00
246  2.4500000000000D+00  0.0000000000000D+00  0.0000000000000D+00
247  2.4600000000000D+00  0.0000000000000D+00  0.0000000000000D+00
248  2.4700000000000D+00  0.0000000000000D+00  0.0000000000000D+00
249  2.4800000000000D+00  0.0000000000000D+00  0.0000000000000D+00
250  2.4900000000000D+00  0.0000000000000D+00  0.0000000000000D+00
251  2.5000000000000D+00  0.0000000000000D+00  0.0000000000000D+00
252  2.5100000000000D+00  0.0000000000000D+00  0.0000000000000D+00
253  2.5200000000000D+00  0.0000000000000D+00  0.0000000000000D+00
254  2.5300000000000D+00  0.0000000000000D+00  0.0000000000000D+00
255  2.5400000000000D+00  0.0000000000000D+00  0.0000000000000D+00
256  2.5500000000000D+00  0.0000000000000D+00  0.0000000000000D+00
257  2.5600000000000D+00  0.0000000000000D+00  0.0000000000000D+00
258  2.5700000000000D+00  0.0000000000000D+00  0.0000000000000D+00
259  2.5800000000000D+00  0.0000000000000D+00  0.0000000000000D+00
260  2.5900000000000D+00  0.0000000000000D+00  0.0000000000000D+00
261  2.6000000000000D+00  0.0000000000000D+00  0.0000000000000D+00
262  2.6100000000000D+00  0.0000000000000D+00  0.0000000000000D+00
263  2.6200000000000D+00  0.0000000000000D+00  0.0000000000000D+00
264  2.6300000000000D+00  0.0000000000000D+00  0.0000000000000D+00
265  2.6400000000000D+00  0.0000000000000D+00  0.0000000000000D+00
266  2.6500000000000D+00  0.0000000000000D+00  0.0000000000000D+00
267  2.6600000000000D+00  0.0000000000000D+00  0.0000000000000D+00
268  2.6700000000000D+00  0.0000000000000D+00  0.0000000000000D+00
269  2.6800000000000D+00  0.0000000000000D+00  0.0000000000000D+00
270  2.6900000000000D+00  0.0000000000000D+00  0.0000000000000D+00
271  2.7000000000000D+00  0.0000000000000D+00  0.0000000000000D+00
272  2.7100000000000D+00  0.0000000000000D+00  0.0000000000000D+00
273  2.7200000000000D+00  0.0000000000000D+00  0.0000000000000D+00
274  2.7300000000000D+00  0.0000000000000D+00  0.0000000000000D+00
275  2.7400000000000D+00  0.0000000000000D+00  0.0000000000000D+00
276  2.7500000000000D+00  0.0000000000000D+00  0.0000000000000D+00
277  2.7600000000000D+00  0.0000000000000D+00  0.0000000000000D+00
278  2.7700000000000D+00  0.0000000000000D+00  0.0000000000000D+00
279  2.7800000000000D+00  0.0000000000000D+00  0.0000000000000D+00
280  2.7900000000000D+00  0.0000000000000D+00  0.0000000000000D+00
281  2.8000000000000D+00  0.0000000000000D+00  0.0000000000000D+00
282  2.8100000000000D+00  0.0000000000000D+00  0.0000000000000D+00
283  2.8200000000000D+00  0.0000000000000D+00  0.0000000000000D+00
284  2.8300000000000D+00  0.0000000000000D+00  0.0000000000000D+00
285  2.8400000000000D+00  0.0000000000000D+00  0.0000000000000D+00
286  2.8500000000000D+00  0.0000000000000D+00  0.0000000000000D+00
287  2.8600000000000D+00  0.0000000000000D+00  0.0000000000000D+00
288  2.8700000000000D+00  0.0000000000000D+00  0.0000000000000D+00
289  2.8800000000000D+00  0.0000000000000D+00  0.0000000000000D+00
290  2.8900000000000D+00  0.0000000000000D+00  0.0000000000000D+00
291  2.9000000000000D+00  0.0000000000000D+00  0.0000000000000D+00
292  2.9100000000000D+00  0.0000000000000D+00  0.0000000000000D+00
293  2.9200000000000D+00  0.0000000000000D+00  0.0000000000000D+00
294  2.9300000000000D+00  0.0000000000000D+00  0.0000000000000D+00
295  2.9400000000000D+00  0.0000000000000D+00  0.0000000000000D+00
296  2.9500000000000D+00  0.0000000000000D+00  0.0000000000000D+00
297  2.9600000000000D+00  0.0000000000000D+00  0.0000000000000D+00
298  2.9700000000000D+00  0.0000000000000D+00  0.0000000000000D+00
299  2.9800000000000D+00  0.0000000000000D+00  0.0000000000000D+00
300  2.9900000000000D+00  0.0000000000000D+00  0.0000000000000D+00
301  3.0000000000000D+00  0.0000000000000D+00  0.0000000000000D+00
302  3.0100000000000D+00  0.0000000000000D+00  0.0000000000000D+00
303  3.0200000000000D+00  0.0000000000000D+00  0.0000000000000D+00
304  3.0300000000000D+00  0.0000000000000D+00  0.0000000000000D+00
305  3.0400000000000D+00  0.0000000000000D+00  0.0000000000000D+00
306  3.0500000000000D+00  0.0000000000000D+00  0.0000000000000D+00
307  3.0600000000000D+00  0.0000000000000D+00  0.0000000000000D+00
308  3.0700000000000D+00  0.0000000000000D+00  0.0000000000000D+00
309  3.0800000000000D+00  0.0000000000000D+00  0.0000000000000D+00
310  3.0900000000000D+00  0.0000000000000D+00  0.0000000000000D+00
311  3.1000000000000D+00  0.0000000000000D+00  0.0000000000000D+00
312  3.1100000000000D+00  0.0000000000000D+00  0.0000000000000D+00
313  3.1200000000000D+00  0.0000000000000D+00  0.0000000000000D+00
314  3.1300000000000D+00  0.0000000000000D+00  0.0000000000000D+00
315  3.1400000000000D+00  0.0000000000000D+00  0.0000000000000D+00
316  3.1500000000000D+00  0.0000000000000D+00  0.0000000000000D+00
317  3.1600000000000D+00  0.0000000000000D+00  0.0000000000000D+00
318  3.1700000000000D+00  0.0000000000000D+00  0.0000000000000D+00
319  3.1800000000000D+00  0.0000000000000D+00  0.0000000000000D+00
320  3.1900000000000D+00  0.0000000000000D+00  0.0000000000000D+00
321  3.2000000000000D+00  0.0000000000000D+00  0.0000000000000D+00
322  3.2100000000000D+00  0.0000000000000D+00  0.0000000000000D+00
323  3.2200000000000D+00  0.0000000000000D+00  0.0000000000000D+00
324  3.2300000000000D+00  0.0000000000000D+00  0.0000000000000D+00
325  3.2400000000000D+00  0.0000000000000D+00  0.0000000000000D+00
326  3.2500000000000D+00  0.0000000000000D+00  0.0000000000000D+00
327  3.2600000000000D+00  0.0000000000000D+00  0.0000000000000D+00
328  3.2700000000000D+00  0.0000000000000D+00  0.0000000000000D+00
329  3.2800000000000D+00  0.0000000000000D+00  0.0000000000000D+00
330  3.2900000000000D+00  0.0000000000000D+00  0.0000000000000D+00
331  3.3000000000000D+00  0.0000000000000D+00  0.0000000000000D+00
332  3.3100000000000D+00  0.0000000000000D+00  0.0000000000000D+00
333  3.3200000000000D+00  0.0000000000000D+00  0.0000000000000D+00
334  3.3300000000000D+00  0.0000000000000D+00  0.0000000000000D+00
335  3.3400000000000D+00  0.0000000000000D+00  0.0000000000000D+00
336  3.3500000000000D+00  0.0000000000000D+00  0.0000000000000D+00
337  3.3600000000000D+00  0.0000000000000D+00  0.0000000000000D+00
338  3.3700000000000D+00  0.0000000000000D+00  0.0000000000000D+00
339  3.3800000000000D+00  0.0000000000000D+00  0.0000000000000D+00
340  3.3900000000000D+00  0.0000000000000D+00  0.0000000000000D+00
341  3.4000000000000D+00  0.0000000000000D+00  0.0000000000000D+00
342  3.4100000000000D+00  0.0000000000000D+00  0.0000000000000D+00
343  3.4200000000000D+00  0.0000000000000D+00  0.0000000000000D+00
344  3.4300000000000D+00  0.0000000000000D+00  0.0000000000000D+00
345  3.4400000000000D+00  0.0000000000000D+00  0.0000000000000D+00
346  3.4500000000000D+00  0.0000000000000D+00  0.0000000000000D+00
347  3.4600000000000D+00  0.0000000000000D+00  0.0000000000000D+00
348  3.4700000000000D+00  0.0000000000000D+00  0.0000000000000D+00
349  3.4800000000000D+00  0.0000000000000D+00  0.0000000000000D+00
350  3.4900000000000D+00  0.0000000000000D+00  0.0000000000000D+00
351  3.5000000000000D+00  0.0000000000000D+00  0.0000000000000D+00
352  3.5100000000000D+00  0.0000000000000D+00  0.0000000000000D+00
353  3.5200000000000D+00  0.0000000000000D+00  0.0000000000000D+00
354  3.5300000000000D+00  0.0000000000000D+00  0.0000000000000D+00
355  3.5400000000000D+00  0.0000000000000D+00  0.0000000000000D+00
356  3.5500000000000D+00  0.0000000000000D+00  0.0000000000000D+00
357  3.5600000000000D+00  0.0000000000000D+00  0.0000000000000D+00
358  3.5700000000000D+00  0.0000000000000D+00  0.0000000000000D+00
359  3.5800000000000D+00  0.0000000000000D+00  0.0000000000000D+00
360  3.5900000000000D+00  0.0000000000000D+00  0.0000000000000D+00
361  3.6000000000000D+00  0.0000000000000D+00  0.0000000000000D+00
362  3.6100000000000D+00  0.0000000000000D+00  0.0000000000000D+00
363  3.6200000000000D+00  0.0000000000000D+00  0.0000000000000D+00
364  3.6300000000000D+00  0.0000000000000D+00  0.0000000000000D+00
365  3.6400000000000D+00  0.0000000000000D+00  0.0000000000000D+00
366  3.6500000000000D+00  0.0000000000000D+00  0.0000000000000D+00
367  3.6600000000000D+00  0.0000000000000D+00  0.0000000000000D+00
368  3.6700000000000D+00  0.0000000000000D+00  0.0000000000000D+00
369  3.6800000000000D+00  0.0000000000000D+00  0.0000000000000D+00
370  3.6900000000000D+00  0.0000000000000D+00  0.0000000000000D+00
371  3.7000000000000D+00  0.0000000000000D+00  0.0000000000000D+00
372  3.7100000000000D+00  0.0000000000000D+00  0.0000000000000D+00
373  3.7200000000000D+00  0.0000000000000D+00  0.0000000000000D+00
374  3.7300000000000D+00  0.0000000000000D+00  0.0000000000000D+00
375  3.7400000000000D+00  0.0000000000000D+00  0.0000000000000D+00
376  3.7500000000000D+00  0.0000000000000D+00  0.0000000000000D+00
377  3.7600000000000D+00  0.0000000000000D+00  0.0000000000000D+00
378  3.7700000000000D+00  0.0000000000000D+00  0.0000000000000D+00
379  3.7800000000000D+00  0.0000000000000D+00  0.0000000000000D+00
380  3.7900000000000D+00  0.0000000000000D+00  0.0000000000000D+00
381  3.8000000000000D+00  0.0000000000000D+00  0.0000000000000D+00
382  3.8100000000000D+00  0.0000000000000D+00  0.0000000000000D+00
383  3.8200000000000D+00  0.0000000000000D+00  0.0000000000000D+00
384  3.8300000000000D+00  0.0000000000000D+00  0.0000000000000D+00
385  3.8400000000000D+00  0.0000000000000D+00  0.0000000000000D+00
386  3.8500000000000D+00  0.0000000000000D+00  0.0000000000000D+00
387  3.8600000000000D+00  0.0000000000000D+00  0.0000000000000D+00
388  3.8700000000000D+00  0.0000000000000D+00  0.0000000000000D+00
389  3.8800000000000D+00  0.0000000000000D+00  0.0000000000000D+00
390  3.8900000000000D+00  0.0000000000000D+00  0.0000000000000D+00
391  3.9000000000000D+00  0.0000000000000D+00  0.0000000000000D+00
392  3.9100000000000D+00  0.0000000000000D+00  0.0000000000000D+00
393  3.9200000000000D+00  0.0000000000000D+00  0.0000000000000D+00
394  3.9300000000000D+00  0.0000000000000D+00  0.0000000000000D+00
395  3.9400000000000D+00  0.0000000000000D+00  0.0000000000000D+00
396  3.9500000000000D+00  0.0000000000000D+00  0.0000000000000D+00
397  3.9600000000000D+00  0.0000000000000D+00  0.0000000000000D+00
398  3.9700000000000D+00  0.0000000000000D+00  0.0000000000000D+00
399  3.9800000000000D+00  0.0000000000000D+00  0.0000000000000D+00
400  3.9900000000000D+00  0.0000000000000D+00  0.0000000000000D+00
401  4.0000000000000D+00  0.0000000000000D+00  0.0000000000000D+00
402  4.0100000000000D+00  0.0000000000000D+00  0.0000000000000D+00
403  4.0200000000000D+00  0.0000000000000D+00  0.0000000000000D+00
404  4.0300000000000D+00  0.0000000000000D+00  0.0000000000000D+00
405  4.0400000000000D+00  0.0000000000000D+00  0.0000000000000D+00
406  4.0500000000000D+00  0.0000000000000D+00  0.0000000000000D+00
407  4.0600000000000D+00  0.0000000000000D+00  0.0000000000000D+00
408  4.0700000000000D+00  0.0000000000000D+00  0.0000000000000D+00
409  4.0800000000000D+00  0.0000000000000D+00  0.0000000000000D+00
410  4.0900000000000D+00  0.0000000000000D+00  0.0000000000000D+00
411  4.1000000000000D+00  0.0000000000000D+00  0.0000000000000D+00
412  4.1100000000000D+00  0.0000000000000D+00  0.0000000000000D+00
413  4.1200000000000D+00  0.0000000000000D+00  0.0000000000000D+00
414  4.1300000000000D+00  0.0000000000000D+00  0.0000000000000D+00
415  4.1400000000000D+00  0.0000000000000D+00  0.0000000000000D+00
416  4.1500000000000D+00  0.0000000000000D+00  0.0000000000000D+00
417  4.1600000000000D+00  0.0000000000000D+00  0.0000000000000D+00
418  4.1700000000000D+00  0.0000000000000D+00  0.0000000000000D+00
419  4.1800000000000D+00  0.0000000000000D+00  0.0000000000000D+00
420  4.1900000000000D+00  0.0000000000000D+00  0.0000000000000D+00
421  4.2000000000000D+00  0.0000000000000D+00  0.0000000000000D+00
422  4.2100000000000D+00  0.0000000000000D+00  0.0000000000000D+00
423  4.2200000000000D+00  0.0000000000000D+00  0.0000000000000D+00
424  4.2300000000000D+00  0.0000000000000D+00  0.0000000000000D+00
425  4.2400000000000D+00  0.0000000000000D+00  0.0000000000000D+00
426  4.2500000000000D+00  0.0000000000000D+00  0.0000000000000D+00
427  4.2600000000000D+00  0.0000000000000D+00  0.0000000000000D+00
428  4.2700000000000D+00  0.0000000000000D+00  0.0000000000000D+00
429  4.2800000000000D+00  0.0000000000000D+00  0.0000000000000D+00
430  4.2900000000000D+00  0.0000000000000D+00  0.0000000000000D+00
431  4.3000000000000D+00  0.0000000000000D+00  0.0000000000000D+00
432  4.3100000000000D+00  0.0000000000000D+00  0.0000000000000D+00
433  4.3200000000000D+00  0.0000000000000D+00  0.0000000000000D+00
434  4.3300000000000D+00  0.0000000000000D+00  0.0000000000000D+00
435  4.3400000000000D+00  0.0000000000000D+00  0.0000000000000D+00
436  4.3500000000000D+00  0.0000000000000D+00  0.0000000000000D+00
437  4.3600000000000D+00  0.0000000000000D+00  0.0000000000000D+00
438  4.3700000000000D+00  0.0000000000000D+00  0.0000000000000D+00
439  4.3800000000000D+00  0.0000000000000D+00  0.0000000000000D+00
440  4.3900000000000D+00  0.0000000000000D+00  0.0000000000000D+00
441  4.4000000000000D+00  0.0000000000000D+00  0.0000000000000D+00
442  4.4100000000000D+00  0.0000000000000D+00  0.0000000000000D+00
443  4.4200000000000D+00  0.0000000000000D+00  0.0000000000000D+00