# YAML support is available, but is disabled for this test.
# Start legacy fldiff comparison report
2
< .Version 9.3.1 of ABINIT 
> .Version 9.9.0 of ABINIT 
3
< .(MPI version, prepared for a x86_64_linux_gnu9.3 computer) 
> .(MPI version, prepared for a x86_64_linux_gnu11.3 computer) 
17
< .Starting date : Tue 10 Nov 2020.
> .Starting date : Thu 17 Nov 2022.
440
< +Overall time at end (sec) : cpu=          3.6  wall=          3.6
> +Overall time at end (sec) : cpu=          1.1  wall=          1.2
Summary t51.abo: no significant difference has been found.
