Ga    ONCVPSP-3.3.0  r_core=   1.85767   1.81388   2.62545
31.0000      3.0000      171103    zatom,zion,pspd
8   -1012   2     4   600     0    pspcod,pspxc,lmax,lloc,mmax,r2well
5.99000000  0.50000000  0.00000000    rchrg fchrg qchrg
2     2     2     0     0    nproj
1     1           extension_switch
0                         6.5041147425287D+00  6.7066217889716D-01
1  0.0000000000000D+00  1.9788531924192D-11 -4.5830367279009D-11
2  1.0000000000000D-02  2.5276868451149D-02 -9.3314362170973D-03
3  2.0000000000000D-02  5.0568084058155D-02 -1.8700882966554D-02
4  3.0000000000000D-02  7.5887818533594D-02 -2.8145975191364D-02
5  4.0000000000000D-02  1.0124989369381D-01 -3.7703598888781D-02
6  5.0000000000000D-02  1.2666760898171D-01 -4.7409522208420D-02
7  6.0000000000000D-02  1.5215357194058D-01 -5.7298033203080D-02
8  7.0000000000000D-02  1.7771953259955D-01 -6.7401586396159D-02
9  8.0000000000000D-02  2.0337622271122D-01 -7.7750460283664D-02
10  9.0000000000000D-02  2.2913320075787D-01 -8.8372427831982D-02
11  1.0000000000000D-01  2.5499870361295D-01 -9.9292441965005D-02
12  1.1000000000000D-01  2.8097950571142D-01 -1.1053233795602D-01
13  1.2000000000000D-01  3.0708078654379D-01 -1.2211055455165D-01
14  1.3000000000000D-01  3.3330600724700D-01 -1.3404187555729D-01
15  1.4000000000000D-01  3.5965679701866D-01 -1.4633719350585D-01
16  1.5000000000000D-01  3.8613285003099D-01 -1.5900329691644D-01
17  1.6000000000000D-01  4.1273183346772D-01 -1.7204268252494D-01
18  1.7000000000000D-01  4.3944930724962D-01 -1.8545339373664D-01
19  1.8000000000000D-01  4.6627865595473D-01 -1.9922888641286D-01
20  1.9000000000000D-01  4.9321103337675D-01 -2.1335792295783D-01
21  2.0000000000000D-01  5.2023532009947D-01 -2.2782449552167D-01
22  2.1000000000000D-01  5.4733809439832D-01 -2.4260777897959D-01
23  2.2000000000000D-01  5.7450361671038D-01 -2.5768211418750D-01
24  2.3000000000000D-01  6.0171382784417D-01 -2.7301702185110D-01
25  2.4000000000000D-01  6.2894836102825D-01 -2.8857724717956D-01
26  2.5000000000000D-01  6.5618456782544D-01 -3.0432283532753D-01
27  2.6000000000000D-01  6.8339755786604D-01 -3.2020923746012D-01
28  2.7000000000000D-01  7.1056025228080D-01 -3.3618744710765D-01
29  2.8000000000000D-01  7.3764345064107D-01 -3.5220416630818D-01
30  2.9000000000000D-01  7.6461591114167D-01 -3.6820200087016D-01
31  3.0000000000000D-01  7.9144444369073D-01 -3.8411968392330D-01
32  3.1000000000000D-01  8.1809401550091D-01 -3.9989232676551D-01
33  3.2000000000000D-01  8.4452786870825D-01 -4.1545169585690D-01
34  3.3000000000000D-01  8.7070764947931D-01 -4.3072651466127D-01
35  3.4000000000000D-01  8.9659354800300D-01 -4.4564278888876D-01
36  3.5000000000000D-01  9.2214444870334D-01 -4.6012415355549D-01
37  3.6000000000000D-01  9.4731808995146D-01 -4.7409224014343D-01
38  3.7000000000000D-01  9.7207123250083D-01 -4.8746706202112D-01
39  3.8000000000000D-01  9.9635983581918D-01 -5.0016741616991D-01
40  3.9000000000000D-01  1.0201392414444D+00 -5.1211129915694D-01
41  4.0000000000000D-01  1.0433643624485D+00 -5.2321633519897D-01
42  4.1000000000000D-01  1.0659898780575D+00 -5.3340021407848D-01
43  4.2000000000000D-01  1.0879704324407D+00 -5.4258113659947D-01
44  4.3000000000000D-01  1.1092608366551D+00 -5.5067826520916D-01
45  4.4000000000000D-01  1.1298162727089D+00 -5.5761217736239D-01
46  4.5000000000000D-01  1.1495924986893D+00 -5.6330531916977D-01
47  4.6000000000000D-01  1.1685460538883D+00 -5.6768245684532D-01
48  4.7000000000000D-01  1.1866344628528D+00 -5.7067112345992D-01
49  4.8000000000000D-01  1.2038164372863D+00 -5.7220205850929D-01
50  4.9000000000000D-01  1.2200520747322D+00 -5.7220963782035D-01
51  5.0000000000000D-01  1.2353030529809D+00 -5.7063229135086D-01
52  5.1000000000000D-01  1.2495328191563D+00 -5.6741290647879D-01
53  5.2000000000000D-01  1.2627067724646D+00 -5.6249921443481D-01
54  5.3000000000000D-01  1.2747924396084D+00 -5.5584415760114D-01
55  5.4000000000000D-01  1.2857596419089D+00 -5.4740623548133D-01
56  5.5000000000000D-01  1.2955806532132D+00 -5.3714982724209D-01
57  5.6000000000000D-01  1.3042303477070D+00 -5.2504548883425D-01
58  5.7000000000000D-01  1.3116863368065D+00 -5.1107022281972D-01
59  5.8000000000000D-01  1.3179290943485D+00 -4.9520771916203D-01
60  5.9000000000000D-01  1.3229420693635D+00 -4.7744856537808D-01
61  6.0000000000000D-01  1.3267117857739D+00 -4.5779042460080D-01
62  6.1000000000000D-01  1.3292279284268D+00 -4.3623818026214D-01
63  6.2000000000000D-01  1.3304834149413D+00 -4.1280404627508D-01
64  6.3000000000000D-01  1.3304744529218D+00 -3.8750764176925D-01
65  6.4000000000000D-01  1.3292005821667D+00 -3.6037602961907D-01
66  6.5000000000000D-01  1.3266647015787D+00 -3.3144371819152D-01
67  6.6000000000000D-01  1.3228730805638D+00 -3.0075262593470D-01
68  6.7000000000000D-01  1.3178353547890D+00 -2.6835200862675D-01
69  6.8000000000000D-01  1.3115645062517D+00 -2.3429834930466D-01
70  6.9000000000000D-01  1.3040768276978D+00 -1.9865521109479D-01
71  7.0000000000000D-01  1.2953918715113D+00 -1.6149305336963D-01
72  7.1000000000000D-01  1.2855323832801D+00 -1.2288901185821D-01
73  7.2000000000000D-01  1.2745242203305D+00 -8.2926643536581D-02
74  7.3000000000000D-01  1.2623962556007D+00 -4.1695637323817D-02
75  7.4000000000000D-01  1.2491802673089D+00  7.0850819786311D-04
76  7.5000000000000D-01  1.2349108149490D+00  4.4184838632451D-02
77  7.6000000000000D-01  1.2196251022216D+00  8.8627327598259D-02
78  7.7000000000000D-01  1.2033628275864D+00  1.3392528877240D-01
79  7.8000000000000D-01  1.1861660231863D+00  1.7996381421863D-01
80  7.9000000000000D-01  1.1680788829648D+00  2.2662423691211D-01
81  8.0000000000000D-01  1.1491475808572D+00  2.7378461522492D-01
82  8.1000000000000D-01  1.1294200799950D+00  3.2132023700233D-01
83  8.2000000000000D-01  1.1089459339161D+00  3.6910414073552D-01
84  8.3000000000000D-01  1.0877760808172D+00  4.1700765122680D-01
85  8.4000000000000D-01  1.0659626319311D+00  4.6490092704549D-01
86  8.5000000000000D-01  1.0435586551421D+00  5.1265351699210D-01
87  8.6000000000000D-01  1.0206179549876D+00  5.6013492271913D-01
88  8.7000000000000D-01  9.9719485021039D-01  6.0721516460604D-01
89  8.8000000000000D-01  9.7334395004979D-01  6.5376534795034D-01
90  8.9000000000000D-01  9.4911993046345D-01  6.9965822651552D-01
91  9.0000000000000D-01  9.2457731147845D-01  7.4476876047502D-01
92  9.1000000000000D-01  8.9977023686500D-01  7.8897466580306D-01
93  9.2000000000000D-01  8.7475225731546D-01  8.3215695219434D-01
94  9.3000000000000D-01  8.4957611829399D-01  8.7420044664065D-01
95  9.4000000000000D-01  8.2429355369817D-01  9.1499429985481D-01
96  9.5000000000000D-01  7.9895508644184D-01  9.5443247281337D-01
97  9.6000000000000D-01  7.7360983703282D-01  9.9241420078053D-01
98  9.7000000000000D-01  7.4830534117331D-01  1.0288444322909D+00
99  9.8000000000000D-01  7.2308737736222D-01  1.0636342406898D+00
100  9.9000000000000D-01  6.9799980542270D-01  1.0967012059698D+00
101  1.0000000000000D+00  6.7308441681645D-01  1.1279697647972D+00
102  1.0100000000000D+00  6.4838079754072D-01  1.1573715267817D+00
103  1.0200000000000D+00  6.2392620433155D-01  1.1848455552275D+00
104  1.0300000000000D+00  5.9975545482269D-01  1.2103386107819D+00
105  1.0400000000000D+00  5.7590083222974D-01  1.2338053566001D+00
106  1.0500000000000D+00  5.5239200504490D-01  1.2552085238503D+00
107  1.0600000000000D+00  5.2925596214307D-01  1.2745190365936D+00
108  1.0700000000000D+00  5.0651696361127D-01  1.2917160952921D+00
109  1.0800000000000D+00  4.8419650752007D-01  1.3067872184299D+00
110  1.0900000000000D+00  4.6231331277375D-01  1.3197282419339D+00
111  1.1000000000000D+00  4.4088331806902D-01  1.3305432763444D+00
112  1.1100000000000D+00  4.1991969691126D-01  1.3392446218877D+00
113  1.1200000000000D+00  3.9943288853446D-01  1.3458526418538D+00
114  1.1300000000000D+00  3.7943064449358D-01  1.3503955948781D+00
115  1.1400000000000D+00  3.5991809059421D-01  1.3529094269780D+00
116  1.1500000000000D+00  3.4089780374262D-01  1.3534375244014D+00
117  1.1600000000000D+00  3.2236990320740D-01  1.3520304285717D+00
118  1.1700000000000D+00  3.0433215571929D-01  1.3487455145716D+00
119  1.1800000000000D+00  2.8678009373534D-01  1.3436466348590D+00
120  1.1900000000000D+00  2.6970714612974D-01  1.3368037300697D+00
121  1.2000000000000D+00  2.5310478049907D-01  1.3282924089409D+00
122  1.2100000000000D+00  2.3696265622243D-01  1.3181934995158D+00
123  1.2200000000000D+00  2.2126878732766D-01  1.3065925740057D+00
124  1.2300000000000D+00  2.0600971417925D-01  1.2935794497807D+00
125  1.2400000000000D+00  1.9117068296758D-01  1.2792476690487D+00
126  1.2500000000000D+00  1.7673583191185D-01  1.2636939599536D+00
127  1.2600000000000D+00  1.6268838307091D-01  1.2470176818706D+00
128  1.2700000000000D+00  1.4901083863569D-01  1.2293202577306D+00
129  1.2800000000000D+00  1.3568518054007D-01  1.2107045963002D+00
130  1.2900000000000D+00  1.2269307222807D-01  1.1912745073486D+00
131  1.3000000000000D+00  1.1001606140917D-01  1.1711341126466D+00
132  1.3100000000000D+00  9.7635782623895D-02  1.1503872557740D+00
133  1.3200000000000D+00  8.5534158479038D-02  1.1291369136302D+00
134  1.3300000000000D+00  7.3693598394532D-02  1.1074846125780D+00
135  1.3400000000000D+00  6.2097193747360D-02  1.0855298520610D+00
136  1.3500000000000D+00  5.0728908362959D-02  1.0633695383771D+00
137  1.3600000000000D+00  3.9573763244971D-02  1.0410974314340D+00
138  1.3700000000000D+00  2.8618014605601D-02  1.0188036069107D+00
139  1.3800000000000D+00  1.7849324233014D-02  9.9657393630684D-01
140  1.3900000000000D+00  7.2569212549938D-03  9.7448958731236D-01
141  1.4000000000000D+00 -3.1682454192144D-03  9.5262654639662D-01
142  1.4100000000000D+00 -1.3433364863074D-02  9.3105516591418D-01
143  1.4200000000000D+00 -2.3543632704433D-02  9.0983973734981D-01
144  1.4300000000000D+00 -3.3502131099839D-02  8.8903809230684D-01
145  1.4400000000000D+00 -4.3309720766491D-02  8.6870123299059D-01
146  1.4500000000000D+00 -5.2964945296171D-02  8.4887299289982D-01
147  1.4600000000000D+00 -6.2463948360513D-02  8.2958972936816D-01
148  1.4700000000000D+00 -7.1800403867937D-02  8.1088004827317D-01
149  1.4800000000000D+00 -8.0965459347874D-02  7.9276456174812D-01
150  1.4900000000000D+00 -8.9947692705462D-02  7.7525567941548D-01
151  1.5000000000000D+00 -9.8733082136622D-02  7.5835743279829D-01
152  1.5100000000000D+00 -1.0730498945428D-01  7.4206533369118D-01
153  1.5200000000000D+00 -1.1564415623317D-01  7.2636626521449D-01
154  1.5300000000000D+00 -1.2372871292569D-01  7.1123840609495D-01
155  1.5400000000000D+00 -1.3153420024775D-01  6.9665118662962D-01
156  1.5500000000000D+00 -1.3903360265550D-01  6.8256527606451D-01
157  1.5600000000000D+00 -1.4619739281060D-01  6.6893259644961D-01
158  1.5700000000000D+00 -1.5299358954693D-01  6.5569638510337D-01
159  1.5800000000000D+00 -1.5938781651706D-01  6.4279121428370D-01
160  1.5900000000000D+00 -1.6534339915557D-01  6.3014323874626D-01
161  1.6000000000000D+00 -1.7082142888762D-01  6.1767019240393D-01
162  1.6100000000000D+00 -1.7578080968396D-01  6.0528115824838D-01
163  1.6200000000000D+00 -1.8017850475776D-01  5.9287786282980D-01
164  1.6300000000000D+00 -1.8396976785517D-01  5.8035583324641D-01
165  1.6400000000000D+00 -1.8710844284143D-01  5.6760570531335D-01
166  1.6500000000000D+00 -1.8954730147851D-01  5.5451482068877D-01
167  1.6600000000000D+00 -1.9123820210372D-01  5.4096736349940D-01
168  1.6700000000000D+00 -1.9213228589777D-01  5.2684471830399D-01
169  1.6800000000000D+00 -1.9218020595373D-01  5.1202615014583D-01
170  1.6900000000000D+00 -1.9133233057191D-01  4.9638924596707D-01
171  1.7000000000000D+00 -1.8953895580114D-01  4.7981044478309D-01
172  1.7100000000000D+00 -1.8675051238086D-01  4.6216553517865D-01
173  1.7200000000000D+00 -1.8291776936361D-01  4.4333014833291D-01
174  1.7300000000000D+00 -1.7799203304556D-01  4.2318023992755D-01
175  1.7400000000000D+00 -1.7192533944518D-01  4.0159255669669D-01
176  1.7500000000000D+00 -1.6467063992706D-01  3.7844508666454D-01
177  1.7600000000000D+00 -1.5618197791085D-01  3.5361748811224D-01
178  1.7700000000000D+00 -1.4641465679928D-01  3.2699149760787D-01
179  1.7800000000000D+00 -1.3532539673453D-01  2.9845131135138D-01
180  1.7900000000000D+00 -1.2287248080954D-01  2.6788394134810D-01
181  1.8000000000000D+00 -1.0891318036315D-01  2.3496999203633D-01
182  1.8100000000000D+00 -9.3644666695936D-02  2.0008327365254D-01
183  1.8200000000000D+00 -7.7622440897681D-02  1.6433219571030D-01
184  1.8300000000000D+00 -5.9446946495201D-02  1.2482529433591D-01
185  1.8400000000000D+00 -3.6859281231977D-02  7.6904214811609D-02
186  1.8500000000000D+00 -1.3194026287842D-02  2.7374190220174D-02
187  1.8600000000000D+00  2.0376079646304D-03 -4.3059360880566D-03
188  1.8700000000000D+00  3.9258591622508D-03 -8.1921290600647D-03
189  1.8800000000000D+00 -6.8855860142726D-06  1.4414776643123D-05
190  1.8900000000000D+00 -1.0387711840544D-03  2.1724389157759D-03
191  1.9000000000000D+00 -3.1907904728988D-04  6.6689871094319D-04
192  1.9100000000000D+00  1.2394378359428D-04 -2.6095314436003D-04
193  1.9200000000000D+00  8.7777231384464D-05 -1.8475021518185D-04
194  1.9300000000000D+00 -1.8368910706897D-07  5.1515923406270D-07
195  1.9400000000000D+00 -2.4869969852857D-07  6.9748254673316D-07
196  1.9500000000000D+00  0.0000000000000D+00  0.0000000000000D+00
197  1.9600000000000D+00  0.0000000000000D+00  0.0000000000000D+00
198  1.9700000000000D+00  0.0000000000000D+00  0.0000000000000D+00
199  1.9800000000000D+00  0.0000000000000D+00  0.0000000000000D+00
200  1.9900000000000D+00  0.0000000000000D+00  0.0000000000000D+00
201  2.0000000000000D+00  0.0000000000000D+00  0.0000000000000D+00
202  2.0100000000000D+00  0.0000000000000D+00  0.0000000000000D+00
203  2.0200000000000D+00  0.0000000000000D+00  0.0000000000000D+00
204  2.0300000000000D+00  0.0000000000000D+00  0.0000000000000D+00
205  2.0400000000000D+00  0.0000000000000D+00  0.0000000000000D+00
206  2.0500000000000D+00  0.0000000000000D+00  0.0000000000000D+00
207  2.0600000000000D+00  0.0000000000000D+00  0.0000000000000D+00
208  2.0700000000000D+00  0.0000000000000D+00  0.0000000000000D+00
209  2.0800000000000D+00  0.0000000000000D+00  0.0000000000000D+00
210  2.0900000000000D+00  0.0000000000000D+00  0.0000000000000D+00
211  2.1000000000000D+00  0.0000000000000D+00  0.0000000000000D+00
212  2.1100000000000D+00  0.0000000000000D+00  0.0000000000000D+00
213  2.1200000000000D+00  0.0000000000000D+00  0.0000000000000D+00
214  2.1300000000000D+00  0.0000000000000D+00  0.0000000000000D+00
215  2.1400000000000D+00  0.0000000000000D+00  0.0000000000000D+00
216  2.1500000000000D+00  0.0000000000000D+00  0.0000000000000D+00
217  2.1600000000000D+00  0.0000000000000D+00  0.0000000000000D+00
218  2.1700000000000D+00  0.0000000000000D+00  0.0000000000000D+00
219  2.1800000000000D+00  0.0000000000000D+00  0.0000000000000D+00
220  2.1900000000000D+00  0.0000000000000D+00  0.0000000000000D+00
221  2.2000000000000D+00  0.0000000000000D+00  0.0000000000000D+00
222  2.2100000000000D+00  0.0000000000000D+00  0.0000000000000D+00
223  2.2200000000000D+00  0.0000000000000D+00  0.0000000000000D+00
224  2.2300000000000D+00  0.0000000000000D+00  0.0000000000000D+00
225  2.2400000000000D+00  0.0000000000000D+00  0.0000000000000D+00
226  2.2500000000000D+00  0.0000000000000D+00  0.0000000000000D+00
227  2.2600000000000D+00  0.0000000000000D+00  0.0000000000000D+00
228  2.2700000000000D+00  0.0000000000000D+00  0.0000000000000D+00
229  2.2800000000000D+00  0.0000000000000D+00  0.0000000000000D+00
230  2.2900000000000D+00  0.0000000000000D+00  0.0000000000000D+00
231  2.3000000000000D+00  0.0000000000000D+00  0.0000000000000D+00
232  2.3100000000000D+00  0.0000000000000D+00  0.0000000000000D+00
233  2.3200000000000D+00  0.0000000000000D+00  0.0000000000000D+00
234  2.3300000000000D+00  0.0000000000000D+00  0.0000000000000D+00
235  2.3400000000000D+00  0.0000000000000D+00  0.0000000000000D+00
236  2.3500000000000D+00  0.0000000000000D+00  0.0000000000000D+00
237  2.3600000000000D+00  0.0000000000000D+00  0.0000000000000D+00
238  2.3700000000000D+00  0.0000000000000D+00  0.0000000000000D+00
239  2.3800000000000D+00  0.0000000000000D+00  0.0000000000000D+00
240  2.3900000000000D+00  0.0000000000000D+00  0.0000000000000D+00
241  2.4000000000000D+00  0.0000000000000D+00  0.0000000000000D+00
242  2.4100000000000D+00  0.0000000000000D+00  0.0000000000000D+00
243  2.4200000000000D+00  0.0000000000000D+00  0.0000000000000D+00
244  2.4300000000000D+00  0.0000000000000D+00  0.0000000000000D+00
245  2.4400000000000D+00  0.0000000000000D+00  0.0000000000000D+00
246  2.4500000000000D+00  0.0000000000000D+00  0.0000000000000D+00
247  2.4600000000000D+00  0.0000000000000D+00  0.0000000000000D+00
248  2.4700000000000D+00  0.0000000000000D+00  0.0000000000000D+00
249  2.4800000000000D+00  0.0000000000000D+00  0.0000000000000D+00
250  2.4900000000000D+00  0.0000000000000D+00  0.0000000000000D+00
251  2.5000000000000D+00  0.0000000000000D+00  0.0000000000000D+00
252  2.5100000000000D+00  0.0000000000000D+00  0.0000000000000D+00
253  2.5200000000000D+00  0.0000000000000D+00  0.0000000000000D+00
254  2.5300000000000D+00  0.0000000000000D+00  0.0000000000000D+00
255  2.5400000000000D+00  0.0000000000000D+00  0.0000000000000D+00
256  2.5500000000000D+00  0.0000000000000D+00  0.0000000000000D+00
257  2.5600000000000D+00  0.0000000000000D+00  0.0000000000000D+00
258  2.5700000000000D+00  0.0000000000000D+00  0.0000000000000D+00
259  2.5800000000000D+00  0.0000000000000D+00  0.0000000000000D+00
260  2.5900000000000D+00  0.0000000000000D+00  0.0000000000000D+00
261  2.6000000000000D+00  0.0000000000000D+00  0.0000000000000D+00
262  2.6100000000000D+00  0.0000000000000D+00  0.0000000000000D+00
263  2.6200000000000D+00  0.0000000000000D+00  0.0000000000000D+00
264  2.6300000000000D+00  0.0000000000000D+00  0.0000000000000D+00
265  2.6400000000000D+00  0.0000000000000D+00  0.0000000000000D+00
266  2.6500000000000D+00  0.0000000000000D+00  0.0000000000000D+00
267  2.6600000000000D+00  0.0000000000000D+00  0.0000000000000D+00
268  2.6700000000000D+00  0.0000000000000D+00  0.0000000000000D+00
269  2.6800000000000D+00  0.0000000000000D+00  0.0000000000000D+00
270  2.6900000000000D+00  0.0000000000000D+00  0.0000000000000D+00
271  2.7000000000000D+00  0.0000000000000D+00  0.0000000000000D+00
272  2.7100000000000D+00  0.0000000000000D+00  0.0000000000000D+00
273  2.7200000000000D+00  0.0000000000000D+00  0.0000000000000D+00
274  2.7300000000000D+00  0.0000000000000D+00  0.0000000000000D+00
275  2.7400000000000D+00  0.0000000000000D+00  0.0000000000000D+00
276  2.7500000000000D+00  0.0000000000000D+00  0.0000000000000D+00
277  2.7600000000000D+00  0.0000000000000D+00  0.0000000000000D+00
278  2.7700000000000D+00  0.0000000000000D+00  0.0000000000000D+00
279  2.7800000000000D+00  0.0000000000000D+00  0.0000000000000D+00
280  2.7900000000000D+00  0.0000000000000D+00  0.0000000000000D+00
281  2.8000000000000D+00  0.0000000000000D+00  0.0000000000000D+00
282  2.8100000000000D+00  0.0000000000000D+00  0.0000000000000D+00
283  2.8200000000000D+00  0.0000000000000D+00  0.0000000000000D+00
284  2.8300000000000D+00  0.0000000000000D+00  0.0000000000000D+00
285  2.8400000000000D+00  0.0000000000000D+00  0.0000000000000D+00
286  2.8500000000000D+00  0.0000000000000D+00  0.0000000000000D+00
287  2.8600000000000D+00  0.0000000000000D+00  0.0000000000000D+00
288  2.8700000000000D+00  0.0000000000000D+00  0.0000000000000D+00
289  2.8800000000000D+00  0.0000000000000D+00  0.0000000000000D+00
290  2.8900000000000D+00  0.0000000000000D+00  0.0000000000000D+00
291  2.9000000000000D+00  0.0000000000000D+00  0.0000000000000D+00
292  2.9100000000000D+00  0.0000000000000D+00  0.0000000000000D+00
293  2.9200000000000D+00  0.0000000000000D+00  0.0000000000000D+00
294  2.9300000000000D+00  0.0000000000000D+00  0.0000000000000D+00
295  2.9400000000000D+00  0.0000000000000D+00  0.0000000000000D+00
296  2.9500000000000D+00  0.0000000000000D+00  0.0000000000000D+00
297  2.9600000000000D+00  0.0000000000000D+00  0.0000000000000D+00
298  2.9700000000000D+00  0.0000000000000D+00  0.0000000000000D+00
299  2.9800000000000D+00  0.0000000000000D+00  0.0000000000000D+00
300  2.9900000000000D+00  0.0000000000000D+00  0.0000000000000D+00
301  3.0000000000000D+00  0.0000000000000D+00  0.0000000000000D+00
302  3.0100000000000D+00  0.0000000000000D+00  0.0000000000000D+00
303  3.0200000000000D+00  0.0000000000000D+00  0.0000000000000D+00
304  3.0300000000000D+00  0.0000000000000D+00  0.0000000000000D+00
305  3.0400000000000D+00  0.0000000000000D+00  0.0000000000000D+00
306  3.0500000000000D+00  0.0000000000000D+00  0.0000000000000D+00
307  3.0600000000000D+00  0.0000000000000D+00  0.0000000000000D+00
308  3.0700000000000D+00  0.0000000000000D+00  0.0000000000000D+00
309  3.0800000000000D+00  0.0000000000000D+00  0.0000000000000D+00
310  3.0900000000000D+00  0.0000000000000D+00  0.0000000000000D+00
311  3.1000000000000D+00  0.0000000000000D+00  0.0000000000000D+00
312  3.1100000000000D+00  0.0000000000000D+00  0.0000000000000D+00
313  3.1200000000000D+00  0.0000000000000D+00  0.0000000000000D+00
314  3.1300000000000D+00  0.0000000000000D+00  0.0000000000000D+00
315  3.1400000000000D+00  0.0000000000000D+00  0.0000000000000D+00
316  3.1500000000000D+00  0.0000000000000D+00  0.0000000000000D+00
317  3.1600000000000D+00  0.0000000000000D+00  0.0000000000000D+00
318  3.1700000000000D+00  0.0000000000000D+00  0.0000000000000D+00
319  3.1800000000000D+00  0.0000000000000D+00  0.0000000000000D+00
320  3.1900000000000D+00  0.0000000000000D+00  0.0000000000000D+00
321  3.2000000000000D+00  0.0000000000000D+00  0.0000000000000D+00
322  3.2100000000000D+00  0.0000000000000D+00  0.0000000000000D+00
323  3.2200000000000D+00  0.0000000000000D+00  0.0000000000000D+00
324  3.2300000000000D+00  0.0000000000000D+00  0.0000000000000D+00
325  3.2400000000000D+00  0.0000000000000D+00  0.0000000000000D+00
326  3.2500000000000D+00  0.0000000000000D+00  0.0000000000000D+00
327  3.2600000000000D+00  0.0000000000000D+00  0.0000000000000D+00
328  3.2700000000000D+00  0.0000000000000D+00  0.0000000000000D+00
329  3.2800000000000D+00  0.0000000000000D+00  0.0000000000000D+00
330  3.2900000000000D+00  0.0000000000000D+00  0.0000000000000D+00
331  3.3000000000000D+00  0.0000000000000D+00  0.0000000000000D+00
332  3.3100000000000D+00  0.0000000000000D+00  0.0000000000000D+00
333  3.3200000000000D+00  0.0000000000000D+00  0.0000000000000D+00
334  3.3300000000000D+00  0.0000000000000D+00  0.0000000000000D+00
335  3.3400000000000D+00  0.0000000000000D+00  0.0000000000000D+00
336  3.3500000000000D+00  0.0000000000000D+00  0.0000000000000D+00
337  3.3600000000000D+00  0.0000000000000D+00  0.0000000000000D+00
338  3.3700000000000D+00  0.0000000000000D+00  0.0000000000000D+00
339  3.3800000000000D+00  0.0000000000000D+00  0.0000000000000D+00
340  3.3900000000000D+00  0.0000000000000D+00  0.0000000000000D+00
341  3.4000000000000D+00  0.0000000000000D+00  0.0000000000000D+00
342  3.4100000000000D+00  0.0000000000000D+00  0.0000000000000D+00
343  3.4200000000000D+00  0.0000000000000D+00  0.0000000000000D+00
344  3.4300000000000D+00  0.0000000000000D+00  0.0000000000000D+00
345  3.4400000000000D+00  0.0000000000000D+00  0.0000000000000D+00
346  3.4500000000000D+00  0.0000000000000D+00  0.0000000000000D+00
347  3.4600000000000D+00  0.0000000000000D+00  0.0000000000000D+00
348  3.4700000000000D+00  0.0000000000000D+00  0.0000000000000D+00
349  3.4800000000000D+00  0.0000000000000D+00  0.0000000000000D+00
350  3.4900000000000D+00  0.0000000000000D+00  0.0000000000000D+00
351  3.5000000000000D+00  0.0000000000000D+00  0.0000000000000D+00
352  3.5100000000000D+00  0.0000000000000D+00  0.0000000000000D+00
353  3.5200000000000D+00  0.0000000000000D+00  0.0000000000000D+00
354  3.5300000000000D+00  0.0000000000000D+00  0.0000000000000D+00
355  3.5400000000000D+00  0.0000000000000D+00  0.0000000000000D+00
356  3.5500000000000D+00  0.0000000000000D+00  0.0000000000000D+00
357  3.5600000000000D+00  0.0000000000000D+00  0.0000000000000D+00
358  3.5700000000000D+00  0.0000000000000D+00  0.0000000000000D+00
359  3.5800000000000D+00  0.0000000000000D+00  0.0000000000000D+00
360  3.5900000000000D+00  0.0000000000000D+00  0.0000000000000D+00
361  3.6000000000000D+00  0.0000000000000D+00  0.0000000000000D+00
362  3.6100000000000D+00  0.0000000000000D+00  0.0000000000000D+00
363  3.6200000000000D+00  0.0000000000000D+00  0.0000000000000D+00
364  3.6300000000000D+00  0.0000000000000D+00  0.0000000000000D+00
365  3.6400000000000D+00  0.0000000000000D+00  0.0000000000000D+00
366  3.6500000000000D+00  0.0000000000000D+00  0.0000000000000D+00
367  3.6600000000000D+00  0.0000000000000D+00  0.0000000000000D+00
368  3.6700000000000D+00  0.0000000000000D+00  0.0000000000000D+00
369  3.6800000000000D+00  0.0000000000000D+00  0.0000000000000D+00
370  3.6900000000000D+00  0.0000000000000D+00  0.0000000000000D+00
371  3.7000000000000D+00  0.0000000000000D+00  0.0000000000000D+00
372  3.7100000000000D+00  0.0000000000000D+00  0.0000000000000D+00
373  3.7200000000000D+00  0.0000000000000D+00  0.0000000000000D+00
374  3.7300000000000D+00  0.0000000000000D+00  0.0000000000000D+00
375  3.7400000000000D+00  0.0000000000000D+00  0.0000000000000D+00
376  3.7500000000000D+00  0.0000000000000D+00  0.0000000000000D+00
377  3.7600000000000D+00  0.0000000000000D+00  0.0000000000000D+00
378  3.7700000000000D+00  0.0000000000000D+00  0.0000000000000D+00
379  3.7800000000000D+00  0.0000000000000D+00  0.0000000000000D+00
380  3.7900000000000D+00  0.0000000000000D+00  0.0000000000000D+00
381  3.8000000000000D+00  0.0000000000000D+00  0.0000000000000D+00
382  3.8100000000000D+00  0.0000000000000D+00  0.0000000000000D+00
383  3.8200000000000D+00  0.0000000000000D+00  0.0000000000000D+00
384  3.8300000000000D+00  0.0000000000000D+00  0.0000000000000D+00
385  3.8400000000000D+00  0.0000000000000D+00  0.0000000000000D+00
386  3.8500000000000D+00  0.0000000000000D+00  0.0000000000000D+00
387  3.8600000000000D+00  0.0000000000000D+00  0.0000000000000D+00
388  3.8700000000000D+00  0.0000000000000D+00  0.0000000000000D+00
389  3.8800000000000D+00  0.0000000000000D+00  0.0000000000000D+00
390  3.8900000000000D+00  0.0000000000000D+00  0.0000000000000D+00
391  3.9000000000000D+00  0.0000000000000D+00  0.0000000000000D+00
392  3.9100000000000D+00  0.0000000000000D+00  0.0000000000000D+00
393  3.9200000000000D+00  0.0000000000000D+00  0.0000000000000D+00
394  3.9300000000000D+00  0.0000000000000D+00  0.0000000000000D+00
395  3.9400000000000D+00  0.0000000000000D+00  0.0000000000000D+00
396  3.9500000000000D+00  0.0000000000000D+00  0.0000000000000D+00
397  3.9600000000000D+00  0.0000000000000D+00  0.0000000000000D+00
398  3.9700000000000D+00  0.0000000000000D+00  0.0000000000000D+00
399  3.9800000000000D+00  0.0000000000000D+00  0.0000000000000D+00
400  3.9900000000000D+00  0.0000000000000D+00  0.0000000000000D+00
401  4.0000000000000D+00  0.0000000000000D+00  0.0000000000000D+00
402  4.0100000000000D+00  0.0000000000000D+00  0.0000000000000D+00
403  4.0200000000000D+00  0.0000000000000D+00  0.0000000000000D+00
404  4.0300000000000D+00  0.0000000000000D+00  0.0000000000000D+00
405  4.0400000000000D+00  0.0000000000000D+00  0.0000000000000D+00
406  4.0500000000000D+00  0.0000000000000D+00  0.0000000000000D+00
407  4.0600000000000D+00  0.0000000000000D+00  0.0000000000000D+00
408  4.0700000000000D+00  0.0000000000000D+00  0.0000000000000D+00
409  4.0800000000000D+00  0.0000000000000D+00  0.0000000000000D+00
410  4.0900000000000D+00  0.0000000000000D+00  0.0000000000000D+00
411  4.1000000000000D+00  0.0000000000000D+00  0.0000000000000D+00
412  4.1100000000000D+00  0.0000000000000D+00  0.0000000000000D+00
413  4.1200000000000D+00  0.0000000000000D+00  0.0000000000000D+00
414  4.1300000000000D+00  0.0000000000000D+00  0.0000000000000D+00
415  4.1400000000000D+00  0.0000000000000D+00  0.0000000000000D+00
416  4.1500000000000D+00  0.0000000000000D+00  0.0000000000000D+00
417  4.1600000000000D+00  0.0000000000000D+00  0.0000000000000D+00
418  4.1700000000000D+00  0.0000000000000D+00  0.0000000000000D+00
419  4.1800000000000D+00  0.0000000000000D+00  0.0000000000000D+00
420  4.1900000000000D+00  0.0000000000000D+00  0.0000000000000D+00
421  4.2000000000000D+00  0.0000000000000D+00  0.0000000000000D+00
422  4.2100000000000D+00  0.0000000000000D+00  0.0000000000000D+00
423  4.2200000000000D+00  0.0000000000000D+00  0.0000000000000D+00
424  4.2300000000000D+00  0.0000000000000D+00  0.0000000000000D+00
425  4.2400000000000D+00  0.0000000000000D+00  0.0000000000000D+00
426  4.2500000000000D+00  0.0000000000000D+00  0.0000000000000D+00
427  4.2600000000000D+00  0.0000000000000D+00  0.0000000000000D+00
428  4.2700000000000D+00  0.0000000000000D+00  0.0000000000000D+00
429  4.2800000000000D+00  0.0000000000000D+00  0.0000000000000D+00
430  4.2900000000000D+00  0.0000000000000D+00  0.0000000000000D+00
431  4.3000000000000D+00  0.0000000000000D+00  0.0000000000000D+00
432  4.3100000000000D+00  0.0000000000000D+00  0.0000000000000D+00
433  4.3200000000000D+00  0.0000000000000D+00  0.0000000000000D+00
434  4.3300000000000D+00  0.0000000000000D+00  0.0000000000000D+00
435  4.3400000000000D+00  0.0000000000000D+00  0.0000000000000D+00
436  4.3500000000000D+00  0.0000000000000D+00  0.0000000000000D+00
437  4.3600000000000D+00  0.0000000000000D+00  0.0000000000000D+00
438  4.3700000000000D+00  0.0000000000000D+00  0.0000000000000D+00
439  4.3800000000000D+00  0.0000000000000D+00  0.0000000000000D+00
440  4.3900000000000D+00  0.0000000000000D+00  0.0000000000000D+00
441  4.4000000000000D+00  0.0000000000000D+00  0.0000000000000D+00
442  4.4100000000000D+00  0.0000000000000D+00  0.0000000000000D+00
443  4.4200000000000D+00  0.0000000000000D+00  0.0000000000000D+00