
.Version 9.0.0 of ABINIT 
.(MPI version, prepared for a x86_64_linux_gnu9.2 computer) 

.Copyright (C) 1998-2020 ABINIT group . 
 ABINIT comes with ABSOLUTELY NO WARRANTY.
 It is free software, and you are welcome to redistribute it
 under certain conditions (GNU General Public License,
 see ~abinit/COPYING or http://www.gnu.org/copyleft/gpl.txt).

 ABINIT is a project of the Universite Catholique de Louvain,
 Corning Inc. and other collaborators, see ~abinit/doc/developers/contributors.txt .
 Please read https://docs.abinit.org/theory/acknowledgments for suggested
 acknowledgments of the ABINIT effort.
 For more information, see https://www.abinit.org .

.Starting date : Mon 10 Feb 2020.
- ( at 01h43 )
  
- input  file    -> /home/gmatteo/git_repos/abinit/_abiref_gnu9.2_openmpi/tests/Test_suite/v4_t56-t57/t56.in
- output file    -> t56.out
- root for input  files -> t56i
- root for output files -> t56o


 DATASET    1 : space group F-4 3 m (#216); Bravais cF (face-center cubic)
================================================================================
 Values of the parameters that define the memory need for DATASET  1.
     intxc =       0    ionmov =       0      iscf =       7    lmnmax =       2
     lnmax =       2     mgfft =      15  mpssoang =       3    mqgrid =    3001
     natom =       2  nloc_mem =       1    nspden =       1   nspinor =       1
    nsppol =       1      nsym =      24    n1xccc =       0    ntypat =       2
    occopt =       1   xclevel =       1
-    mband =           4        mffmem =           1         mkmem =           2
       mpw =         117          nfft =        3375          nkpt =           2
================================================================================
P This job should need less than                       1.505 Mbytes of memory.
  Rough estimation (10% accuracy) of disk space for files :
_ WF disk file :      0.016 Mbytes ; DEN or POT disk file :      0.028 Mbytes.
================================================================================


 DATASET    2 : space group F-4 3 m (#216); Bravais cF (face-center cubic)
================================================================================
 Values of the parameters that define the memory need for DATASET  2.
     intxc =       0    ionmov =       0      iscf =      -2    lmnmax =       2
     lnmax =       2     mgfft =      15  mpssoang =       3    mqgrid =    3001
     natom =       2  nloc_mem =       1    nspden =       1   nspinor =       1
    nsppol =       1      nsym =      24    n1xccc =       0    ntypat =       2
    occopt =       1   xclevel =       1
-    mband =          50        mffmem =           1         mkmem =           2
       mpw =         117          nfft =        3375          nkpt =           2
================================================================================
P This job should need less than                       1.336 Mbytes of memory.
  Rough estimation (10% accuracy) of disk space for files :
_ WF disk file :      0.181 Mbytes ; DEN or POT disk file :      0.028 Mbytes.
================================================================================


 DATASET    3 : space group F-4 3 m (#216); Bravais cF (face-center cubic)
================================================================================
 Values of the parameters that define the memory need for DATASET  3 (RF).
     intxc =       0      iscf =      -3    lmnmax =       2     lnmax =       2
     mgfft =      15  mpssoang =       3    mqgrid =    3001     natom =       2
  nloc_mem =       1    nspden =       1   nspinor =       1    nsppol =       1
      nsym =      24    n1xccc =       0    ntypat =       2    occopt =       1
   xclevel =       1
-    mband =          50        mffmem =           1         mkmem =          16
-   mkqmem =          16        mk1mem =          16           mpw =         117
      nfft =        3375          nkpt =          16
================================================================================
P This job should need less than                       6.275 Mbytes of memory.
  Rough estimation (10% accuracy) of disk space for files :
_ WF disk file :      1.430 Mbytes ; DEN or POT disk file :      0.028 Mbytes.
================================================================================


 DATASET    4 : space group F-4 3 m (#216); Bravais cF (face-center cubic)
================================================================================
 Values of the parameters that define the memory need for DATASET  4 (RF).
     intxc =       0      iscf =      -3    lmnmax =       2     lnmax =       2
     mgfft =      15  mpssoang =       3    mqgrid =    3001     natom =       2
  nloc_mem =       1    nspden =       1   nspinor =       1    nsppol =       1
      nsym =      24    n1xccc =       0    ntypat =       2    occopt =       1
   xclevel =       1
-    mband =          50        mffmem =           1         mkmem =          16
-   mkqmem =          16        mk1mem =          16           mpw =         117
      nfft =        3375          nkpt =          16
================================================================================
P This job should need less than                       6.275 Mbytes of memory.
  Rough estimation (10% accuracy) of disk space for files :
_ WF disk file :      1.430 Mbytes ; DEN or POT disk file :      0.028 Mbytes.
================================================================================


 DATASET    5 : space group F-4 3 m (#216); Bravais cF (face-center cubic)
================================================================================
 Values of the parameters that define the memory need for DATASET  5 (RF).
     intxc =       0      iscf =      -3    lmnmax =       2     lnmax =       2
     mgfft =      15  mpssoang =       3    mqgrid =    3001     natom =       2
  nloc_mem =       1    nspden =       1   nspinor =       1    nsppol =       1
      nsym =      24    n1xccc =       0    ntypat =       2    occopt =       1
   xclevel =       1
-    mband =          50        mffmem =           1         mkmem =          16
-   mkqmem =          16        mk1mem =          16           mpw =         117
      nfft =        3375          nkpt =          16
================================================================================
P This job should need less than                       6.275 Mbytes of memory.
  Rough estimation (10% accuracy) of disk space for files :
_ WF disk file :      1.430 Mbytes ; DEN or POT disk file :      0.028 Mbytes.
================================================================================

--------------------------------------------------------------------------------
------------- Echo of variables that govern the present computation ------------
--------------------------------------------------------------------------------
-
- outvars: echo of selected default values                                      
-   iomode0 =  0 , fftalg0 =312 , wfoptalg0 =  0
-
- outvars: echo of global parameters not present in the input file              
-  max_nthreads =    0
-
 -outvars: echo values of preprocessed input variables --------
            acell      1.0600000000E+01  1.0600000000E+01  1.0600000000E+01 Bohr
              amu      6.97200000E+01  7.49216000E+01
           diemac      1.00000000E+01
             ecut      4.00000000E+00 Hartree
-          fftalg         312
           getden1          0
           getden2          1
           getden3          0
           getden4          0
           getden5          0
           getwfk1          0
           getwfk2          1
           getwfk3          2
           getwfk4          2
           getwfk5          2
             iscf1          7
             iscf2         -2
             iscf3         -3
             iscf4         -3
             iscf5         -3
              ixc           3
           jdtset        1    2    3    4    5
              kpt1    -2.50000000E-01  5.00000000E-01  0.00000000E+00
                      -2.50000000E-01  0.00000000E+00  0.00000000E+00
              kpt2    -2.50000000E-01  5.00000000E-01  0.00000000E+00
                      -2.50000000E-01  0.00000000E+00  0.00000000E+00
              kpt3    -2.50000000E-01  5.00000000E-01  0.00000000E+00
                       5.00000000E-01 -2.50000000E-01  0.00000000E+00
                      -2.50000000E-01 -2.50000000E-01  2.50000000E-01
                      -2.50000000E-01  0.00000000E+00  0.00000000E+00
                      -2.50000000E-01  2.50000000E-01  2.50000000E-01
                       5.00000000E-01  5.00000000E-01  2.50000000E-01
                      -2.50000000E-01  5.00000000E-01  5.00000000E-01
                       0.00000000E+00 -2.50000000E-01  0.00000000E+00
                       2.50000000E-01 -2.50000000E-01  2.50000000E-01
                       5.00000000E-01 -2.50000000E-01  5.00000000E-01
                      -2.50000000E-01 -2.50000000E-01 -2.50000000E-01
                       5.00000000E-01  0.00000000E+00  2.50000000E-01
                      -2.50000000E-01  0.00000000E+00  5.00000000E-01
                       0.00000000E+00  5.00000000E-01  2.50000000E-01
                       0.00000000E+00 -2.50000000E-01  5.00000000E-01
                       0.00000000E+00  0.00000000E+00  2.50000000E-01
              kpt4    -2.50000000E-01  5.00000000E-01  0.00000000E+00
                       5.00000000E-01 -2.50000000E-01  0.00000000E+00
                      -2.50000000E-01 -2.50000000E-01  2.50000000E-01
                      -2.50000000E-01  0.00000000E+00  0.00000000E+00
                      -2.50000000E-01  2.50000000E-01  2.50000000E-01
                       5.00000000E-01  5.00000000E-01  2.50000000E-01
                      -2.50000000E-01  5.00000000E-01  5.00000000E-01
                       0.00000000E+00 -2.50000000E-01  0.00000000E+00
                       2.50000000E-01 -2.50000000E-01  2.50000000E-01
                       5.00000000E-01 -2.50000000E-01  5.00000000E-01
                      -2.50000000E-01 -2.50000000E-01 -2.50000000E-01
                       5.00000000E-01  0.00000000E+00  2.50000000E-01
                      -2.50000000E-01  0.00000000E+00  5.00000000E-01
                       0.00000000E+00  5.00000000E-01  2.50000000E-01
                       0.00000000E+00 -2.50000000E-01  5.00000000E-01
                       0.00000000E+00  0.00000000E+00  2.50000000E-01
              kpt5    -2.50000000E-01  5.00000000E-01  0.00000000E+00
                       5.00000000E-01 -2.50000000E-01  0.00000000E+00
                      -2.50000000E-01 -2.50000000E-01  2.50000000E-01
                      -2.50000000E-01  0.00000000E+00  0.00000000E+00
                      -2.50000000E-01  2.50000000E-01  2.50000000E-01
                       5.00000000E-01  5.00000000E-01  2.50000000E-01
                      -2.50000000E-01  5.00000000E-01  5.00000000E-01
                       0.00000000E+00 -2.50000000E-01  0.00000000E+00
                       2.50000000E-01 -2.50000000E-01  2.50000000E-01
                       5.00000000E-01 -2.50000000E-01  5.00000000E-01
                      -2.50000000E-01 -2.50000000E-01 -2.50000000E-01
                       5.00000000E-01  0.00000000E+00  2.50000000E-01
                      -2.50000000E-01  0.00000000E+00  5.00000000E-01
                       0.00000000E+00  5.00000000E-01  2.50000000E-01
                       0.00000000E+00 -2.50000000E-01  5.00000000E-01
                       0.00000000E+00  0.00000000E+00  2.50000000E-01
           kptopt1          1
           kptopt2          1
           kptopt3          2
           kptopt4          2
           kptopt5          2
         kptrlatt        2   -2    2     -2    2    2     -2   -2    2
          kptrlen      2.12000000E+01
P           mkmem1          2
P           mkmem2          2
P           mkmem3         16
P           mkmem4         16
P           mkmem5         16
P          mkqmem1          2
P          mkqmem2          2
P          mkqmem3         16
P          mkqmem4         16
P          mkqmem5         16
P          mk1mem1          2
P          mk1mem2          2
P          mk1mem3         16
P          mk1mem4         16
P          mk1mem5         16
            natom           2
            nband1          4
            nband2         50
            nband3         50
            nband4         50
            nband5         50
           ndtset           5
            ngfft          15      15      15
             nkpt1          2
             nkpt2          2
             nkpt3         16
             nkpt4         16
             nkpt5         16
             nqpt1          0
             nqpt2          0
             nqpt3          1
             nqpt4          1
             nqpt5          1
            nstep1         30
            nstep2         15
            nstep3         15
            nstep4         15
            nstep5         15
             nsym          24
           ntypat           2
              occ1     2.000000  2.000000  2.000000  2.000000
              occ3     2.000000  2.000000  2.000000  2.000000  0.000000  0.000000
                       0.000000  0.000000  0.000000  0.000000  0.000000  0.000000
                       0.000000  0.000000  0.000000  0.000000  0.000000  0.000000
                       0.000000  0.000000  0.000000  0.000000  0.000000  0.000000
                       0.000000  0.000000  0.000000  0.000000  0.000000  0.000000
                       0.000000  0.000000  0.000000  0.000000  0.000000  0.000000
                       0.000000  0.000000  0.000000  0.000000  0.000000  0.000000
                       0.000000  0.000000  0.000000  0.000000  0.000000  0.000000
                       0.000000  0.000000
              occ4     2.000000  2.000000  2.000000  2.000000  0.000000  0.000000
                       0.000000  0.000000  0.000000  0.000000  0.000000  0.000000
                       0.000000  0.000000  0.000000  0.000000  0.000000  0.000000
                       0.000000  0.000000  0.000000  0.000000  0.000000  0.000000
                       0.000000  0.000000  0.000000  0.000000  0.000000  0.000000
                       0.000000  0.000000  0.000000  0.000000  0.000000  0.000000
                       0.000000  0.000000  0.000000  0.000000  0.000000  0.000000
                       0.000000  0.000000  0.000000  0.000000  0.000000  0.000000
                       0.000000  0.000000
              occ5     2.000000  2.000000  2.000000  2.000000  0.000000  0.000000
                       0.000000  0.000000  0.000000  0.000000  0.000000  0.000000
                       0.000000  0.000000  0.000000  0.000000  0.000000  0.000000
                       0.000000  0.000000  0.000000  0.000000  0.000000  0.000000
                       0.000000  0.000000  0.000000  0.000000  0.000000  0.000000
                       0.000000  0.000000  0.000000  0.000000  0.000000  0.000000
                       0.000000  0.000000  0.000000  0.000000  0.000000  0.000000
                       0.000000  0.000000  0.000000  0.000000  0.000000  0.000000
                       0.000000  0.000000
        optdriver1          0
        optdriver2          0
        optdriver3          1
        optdriver4          1
        optdriver5          1
            rfdir1          0       0       0
            rfdir2          0       0       0
            rfdir3          1       0       0
            rfdir4          0       1       0
            rfdir5          0       0       1
           rfelfd1          0
           rfelfd2          0
           rfelfd3          2
           rfelfd4          2
           rfelfd5          2
            rprim      0.0000000000E+00  5.0000000000E-01  5.0000000000E-01
                       5.0000000000E-01  0.0000000000E+00  5.0000000000E-01
                       5.0000000000E-01  5.0000000000E-01  0.0000000000E+00
           shiftk      5.00000000E-01  5.00000000E-01  5.00000000E-01
          spgroup         216
           symrel      1  0  0   0  1  0   0  0  1       0 -1  1   0 -1  0   1 -1  0
                      -1  0  0  -1  0  1  -1  1  0       0  1 -1   1  0 -1   0  0 -1
                      -1  0  0  -1  1  0  -1  0  1       0 -1  1   1 -1  0   0 -1  0
                       1  0  0   0  0  1   0  1  0       0  1 -1   0  0 -1   1  0 -1
                      -1  0  1  -1  1  0  -1  0  0       0 -1  0   1 -1  0   0 -1  1
                       1  0 -1   0  0 -1   0  1 -1       0  1  0   0  0  1   1  0  0
                       1  0 -1   0  1 -1   0  0 -1       0 -1  0   0 -1  1   1 -1  0
                      -1  0  1  -1  0  0  -1  1  0       0  1  0   1  0  0   0  0  1
                       0  0 -1   0  1 -1   1  0 -1       1 -1  0   0 -1  1   0 -1  0
                       0  0  1   1  0  0   0  1  0      -1  1  0  -1  0  0  -1  0  1
                       0  0  1   0  1  0   1  0  0       1 -1  0   0 -1  0   0 -1  1
                       0  0 -1   1  0 -1   0  1 -1      -1  1  0  -1  0  1  -1  0  0
           tolwfr      1.00000000E-22
            typat      1  2
              wtk1       0.75000    0.25000
              wtk2       0.75000    0.25000
              wtk3       0.06250    0.06250    0.06250    0.06250    0.06250    0.06250
                         0.06250    0.06250    0.06250    0.06250    0.06250    0.06250
                         0.06250    0.06250    0.06250    0.06250
              wtk4       0.06250    0.06250    0.06250    0.06250    0.06250    0.06250
                         0.06250    0.06250    0.06250    0.06250    0.06250    0.06250
                         0.06250    0.06250    0.06250    0.06250
              wtk5       0.06250    0.06250    0.06250    0.06250    0.06250    0.06250
                         0.06250    0.06250    0.06250    0.06250    0.06250    0.06250
                         0.06250    0.06250    0.06250    0.06250
           xangst      0.0000000000E+00  0.0000000000E+00  0.0000000000E+00
                       1.4023196028E+00  1.4023196028E+00  1.4023196028E+00
            xcart      0.0000000000E+00  0.0000000000E+00  0.0000000000E+00
                       2.6500000000E+00  2.6500000000E+00  2.6500000000E+00
             xred      0.0000000000E+00  0.0000000000E+00  0.0000000000E+00
                       2.5000000000E-01  2.5000000000E-01  2.5000000000E-01
            znucl       31.00000   33.00000

================================================================================

 chkinp: Checking input parameters for consistency, jdtset=   1.

 chkinp: Checking input parameters for consistency, jdtset=   2.

 chkinp: Checking input parameters for consistency, jdtset=   3.

 chkinp: Checking input parameters for consistency, jdtset=   4.

 chkinp: Checking input parameters for consistency, jdtset=   5.

================================================================================
== DATASET  1 ==================================================================
-   nproc =    1

 Exchange-correlation functional for the present dataset will be:
  LDA: old Teter (4/91) fit to Ceperley-Alder data - ixc=3

 Real(R)+Recip(G) space primitive vectors, cartesian coordinates (Bohr,Bohr^-1):
 R(1)=  0.0000000  5.3000000  5.3000000  G(1)= -0.0943396  0.0943396  0.0943396
 R(2)=  5.3000000  0.0000000  5.3000000  G(2)=  0.0943396 -0.0943396  0.0943396
 R(3)=  5.3000000  5.3000000  0.0000000  G(3)=  0.0943396  0.0943396 -0.0943396
 Unit cell volume ucvol=  2.9775400E+02 bohr^3
 Angles (23,13,12)=  6.00000000E+01  6.00000000E+01  6.00000000E+01 degrees

 getcut: wavevector=  0.0000  0.0000  0.0000  ngfft=  15  15  15
         ecut(hartree)=      4.000   => boxcut(ratio)=   2.08519

--- Pseudopotential description ------------------------------------------------
- pspini: atom type   1  psp file is /home/gmatteo/git_repos/abinit/tests/Psps_for_tests/31ga.SGS_mod
- pspatm: opening atomic psp file    /home/gmatteo/git_repos/abinit/tests/Psps_for_tests/31ga.SGS_mod
-   pspot from prpsa - Bachelet or Stumpf table ( !! OLD, only for tests )
- 31.00000   3.00000    900101                znucl, zion, pspdat
    5    3    2    2       267   0.00000      pspcod,pspxc,lmax,lloc,mmax,r2well
    3.225807E-04    4.879035E-02              r1 and al (Hamman grid)
    0   0.000   0.000    1   1.2712000        l,e99.0,e99.9,nproj,rcpsp
   0.00000000   0.00000000   0.00000000   0.00000000     rms, ekb1, ekb2, epsatm
    1   0.000   0.000    1   1.4316000        l,e99.0,e99.9,nproj,rcpsp
   0.00000000   0.00000000   0.00000000   0.00000000     rms, ekb1, ekb2, epsatm
    2   0.000   0.000    0   1.4889000        l,e99.0,e99.9,nproj,rcpsp
   0.00000000   0.00000000   0.00000000   0.00000000     rms, ekb1, ekb2, epsatm
    0.00000000000000    0.00000000000000    0.00000000000000   rchrg,fchrg,qchrg
  pspatm : epsatm=   19.73612150
         --- l  ekb(1:nproj) -->
             0    9.397339
             1   -0.525725
 pspatm: atomic psp has been read  and splines computed

- pspini: atom type   2  psp file is /home/gmatteo/git_repos/abinit/tests/Psps_for_tests/33as.SGS_mod
- pspatm: opening atomic psp file    /home/gmatteo/git_repos/abinit/tests/Psps_for_tests/33as.SGS_mod
-   pspot from prpsa - Bachelet or Stumpf table ( !! OLD, for testing purposes only )
- 33.00000   5.00000    900101                znucl, zion, pspdat
    5    3    2    2       269   0.00000      pspcod,pspxc,lmax,lloc,mmax,r2well
    3.030304E-04    4.879035E-02              r1 and al (Hamman grid)
    0   0.000   0.000    1   1.0000000        l,e99.0,e99.9,nproj,rcpsp
   0.00000000   0.00000000   0.00000000   0.00000000     rms, ekb1, ekb2, epsatm
    1   0.000   0.000    1   1.0000000        l,e99.0,e99.9,nproj,rcpsp
   0.00000000   0.00000000   0.00000000   0.00000000     rms, ekb1, ekb2, epsatm
    2   0.000   0.000    0   1.0000000        l,e99.0,e99.9,nproj,rcpsp
   0.00000000   0.00000000   0.00000000   0.00000000     rms, ekb1, ekb2, epsatm
    0.00000000000000    0.00000000000000    0.00000000000000   rchrg,fchrg,qchrg
  pspatm : epsatm=   26.05495600
         --- l  ekb(1:nproj) -->
             0    9.019459
             1   -0.908274
 pspatm: atomic psp has been read  and splines computed

   3.66328620E+02                                ecore*ucvol(ha*bohr**3)
--------------------------------------------------------------------------------

_setup2: Arith. and geom. avg. npw (full set) are     114.000     113.987

================================================================================

     iter   Etot(hartree)      deltaE(h)  residm     vres2
 ETOT  1  -8.5441099119996    -8.544E+00 1.180E-02 3.699E-01
 ETOT  2  -8.5523492922350    -8.239E-03 7.202E-05 3.434E-02
 ETOT  3  -8.5524155355974    -6.624E-05 3.966E-06 2.688E-03
 ETOT  4  -8.5524232226337    -7.687E-06 2.190E-07 7.690E-05
 ETOT  5  -8.5524233609592    -1.383E-07 2.717E-08 3.131E-06
 ETOT  6  -8.5524233693986    -8.439E-09 4.687E-10 2.263E-08
 ETOT  7  -8.5524233695054    -1.069E-10 6.004E-11 4.345E-10
 ETOT  8  -8.5524233695101    -4.674E-12 9.497E-13 1.052E-10
 ETOT  9  -8.5524233695106    -4.512E-13 1.608E-13 9.106E-13
 ETOT 10  -8.5524233695106    -6.573E-14 4.036E-15 2.750E-14
 ETOT 11  -8.5524233695106     3.375E-14 7.789E-16 1.506E-15
 ETOT 12  -8.5524233695106     2.665E-14 1.853E-17 5.328E-17
 ETOT 13  -8.5524233695107    -9.237E-14 3.629E-18 3.553E-19
 ETOT 14  -8.5524233695106     2.842E-14 8.580E-20 1.578E-19
 ETOT 15  -8.5524233695106     2.842E-14 1.666E-20 7.215E-21
 ETOT 16  -8.5524233695106    -2.487E-14 3.997E-22 9.578E-21
 ETOT 17  -8.5524233695106     1.066E-14 5.538E-23 3.381E-21

 At SCF step   17   max residual=  5.54E-23 < tolwfr=  1.00E-22 =>converged.

 Cartesian components of stress tensor (hartree/bohr^3)
  sigma(1 1)=  5.96454316E-04  sigma(3 2)=  0.00000000E+00
  sigma(2 2)=  5.96454316E-04  sigma(3 1)=  0.00000000E+00
  sigma(3 3)=  5.96454316E-04  sigma(2 1)=  0.00000000E+00


--- !ResultsGS
comment   : Summary of ground state results
natom     :        2
nsppol    :        1
nspinor   :        1
nspden    :        1
nelect    :  8.000000000000000E+000
charge    :  0.000000000000000E+000
abc       : [ 6.000000000000001E+001,  6.000000000000001E+001,  6.000000000000001E+001, ]
alpha_beta_gamma_angles: [ 6.000000000000001E+001,  6.000000000000001E+001,  6.000000000000001E+001, ]
cutoff_energies: {"ecut":  4.000000000000000E+000, "pawecutdg": -1.000000000000000E+000, }
convergence: {
    "deltae":  1.065814103640150E-014, "res2":  3.380706781395722E-021, 
    "residm":  5.537888291844792E-023, "diffor": undef, 
}
etotal    : -8.552423369510620E+000
entropy   :  0.000000000000000E+000
fermie    :  8.022297767845687E-005
stress_tensor: !CartTensor
- [ 5.964543161646749E-004,  0.000000000000000E+000,  0.000000000000000E+000, ]
- [ 0.000000000000000E+000,  5.964543161646749E-004,  0.000000000000000E+000, ]
- [ 0.000000000000000E+000,  0.000000000000000E+000,  5.964543161646749E-004, ]
cartesian_forces: !CartForces
- [-0.000000000000000E+000, -0.000000000000000E+000, -0.000000000000000E+000, ]
- [-0.000000000000000E+000, -0.000000000000000E+000, -0.000000000000000E+000, ]
...

 Integrated electronic density in atomic spheres:
 ------------------------------------------------
 Atom  Sphere_radius  Integrated_density
    1        2.00000          1.04050491
    2        2.00000          2.21343336
================================================================================

 ----iterations are completed or convergence reached----

 Mean square residual over all n,k,spin=   36.530E-24; max=  55.379E-24
 reduced coordinates (array xred) for    2 atoms
       0.000000000000      0.000000000000      0.000000000000
       0.250000000000      0.250000000000      0.250000000000
 rms dE/dt=  0.0000E+00; max dE/dt=  0.0000E+00; dE/dt below (all hartree)
    1       0.000000000000      0.000000000000      0.000000000000
    2       0.000000000000      0.000000000000      0.000000000000

 cartesian coordinates (angstrom) at end:
    1      0.00000000000000     0.00000000000000     0.00000000000000
    2      1.40231960276350     1.40231960276350     1.40231960276350

 cartesian forces (hartree/bohr) at end:
    1     -0.00000000000000    -0.00000000000000    -0.00000000000000
    2     -0.00000000000000    -0.00000000000000    -0.00000000000000
 frms,max,avg= 0.0000000E+00 0.0000000E+00   0.000E+00  0.000E+00  0.000E+00 h/b

 cartesian forces (eV/Angstrom) at end:
    1     -0.00000000000000    -0.00000000000000    -0.00000000000000
    2     -0.00000000000000    -0.00000000000000    -0.00000000000000
 frms,max,avg= 0.0000000E+00 0.0000000E+00   0.000E+00  0.000E+00  0.000E+00 e/A
 length scales= 10.600000000000 10.600000000000 10.600000000000 bohr
              =  5.609278411054  5.609278411054  5.609278411054 angstroms
 prteigrs : about to open file t56o_DS1_EIG
 Fermi (or HOMO) energy (hartree) =   0.00008   Average Vxc (hartree)=  -0.32131
 Eigenvalues (hartree) for nkpt=   2  k points:
 kpt#   1, nband=  4, wtk=  0.75000, kpt= -0.2500  0.5000  0.0000 (reduced coord)
  -0.34387   -0.19721   -0.09294   -0.04884
 prteigrs : prtvol=0 or 1, do not print more k-points.


--- !EnergyTerms
comment             : Components of total free energy in Hartree
kinetic             :  3.00077550899490E+00
hartree             :  7.38727150229729E-01
xc                  : -2.38303395045599E+00
Ewald energy        : -8.48789573682593E+00
psp_core            :  1.23030629308494E+00
local_psp           : -2.59596319570626E+00
non_local_psp       : -5.53394388320077E-02
total_energy        : -8.55242336951062E+00
total_energy_eV     : -2.32723275240988E+02
band_energy         : -1.28063989444583E+00
...


 Cartesian components of stress tensor (hartree/bohr^3)
  sigma(1 1)=  5.96454316E-04  sigma(3 2)=  0.00000000E+00
  sigma(2 2)=  5.96454316E-04  sigma(3 1)=  0.00000000E+00
  sigma(3 3)=  5.96454316E-04  sigma(2 1)=  0.00000000E+00

-Cartesian components of stress tensor (GPa)         [Pressure= -1.7548E+01 GPa]
- sigma(1 1)=  1.75482889E+01  sigma(3 2)=  0.00000000E+00
- sigma(2 2)=  1.75482889E+01  sigma(3 1)=  0.00000000E+00
- sigma(3 3)=  1.75482889E+01  sigma(2 1)=  0.00000000E+00

================================================================================
== DATASET  2 ==================================================================
-   nproc =    1

 mkfilename : getwfk/=0, take file _WFK from output of DATASET   1.

 mkfilename : getden/=0, take file _DEN from output of DATASET   1.

 Exchange-correlation functional for the present dataset will be:
  LDA: old Teter (4/91) fit to Ceperley-Alder data - ixc=3

 Real(R)+Recip(G) space primitive vectors, cartesian coordinates (Bohr,Bohr^-1):
 R(1)=  0.0000000  5.3000000  5.3000000  G(1)= -0.0943396  0.0943396  0.0943396
 R(2)=  5.3000000  0.0000000  5.3000000  G(2)=  0.0943396 -0.0943396  0.0943396
 R(3)=  5.3000000  5.3000000  0.0000000  G(3)=  0.0943396  0.0943396 -0.0943396
 Unit cell volume ucvol=  2.9775400E+02 bohr^3
 Angles (23,13,12)=  6.00000000E+01  6.00000000E+01  6.00000000E+01 degrees

 getcut: wavevector=  0.0000  0.0000  0.0000  ngfft=  15  15  15
         ecut(hartree)=      4.000   => boxcut(ratio)=   2.08519
--------------------------------------------------------------------------------

-inwffil : will read wavefunctions from disk file t56o_DS1_WFK

================================================================================
 prteigrs : about to open file t56o_DS2_EIG
 Non-SCF case, kpt    1 ( -0.25000  0.50000  0.00000), residuals and eigenvalues=
  1.55E-23  4.44E-23  3.18E-23  2.12E-23  8.25E-25  1.46E-23  8.33E-24  4.19E-23
  3.40E-23  9.28E-23  6.61E-23  6.96E-23  9.63E-23  2.25E-24  5.58E-24  1.55E-24
  1.91E-24  7.05E-24  1.77E-23  8.73E-25  2.07E-23  2.22E-23  2.06E-24  8.94E-23
  6.50E-23  7.89E-23  1.60E-23  1.23E-23  5.96E-23  6.80E-23  7.32E-23  8.47E-23
  3.05E-24  2.25E-23  6.29E-23  5.81E-23  9.91E-24  3.54E-23  9.57E-23  1.49E-23
  1.73E-23  9.43E-23  3.26E-22  8.57E-23  1.47E-20  4.00E-16  4.68E-17  4.90E-14
  4.51E-13  2.91E-08
 -3.4387E-01 -1.9721E-01 -9.2937E-02 -4.8837E-02  1.1567E-01  2.1156E-01
  2.6651E-01  2.8351E-01  4.0860E-01  4.7542E-01  5.0611E-01  5.2522E-01
  5.5082E-01  6.8992E-01  7.2772E-01  7.4042E-01  7.9848E-01  8.0491E-01
  8.1750E-01  9.2215E-01  9.5588E-01  9.8259E-01  1.0266E+00  1.0745E+00
  1.0796E+00  1.1355E+00  1.1580E+00  1.2139E+00  1.2501E+00  1.2684E+00
  1.3760E+00  1.4034E+00  1.4127E+00  1.4527E+00  1.4850E+00  1.5348E+00
  1.6110E+00  1.6597E+00  1.6599E+00  1.6838E+00  1.7014E+00  1.7397E+00
  1.7964E+00  1.8032E+00  1.8210E+00  1.8838E+00  1.8857E+00  1.9079E+00
  1.9362E+00  2.0229E+00
  prteigrs : nnsclo,ikpt=   15    1 max resid (incl. the buffer)=  2.91402E-08
 prteigrs : prtvol=0 or 1, do not print more k-points.

  prteigrs : nnsclo,ikpt=   15    2 max resid (incl. the buffer)=  2.34412E-08


 scprqt:  WARNING -
  nstep=   15 was not enough non-SCF iterations to converge;
  maximum residual=  2.914E-08 exceeds tolwfr=  1.000E-22


--- !ResultsGS
comment   : Summary of ground state results
natom     :        2
nsppol    :        1
nspinor   :        1
nspden    :        1
nelect    :  8.000000000000000E+000
charge    :  0.000000000000000E+000
abc       : [ 6.000000000000001E+001,  6.000000000000001E+001,  6.000000000000001E+001, ]
alpha_beta_gamma_angles: [ 6.000000000000001E+001,  6.000000000000001E+001,  6.000000000000001E+001, ]
cutoff_energies: {"ecut":  4.000000000000000E+000, "pawecutdg": -1.000000000000000E+000, }
convergence: {
    "deltae":  0.000000000000000E+000, "res2":  0.000000000000000E+000, 
    "residm":  2.914015738042505E-008, "diffor":  0.000000000000000E+000, 
}
etotal    : -8.552423369510620E+000
entropy   :  0.000000000000000E+000
fermie    :  8.022297767845687E-005
stress_tensor: !CartTensor
- [undef, undef, undef, ]
- [undef, undef, undef, ]
- [undef, undef, undef, ]
cartesian_forces: !CartForces
- [undef, undef, undef, ]
- [undef, undef, undef, ]
...

 Integrated electronic density in atomic spheres:
 ------------------------------------------------
 Atom  Sphere_radius  Integrated_density
    1        2.00000          1.04050491
    2        2.00000          2.21343336
================================================================================

 ----iterations are completed or convergence reached----

 Mean square residual over all n,k,spin=   52.941E-11; max=  29.140E-09
 reduced coordinates (array xred) for    2 atoms
       0.000000000000      0.000000000000      0.000000000000
       0.250000000000      0.250000000000      0.250000000000

 cartesian coordinates (angstrom) at end:
    1      0.00000000000000     0.00000000000000     0.00000000000000
    2      1.40231960276350     1.40231960276350     1.40231960276350
 length scales= 10.600000000000 10.600000000000 10.600000000000 bohr
              =  5.609278411054  5.609278411054  5.609278411054 angstroms
 prteigrs : about to open file t56o_DS2_EIG
 Eigenvalues (hartree) for nkpt=   2  k points:
 kpt#   1, nband= 50, wtk=  0.75000, kpt= -0.2500  0.5000  0.0000 (reduced coord)
  -0.34387   -0.19721   -0.09294   -0.04884    0.11567    0.21156    0.26651    0.28351
   0.40860    0.47542    0.50611    0.52522    0.55082    0.68992    0.72772    0.74042
   0.79848    0.80491    0.81750    0.92215    0.95588    0.98259    1.02664    1.07447
   1.07962    1.13548    1.15804    1.21387    1.25008    1.26841    1.37605    1.40336
   1.41269    1.45273    1.48502    1.53480    1.61098    1.65973    1.65989    1.68379
   1.70138    1.73972    1.79638    1.80320    1.82100    1.88384    1.88568    1.90787
   1.93625    2.02291
 prteigrs : prtvol=0 or 1, do not print more k-points.


================================================================================
== DATASET  3 ==================================================================
-   nproc =    1

 mkfilename : getwfk/=0, take file _WFK from output of DATASET   2.

 Exchange-correlation functional for the present dataset will be:
  LDA: old Teter (4/91) fit to Ceperley-Alder data - ixc=3

 Real(R)+Recip(G) space primitive vectors, cartesian coordinates (Bohr,Bohr^-1):
 R(1)=  0.0000000  5.3000000  5.3000000  G(1)= -0.0943396  0.0943396  0.0943396
 R(2)=  5.3000000  0.0000000  5.3000000  G(2)=  0.0943396 -0.0943396  0.0943396
 R(3)=  5.3000000  5.3000000  0.0000000  G(3)=  0.0943396  0.0943396 -0.0943396
 Unit cell volume ucvol=  2.9775400E+02 bohr^3
 Angles (23,13,12)=  6.00000000E+01  6.00000000E+01  6.00000000E+01 degrees
 setup1 : take into account q-point for computing boxcut.

 getcut: wavevector=  0.0000  0.0000  0.0000  ngfft=  15  15  15
         ecut(hartree)=      4.000   => boxcut(ratio)=   2.08519
--------------------------------------------------------------------------------

-inwffil : will read wavefunctions from disk file t56o_DS2_WFK

 ==>  initialize data related to q vector <== 

 The list of irreducible perturbations for this q vector is:
    1)    idir= 1    ipert=   3

================================================================================

--------------------------------------------------------------------------------
 Perturbation wavevector (in red.coord.)   0.000000  0.000000  0.000000
 Perturbation : derivative vs k along direction   1
 The set of symmetries contains only one element for this perturbation.
 symkpt : not enough symmetry to change the number of k points.

--------------------------------------------------------------------------------

-inwffil : will read wavefunctions from disk file t56o_DS2_WFK
--------------------------------------------------------------------------------

 Initialisation of the first-order wave-functions :
  ireadwf=   0

     iter   2DEtotal(Ha)        deltaE(Ha) residm    vres2
-ETOT  1  -11.304683449860     -1.130E+01 3.164E+00 0.000E+00
 ETOT  2  -11.304691467535     -8.018E-06 6.260E-01 0.000E+00
 ETOT  3  -11.304691471114     -3.579E-09 1.295E-01 0.000E+00
 ETOT  4  -11.304691471114     -1.243E-14 1.759E-02 0.000E+00
 ETOT  5  -11.304691471114      8.882E-15 1.693E-02 0.000E+00
 ETOT  6  -11.304691471114      0.000E+00 3.407E-03 0.000E+00
 ETOT  7  -11.304691471114     -1.776E-15 3.215E-03 0.000E+00
 ETOT  8  -11.304691471114      0.000E+00 6.980E-04 0.000E+00
 ETOT  9  -11.304691471114     -1.776E-15 6.461E-04 0.000E+00
 ETOT 10  -11.304691471114      3.553E-15 1.478E-04 0.000E+00
 ETOT 11  -11.304691471114      0.000E+00 1.344E-04 0.000E+00
 ETOT 12  -11.304691471114      0.000E+00 3.200E-05 0.000E+00
 ETOT 13  -11.304691471114      0.000E+00 2.859E-05 0.000E+00
 ETOT 14  -11.304691471114     -3.553E-15 7.044E-06 0.000E+00
 ETOT 15  -11.304691471114      3.553E-15 6.178E-06 0.000E+00

 scprqt:  WARNING -
  nstep=   15 was not enough SCF cycles to converge;
  maximum residual=  6.178E-06 exceeds tolwfr=  1.000E-22

================================================================================

 ----iterations are completed or convergence reached----

 Mean square residual over all n,k,spin=   52.144E-09; max=  61.784E-07
 dfpt_looppert : ek2=    1.6865112540E+01
          f-sum rule ratio=    1.1782005851E+00
 prteigrs : about to open file t56t_1WF1_EIG
 Expectation of eigenvalue derivatives (hartree) for nkpt=  16  k points:
  (in case of degenerate eigenvalues, averaged derivative)
 kpt#   1, nband= 50, wtk=  0.06250, kpt= -0.2500  0.5000  0.0000 (reduced coord)
  -0.08361   -0.02155    0.17314    0.16710    0.20002    0.53141   -0.45739   -0.57892
  -0.16389   -0.07953   -0.27514   -0.46741   -0.17981    0.31936    0.33881   -0.49319
   1.03550    0.24503    0.21376   -0.02973    0.02629    0.96193    0.00964   -0.08897
  -0.22129   -0.91532    0.90455   -0.80834   -0.39209    0.04665   -0.08441    0.12689
   0.35059   -0.01750   -1.36659    0.67621    0.47031    0.64578    0.88735   -1.42344
   0.07563   -0.29140   -0.36489   -0.29667    0.37690    0.29852    0.86648   -0.02227
   0.56993   -1.04610
 prteigrs : prtvol=0 or 1, do not print more k-points.


 Eight components of 2nd-order total energy (hartree) are
 1,2,3: 0th-order hamiltonian combined with 1st-order wavefunctions
     kin0=   2.39733748E-01 eigvalue=   1.05975433E-02  local=  -4.80762549E-02
 4,5,6: 1st-order hamiltonian combined with 1st and 0th-order wfs
     kin1=  -1.98704855E+01  Hartree=   0.00000000E+00     xc=   0.00000000E+00
 7,8,9: eventually, occupation + non-local contributions
    edocc=   1.05031359E+01     enl0=   5.99300509E-01   enl1=  -2.73889748E+00
 1-9 gives the relaxation energy (to be shifted if some occ is /=2.0)
   erelax=  -1.13046915E+01
  No Ewald or frozen-wf contrib.: the relaxation energy is the total one
 2DEtotal=   -0.1130469147E+02 Ha. Also 2DEtotal=   -0.307616299039E+03 eV
    (  non-var. 2DEtotal :   -1.1304691471E+01 Ha)
================================================================================

 ---- first-order wavefunction calculations are completed ----


 Total localisation tensor (bohr^2) in cartesian coordinates
  WARNING : still subject to testing - especially symmetries.
      direction              matrix element
   alpha     beta       real part   imaginary part
     1        1       0.0000000000    0.0000000000
     1        2       0.0000000000    0.0000000000
     1        3       0.0000000000    0.0000000000
     2        1       0.0000000000    0.0000000000
     2        2       2.5812927802    0.0000000000
     2        3       2.5812927802    0.0000000000
     3        1       0.0000000000    0.0000000000
     3        2       2.5812927802    0.0000000000
     3        3       2.5812927802    0.0000000000

 WARNING : Localization tensor calculation (this does not apply to other properties).
  Not all d/dk perturbations were computed. So the localization tensor in reciprocal space is incomplete,
  and transformation to cartesian coordinates may be wrong.

 respfn : d/dk was computed, but no 2DTE, so no DDB output.

================================================================================
== DATASET  4 ==================================================================
-   nproc =    1

 mkfilename : getwfk/=0, take file _WFK from output of DATASET   2.

 Exchange-correlation functional for the present dataset will be:
  LDA: old Teter (4/91) fit to Ceperley-Alder data - ixc=3

 Real(R)+Recip(G) space primitive vectors, cartesian coordinates (Bohr,Bohr^-1):
 R(1)=  0.0000000  5.3000000  5.3000000  G(1)= -0.0943396  0.0943396  0.0943396
 R(2)=  5.3000000  0.0000000  5.3000000  G(2)=  0.0943396 -0.0943396  0.0943396
 R(3)=  5.3000000  5.3000000  0.0000000  G(3)=  0.0943396  0.0943396 -0.0943396
 Unit cell volume ucvol=  2.9775400E+02 bohr^3
 Angles (23,13,12)=  6.00000000E+01  6.00000000E+01  6.00000000E+01 degrees
 setup1 : take into account q-point for computing boxcut.

 getcut: wavevector=  0.0000  0.0000  0.0000  ngfft=  15  15  15
         ecut(hartree)=      4.000   => boxcut(ratio)=   2.08519
--------------------------------------------------------------------------------

-inwffil : will read wavefunctions from disk file t56o_DS2_WFK

 ==>  initialize data related to q vector <== 

 The list of irreducible perturbations for this q vector is:
    1)    idir= 2    ipert=   3

================================================================================

--------------------------------------------------------------------------------
 Perturbation wavevector (in red.coord.)   0.000000  0.000000  0.000000
 Perturbation : derivative vs k along direction   2
 The set of symmetries contains only one element for this perturbation.
 symkpt : not enough symmetry to change the number of k points.

--------------------------------------------------------------------------------

-inwffil : will read wavefunctions from disk file t56o_DS2_WFK
--------------------------------------------------------------------------------

 Initialisation of the first-order wave-functions :
  ireadwf=   0

     iter   2DEtotal(Ha)        deltaE(Ha) residm    vres2
-ETOT  1  -11.304683449658     -1.130E+01 3.164E+00 0.000E+00
 ETOT  2  -11.304691467332     -8.018E-06 6.260E-01 0.000E+00
 ETOT  3  -11.304691470911     -3.579E-09 1.295E-01 0.000E+00
 ETOT  4  -11.304691470911     -3.553E-15 1.759E-02 0.000E+00
 ETOT  5  -11.304691470911      7.105E-15 1.693E-02 0.000E+00
 ETOT  6  -11.304691470911     -3.553E-15 3.407E-03 0.000E+00
 ETOT  7  -11.304691470911      0.000E+00 3.215E-03 0.000E+00
 ETOT  8  -11.304691470911     -1.776E-15 6.980E-04 0.000E+00
 ETOT  9  -11.304691470911      5.329E-15 6.461E-04 0.000E+00
 ETOT 10  -11.304691470911     -5.329E-15 1.478E-04 0.000E+00
 ETOT 11  -11.304691470911      0.000E+00 1.344E-04 0.000E+00
 ETOT 12  -11.304691470911      0.000E+00 3.200E-05 0.000E+00
 ETOT 13  -11.304691470911      0.000E+00 2.859E-05 0.000E+00
 ETOT 14  -11.304691470911      0.000E+00 7.044E-06 0.000E+00
 ETOT 15  -11.304691470911      0.000E+00 6.178E-06 0.000E+00

 scprqt:  WARNING -
  nstep=   15 was not enough SCF cycles to converge;
  maximum residual=  6.178E-06 exceeds tolwfr=  1.000E-22

================================================================================

 ----iterations are completed or convergence reached----

 Mean square residual over all n,k,spin=   52.144E-09; max=  61.784E-07
 dfpt_looppert : ek2=    1.6865112540E+01
          f-sum rule ratio=    1.1782005851E+00
 prteigrs : about to open file t56t_1WF1_EIG
 Expectation of eigenvalue derivatives (hartree) for nkpt=  16  k points:
  (in case of degenerate eigenvalues, averaged derivative)
 kpt#   1, nband= 50, wtk=  0.06250, kpt= -0.2500  0.5000  0.0000 (reduced coord)
  -0.14172    0.22533    0.19823   -0.04346   -0.04382   -0.47375   -0.04832    0.12696
   0.35093    0.71709   -0.35986    0.10836   -0.57829   -0.59543   -0.90613    0.45035
  -0.19543   -0.06512   -0.02379    0.01001    0.82918    0.26768    0.17987   -0.61657
   0.07874    1.06306    0.14789    0.91928   -0.02792    0.18003    0.08921    0.29075
  -0.70905   -0.06793   -0.16231    0.33653   -0.17681   -0.57666   -0.75598    0.24798
   0.02932    0.03669   -0.53085   -0.70425   -0.93268   -1.59914   -0.72898    1.67138
   0.14305    0.12680
 prteigrs : prtvol=0 or 1, do not print more k-points.


 Eight components of 2nd-order total energy (hartree) are
 1,2,3: 0th-order hamiltonian combined with 1st-order wavefunctions
     kin0=   2.39733748E-01 eigvalue=   1.05975433E-02  local=  -4.80762549E-02
 4,5,6: 1st-order hamiltonian combined with 1st and 0th-order wfs
     kin1=  -1.98704855E+01  Hartree=   0.00000000E+00     xc=   0.00000000E+00
 7,8,9: eventually, occupation + non-local contributions
    edocc=   1.05031359E+01     enl0=   5.99300509E-01   enl1=  -2.73889748E+00
 1-9 gives the relaxation energy (to be shifted if some occ is /=2.0)
   erelax=  -1.13046915E+01
  No Ewald or frozen-wf contrib.: the relaxation energy is the total one
 2DEtotal=   -0.1130469147E+02 Ha. Also 2DEtotal=   -0.307616299034E+03 eV
    (  non-var. 2DEtotal :   -1.1304691471E+01 Ha)
================================================================================

 ---- first-order wavefunction calculations are completed ----


 Total localisation tensor (bohr^2) in cartesian coordinates
  WARNING : still subject to testing - especially symmetries.
      direction              matrix element
   alpha     beta       real part   imaginary part
     1        1       2.5812927802    0.0000000000
     1        2       0.0000000000    0.0000000000
     1        3       2.5812927802    0.0000000000
     2        1       0.0000000000    0.0000000000
     2        2       0.0000000000    0.0000000000
     2        3       0.0000000000    0.0000000000
     3        1       2.5812927802    0.0000000000
     3        2       0.0000000000    0.0000000000
     3        3       2.5812927802    0.0000000000

 WARNING : Localization tensor calculation (this does not apply to other properties).
  Not all d/dk perturbations were computed. So the localization tensor in reciprocal space is incomplete,
  and transformation to cartesian coordinates may be wrong.

 respfn : d/dk was computed, but no 2DTE, so no DDB output.

================================================================================
== DATASET  5 ==================================================================
-   nproc =    1

 mkfilename : getwfk/=0, take file _WFK from output of DATASET   2.

 Exchange-correlation functional for the present dataset will be:
  LDA: old Teter (4/91) fit to Ceperley-Alder data - ixc=3

 Real(R)+Recip(G) space primitive vectors, cartesian coordinates (Bohr,Bohr^-1):
 R(1)=  0.0000000  5.3000000  5.3000000  G(1)= -0.0943396  0.0943396  0.0943396
 R(2)=  5.3000000  0.0000000  5.3000000  G(2)=  0.0943396 -0.0943396  0.0943396
 R(3)=  5.3000000  5.3000000  0.0000000  G(3)=  0.0943396  0.0943396 -0.0943396
 Unit cell volume ucvol=  2.9775400E+02 bohr^3
 Angles (23,13,12)=  6.00000000E+01  6.00000000E+01  6.00000000E+01 degrees
 setup1 : take into account q-point for computing boxcut.

 getcut: wavevector=  0.0000  0.0000  0.0000  ngfft=  15  15  15
         ecut(hartree)=      4.000   => boxcut(ratio)=   2.08519
--------------------------------------------------------------------------------

-inwffil : will read wavefunctions from disk file t56o_DS2_WFK

 ==>  initialize data related to q vector <== 

 The list of irreducible perturbations for this q vector is:
    1)    idir= 3    ipert=   3

================================================================================

--------------------------------------------------------------------------------
 Perturbation wavevector (in red.coord.)   0.000000  0.000000  0.000000
 Perturbation : derivative vs k along direction   3
 The set of symmetries contains only one element for this perturbation.
 symkpt : not enough symmetry to change the number of k points.

--------------------------------------------------------------------------------

-inwffil : will read wavefunctions from disk file t56o_DS2_WFK
--------------------------------------------------------------------------------

 Initialisation of the first-order wave-functions :
  ireadwf=   0

     iter   2DEtotal(Ha)        deltaE(Ha) residm    vres2
-ETOT  1  -11.304683449455     -1.130E+01 3.164E+00 0.000E+00
 ETOT  2  -11.304691467130     -8.018E-06 6.260E-01 0.000E+00
 ETOT  3  -11.304691470708     -3.579E-09 1.295E-01 0.000E+00
 ETOT  4  -11.304691470708     -8.882E-15 1.759E-02 0.000E+00
 ETOT  5  -11.304691470708     -3.553E-15 1.693E-02 0.000E+00
 ETOT  6  -11.304691470708      7.105E-15 3.407E-03 0.000E+00
 ETOT  7  -11.304691470708      0.000E+00 3.215E-03 0.000E+00
 ETOT  8  -11.304691470708      0.000E+00 6.980E-04 0.000E+00
 ETOT  9  -11.304691470708      0.000E+00 6.461E-04 0.000E+00
 ETOT 10  -11.304691470708      1.776E-15 1.478E-04 0.000E+00
 ETOT 11  -11.304691470708     -1.776E-15 1.344E-04 0.000E+00
 ETOT 12  -11.304691470708      0.000E+00 3.200E-05 0.000E+00
 ETOT 13  -11.304691470708     -5.329E-15 2.859E-05 0.000E+00
 ETOT 14  -11.304691470708      3.553E-15 7.044E-06 0.000E+00
 ETOT 15  -11.304691470708      1.776E-15 6.178E-06 0.000E+00

 scprqt:  WARNING -
  nstep=   15 was not enough SCF cycles to converge;
  maximum residual=  6.178E-06 exceeds tolwfr=  1.000E-22

================================================================================

 ----iterations are completed or convergence reached----

 Mean square residual over all n,k,spin=   52.144E-09; max=  61.784E-07
 dfpt_looppert : ek2=    1.6865112540E+01
          f-sum rule ratio=    1.1782005850E+00
 prteigrs : about to open file t56t_1WF1_EIG
 Expectation of eigenvalue derivatives (hartree) for nkpt=  16  k points:
  (in case of degenerate eigenvalues, averaged derivative)
 kpt#   1, nband= 50, wtk=  0.06250, kpt= -0.2500  0.5000  0.0000 (reduced coord)
   0.11267   -0.10189   -0.18569   -0.06182   -0.07810   -0.02883    0.25286    0.22598
  -0.09352   -0.31878    0.31750    0.17953    0.37905    0.13804    0.28366    0.02142
  -0.42004   -0.08996   -0.09498    0.00986   -0.42774   -0.61481   -0.09475    0.35277
   0.07127   -0.07387   -0.52622   -0.05547    0.21000   -0.11334   -0.00240   -0.20882
   0.17923    0.04272    0.76445   -0.50637   -0.14675   -0.03456   -0.06569    0.58773
  -0.05248    0.12735    0.44787    0.50046    0.27789    0.65031   -0.06875   -0.82456
  -0.35649    0.45955
 prteigrs : prtvol=0 or 1, do not print more k-points.


 Eight components of 2nd-order total energy (hartree) are
 1,2,3: 0th-order hamiltonian combined with 1st-order wavefunctions
     kin0=   2.39733748E-01 eigvalue=   1.05975433E-02  local=  -4.80762549E-02
 4,5,6: 1st-order hamiltonian combined with 1st and 0th-order wfs
     kin1=  -1.98704855E+01  Hartree=   0.00000000E+00     xc=   0.00000000E+00
 7,8,9: eventually, occupation + non-local contributions
    edocc=   1.05031359E+01     enl0=   5.99300509E-01   enl1=  -2.73889748E+00
 1-9 gives the relaxation energy (to be shifted if some occ is /=2.0)
   erelax=  -1.13046915E+01
  No Ewald or frozen-wf contrib.: the relaxation energy is the total one
 2DEtotal=   -0.1130469147E+02 Ha. Also 2DEtotal=   -0.307616299028E+03 eV
    (  non-var. 2DEtotal :   -1.1304691471E+01 Ha)
================================================================================

 ---- first-order wavefunction calculations are completed ----


 Total localisation tensor (bohr^2) in cartesian coordinates
  WARNING : still subject to testing - especially symmetries.
      direction              matrix element
   alpha     beta       real part   imaginary part
     1        1       2.5812927801    0.0000000000
     1        2       2.5812927801    0.0000000000
     1        3       0.0000000000    0.0000000000
     2        1       2.5812927801    0.0000000000
     2        2       2.5812927801    0.0000000000
     2        3       0.0000000000    0.0000000000
     3        1       0.0000000000    0.0000000000
     3        2       0.0000000000    0.0000000000
     3        3       0.0000000000    0.0000000000

 WARNING : Localization tensor calculation (this does not apply to other properties).
  Not all d/dk perturbations were computed. So the localization tensor in reciprocal space is incomplete,
  and transformation to cartesian coordinates may be wrong.

 respfn : d/dk was computed, but no 2DTE, so no DDB output.

== END DATASET(S) ==============================================================
================================================================================
  
 -outvars: echo values of variables after computation  --------
            acell      1.0600000000E+01  1.0600000000E+01  1.0600000000E+01 Bohr
              amu      6.97200000E+01  7.49216000E+01
           diemac      1.00000000E+01
             ecut      4.00000000E+00 Hartree
           etotal1    -8.5524233695E+00
           etotal3    -1.1304691471E+01
           etotal4    -1.1304691471E+01
           etotal5    -1.1304691471E+01
            fcart1    -0.0000000000E+00 -0.0000000000E+00 -0.0000000000E+00
                      -0.0000000000E+00 -0.0000000000E+00 -0.0000000000E+00
-          fftalg         312
           getden1          0
           getden2          1
           getden3          0
           getden4          0
           getden5          0
           getwfk1          0
           getwfk2          1
           getwfk3          2
           getwfk4          2
           getwfk5          2
             iscf1          7
             iscf2         -2
             iscf3         -3
             iscf4         -3
             iscf5         -3
              ixc           3
           jdtset        1    2    3    4    5
              kpt1    -2.50000000E-01  5.00000000E-01  0.00000000E+00
                      -2.50000000E-01  0.00000000E+00  0.00000000E+00
              kpt2    -2.50000000E-01  5.00000000E-01  0.00000000E+00
                      -2.50000000E-01  0.00000000E+00  0.00000000E+00
              kpt3    -2.50000000E-01  5.00000000E-01  0.00000000E+00
                       5.00000000E-01 -2.50000000E-01  0.00000000E+00
                      -2.50000000E-01 -2.50000000E-01  2.50000000E-01
                      -2.50000000E-01  0.00000000E+00  0.00000000E+00
                      -2.50000000E-01  2.50000000E-01  2.50000000E-01
                       5.00000000E-01  5.00000000E-01  2.50000000E-01
                      -2.50000000E-01  5.00000000E-01  5.00000000E-01
                       0.00000000E+00 -2.50000000E-01  0.00000000E+00
                       2.50000000E-01 -2.50000000E-01  2.50000000E-01
                       5.00000000E-01 -2.50000000E-01  5.00000000E-01
                      -2.50000000E-01 -2.50000000E-01 -2.50000000E-01
                       5.00000000E-01  0.00000000E+00  2.50000000E-01
                      -2.50000000E-01  0.00000000E+00  5.00000000E-01
                       0.00000000E+00  5.00000000E-01  2.50000000E-01
                       0.00000000E+00 -2.50000000E-01  5.00000000E-01
                       0.00000000E+00  0.00000000E+00  2.50000000E-01
              kpt4    -2.50000000E-01  5.00000000E-01  0.00000000E+00
                       5.00000000E-01 -2.50000000E-01  0.00000000E+00
                      -2.50000000E-01 -2.50000000E-01  2.50000000E-01
                      -2.50000000E-01  0.00000000E+00  0.00000000E+00
                      -2.50000000E-01  2.50000000E-01  2.50000000E-01
                       5.00000000E-01  5.00000000E-01  2.50000000E-01
                      -2.50000000E-01  5.00000000E-01  5.00000000E-01
                       0.00000000E+00 -2.50000000E-01  0.00000000E+00
                       2.50000000E-01 -2.50000000E-01  2.50000000E-01
                       5.00000000E-01 -2.50000000E-01  5.00000000E-01
                      -2.50000000E-01 -2.50000000E-01 -2.50000000E-01
                       5.00000000E-01  0.00000000E+00  2.50000000E-01
                      -2.50000000E-01  0.00000000E+00  5.00000000E-01
                       0.00000000E+00  5.00000000E-01  2.50000000E-01
                       0.00000000E+00 -2.50000000E-01  5.00000000E-01
                       0.00000000E+00  0.00000000E+00  2.50000000E-01
              kpt5    -2.50000000E-01  5.00000000E-01  0.00000000E+00
                       5.00000000E-01 -2.50000000E-01  0.00000000E+00
                      -2.50000000E-01 -2.50000000E-01  2.50000000E-01
                      -2.50000000E-01  0.00000000E+00  0.00000000E+00
                      -2.50000000E-01  2.50000000E-01  2.50000000E-01
                       5.00000000E-01  5.00000000E-01  2.50000000E-01
                      -2.50000000E-01  5.00000000E-01  5.00000000E-01
                       0.00000000E+00 -2.50000000E-01  0.00000000E+00
                       2.50000000E-01 -2.50000000E-01  2.50000000E-01
                       5.00000000E-01 -2.50000000E-01  5.00000000E-01
                      -2.50000000E-01 -2.50000000E-01 -2.50000000E-01
                       5.00000000E-01  0.00000000E+00  2.50000000E-01
                      -2.50000000E-01  0.00000000E+00  5.00000000E-01
                       0.00000000E+00  5.00000000E-01  2.50000000E-01
                       0.00000000E+00 -2.50000000E-01  5.00000000E-01
                       0.00000000E+00  0.00000000E+00  2.50000000E-01
           kptopt1          1
           kptopt2          1
           kptopt3          2
           kptopt4          2
           kptopt5          2
         kptrlatt        2   -2    2     -2    2    2     -2   -2    2
          kptrlen      2.12000000E+01
P           mkmem1          2
P           mkmem2          2
P           mkmem3         16
P           mkmem4         16
P           mkmem5         16
P          mkqmem1          2
P          mkqmem2          2
P          mkqmem3         16
P          mkqmem4         16
P          mkqmem5         16
P          mk1mem1          2
P          mk1mem2          2
P          mk1mem3         16
P          mk1mem4         16
P          mk1mem5         16
            natom           2
            nband1          4
            nband2         50
            nband3         50
            nband4         50
            nband5         50
           ndtset           5
            ngfft          15      15      15
             nkpt1          2
             nkpt2          2
             nkpt3         16
             nkpt4         16
             nkpt5         16
             nqpt1          0
             nqpt2          0
             nqpt3          1
             nqpt4          1
             nqpt5          1
            nstep1         30
            nstep2         15
            nstep3         15
            nstep4         15
            nstep5         15
             nsym          24
           ntypat           2
              occ1     2.000000  2.000000  2.000000  2.000000
              occ3     2.000000  2.000000  2.000000  2.000000  0.000000  0.000000
                       0.000000  0.000000  0.000000  0.000000  0.000000  0.000000
                       0.000000  0.000000  0.000000  0.000000  0.000000  0.000000
                       0.000000  0.000000  0.000000  0.000000  0.000000  0.000000
                       0.000000  0.000000  0.000000  0.000000  0.000000  0.000000
                       0.000000  0.000000  0.000000  0.000000  0.000000  0.000000
                       0.000000  0.000000  0.000000  0.000000  0.000000  0.000000
                       0.000000  0.000000  0.000000  0.000000  0.000000  0.000000
                       0.000000  0.000000
              occ4     2.000000  2.000000  2.000000  2.000000  0.000000  0.000000
                       0.000000  0.000000  0.000000  0.000000  0.000000  0.000000
                       0.000000  0.000000  0.000000  0.000000  0.000000  0.000000
                       0.000000  0.000000  0.000000  0.000000  0.000000  0.000000
                       0.000000  0.000000  0.000000  0.000000  0.000000  0.000000
                       0.000000  0.000000  0.000000  0.000000  0.000000  0.000000
                       0.000000  0.000000  0.000000  0.000000  0.000000  0.000000
                       0.000000  0.000000  0.000000  0.000000  0.000000  0.000000
                       0.000000  0.000000
              occ5     2.000000  2.000000  2.000000  2.000000  0.000000  0.000000
                       0.000000  0.000000  0.000000  0.000000  0.000000  0.000000
                       0.000000  0.000000  0.000000  0.000000  0.000000  0.000000
                       0.000000  0.000000  0.000000  0.000000  0.000000  0.000000
                       0.000000  0.000000  0.000000  0.000000  0.000000  0.000000
                       0.000000  0.000000  0.000000  0.000000  0.000000  0.000000
                       0.000000  0.000000  0.000000  0.000000  0.000000  0.000000
                       0.000000  0.000000  0.000000  0.000000  0.000000  0.000000
                       0.000000  0.000000
        optdriver1          0
        optdriver2          0
        optdriver3          1
        optdriver4          1
        optdriver5          1
            rfdir1          0       0       0
            rfdir2          0       0       0
            rfdir3          1       0       0
            rfdir4          0       1       0
            rfdir5          0       0       1
           rfelfd1          0
           rfelfd2          0
           rfelfd3          2
           rfelfd4          2
           rfelfd5          2
            rprim      0.0000000000E+00  5.0000000000E-01  5.0000000000E-01
                       5.0000000000E-01  0.0000000000E+00  5.0000000000E-01
                       5.0000000000E-01  5.0000000000E-01  0.0000000000E+00
           shiftk      5.00000000E-01  5.00000000E-01  5.00000000E-01
          spgroup         216
           strten1     5.9645431616E-04  5.9645431616E-04  5.9645431616E-04
                       0.0000000000E+00  0.0000000000E+00  0.0000000000E+00
           symrel      1  0  0   0  1  0   0  0  1       0 -1  1   0 -1  0   1 -1  0
                      -1  0  0  -1  0  1  -1  1  0       0  1 -1   1  0 -1   0  0 -1
                      -1  0  0  -1  1  0  -1  0  1       0 -1  1   1 -1  0   0 -1  0
                       1  0  0   0  0  1   0  1  0       0  1 -1   0  0 -1   1  0 -1
                      -1  0  1  -1  1  0  -1  0  0       0 -1  0   1 -1  0   0 -1  1
                       1  0 -1   0  0 -1   0  1 -1       0  1  0   0  0  1   1  0  0
                       1  0 -1   0  1 -1   0  0 -1       0 -1  0   0 -1  1   1 -1  0
                      -1  0  1  -1  0  0  -1  1  0       0  1  0   1  0  0   0  0  1
                       0  0 -1   0  1 -1   1  0 -1       1 -1  0   0 -1  1   0 -1  0
                       0  0  1   1  0  0   0  1  0      -1  1  0  -1  0  0  -1  0  1
                       0  0  1   0  1  0   1  0  0       1 -1  0   0 -1  0   0 -1  1
                       0  0 -1   1  0 -1   0  1 -1      -1  1  0  -1  0  1  -1  0  0
           tolwfr      1.00000000E-22
            typat      1  2
              wtk1       0.75000    0.25000
              wtk2       0.75000    0.25000
              wtk3       0.06250    0.06250    0.06250    0.06250    0.06250    0.06250
                         0.06250    0.06250    0.06250    0.06250    0.06250    0.06250
                         0.06250    0.06250    0.06250    0.06250
              wtk4       0.06250    0.06250    0.06250    0.06250    0.06250    0.06250
                         0.06250    0.06250    0.06250    0.06250    0.06250    0.06250
                         0.06250    0.06250    0.06250    0.06250
              wtk5       0.06250    0.06250    0.06250    0.06250    0.06250    0.06250
                         0.06250    0.06250    0.06250    0.06250    0.06250    0.06250
                         0.06250    0.06250    0.06250    0.06250
           xangst      0.0000000000E+00  0.0000000000E+00  0.0000000000E+00
                       1.4023196028E+00  1.4023196028E+00  1.4023196028E+00
            xcart      0.0000000000E+00  0.0000000000E+00  0.0000000000E+00
                       2.6500000000E+00  2.6500000000E+00  2.6500000000E+00
             xred      0.0000000000E+00  0.0000000000E+00  0.0000000000E+00
                       2.5000000000E-01  2.5000000000E-01  2.5000000000E-01
            znucl       31.00000   33.00000

================================================================================


- Timing analysis has been suppressed with timopt=0



================================================================================

 Suggested references for the acknowledgment of ABINIT usage.

 The users of ABINIT have little formal obligations with respect to the ABINIT group
 (those specified in the GNU General Public License, http://www.gnu.org/copyleft/gpl.txt).
 However, it is common practice in the scientific literature,
 to acknowledge the efforts of people that have made the research possible.
 In this spirit, please find below suggested citations of work written by ABINIT developers,
 corresponding to implementations inside of ABINIT that you have used in the present run.
 Note also that it will be of great value to readers of publications presenting these results,
 to read papers enabling them to understand the theoretical formalism and details
 of the ABINIT implementation.
 For information on why they are suggested, see also https://docs.abinit.org/theory/acknowledgments.
-
- [1] The Abinit project: Impact, environment and recent developments.
- Computer Phys. Comm. 248, 107042 (2020).
- X.Gonze, B. Amadon, G. Antonius, F.Arnardi, L.Baguet, J.-M.Beuken,
- J.Bieder, F.Bottin, J.Bouchet, E.Bousquet, N.Brouwer, F.Bruneval,
- G.Brunin, T.Cavignac, J.-B. Charraud, Wei Chen, M.Cote, S.Cottenier,
- J.Denier, G.Geneste, Ph.Ghosez, M.Giantomassi, Y.Gillet, O.Gingras,
- D.R.Hamann, G.Hautier, Xu He, N.Helbig, N.Holzwarth, Y.Jia, F.Jollet,
- W.Lafargue-Dit-Hauret, K.Lejaeghere, M.A.L.Marques, A.Martin, C.Martins,
- H.P.C. Miranda, F.Naccarato, K. Persson, G.Petretto, V.Planes, Y.Pouillon,
- S.Prokhorenko, F.Ricci, G.-M.Rignanese, A.H.Romero, M.M.Schmitt, M.Torrent,
- M.J.van Setten, B.Van Troeye, M.J.Verstraete, G.Zerah and J.W.Zwanzig
- Comment: the fifth generic paper describing the ABINIT project.
- Note that a version of this paper, that is not formatted for Computer Phys. Comm. 
- is available at https://www.abinit.org/sites/default/files/ABINIT20.pdf .
- The licence allows the authors to put it on the Web.
- DOI and bibtex: see https://docs.abinit.org/theory/bibliography/#gonze2020
-
- [2] First-principles responses of solids to atomic displacements and homogeneous electric fields:,
- implementation of a conjugate-gradient algorithm. X. Gonze, Phys. Rev. B55, 10337 (1997).
- Comment: Non-vanishing rfphon and/or rfelfd, in the norm-conserving case.
- DOI and bibtex: see https://docs.abinit.org/theory/bibliography/#gonze1997
-
- [3] Dynamical matrices, Born effective charges, dielectric permittivity tensors, and ,
- interatomic force constants from density-functional perturbation theory,
- X. Gonze and C. Lee, Phys. Rev. B55, 10355 (1997).
- Comment: Non-vanishing rfphon and/or rfelfd, in the norm-conserving case.
- DOI and bibtex: see https://docs.abinit.org/theory/bibliography/#gonze1997a
-
- [4] Recent developments in the ABINIT software package.
- Computer Phys. Comm. 205, 106 (2016).
- X.Gonze, F.Jollet, F.Abreu Araujo, D.Adams, B.Amadon, T.Applencourt,
- C.Audouze, J.-M.Beuken, J.Bieder, A.Bokhanchuk, E.Bousquet, F.Bruneval
- D.Caliste, M.Cote, F.Dahm, F.Da Pieve, M.Delaveau, M.Di Gennaro,
- B.Dorado, C.Espejo, G.Geneste, L.Genovese, A.Gerossier, M.Giantomassi,
- Y.Gillet, D.R.Hamann, L.He, G.Jomard, J.Laflamme Janssen, S.Le Roux,
- A.Levitt, A.Lherbier, F.Liu, I.Lukacevic, A.Martin, C.Martins,
- M.J.T.Oliveira, S.Ponce, Y.Pouillon, T.Rangel, G.-M.Rignanese,
- A.H.Romero, B.Rousseau, O.Rubel, A.A.Shukri, M.Stankovski, M.Torrent,
- M.J.Van Setten, B.Van Troeye, M.J.Verstraete, D.Waroquier, J.Wiktor,
- B.Xu, A.Zhou, J.W.Zwanziger.
- Comment: the fourth generic paper describing the ABINIT project.
- Note that a version of this paper, that is not formatted for Computer Phys. Comm. 
- is available at https://www.abinit.org/sites/default/files/ABINIT16.pdf .
- The licence allows the authors to put it on the Web.
- DOI and bibtex: see https://docs.abinit.org/theory/bibliography/#gonze2016
-
- [5] ABINIT: First-principles approach of materials and nanosystem properties.
- Computer Phys. Comm. 180, 2582-2615 (2009).
- X. Gonze, B. Amadon, P.-M. Anglade, J.-M. Beuken, F. Bottin, P. Boulanger, F. Bruneval,
- D. Caliste, R. Caracas, M. Cote, T. Deutsch, L. Genovese, Ph. Ghosez, M. Giantomassi
- S. Goedecker, D.R. Hamann, P. Hermet, F. Jollet, G. Jomard, S. Leroux, M. Mancini, S. Mazevet,
- M.J.T. Oliveira, G. Onida, Y. Pouillon, T. Rangel, G.-M. Rignanese, D. Sangalli, R. Shaltaf,
- M. Torrent, M.J. Verstraete, G. Zerah, J.W. Zwanziger
- Comment: the third generic paper describing the ABINIT project.
- Note that a version of this paper, that is not formatted for Computer Phys. Comm. 
- is available at https://www.abinit.org/sites/default/files/ABINIT_CPC_v10.pdf .
- The licence allows the authors to put it on the Web.
- DOI and bibtex: see https://docs.abinit.org/theory/bibliography/#gonze2009
-
- Proc.   0 individual time (sec): cpu=         22.2  wall=         22.6

================================================================================

 Calculation completed.
.Delivered  19 WARNINGs and  23 COMMENTs to log file.
+Overall time at end (sec) : cpu=         22.2  wall=         22.6
