
.Version 9.0.0 of ABINIT 
.(MPI version, prepared for a x86_64_linux_gnu9.2 computer) 

.Copyright (C) 1998-2020 ABINIT group . 
 ABINIT comes with ABSOLUTELY NO WARRANTY.
 It is free software, and you are welcome to redistribute it
 under certain conditions (GNU General Public License,
 see ~abinit/COPYING or http://www.gnu.org/copyleft/gpl.txt).

 ABINIT is a project of the Universite Catholique de Louvain,
 Corning Inc. and other collaborators, see ~abinit/doc/developers/contributors.txt .
 Please read https://docs.abinit.org/theory/acknowledgments for suggested
 acknowledgments of the ABINIT effort.
 For more information, see https://www.abinit.org .

.Starting date : Mon 24 Feb 2020.
- ( at 16h16 )
  
- input  file    -> /home/gmatteo/git_repos/abinit/_abiref_gnu9.2_openmpi/tests/Test_suite/v4_t59/t59.in
- output file    -> t59.out
- root for input  files -> t59i
- root for output files -> t59o


 DATASET    1 : space group Im -3 m (#229); Bravais cI (body-center cubic)
================================================================================
 Values of the parameters that define the memory need for DATASET  1.
     intxc =       0    ionmov =       0      iscf =       7    lmnmax =       2
     lnmax =       2     mgfft =      20  mpssoang =       3    mqgrid =    3001
     natom =       1  nloc_mem =       1    nspden =       2   nspinor =       1
    nsppol =       2      nsym =      48    n1xccc =    2501    ntypat =       1
    occopt =       3   xclevel =       2
-    mband =           8        mffmem =           1         mkmem =           2
       mpw =         402          nfft =        8000          nkpt =           2
================================================================================
P This job should need less than                       5.760 Mbytes of memory.
  Rough estimation (10% accuracy) of disk space for files :
_ WF disk file :      0.198 Mbytes ; DEN or POT disk file :      0.124 Mbytes.
================================================================================


 DATASET    2 : space group Im -3 m (#229); Bravais cI (body-center cubic)
================================================================================
 Values of the parameters that define the memory need for DATASET  2.
     intxc =       0    ionmov =       0      iscf =      -2    lmnmax =       2
     lnmax =       2     mgfft =      20  mpssoang =       3    mqgrid =    3001
     natom =       1  nloc_mem =       1    nspden =       2   nspinor =       1
    nsppol =       2      nsym =      48    n1xccc =    2501    ntypat =       1
    occopt =       3   xclevel =       2
-    mband =           8        mffmem =           1         mkmem =           2
       mpw =         402          nfft =        8000          nkpt =           2
================================================================================
P This job should need less than                       3.685 Mbytes of memory.
  Rough estimation (10% accuracy) of disk space for files :
_ WF disk file :      0.198 Mbytes ; DEN or POT disk file :      0.124 Mbytes.
================================================================================


 DATASET    3 : space group Im -3 m (#229); Bravais cI (body-center cubic)
================================================================================
 Values of the parameters that define the memory need for DATASET  3 (RF).
     intxc =       0      iscf =       7    lmnmax =       2     lnmax =       2
     mgfft =      20  mpssoang =       3    mqgrid =    3001     natom =       1
  nloc_mem =       1    nspden =       2   nspinor =       1    nsppol =       2
      nsym =      48    n1xccc =    2501    ntypat =       1    occopt =       3
   xclevel =       2
-    mband =           8        mffmem =           1         mkmem =           4
-   mkqmem =           4        mk1mem =           4           mpw =         402
      nfft =        8000          nkpt =           4
================================================================================
P This job should need less than                       4.563 Mbytes of memory.
  Rough estimation (10% accuracy) of disk space for files :
_ WF disk file :      0.395 Mbytes ; DEN or POT disk file :      0.124 Mbytes.
================================================================================

--------------------------------------------------------------------------------
------------- Echo of variables that govern the present computation ------------
--------------------------------------------------------------------------------
-
- outvars: echo of selected default values                                      
-   iomode0 =  0 , fftalg0 =312 , wfoptalg0 =  0
-
- outvars: echo of global parameters not present in the input file              
-  max_nthreads =    0
-
 -outvars: echo values of preprocessed input variables --------
            acell      5.4200000000E+00  5.4200000000E+00  5.4200000000E+00 Bohr
              amu      5.58470000E+01
          dilatmx      1.10000000E+00
             ecut      1.80000000E+01 Hartree
-          fftalg         312
           getden1          0
           getden2         -1
           getden3          0
           getwfk1          0
           getwfk2         -1
           getwfk3         -1
             iscf1          7
             iscf2         -2
             iscf3          7
              ixc          11
           jdtset        1    2    3
              kpt1     2.50000000E-01  2.50000000E-01  2.50000000E-01
                      -2.50000000E-01  2.50000000E-01  2.50000000E-01
              kpt2     2.50000000E-01  2.50000000E-01  2.50000000E-01
                      -2.50000000E-01  2.50000000E-01  2.50000000E-01
              kpt3     2.50000000E-01  2.50000000E-01  2.50000000E-01
                      -2.50000000E-01  2.50000000E-01  2.50000000E-01
                       2.50000000E-01 -2.50000000E-01  2.50000000E-01
                      -2.50000000E-01 -2.50000000E-01  2.50000000E-01
           kptopt1          1
           kptopt2          1
           kptopt3          2
         kptrlatt        2    0    0      0    2    0      0    0    2
          kptrlen      9.38771538E+00
P           mkmem1          2
P           mkmem2          2
P           mkmem3          4
P          mkqmem1          2
P          mkqmem2          2
P          mkqmem3          4
P          mk1mem1          2
P          mk1mem2          2
P          mk1mem3          4
            natom           1
            nband1          8
            nband2          8
            nband3          8
           nbdbuf1          0
           nbdbuf2          2
           nbdbuf3          2
           ndtset           3
            ngfft          20      20      20
             nkpt1          2
             nkpt2          2
             nkpt3          4
             nqpt1          0
             nqpt2          0
             nqpt3          1
           nspden           2
           nsppol           2
            nstep          50
             nsym          48
           ntypat           1
              occ1     1.000000  1.000000  1.000000  1.000000  0.000000  0.000000
                       0.000000  0.000000
                       1.000000  1.000000  1.000000  1.000000  0.000000  0.000000
                       0.000000  0.000000
                       1.000000  1.000000  1.000000  1.000000  0.000000  0.000000
                       0.000000  0.000000
                       1.000000  1.000000  1.000000  1.000000  0.000000  0.000000
                       0.000000  0.000000
              occ3     1.000000  1.000000  1.000000  1.000000  0.000000  0.000000
                       0.000000  0.000000
                       1.000000  1.000000  1.000000  1.000000  0.000000  0.000000
                       0.000000  0.000000
                       1.000000  1.000000  1.000000  1.000000  0.000000  0.000000
                       0.000000  0.000000
                       1.000000  1.000000  1.000000  1.000000  0.000000  0.000000
                       0.000000  0.000000
                       1.000000  1.000000  1.000000  1.000000  0.000000  0.000000
                       0.000000  0.000000
                       1.000000  1.000000  1.000000  1.000000  0.000000  0.000000
                       0.000000  0.000000
                       1.000000  1.000000  1.000000  1.000000  0.000000  0.000000
                       0.000000  0.000000
                       1.000000  1.000000  1.000000  1.000000  0.000000  0.000000
                       0.000000  0.000000
           occopt           3
        optdriver1          0
        optdriver2          0
        optdriver3          1
            rfdir1          0       0       0
            rfdir2          0       0       0
            rfdir3          1       0       0
           rfstrs1          0
           rfstrs2          0
           rfstrs3          2
            rprim     -5.0000000000E-01  5.0000000000E-01  5.0000000000E-01
                       5.0000000000E-01 -5.0000000000E-01  5.0000000000E-01
                       5.0000000000E-01  5.0000000000E-01 -5.0000000000E-01
           shiftk      5.00000000E-01  5.00000000E-01  5.00000000E-01
          spgroup         229
           spinat1     0.0000000000E+00  0.0000000000E+00  4.0000000000E+00
           spinat2     0.0000000000E+00  0.0000000000E+00  0.0000000000E+00
           spinat3     0.0000000000E+00  0.0000000000E+00  0.0000000000E+00
           symrel      1  0  0   0  1  0   0  0  1      -1  0  0   0 -1  0   0  0 -1
                      -1 -1 -1   0  0  1   0  1  0       1  1  1   0  0 -1   0 -1  0
                       0  1  0   1  0  0  -1 -1 -1       0 -1  0  -1  0  0   1  1  1
                       0  0  1  -1 -1 -1   1  0  0       0  0 -1   1  1  1  -1  0  0
                       0  1  0   1  0  0   0  0  1       0 -1  0  -1  0  0   0  0 -1
                      -1 -1 -1   0  0  1   1  0  0       1  1  1   0  0 -1  -1  0  0
                       1  0  0   0  1  0  -1 -1 -1      -1  0  0   0 -1  0   1  1  1
                       0  0  1  -1 -1 -1   0  1  0       0  0 -1   1  1  1   0 -1  0
                      -1 -1 -1   1  0  0   0  0  1       1  1  1  -1  0  0   0  0 -1
                       0  1  0   0  0  1   1  0  0       0 -1  0   0  0 -1  -1  0  0
                       1  0  0  -1 -1 -1   0  1  0      -1  0  0   1  1  1   0 -1  0
                       0  0  1   0  1  0  -1 -1 -1       0  0 -1   0 -1  0   1  1  1
                       1  0  0  -1 -1 -1   0  0  1      -1  0  0   1  1  1   0  0 -1
                       0  1  0   0  0  1  -1 -1 -1       0 -1  0   0  0 -1   1  1  1
                      -1 -1 -1   1  0  0   0  1  0       1  1  1  -1  0  0   0 -1  0
                       0  0  1   0  1  0   1  0  0       0  0 -1   0 -1  0  -1  0  0
                       0  1  0  -1 -1 -1   0  0  1       0 -1  0   1  1  1   0  0 -1
                       1  0  0   0  0  1  -1 -1 -1      -1  0  0   0  0 -1   1  1  1
                      -1 -1 -1   0  1  0   1  0  0       1  1  1   0 -1  0  -1  0  0
                       0  0  1   1  0  0   0  1  0       0  0 -1  -1  0  0   0 -1  0
                      -1 -1 -1   0  1  0   0  0  1       1  1  1   0 -1  0   0  0 -1
                       1  0  0   0  0  1   0  1  0      -1  0  0   0  0 -1   0 -1  0
                       0  1  0  -1 -1 -1   1  0  0       0 -1  0   1  1  1  -1  0  0
                       0  0  1   1  0  0  -1 -1 -1       0  0 -1  -1  0  0   1  1  1
           tolvrs1     1.00000000E-10
           tolvrs2     0.00000000E+00
           tolvrs3     1.00000000E-08
           tolwfr1     0.00000000E+00
           tolwfr2     1.00000000E-08
           tolwfr3     0.00000000E+00
            typat      1
              wtk1       0.25000    0.75000
              wtk2       0.25000    0.75000
              wtk3       0.25000    0.25000    0.25000    0.25000
            znucl       26.00000

================================================================================

 chkinp: Checking input parameters for consistency, jdtset=   1.

 chkinp: Checking input parameters for consistency, jdtset=   2.

 chkinp: Checking input parameters for consistency, jdtset=   3.

================================================================================
== DATASET  1 ==================================================================
-   mpi_nproc: 1, omp_nthreads: -1 (-1 if OMP is not activated)


--- !DatasetInfo
iteration_state: {dtset: 1, }
dimensions: {natom: 1, nkpt: 2, mband: 8, nsppol: 2, nspinor: 1, nspden: 2, mpw: 402, }
cutoff_energies: {ecut:  18.0, pawecutdg:  -1.0, }
electrons: {nelect:   8.00000000E+00, charge:   0.00000000E+00, occopt:   3.00000000E+00, tsmear:   1.00000000E-02, }
meta: {optdriver: 0, ionmov: 0, optcell: 0, iscf: 7, paral_kgb: 0, }
...

 Exchange-correlation functional for the present dataset will be:
  GGA: Perdew-Burke-Ernzerhof functional - ixc=11
 Citation for XC functional:
  J.P.Perdew, K.Burke, M.Ernzerhof, PRL 77, 3865 (1996)

 Real(R)+Recip(G) space primitive vectors, cartesian coordinates (Bohr,Bohr^-1):
 R(1)= -2.7100000  2.7100000  2.7100000  G(1)=  0.0000000  0.1845018  0.1845018
 R(2)=  2.7100000 -2.7100000  2.7100000  G(2)=  0.1845018  0.0000000  0.1845018
 R(3)=  2.7100000  2.7100000 -2.7100000  G(3)=  0.1845018  0.1845018  0.0000000
 Unit cell volume ucvol=  7.9610044E+01 bohr^3
 Angles (23,13,12)=  1.09471221E+02  1.09471221E+02  1.09471221E+02 degrees

 getcut: wavevector=  0.0000  0.0000  0.0000  ngfft=  20  20  20
         ecut(hartree)=     21.780   => boxcut(ratio)=   2.03324

--- Pseudopotential description ------------------------------------------------
- pspini: atom type   1  psp file is /home/gmatteo/git_repos/abinit/tests/Psps_for_tests/PseudosTM_pwteter/26fe.pspnc
- pspatm: opening atomic psp file    /home/gmatteo/git_repos/abinit/tests/Psps_for_tests/PseudosTM_pwteter/26fe.pspnc
-  Troullier-Martins psp for element  Fe        Thu Oct 27 17:35:05 EDT 1994
- 26.00000   8.00000    940714                znucl, zion, pspdat
    1    1    2    0      2001   0.00000      pspcod,pspxc,lmax,lloc,mmax,r2well
    0   4.333  10.868    0   2.2918558        l,e99.0,e99.9,nproj,rcpsp
   0.00000000   0.00000000   0.00000000   0.00000000     rms, ekb1, ekb2, epsatm
    1   1.213   4.197    1   2.8345121        l,e99.0,e99.9,nproj,rcpsp
   0.00000000   0.00000000   0.00000000   0.00000000     rms, ekb1, ekb2, epsatm
    2  18.664  23.972    1   2.2918558        l,e99.0,e99.9,nproj,rcpsp
   0.00000000   0.00000000   0.00000000   0.00000000     rms, ekb1, ekb2, epsatm
    1.56404770202776    2.06158206779471    6.88331421535388   rchrg,fchrg,qchrg
  pspatm : epsatm=   62.03296659
         --- l  ekb(1:nproj) -->
             1    1.561134
             2   -8.115829
 pspatm: atomic psp has been read  and splines computed

   4.96263733E+02                                ecore*ucvol(ha*bohr**3)
--------------------------------------------------------------------------------

_setup2: Arith. and geom. avg. npw (full set) are     391.500     391.062

================================================================================

--- !BeginCycle
iteration_state: {dtset: 1, }
solver: {iscf: 7, nstep: 50, nline: 4, wfoptalg: 0, }
tolerances: {tolvrs: 1.00E-10, }
...

     iter   Etot(hartree)     deltaE(h) residm    vres2    magn
 ETOT  1  -23.661438352151    -2.37E+01 1.21E-01 3.19E+03 1.998
 ETOT  2  -24.170999248980    -5.10E-01 1.80E-03 1.63E+03 0.660
 ETOT  3  -24.832408739543    -6.61E-01 2.26E-02 3.76E+01 1.565
 ETOT  4  -24.838848482207    -6.44E-03 1.80E-02 1.42E+01 1.711
 ETOT  5  -24.846528911832    -7.68E-03 3.62E-04 1.17E+00 2.276
 ETOT  6  -24.850473362741    -3.94E-03 4.34E-05 5.59E-01 2.724
 ETOT  7  -24.854015771108    -3.54E-03 1.06E-04 2.69E-01 3.436
 ETOT  8  -24.854040621334    -2.49E-05 1.12E-05 3.04E-02 3.325
 ETOT  9  -24.854102679339    -6.21E-05 9.68E-05 4.16E-03 3.372
 ETOT 10  -24.854106587266    -3.91E-06 2.42E-07 3.02E-04 3.386
 ETOT 11  -24.854106695613    -1.08E-07 7.75E-09 1.36E-05 3.385
 ETOT 12  -24.854106691278     4.33E-09 1.52E-09 8.46E-06 3.383
 ETOT 13  -24.854106705451    -1.42E-08 7.15E-10 1.03E-06 3.385
 ETOT 14  -24.854106706988    -1.54E-09 3.89E-11 3.88E-09 3.384
 ETOT 15  -24.854106706995    -7.12E-12 3.59E-12 1.33E-11 3.384

 At SCF step   15       vres2   =  1.33E-11 < tolvrs=  1.00E-10 =>converged.

 Cartesian components of stress tensor (hartree/bohr^3)
  sigma(1 1)=  1.52871316E-02  sigma(3 2)=  0.00000000E+00
  sigma(2 2)=  1.52871316E-02  sigma(3 1)=  0.00000000E+00
  sigma(3 3)=  1.52871316E-02  sigma(2 1)=  0.00000000E+00


--- !ResultsGS
iteration_state: {dtset: 1, }
comment   : Summary of ground state results
lattice_vectors:
- [ -2.7100000,   2.7100000,   2.7100000, ]
- [  2.7100000,  -2.7100000,   2.7100000, ]
- [  2.7100000,   2.7100000,  -2.7100000, ]
lattice_lengths: [   4.69386,    4.69386,    4.69386, ]
lattice_angles: [109.471, 109.471, 109.471, ] # degrees, (23, 13, 12)
lattice_volume:   7.9610044E+01
convergence: {deltae: -7.123E-12, res2:  1.326E-11, residm:  3.585E-12, diffor: null, }
etotal    :  -2.48541067E+01
entropy   :   0.00000000E+00
fermie    :  -2.53423062E-01
cartesian_stress_tensor: # hartree/bohr^3
- [  1.52871316E-02,   0.00000000E+00,   0.00000000E+00, ]
- [  0.00000000E+00,   1.52871316E-02,   0.00000000E+00, ]
- [  0.00000000E+00,   0.00000000E+00,   1.52871316E-02, ]
pressure_GPa:  -4.4976E+02
xred      :
- [  0.0000E+00,   0.0000E+00,   0.0000E+00, Fe]
cartesian_forces: # hartree/bohr
- [ -0.00000000E+00,  -0.00000000E+00,  -0.00000000E+00, ]
force_length_stats: {min:   0.00000000E+00, max:   0.00000000E+00, mean:   0.00000000E+00, }
...

 Integrated electronic and magnetization densities in atomic spheres:
 ---------------------------------------------------------------------
 Radius=ratsph(iatom), smearing ratsm=  0.0000. Diff(up-dn)=approximate z local magnetic moment.
 Atom    Radius    up_density   dn_density  Total(up+dn)  Diff(up-dn)
    1   2.00000     4.637382     1.432665      6.070047     3.204716
 ---------------------------------------------------------------------
  Sum:              4.637382     1.432665      6.070047     3.204716
 Total magnetization (from the atomic spheres):             3.204716
 Total magnetization (exact up - dn):                       3.384242
================================================================================

 ----iterations are completed or convergence reached----

 Mean square residual over all n,k,spin=   32.011E-14; max=  35.851E-13
 reduced coordinates (array xred) for    1 atoms
       0.000000000000      0.000000000000      0.000000000000
 rms dE/dt=  0.0000E+00; max dE/dt=  0.0000E+00; dE/dt below (all hartree)
    1       0.000000000000      0.000000000000      0.000000000000

 cartesian coordinates (angstrom) at end:
    1      0.00000000000000     0.00000000000000     0.00000000000000

 cartesian forces (hartree/bohr) at end:
    1     -0.00000000000000    -0.00000000000000    -0.00000000000000
 frms,max,avg= 0.0000000E+00 0.0000000E+00   0.000E+00  0.000E+00  0.000E+00 h/b

 cartesian forces (eV/Angstrom) at end:
    1     -0.00000000000000    -0.00000000000000    -0.00000000000000
 frms,max,avg= 0.0000000E+00 0.0000000E+00   0.000E+00  0.000E+00  0.000E+00 e/A
 length scales=  5.420000000000  5.420000000000  5.420000000000 bohr
              =  2.868140470558  2.868140470558  2.868140470558 angstroms
 prteigrs : about to open file t59o_DS1_EIG
 Fermi (or HOMO) energy (hartree) =  -0.25342   Average Vxc (hartree)=  -0.49869
 Magnetization (Bohr magneton)=  3.38424199E+00
 Total spin up =  5.69212100E+00   Total spin down =  2.30787900E+00
 Eigenvalues (hartree) for nkpt=   2  k points, SPIN UP:
 kpt#   1, nband=  8, wtk=  0.25000, kpt=  0.2500  0.2500  0.2500 (reduced coord)
  -0.41959   -0.41959   -0.41959   -0.32533   -0.32533    0.03745    0.03745    0.03745
      occupation numbers for kpt#   1
   1.00000    1.00000    1.00000    0.99925    0.99925    0.00000    0.00000    0.00000
 prteigrs : prtvol=0 or 1, do not print more k-points.

 Eigenvalues (hartree) for nkpt=   2  k points, SPIN DOWN:
 kpt#   1, nband=  8, wtk=  0.25000, kpt=  0.2500  0.2500  0.2500 (reduced coord)
  -0.31455   -0.31455   -0.31455   -0.19210   -0.19210    0.09748    0.09748    0.09748
      occupation numbers for kpt#   1
   0.99779    0.99779    0.99779    0.00217    0.00217    0.00000    0.00000    0.00000
 prteigrs : prtvol=0 or 1, do not print more k-points.


--- !EnergyTerms
iteration_state     : {dtset: 1, }
comment             : Components of total free energy in Hartree
kinetic             :  2.49540434103359E+01
hartree             :  2.56495443648713E+00
xc                  : -1.07437342452324E+01
Ewald energy        : -2.14862491483900E+01
psp_core            :  6.23368243229720E+00
local_psp           :  2.14100606875915E+00
non_local_psp       : -2.85075041337542E+01
internal            : -2.48438011794972E+01
'-kT*entropy'       : -1.03055274977994E-02
total_energy        : -2.48541067069950E+01
total_energy_eV     : -6.76314638101442E+02
band_energy         : -2.84771180927017E+00
...


 Cartesian components of stress tensor (hartree/bohr^3)
  sigma(1 1)=  1.52871316E-02  sigma(3 2)=  0.00000000E+00
  sigma(2 2)=  1.52871316E-02  sigma(3 1)=  0.00000000E+00
  sigma(3 3)=  1.52871316E-02  sigma(2 1)=  0.00000000E+00

-Cartesian components of stress tensor (GPa)         [Pressure= -4.4976E+02 GPa]
- sigma(1 1)=  4.49762864E+02  sigma(3 2)=  0.00000000E+00
- sigma(2 2)=  4.49762864E+02  sigma(3 1)=  0.00000000E+00
- sigma(3 3)=  4.49762864E+02  sigma(2 1)=  0.00000000E+00

================================================================================
== DATASET  2 ==================================================================
-   mpi_nproc: 1, omp_nthreads: -1 (-1 if OMP is not activated)


--- !DatasetInfo
iteration_state: {dtset: 2, }
dimensions: {natom: 1, nkpt: 2, mband: 8, nsppol: 2, nspinor: 1, nspden: 2, mpw: 402, }
cutoff_energies: {ecut:  18.0, pawecutdg:  -1.0, }
electrons: {nelect:   8.00000000E+00, charge:   0.00000000E+00, occopt:   3.00000000E+00, tsmear:   1.00000000E-02, }
meta: {optdriver: 0, ionmov: 0, optcell: 0, iscf: -2, paral_kgb: 0, }
...

 mkfilename : getwfk/=0, take file _WFK from output of DATASET   1.

 mkfilename : getden/=0, take file _DEN from output of DATASET   1.

 Exchange-correlation functional for the present dataset will be:
  GGA: Perdew-Burke-Ernzerhof functional - ixc=11
 Citation for XC functional:
  J.P.Perdew, K.Burke, M.Ernzerhof, PRL 77, 3865 (1996)

 Real(R)+Recip(G) space primitive vectors, cartesian coordinates (Bohr,Bohr^-1):
 R(1)= -2.7100000  2.7100000  2.7100000  G(1)=  0.0000000  0.1845018  0.1845018
 R(2)=  2.7100000 -2.7100000  2.7100000  G(2)=  0.1845018  0.0000000  0.1845018
 R(3)=  2.7100000  2.7100000 -2.7100000  G(3)=  0.1845018  0.1845018  0.0000000
 Unit cell volume ucvol=  7.9610044E+01 bohr^3
 Angles (23,13,12)=  1.09471221E+02  1.09471221E+02  1.09471221E+02 degrees

 getcut: wavevector=  0.0000  0.0000  0.0000  ngfft=  20  20  20
         ecut(hartree)=     21.780   => boxcut(ratio)=   2.03324
--------------------------------------------------------------------------------

-inwffil : will read wavefunctions from disk file t59o_DS1_WFK

================================================================================
 prteigrs : about to open file t59o_DS2_EIG

 SPIN UP channel
 Non-SCF case, kpt    1 (  0.25000  0.25000  0.25000), residuals and eigenvalues=
  7.15E-17  7.31E-17  7.24E-17  3.65E-16  6.15E-16  8.27E-14  2.19E-13  4.50E-14
 -4.1959E-01 -4.1959E-01 -4.1959E-01 -3.2533E-01 -3.2533E-01  3.7452E-02
  3.7452E-02  3.7452E-02
 prteigrs : prtvol=0 or 1, do not print more k-points.


 SPIN DOWN channel
 Non-SCF case, kpt    1 (  0.25000  0.25000  0.25000), residuals and eigenvalues=
  8.27E-16  8.08E-16  8.46E-16  4.91E-16  4.91E-16  5.43E-13  2.84E-12  6.00E-13
 -3.1455E-01 -3.1455E-01 -3.1455E-01 -1.9210E-01 -1.9210E-01  9.7484E-02
  9.7484E-02  9.7484E-02
 prteigrs : prtvol=0 or 1, do not print more k-points.



--- !ResultsGS
iteration_state: {dtset: 2, }
comment   : Summary of ground state results
lattice_vectors:
- [ -2.7100000,   2.7100000,   2.7100000, ]
- [  2.7100000,  -2.7100000,   2.7100000, ]
- [  2.7100000,   2.7100000,  -2.7100000, ]
lattice_lengths: [   4.69386,    4.69386,    4.69386, ]
lattice_angles: [109.471, 109.471, 109.471, ] # degrees, (23, 13, 12)
lattice_volume:   7.9610044E+01
convergence: {deltae:  0.000E+00, res2:  0.000E+00, residm:  5.430E-13, diffor:  0.000E+00, }
etotal    :  -2.48541067E+01
entropy   :   0.00000000E+00
fermie    :  -2.53423062E-01
cartesian_stress_tensor: null
pressure_GPa: null
xred      :
- [  0.0000E+00,   0.0000E+00,   0.0000E+00, Fe]
cartesian_forces: null
force_length_stats: {min: null, max: null, mean: null, }
...

 Integrated electronic and magnetization densities in atomic spheres:
 ---------------------------------------------------------------------
 Radius=ratsph(iatom), smearing ratsm=  0.0000. Diff(up-dn)=approximate z local magnetic moment.
 Atom    Radius    up_density   dn_density  Total(up+dn)  Diff(up-dn)
    1   2.00000     4.637382     1.432665      6.070047     3.204716
 ---------------------------------------------------------------------
  Sum:              4.637382     1.432665      6.070047     3.204716
 Total magnetization (from the atomic spheres):             3.204716
 Total magnetization (exact up - dn):                       3.384242
================================================================================

 ----iterations are completed or convergence reached----

 Mean square residual over all n,k,spin=   26.451E-15; max=  54.295E-14
 reduced coordinates (array xred) for    1 atoms
       0.000000000000      0.000000000000      0.000000000000

 cartesian coordinates (angstrom) at end:
    1      0.00000000000000     0.00000000000000     0.00000000000000
 length scales=  5.420000000000  5.420000000000  5.420000000000 bohr
              =  2.868140470558  2.868140470558  2.868140470558 angstroms
 prteigrs : about to open file t59o_DS2_EIG
 Eigenvalues (hartree) for nkpt=   2  k points, SPIN UP:
 kpt#   1, nband=  8, wtk=  0.25000, kpt=  0.2500  0.2500  0.2500 (reduced coord)
  -0.41959   -0.41959   -0.41959   -0.32533   -0.32533    0.03745    0.03745    0.03745
 prteigrs : prtvol=0 or 1, do not print more k-points.

 Eigenvalues (hartree) for nkpt=   2  k points, SPIN DOWN:
 kpt#   1, nband=  8, wtk=  0.25000, kpt=  0.2500  0.2500  0.2500 (reduced coord)
  -0.31455   -0.31455   -0.31455   -0.19210   -0.19210    0.09748    0.09748    0.09748
 prteigrs : prtvol=0 or 1, do not print more k-points.


================================================================================
== DATASET  3 ==================================================================
-   mpi_nproc: 1, omp_nthreads: -1 (-1 if OMP is not activated)


--- !DatasetInfo
iteration_state: {dtset: 3, }
dimensions: {natom: 1, nkpt: 4, mband: 8, nsppol: 2, nspinor: 1, nspden: 2, mpw: 402, }
cutoff_energies: {ecut:  18.0, pawecutdg:  -1.0, }
electrons: {nelect:   8.00000000E+00, charge:   0.00000000E+00, occopt:   3.00000000E+00, tsmear:   1.00000000E-02, }
meta: {optdriver: 1, rfstrs: 2, }
...

 mkfilename : getwfk/=0, take file _WFK from output of DATASET   2.

 Exchange-correlation functional for the present dataset will be:
  GGA: Perdew-Burke-Ernzerhof functional - ixc=11
 Citation for XC functional:
  J.P.Perdew, K.Burke, M.Ernzerhof, PRL 77, 3865 (1996)

 Real(R)+Recip(G) space primitive vectors, cartesian coordinates (Bohr,Bohr^-1):
 R(1)= -2.7100000  2.7100000  2.7100000  G(1)=  0.0000000  0.1845018  0.1845018
 R(2)=  2.7100000 -2.7100000  2.7100000  G(2)=  0.1845018  0.0000000  0.1845018
 R(3)=  2.7100000  2.7100000 -2.7100000  G(3)=  0.1845018  0.1845018  0.0000000
 Unit cell volume ucvol=  7.9610044E+01 bohr^3
 Angles (23,13,12)=  1.09471221E+02  1.09471221E+02  1.09471221E+02 degrees
 setup1 : take into account q-point for computing boxcut.

 getcut: wavevector=  0.0000  0.0000  0.0000  ngfft=  20  20  20
         ecut(hartree)=     21.780   => boxcut(ratio)=   2.03324
--------------------------------------------------------------------------------

-inwffil : will read wavefunctions from disk file t59o_DS2_WFK
 symkchk : k-point set has full space-group symmetry.

 ==>  initialize data related to q vector <== 

 The list of irreducible perturbations for this q vector is:
    1)    idir= 1    ipert=   5

================================================================================

--------------------------------------------------------------------------------
 Perturbation wavevector (in red.coord.)   0.000000  0.000000  0.000000
 Found     8 symmetries that leave the perturbation invariant.
 symkpt : the number of k-points, thanks to the symmetries,
 is reduced to     3 .

--------------------------------------------------------------------------------

-inwffil : will read wavefunctions from disk file t59o_DS2_WFK
--------------------------------------------------------------------------------

 dfpt_looppert : total number of electrons, from k and k+q
  fully or partially occupied states are    8.000000E+00 and    8.000000E+00.
 Initialisation of the first-order wave-functions :
  ireadwf=   0

--- !BeginCycle
iteration_state: {dtset: 3, }
solver: {iscf: 7, nstep: 50, nline: 4, wfoptalg: 0, }
tolerances: {tolvrs: 1.00E-08, }
...

     iter   2DEtotal(Ha)        deltaE(Ha) residm    vres2
-ETOT  1   6.0697666408301     -4.211E+01 9.988E-01 2.295E+03
 ETOT  2   4.3878719982580     -1.682E+00 1.317E-02 2.741E+02
 ETOT  3   4.1793109197725     -2.086E-01 9.129E-04 4.182E+00
 ETOT  4   4.1750125749239     -4.298E-03 1.507E-04 8.154E-01
 ETOT  5   4.1744847621343     -5.278E-04 7.398E-06 7.650E-03
 ETOT  6   4.1744760469230     -8.715E-06 5.091E-08 8.524E-05
 ETOT  7   4.1744759485839     -9.834E-08 1.848E-08 4.947E-06
 ETOT  8   4.1744759430002     -5.584E-09 1.343E-09 1.579E-07
 ETOT  9   4.1744759428367     -1.635E-10 5.693E-10 3.027E-09

 At SCF step    9       vres2   =  3.03E-09 < tolvrs=  1.00E-08 =>converged.
================================================================================

 ----iterations are completed or convergence reached----

 Mean square residual over all n,k,spin=   16.240E-12; max=  56.930E-11

 Seventeen components of 2nd-order total energy (hartree) are
 1,2,3: 0th-order hamiltonian combined with 1st-order wavefunctions
     kin0=   4.05762711E+01 eigvalue=   2.17358318E+00  local=  -4.37156250E-01
 4,5,6,7: 1st-order hamiltonian combined with 1st and 0th-order wfs
 loc psp =  -6.16550426E-01  Hartree=   6.16590848E+00     xc=  -1.07360742E+00
     kin1=  -2.56353498E+01
 8,9,10: eventually, occupation + non-local contributions
    edocc=   6.49041152E-01     enl0=  -6.16594796E-01   enl1=  -6.51899885E+01
 1-10 gives the relaxation energy (to be shifted if some occ is /=2.0)
   erelax=  -4.40044433E+01
 11,12,13 Non-relaxation  contributions : frozen-wavefunctions and Ewald
  fr.hart=  -9.20288029E-02   fr.kin=   1.66360291E+01 fr.loc=  -5.20015901E+00
 14,15,16 Non-relaxation  contributions : frozen-wavefunctions and Ewald
  fr.nonl=   3.19687135E+01    fr.xc=   4.83167716E-01  Ewald=   4.38319674E+00
 17 Non-relaxation  contributions : pseudopotential core energy
  pspcore=   0.00000000E+00
 Resulting in :
 2DEtotal=    0.4174475943E+01 Ha. Also 2DEtotal=    0.113593267295E+03 eV
    (2DErelax=   -4.4004443308E+01 Ha. 2DEnonrelax=    4.8178919251E+01 Ha)
    (  non-var. 2DEtotal :    4.1744779450E+00 Ha)

================================================================================

 ---- first-order wavefunction calculations are completed ----


 ==> Compute Derivative Database <==
  
  2nd-order matrix (non-cartesian coordinates, masses not included,
   asr not included )
  cartesian coordinates for strain terms (1/ucvol factor 
   for elastic tensor components not included) 
     j1       j2             matrix element
  dir pert dir pert     real part     imaginary part
  
   1    1   2    3         0.0000000000         0.0000000000
   1    1   3    3         0.0000000000         0.0000000000
   1    1   1    5        -0.0000000021         0.0000000000
  
   2    1   1    3         0.0000000000         0.0000000000
   2    1   3    3         0.0000000000         0.0000000000
   2    1   1    5        -0.0000000046         0.0000000000
  
   3    1   1    3         0.0000000000         0.0000000000
   3    1   2    3         0.0000000000         0.0000000000
   3    1   1    5         0.0000000044         0.0000000000
  
   1    3   2    1         0.0000000000         0.0000000000
   1    3   3    1         0.0000000000         0.0000000000
  
   2    3   1    1         0.0000000000         0.0000000000
   2    3   3    1         0.0000000000         0.0000000000
  
   3    3   1    1         0.0000000000         0.0000000000
   3    3   2    1         0.0000000000         0.0000000000
  
   1    4   1    5        -0.0000013254         0.0000000000
  
   2    4   1    5        -0.0000009839         0.0000000000
  
   3    4   1    5        -0.0000009839         0.0000000000
  
   1    5   1    5         4.1744779450         0.0000000000
  
   2    5   1    5         0.0000000016         0.0000000000
  
   3    5   1    5        -0.0000000037         0.0000000000
  
  
  Rigid-atom elastic tensor , in cartesian coordinates,
     j1       j2             matrix element
  dir pert dir pert     real part    imaginary part
  
   1    4   1    5        -0.0000000166         0.0000000000
  
   2    4   1    5        -0.0000000124         0.0000000000
  
   3    4   1    5        -0.0000000124         0.0000000000
  
   1    5   1    5         0.0524365738         0.0000000000
  
   2    5   1    5         0.0000000000         0.0000000000
  
   3    5   1    5        -0.0000000000         0.0000000000
  
  Internal strain coupling parameters, in cartesian coordinates,
   zero average net force deriv. has been imposed  
     j1       j2             matrix element
  dir pert dir pert     real part    imaginary part
  
   1    1   1    5        -0.0000000000         0.0000000000
  
   2    1   1    5        -0.0000000000         0.0000000000
  
   3    1   1    5        -0.0000000000         0.0000000000

== END DATASET(S) ==============================================================
================================================================================
  
 -outvars: echo values of variables after computation  --------
            acell      5.4200000000E+00  5.4200000000E+00  5.4200000000E+00 Bohr
              amu      5.58470000E+01
          dilatmx      1.10000000E+00
             ecut      1.80000000E+01 Hartree
           etotal1    -2.4854106707E+01
           etotal3     4.1744759428E+00
            fcart1    -0.0000000000E+00 -0.0000000000E+00 -0.0000000000E+00
            fcart3     0.0000000000E+00  0.0000000000E+00  0.0000000000E+00
-          fftalg         312
           getden1          0
           getden2         -1
           getden3          0
           getwfk1          0
           getwfk2         -1
           getwfk3         -1
             iscf1          7
             iscf2         -2
             iscf3          7
              ixc          11
           jdtset        1    2    3
              kpt1     2.50000000E-01  2.50000000E-01  2.50000000E-01
                      -2.50000000E-01  2.50000000E-01  2.50000000E-01
              kpt2     2.50000000E-01  2.50000000E-01  2.50000000E-01
                      -2.50000000E-01  2.50000000E-01  2.50000000E-01
              kpt3     2.50000000E-01  2.50000000E-01  2.50000000E-01
                      -2.50000000E-01  2.50000000E-01  2.50000000E-01
                       2.50000000E-01 -2.50000000E-01  2.50000000E-01
                      -2.50000000E-01 -2.50000000E-01  2.50000000E-01
           kptopt1          1
           kptopt2          1
           kptopt3          2
         kptrlatt        2    0    0      0    2    0      0    0    2
          kptrlen      9.38771538E+00
P           mkmem1          2
P           mkmem2          2
P           mkmem3          4
P          mkqmem1          2
P          mkqmem2          2
P          mkqmem3          4
P          mk1mem1          2
P          mk1mem2          2
P          mk1mem3          4
            natom           1
            nband1          8
            nband2          8
            nband3          8
           nbdbuf1          0
           nbdbuf2          2
           nbdbuf3          2
           ndtset           3
            ngfft          20      20      20
             nkpt1          2
             nkpt2          2
             nkpt3          4
             nqpt1          0
             nqpt2          0
             nqpt3          1
           nspden           2
           nsppol           2
            nstep          50
             nsym          48
           ntypat           1
              occ1     1.000000  1.000000  1.000000  0.999247  0.999247  0.000000
                       0.000000  0.000000
                       1.000000  0.999997  0.999980  0.999980  0.999703  0.923669
                       0.000000  0.000000
                       0.997790  0.997790  0.997790  0.002166  0.002166  0.000000
                       0.000000  0.000000
                       1.000000  0.869215  0.102911  0.102911  0.002806  0.000095
                       0.000000  0.000000
              occ3     1.000000  1.000000  1.000000  0.999247  0.999247  0.000000
                       0.000000  0.000000
                       1.000000  0.999997  0.999980  0.999980  0.999703  0.923668
                       0.000000  0.000000
                       1.000000  0.999997  0.999980  0.999980  0.999703  0.923668
                       0.000000  0.000000
                       1.000000  0.999997  0.999980  0.999980  0.999703  0.923668
                       0.000000  0.000000
                       0.997790  0.997790  0.997790  0.002166  0.002166  0.000000
                       0.000000  0.000000
                       1.000000  0.869215  0.102911  0.102911  0.002806  0.000095
                       0.000000  0.000000
                       1.000000  0.869215  0.102911  0.102911  0.002806  0.000095
                       0.000000  0.000000
                       1.000000  0.869215  0.102911  0.102911  0.002806  0.000095
                       0.000000  0.000000
           occopt           3
        optdriver1          0
        optdriver2          0
        optdriver3          1
            rfdir1          0       0       0
            rfdir2          0       0       0
            rfdir3          1       0       0
           rfstrs1          0
           rfstrs2          0
           rfstrs3          2
            rprim     -5.0000000000E-01  5.0000000000E-01  5.0000000000E-01
                       5.0000000000E-01 -5.0000000000E-01  5.0000000000E-01
                       5.0000000000E-01  5.0000000000E-01 -5.0000000000E-01
           shiftk      5.00000000E-01  5.00000000E-01  5.00000000E-01
          spgroup         229
           spinat1     0.0000000000E+00  0.0000000000E+00  4.0000000000E+00
           spinat2     0.0000000000E+00  0.0000000000E+00  0.0000000000E+00
           spinat3     0.0000000000E+00  0.0000000000E+00  0.0000000000E+00
           strten1     1.5287131614E-02  1.5287131614E-02  1.5287131614E-02
                       0.0000000000E+00  0.0000000000E+00  0.0000000000E+00
           strten3     0.0000000000E+00  0.0000000000E+00  0.0000000000E+00
                       0.0000000000E+00  0.0000000000E+00  0.0000000000E+00
           symrel      1  0  0   0  1  0   0  0  1      -1  0  0   0 -1  0   0  0 -1
                      -1 -1 -1   0  0  1   0  1  0       1  1  1   0  0 -1   0 -1  0
                       0  1  0   1  0  0  -1 -1 -1       0 -1  0  -1  0  0   1  1  1
                       0  0  1  -1 -1 -1   1  0  0       0  0 -1   1  1  1  -1  0  0
                       0  1  0   1  0  0   0  0  1       0 -1  0  -1  0  0   0  0 -1
                      -1 -1 -1   0  0  1   1  0  0       1  1  1   0  0 -1  -1  0  0
                       1  0  0   0  1  0  -1 -1 -1      -1  0  0   0 -1  0   1  1  1
                       0  0  1  -1 -1 -1   0  1  0       0  0 -1   1  1  1   0 -1  0
                      -1 -1 -1   1  0  0   0  0  1       1  1  1  -1  0  0   0  0 -1
                       0  1  0   0  0  1   1  0  0       0 -1  0   0  0 -1  -1  0  0
                       1  0  0  -1 -1 -1   0  1  0      -1  0  0   1  1  1   0 -1  0
                       0  0  1   0  1  0  -1 -1 -1       0  0 -1   0 -1  0   1  1  1
                       1  0  0  -1 -1 -1   0  0  1      -1  0  0   1  1  1   0  0 -1
                       0  1  0   0  0  1  -1 -1 -1       0 -1  0   0  0 -1   1  1  1
                      -1 -1 -1   1  0  0   0  1  0       1  1  1  -1  0  0   0 -1  0
                       0  0  1   0  1  0   1  0  0       0  0 -1   0 -1  0  -1  0  0
                       0  1  0  -1 -1 -1   0  0  1       0 -1  0   1  1  1   0  0 -1
                       1  0  0   0  0  1  -1 -1 -1      -1  0  0   0  0 -1   1  1  1
                      -1 -1 -1   0  1  0   1  0  0       1  1  1   0 -1  0  -1  0  0
                       0  0  1   1  0  0   0  1  0       0  0 -1  -1  0  0   0 -1  0
                      -1 -1 -1   0  1  0   0  0  1       1  1  1   0 -1  0   0  0 -1
                       1  0  0   0  0  1   0  1  0      -1  0  0   0  0 -1   0 -1  0
                       0  1  0  -1 -1 -1   1  0  0       0 -1  0   1  1  1  -1  0  0
                       0  0  1   1  0  0  -1 -1 -1       0  0 -1  -1  0  0   1  1  1
           tolvrs1     1.00000000E-10
           tolvrs2     0.00000000E+00
           tolvrs3     1.00000000E-08
           tolwfr1     0.00000000E+00
           tolwfr2     1.00000000E-08
           tolwfr3     0.00000000E+00
            typat      1
              wtk1       0.25000    0.75000
              wtk2       0.25000    0.75000
              wtk3       0.25000    0.25000    0.25000    0.25000
            znucl       26.00000

================================================================================


- Timing analysis has been suppressed with timopt=0



================================================================================

 Suggested references for the acknowledgment of ABINIT usage.

 The users of ABINIT have little formal obligations with respect to the ABINIT group
 (those specified in the GNU General Public License, http://www.gnu.org/copyleft/gpl.txt).
 However, it is common practice in the scientific literature,
 to acknowledge the efforts of people that have made the research possible.
 In this spirit, please find below suggested citations of work written by ABINIT developers,
 corresponding to implementations inside of ABINIT that you have used in the present run.
 Note also that it will be of great value to readers of publications presenting these results,
 to read papers enabling them to understand the theoretical formalism and details
 of the ABINIT implementation.
 For information on why they are suggested, see also https://docs.abinit.org/theory/acknowledgments.
-
- [1] Metric tensor formulation of strain in density-functional perturbation theory, 
- D. R. Hamann, X. Wu, K. M. Rabe, and D. Vanderbilt, Phys. Rev. B71, 035117 (2005).
- Comment: Non-vanishing rfstrs. Strong suggestion to cite this paper in your publications.
- DOI and bibtex: see https://docs.abinit.org/theory/bibliography/#hamann2005
-
- [2] The Abinit project: Impact, environment and recent developments.
- Computer Phys. Comm. 248, 107042 (2020).
- X.Gonze, B. Amadon, G. Antonius, F.Arnardi, L.Baguet, J.-M.Beuken,
- J.Bieder, F.Bottin, J.Bouchet, E.Bousquet, N.Brouwer, F.Bruneval,
- G.Brunin, T.Cavignac, J.-B. Charraud, Wei Chen, M.Cote, S.Cottenier,
- J.Denier, G.Geneste, Ph.Ghosez, M.Giantomassi, Y.Gillet, O.Gingras,
- D.R.Hamann, G.Hautier, Xu He, N.Helbig, N.Holzwarth, Y.Jia, F.Jollet,
- W.Lafargue-Dit-Hauret, K.Lejaeghere, M.A.L.Marques, A.Martin, C.Martins,
- H.P.C. Miranda, F.Naccarato, K. Persson, G.Petretto, V.Planes, Y.Pouillon,
- S.Prokhorenko, F.Ricci, G.-M.Rignanese, A.H.Romero, M.M.Schmitt, M.Torrent,
- M.J.van Setten, B.Van Troeye, M.J.Verstraete, G.Zerah and J.W.Zwanzig
- Comment: the fifth generic paper describing the ABINIT project.
- Note that a version of this paper, that is not formatted for Computer Phys. Comm. 
- is available at https://www.abinit.org/sites/default/files/ABINIT20.pdf .
- The licence allows the authors to put it on the Web.
- DOI and bibtex: see https://docs.abinit.org/theory/bibliography/#gonze2020
-
- [3] Recent developments in the ABINIT software package.
- Computer Phys. Comm. 205, 106 (2016).
- X.Gonze, F.Jollet, F.Abreu Araujo, D.Adams, B.Amadon, T.Applencourt,
- C.Audouze, J.-M.Beuken, J.Bieder, A.Bokhanchuk, E.Bousquet, F.Bruneval
- D.Caliste, M.Cote, F.Dahm, F.Da Pieve, M.Delaveau, M.Di Gennaro,
- B.Dorado, C.Espejo, G.Geneste, L.Genovese, A.Gerossier, M.Giantomassi,
- Y.Gillet, D.R.Hamann, L.He, G.Jomard, J.Laflamme Janssen, S.Le Roux,
- A.Levitt, A.Lherbier, F.Liu, I.Lukacevic, A.Martin, C.Martins,
- M.J.T.Oliveira, S.Ponce, Y.Pouillon, T.Rangel, G.-M.Rignanese,
- A.H.Romero, B.Rousseau, O.Rubel, A.A.Shukri, M.Stankovski, M.Torrent,
- M.J.Van Setten, B.Van Troeye, M.J.Verstraete, D.Waroquier, J.Wiktor,
- B.Xu, A.Zhou, J.W.Zwanziger.
- Comment: the fourth generic paper describing the ABINIT project.
- Note that a version of this paper, that is not formatted for Computer Phys. Comm. 
- is available at https://www.abinit.org/sites/default/files/ABINIT16.pdf .
- The licence allows the authors to put it on the Web.
- DOI and bibtex: see https://docs.abinit.org/theory/bibliography/#gonze2016
-
- [4] ABINIT: First-principles approach of materials and nanosystem properties.
- Computer Phys. Comm. 180, 2582-2615 (2009).
- X. Gonze, B. Amadon, P.-M. Anglade, J.-M. Beuken, F. Bottin, P. Boulanger, F. Bruneval,
- D. Caliste, R. Caracas, M. Cote, T. Deutsch, L. Genovese, Ph. Ghosez, M. Giantomassi
- S. Goedecker, D.R. Hamann, P. Hermet, F. Jollet, G. Jomard, S. Leroux, M. Mancini, S. Mazevet,
- M.J.T. Oliveira, G. Onida, Y. Pouillon, T. Rangel, G.-M. Rignanese, D. Sangalli, R. Shaltaf,
- M. Torrent, M.J. Verstraete, G. Zerah, J.W. Zwanziger
- Comment: the third generic paper describing the ABINIT project.
- Note that a version of this paper, that is not formatted for Computer Phys. Comm. 
- is available at https://www.abinit.org/sites/default/files/ABINIT_CPC_v10.pdf .
- The licence allows the authors to put it on the Web.
- DOI and bibtex: see https://docs.abinit.org/theory/bibliography/#gonze2009
-
- And optionally:
-
- [5] A brief introduction to the ABINIT software package.
- Z. Kristallogr. 220, 558-562 (2005).
- X. Gonze, G.-M. Rignanese, M. Verstraete, J.-M. Beuken, Y. Pouillon, R. Caracas, F. Jollet,
- M. Torrent, G. Zerah, M. Mikami, Ph. Ghosez, M. Veithen, J.-Y. Raty, V. Olevano, F. Bruneval,
- L. Reining, R. Godby, G. Onida, D.R. Hamann, and D.C. Allan.
- Comment: the second generic paper describing the ABINIT project. Note that this paper
- should be cited especially if you are using the GW part of ABINIT, as several authors
- of this part are not in the list of authors of the first or third paper.
- The .pdf of the latter paper is available at https://www.abinit.org/sites/default/files/zfk_0505-06_558-562.pdf.
- Note that it should not redistributed (Copyright by Oldenburg Wissenschaftverlag,
- the licence allows the authors to put it on the Web).
- DOI and bibtex: see https://docs.abinit.org/theory/bibliography/#gonze2005
-
- Proc.   0 individual time (sec): cpu=          3.3  wall=          5.4

================================================================================

 Calculation completed.
.Delivered  11 WARNINGs and  14 COMMENTs to log file.
+Overall time at end (sec) : cpu=          3.3  wall=          5.4
