
.Version 9.11.6.5 of ABINIT, released May 2025.
.(MPI version, prepared for a x86_64_linux_nvhpc23.9-0 computer) 

.Copyright (C) 1998-2025 ABINIT group . 
 ABINIT comes with ABSOLUTELY NO WARRANTY.
 It is free software, and you are welcome to redistribute it
 under certain conditions (GNU General Public License,
 see ~abinit/COPYING or http://www.gnu.org/copyleft/gpl.txt).

 ABINIT is a project of the Universite Catholique de Louvain,
 Corning Inc. and other collaborators, see ~abinit/doc/developers/contributors.txt .
 Please read https://docs.abinit.org/theory/acknowledgments for suggested
 acknowledgments of the ABINIT effort.
 For more information, see https://www.abinit.org .

.Starting date : Mon  7 Jul 2025.
- ( at 15h22 )
  
- input  file    -> /home/buildbot/ABINIT3/eos_nvhpc_23.9_elpa/srostami_test/tests/TestBot_MPI1/v4_t79/t79.abi
- output file    -> t79.abo
- root for input  files -> t79i
- root for output files -> t79o
 
 DATASET    1 : space group Im -3 m (#229); Bravais cI (body-center cubic)
================================================================================
 Values of the parameters that define the memory need for DATASET  1.
     intxc =       0    ionmov =       0      iscf =       7    lmnmax =       2
     lnmax =       2     mgfft =      20  mpssoang =       3    mqgrid =    3001
     natom =       1  nloc_mem =       1    nspden =       2   nspinor =       1
    nsppol =       2      nsym =      48    n1xccc =    2501    ntypat =       1
    occopt =       3   xclevel =       1
-    mband =           8        mffmem =           1         mkmem =           2
       mpw =         402          nfft =        8000          nkpt =           2
================================================================================
P This job should need less than                       5.219 Mbytes of memory.
  Rough estimation (10% accuracy) of disk space for files :
_ WF disk file :      0.198 Mbytes ; DEN or POT disk file :      0.124 Mbytes.
================================================================================
 
 DATASET    2 : space group Im -3 m (#229); Bravais cI (body-center cubic)
================================================================================
 Values of the parameters that define the memory need for DATASET  2.
     intxc =       0    ionmov =       0      iscf =      -2    lmnmax =       2
     lnmax =       2     mgfft =      20  mpssoang =       3    mqgrid =    3001
     natom =       1  nloc_mem =       1    nspden =       2   nspinor =       1
    nsppol =       2      nsym =      48    n1xccc =    2501    ntypat =       1
    occopt =       3   xclevel =       1
-    mband =           8        mffmem =           1         mkmem =           2
       mpw =         402          nfft =        8000          nkpt =           2
================================================================================
P This job should need less than                       3.266 Mbytes of memory.
  Rough estimation (10% accuracy) of disk space for files :
_ WF disk file :      0.198 Mbytes ; DEN or POT disk file :      0.124 Mbytes.
================================================================================
 
 DATASET    3 : space group Im -3 m (#229); Bravais cI (body-center cubic)
================================================================================
 Values of the parameters that define the memory need for DATASET  3 (RF).
     intxc =       0      iscf =       7    lmnmax =       2     lnmax =       2
     mgfft =      20  mpssoang =       3    mqgrid =    3001     natom =       1
  nloc_mem =       1    nspden =       2   nspinor =       1    nsppol =       2
      nsym =      48    n1xccc =    2501    ntypat =       1    occopt =       3
   xclevel =       1
-    mband =           8        mffmem =           1         mkmem =           4
-   mkqmem =           4        mk1mem =           4           mpw =         402
      nfft =        8000          nkpt =           4
================================================================================
P This job should need less than                       4.563 Mbytes of memory.
  Rough estimation (10% accuracy) of disk space for files :
_ WF disk file :      0.395 Mbytes ; DEN or POT disk file :      0.124 Mbytes.
================================================================================
 
--------------------------------------------------------------------------------
------------- Echo of variables that govern the present computation ------------
--------------------------------------------------------------------------------
-
- outvars: echo of selected default values
-   iomode0 =  3 , fftalg0 =512 , wfoptalg0 =  0
-
- outvars: echo of global parameters not present in the input file
-  max_nthreads =    1
-
 -outvars: echo values of preprocessed input variables --------
            acell      5.4200000000E+00  5.4200000000E+00  5.4200000000E+00 Bohr
              amu      5.58470000E+01
          dilatmx      1.10000000E+00
             ecut      1.80000000E+01 Hartree
-          fftalg         512
           getden1          0
           getden2         -1
           getden3          0
           getwfk1          0
           getwfk2         -1
           getwfk3         -1
             iscf1          7
             iscf2         -2
             iscf3          7
           jdtset        1    2    3
              kpt1     2.50000000E-01  2.50000000E-01  2.50000000E-01
                      -2.50000000E-01  2.50000000E-01  2.50000000E-01
              kpt2     2.50000000E-01  2.50000000E-01  2.50000000E-01
                      -2.50000000E-01  2.50000000E-01  2.50000000E-01
              kpt3     2.50000000E-01  2.50000000E-01  2.50000000E-01
                      -2.50000000E-01  2.50000000E-01  2.50000000E-01
                       2.50000000E-01 -2.50000000E-01  2.50000000E-01
                      -2.50000000E-01 -2.50000000E-01  2.50000000E-01
           kptopt1          1
           kptopt2          1
           kptopt3          2
         kptrlatt        2    0    0      0    2    0      0    0    2
          kptrlen      9.38771538E+00
P           mkmem1          2
P           mkmem2          2
P           mkmem3          4
P          mkqmem1          2
P          mkqmem2          2
P          mkqmem3          4
P          mk1mem1          2
P          mk1mem2          2
P          mk1mem3          4
            natom           1
            nband1          8
            nband2          8
            nband3          8
           nbdbuf1          0
           nbdbuf2          2
           nbdbuf3          2
           ndtset           3
            ngfft          20      20      20
             nkpt1          2
             nkpt2          2
             nkpt3          4
             nqpt1          0
             nqpt2          0
             nqpt3          1
           nspden           2
           nsppol           2
            nstep          50
             nsym          48
           ntypat           1
              occ1     1.000000  1.000000  1.000000  1.000000  0.000000  0.000000
                       0.000000  0.000000
                       1.000000  1.000000  1.000000  1.000000  0.000000  0.000000
                       0.000000  0.000000
                       1.000000  1.000000  1.000000  1.000000  0.000000  0.000000
                       0.000000  0.000000
                       1.000000  1.000000  1.000000  1.000000  0.000000  0.000000
                       0.000000  0.000000
              occ3     1.000000  1.000000  1.000000  1.000000  0.000000  0.000000
                       0.000000  0.000000
                       1.000000  1.000000  1.000000  1.000000  0.000000  0.000000
                       0.000000  0.000000
                       1.000000  1.000000  1.000000  1.000000  0.000000  0.000000
                       0.000000  0.000000
                       1.000000  1.000000  1.000000  1.000000  0.000000  0.000000
                       0.000000  0.000000
                       1.000000  1.000000  1.000000  1.000000  0.000000  0.000000
                       0.000000  0.000000
                       1.000000  1.000000  1.000000  1.000000  0.000000  0.000000
                       0.000000  0.000000
                       1.000000  1.000000  1.000000  1.000000  0.000000  0.000000
                       0.000000  0.000000
                       1.000000  1.000000  1.000000  1.000000  0.000000  0.000000
                       0.000000  0.000000
           occopt           3
        optdriver1          0
        optdriver2          0
        optdriver3          1
           prtpot1          0
           prtpot2          0
           prtpot3          1
            rfdir1          1       1       1
            rfdir2          1       1       1
            rfdir3          1       0       0
           rfstrs1          0
           rfstrs2          0
           rfstrs3          3
            rprim     -5.0000000000E-01  5.0000000000E-01  5.0000000000E-01
                       5.0000000000E-01 -5.0000000000E-01  5.0000000000E-01
                       5.0000000000E-01  5.0000000000E-01 -5.0000000000E-01
           shiftk      5.00000000E-01  5.00000000E-01  5.00000000E-01
          spgroup         229
           spinat1     0.0000000000E+00  0.0000000000E+00  4.0000000000E+00
           spinat2     0.0000000000E+00  0.0000000000E+00  0.0000000000E+00
           spinat3     0.0000000000E+00  0.0000000000E+00  0.0000000000E+00
           symrel      1  0  0   0  1  0   0  0  1      -1  0  0   0 -1  0   0  0 -1
                      -1 -1 -1   0  0  1   0  1  0       1  1  1   0  0 -1   0 -1  0
                       0  1  0   1  0  0  -1 -1 -1       0 -1  0  -1  0  0   1  1  1
                       0  0  1  -1 -1 -1   1  0  0       0  0 -1   1  1  1  -1  0  0
                       0  1  0   1  0  0   0  0  1       0 -1  0  -1  0  0   0  0 -1
                      -1 -1 -1   0  0  1   1  0  0       1  1  1   0  0 -1  -1  0  0
                       1  0  0   0  1  0  -1 -1 -1      -1  0  0   0 -1  0   1  1  1
                       0  0  1  -1 -1 -1   0  1  0       0  0 -1   1  1  1   0 -1  0
                      -1 -1 -1   1  0  0   0  0  1       1  1  1  -1  0  0   0  0 -1
                       0  1  0   0  0  1   1  0  0       0 -1  0   0  0 -1  -1  0  0
                       1  0  0  -1 -1 -1   0  1  0      -1  0  0   1  1  1   0 -1  0
                       0  0  1   0  1  0  -1 -1 -1       0  0 -1   0 -1  0   1  1  1
                       1  0  0  -1 -1 -1   0  0  1      -1  0  0   1  1  1   0  0 -1
                       0  1  0   0  0  1  -1 -1 -1       0 -1  0   0  0 -1   1  1  1
                      -1 -1 -1   1  0  0   0  1  0       1  1  1  -1  0  0   0 -1  0
                       0  0  1   0  1  0   1  0  0       0  0 -1   0 -1  0  -1  0  0
                       0  1  0  -1 -1 -1   0  0  1       0 -1  0   1  1  1   0  0 -1
                       1  0  0   0  0  1  -1 -1 -1      -1  0  0   0  0 -1   1  1  1
                      -1 -1 -1   0  1  0   1  0  0       1  1  1   0 -1  0  -1  0  0
                       0  0  1   1  0  0   0  1  0       0  0 -1  -1  0  0   0 -1  0
                      -1 -1 -1   0  1  0   0  0  1       1  1  1   0 -1  0   0  0 -1
                       1  0  0   0  0  1   0  1  0      -1  0  0   0  0 -1   0 -1  0
                       0  1  0  -1 -1 -1   1  0  0       0 -1  0   1  1  1  -1  0  0
                       0  0  1   1  0  0  -1 -1 -1       0  0 -1  -1  0  0   1  1  1
           tolvrs1     1.00000000E-10
           tolvrs2     0.00000000E+00
           tolvrs3     1.00000000E-08
           tolwfr1     0.00000000E+00
           tolwfr2     1.00000000E-08
           tolwfr3     0.00000000E+00
            typat      1
              wtk1       0.25000    0.75000
              wtk2       0.25000    0.75000
              wtk3       0.25000    0.25000    0.25000    0.25000
            znucl       26.00000
 
================================================================================
 
 chkinp: Checking input parameters for consistency, jdtset=   1.
 
 chkinp: Checking input parameters for consistency, jdtset=   2.
 
 chkinp: Checking input parameters for consistency, jdtset=   3.
 
================================================================================
== DATASET  1 ==================================================================
-   mpi_nproc: 1, omp_nthreads: 1 (-1 if OMP is not activated)
 

--- !DatasetInfo
iteration_state: {dtset: 1, }
dimensions: {natom: 1, nkpt: 2, mband: 8, nsppol: 2, nspinor: 1, nspden: 2, mpw: 402, }
cutoff_energies: {ecut:  18.0, pawecutdg:  -1.0, }
electrons: {nelect:   8.00000000E+00, charge:   0.00000000E+00, occopt:   3.00000000E+00, tsmear:   1.00000000E-02, }
meta: {optdriver: 0, ionmov: 0, optcell: 0, iscf: 7, paral_kgb: 0, }
...

 Exchange-correlation functional for the present dataset will be:
  LDA: new Teter (4/93) with spin-polarized option - ixc=1
 Citation for XC functional:
  S. Goedecker, M. Teter, J. Huetter, PRB 54, 1703 (1996)
 
 Real(R)+Recip(G) space primitive vectors, cartesian coordinates (Bohr,Bohr^-1):
 R(1)= -2.7100000  2.7100000  2.7100000  G(1)=  0.0000000  0.1845018  0.1845018
 R(2)=  2.7100000 -2.7100000  2.7100000  G(2)=  0.1845018  0.0000000  0.1845018
 R(3)=  2.7100000  2.7100000 -2.7100000  G(3)=  0.1845018  0.1845018  0.0000000
 Unit cell volume ucvol=  7.9610044E+01 bohr^3
 Angles (23,13,12)=  1.09471221E+02  1.09471221E+02  1.09471221E+02 degrees
 
 getcut: wavevector=  0.0000  0.0000  0.0000  ngfft=  20  20  20
         ecut(hartree)=     21.780   => boxcut(ratio)=   2.03324
 
--- Pseudopotential description ------------------------------------------------
- pspini: atom type   1  psp file is /home/buildbot/ABINIT3/eos_nvhpc_23.9_elpa/srostami_test/tests/Pspdir/PseudosTM_pwteter/26fe.pspnc
- pspatm: opening atomic psp file    /home/buildbot/ABINIT3/eos_nvhpc_23.9_elpa/srostami_test/tests/Pspdir/PseudosTM_pwteter/26fe.pspnc
-  Troullier-Martins psp for element  Fe        Thu Oct 27 17:35:05 EDT 1994
- 26.00000   8.00000    940714                znucl, zion, pspdat
    1    1    2    0      2001   0.00000      pspcod,pspxc,lmax,lloc,mmax,r2well
    0   4.333  10.868    0   2.2918558        l,e99.0,e99.9,nproj,rcpsp
   0.00000000   0.00000000   0.00000000   0.00000000     rms, ekb1, ekb2, epsatm
    1   1.213   4.197    1   2.8345121        l,e99.0,e99.9,nproj,rcpsp
   0.00000000   0.00000000   0.00000000   0.00000000     rms, ekb1, ekb2, epsatm
    2  18.664  23.972    1   2.2918558        l,e99.0,e99.9,nproj,rcpsp
   0.00000000   0.00000000   0.00000000   0.00000000     rms, ekb1, ekb2, epsatm
    1.56404770202776    2.06158206779471    6.88331421535388   rchrg,fchrg,qchrg
  pspatm : epsatm=   62.03296659
         --- l  ekb(1:nproj) -->
             1    1.561134
             2   -8.115829
 pspatm: atomic psp has been read  and splines computed
 
   4.96263733E+02                                ecore*ucvol(ha*bohr**3)
--------------------------------------------------------------------------------
 
_setup2: Arith. and geom. avg. npw (full set) are     391.500     391.062
 
================================================================================

--- !BeginCycle
iteration_state: {dtset: 1, }
solver: {iscf: 7, nstep: 50, nline: 4, wfoptalg: 0, }
tolerances: {tolvrs: 1.00E-10, }
...
 
     iter   Etot(hartree)      deltaE(h)  residm     vres2   difmagsph maxmagsph
 ETOT  1  -23.445956456680    -2.345E+01 5.391E-02 3.230E+03 1.892E+00 1.892E+00
 ETOT  2  -23.903547411808    -4.576E-01 6.899E-04 1.903E+03 1.291E+00 6.008E-01
 ETOT  3  -24.676247621702    -7.727E-01 2.484E-02 1.305E+01 8.713E-01 1.472E+00
 ETOT  4  -24.682847723871    -6.600E-03 3.157E-02 8.876E-01 2.643E-01 1.736E+00
 ETOT  5  -24.685947040049    -3.099E-03 2.510E-04 5.456E-01 3.497E-01 2.086E+00
 ETOT  6  -24.691326830945    -5.380E-03 1.597E-04 5.609E-02 9.126E-01 2.999E+00
 ETOT  7  -24.691106616344     2.202E-04 1.470E-05 1.354E-01 7.815E-02 2.920E+00
 ETOT  8  -24.691299247988    -1.926E-04 3.552E-05 9.419E-02 2.795E-01 3.200E+00
 ETOT  9  -24.691440969481    -1.417E-04 1.517E-06 1.491E-02 5.110E-02 3.149E+00
 ETOT 10  -24.691471306196    -3.034E-05 1.919E-06 1.741E-03 6.812E-02 3.081E+00
 ETOT 11  -24.691476860270    -5.554E-06 1.975E-07 4.925E-05 2.375E-02 3.105E+00
 ETOT 12  -24.691477009292    -1.490E-07 2.117E-09 2.180E-06 2.612E-03 3.102E+00
 ETOT 13  -24.691477014522    -5.230E-09 7.225E-11 5.107E-07 3.503E-04 3.102E+00
 ETOT 14  -24.691477016235    -1.712E-09 3.672E-11 1.089E-10 3.434E-04 3.101E+00
 ETOT 15  -24.691477016235    -2.700E-13 5.446E-12 2.446E-13 4.913E-06 3.101E+00
 
 At SCF step   15       vres2   =  2.45E-13 < tolvrs=  1.00E-10 =>converged.
 
 Cartesian components of stress tensor (hartree/bohr^3)
  sigma(1 1)=  1.61389158E-02  sigma(3 2)=  0.00000000E+00
  sigma(2 2)=  1.61389158E-02  sigma(3 1)=  0.00000000E+00
  sigma(3 3)=  1.61389158E-02  sigma(2 1)=  0.00000000E+00
 

--- !ResultsGS
iteration_state: {dtset: 1, }
comment   : Summary of ground state results
lattice_vectors:
- [ -2.7100000,   2.7100000,   2.7100000, ]
- [  2.7100000,  -2.7100000,   2.7100000, ]
- [  2.7100000,   2.7100000,  -2.7100000, ]
lattice_lengths: [   4.69386,    4.69386,    4.69386, ]
lattice_angles: [109.471, 109.471, 109.471, ] # degrees, (23, 13, 12)
lattice_volume:   7.9610044E+01
convergence: {deltae: -2.700E-13, res2:  2.446E-13, residm:  5.446E-12, diffor: null, }
etotal    :  -2.46914770E+01
entropy   :   0.00000000E+00
fermie    :  -2.62926938E-01
cartesian_stress_tensor: # hartree/bohr^3
- [  1.61389158E-02,   0.00000000E+00,   0.00000000E+00, ]
- [  0.00000000E+00,   1.61389158E-02,   0.00000000E+00, ]
- [  0.00000000E+00,   0.00000000E+00,   1.61389158E-02, ]
pressure_GPa:  -4.7482E+02
xred      :
- [  0.0000E+00,   0.0000E+00,   0.0000E+00, Fe]
cartesian_forces: # hartree/bohr
- [ -0.00000000E+00,  -0.00000000E+00,  -0.00000000E+00, ]
force_length_stats: {min:   0.00000000E+00, max:   0.00000000E+00, mean:   0.00000000E+00, }
...

 Integrated electronic and magnetization densities in atomic spheres:
 ---------------------------------------------------------------------
 Radius=ratsph(iatom), smearing ratsm=  0.0000. Diff(up-dn)=approximate z local magnetic moment.
 Atom    Radius    up_density   dn_density  Total(up+dn)  Diff(up-dn)
    1   2.00000     4.574615     1.473416      6.048031     3.101199
 ---------------------------------------------------------------------
  Sum:              4.574615     1.473416      6.048031     3.101199
 Total magnetization (from the atomic spheres):             3.101199
 Total magnetization (exact up - dn):                       3.306436
 
================================================================================
 
 ----iterations are completed or convergence reached----
 
 Mean square residual over all n,k,spin=   67.403E-14; max=  54.455E-13
 reduced coordinates (array xred) for    1 atoms
       0.000000000000      0.000000000000      0.000000000000
 rms dE/dt=  0.0000E+00; max dE/dt=  0.0000E+00; dE/dt below (all hartree)
    1       0.000000000000      0.000000000000      0.000000000000
 
 cartesian coordinates (angstrom) at end:
    1      0.00000000000000     0.00000000000000     0.00000000000000
 
 cartesian forces (hartree/bohr) at end:
    1     -0.00000000000000    -0.00000000000000    -0.00000000000000
 frms,max,avg= 0.0000000E+00 0.0000000E+00   0.000E+00  0.000E+00  0.000E+00 h/b
 
 cartesian forces (eV/Angstrom) at end:
    1     -0.00000000000000    -0.00000000000000    -0.00000000000000
 frms,max,avg= 0.0000000E+00 0.0000000E+00   0.000E+00  0.000E+00  0.000E+00 e/A
 length scales=  5.420000000000  5.420000000000  5.420000000000 bohr
              =  2.868140470558  2.868140470558  2.868140470558 angstroms
 prteigrs : about to open file t79o_DS1_EIG
 Fermi (or HOMO) energy (hartree) =  -0.26293   Average Vxc (hartree)=  -0.51533
 Magnetization (Bohr magneton)=  3.30643563E+00
 Total spin up =  5.65321781E+00   Total spin down =  2.34678219E+00
 Eigenvalues (hartree) for nkpt=   2  k points, SPIN UP:
 kpt#   1, nband=  8, wtk=  0.25000, kpt=  0.2500  0.2500  0.2500 (reduced coord)
  -0.42354   -0.42354   -0.42354   -0.32498   -0.32498    0.02551    0.02551    0.02551
      occupation numbers for kpt#   1
   1.00000    1.00000    1.00000    0.99799    0.99799    0.00000    0.00000    0.00000
 prteigrs : prtvol=0 or 1, do not print more k-points.
 
 Eigenvalues (hartree) for nkpt=   2  k points, SPIN DOWN:
 kpt#   1, nband=  8, wtk=  0.25000, kpt=  0.2500  0.2500  0.2500 (reduced coord)
  -0.32720   -0.32720   -0.32720   -0.19969   -0.19969    0.09176    0.09176    0.09176
      occupation numbers for kpt#   1
   0.99839    0.99839    0.99839    0.00179    0.00179    0.00000    0.00000    0.00000
 prteigrs : prtvol=0 or 1, do not print more k-points.
 

--- !EnergyTerms
iteration_state     : {dtset: 1, }
comment             : Components of total free energy in Hartree
kinetic             :  2.46230735264933E+01
hartree             :  2.49107531034146E+00
xc                  : -1.05367761982247E+01
Ewald energy        : -2.14862491483900E+01
psp_core            :  6.23368243229683E+00
local_psp           :  2.08991424646829E+00
non_local_psp       : -2.80934782062427E+01
internal            : -2.46787580372576E+01
'-kT*entropy'       : -1.27189789775429E-02
total_energy        : -2.46914770162351E+01
total_energy_eV     : -6.71889259159141E+02
band_energy         : -2.88874099953907E+00
...

 
 Cartesian components of stress tensor (hartree/bohr^3)
  sigma(1 1)=  1.61389158E-02  sigma(3 2)=  0.00000000E+00
  sigma(2 2)=  1.61389158E-02  sigma(3 1)=  0.00000000E+00
  sigma(3 3)=  1.61389158E-02  sigma(2 1)=  0.00000000E+00
 
-Cartesian components of stress tensor (GPa)         [Pressure= -4.7482E+02 GPa]
- sigma(1 1)=  4.74823217E+02  sigma(3 2)=  0.00000000E+00
- sigma(2 2)=  4.74823217E+02  sigma(3 1)=  0.00000000E+00
- sigma(3 3)=  4.74823217E+02  sigma(2 1)=  0.00000000E+00
 
================================================================================
== DATASET  2 ==================================================================
-   mpi_nproc: 1, omp_nthreads: 1 (-1 if OMP is not activated)
 

--- !DatasetInfo
iteration_state: {dtset: 2, }
dimensions: {natom: 1, nkpt: 2, mband: 8, nsppol: 2, nspinor: 1, nspden: 2, mpw: 402, }
cutoff_energies: {ecut:  18.0, pawecutdg:  -1.0, }
electrons: {nelect:   8.00000000E+00, charge:   0.00000000E+00, occopt:   3.00000000E+00, tsmear:   1.00000000E-02, }
meta: {optdriver: 0, ionmov: 0, optcell: 0, iscf: -2, paral_kgb: 0, }
...

 mkfilename : getwfk/=0, take file _WFK from output of DATASET   1.
 
 mkfilename : getden/=0, take file _DEN from output of DATASET   1.
 
 Exchange-correlation functional for the present dataset will be:
  LDA: new Teter (4/93) with spin-polarized option - ixc=1
 Citation for XC functional:
  S. Goedecker, M. Teter, J. Huetter, PRB 54, 1703 (1996)
 
 Real(R)+Recip(G) space primitive vectors, cartesian coordinates (Bohr,Bohr^-1):
 R(1)= -2.7100000  2.7100000  2.7100000  G(1)=  0.0000000  0.1845018  0.1845018
 R(2)=  2.7100000 -2.7100000  2.7100000  G(2)=  0.1845018  0.0000000  0.1845018
 R(3)=  2.7100000  2.7100000 -2.7100000  G(3)=  0.1845018  0.1845018  0.0000000
 Unit cell volume ucvol=  7.9610044E+01 bohr^3
 Angles (23,13,12)=  1.09471221E+02  1.09471221E+02  1.09471221E+02 degrees
 
 getcut: wavevector=  0.0000  0.0000  0.0000  ngfft=  20  20  20
         ecut(hartree)=     21.780   => boxcut(ratio)=   2.03324
--------------------------------------------------------------------------------
 
-inwffil : will read wavefunctions from disk file t79o_DS1_WFK.nc
 
================================================================================
 prteigrs : about to open file t79o_DS2_EIG
 
 SPIN UP channel
 Non-SCF case, kpt    1 (  0.25000  0.25000  0.25000), residuals and eigenvalues=
  1.68E-17  1.75E-17  1.72E-17  4.07E-17  4.53E-17  1.37E-14  7.49E-14  1.16E-14
 -4.2354E-01 -4.2354E-01 -4.2354E-01 -3.2498E-01 -3.2498E-01  2.5514E-02
  2.5514E-02  2.5514E-02
 prteigrs : prtvol=0 or 1, do not print more k-points.
 
 
 SPIN DOWN channel
 Non-SCF case, kpt    1 (  0.25000  0.25000  0.25000), residuals and eigenvalues=
  1.79E-17  1.71E-17  1.80E-17  1.04E-16  3.99E-17  1.32E-12  8.71E-12  5.31E-12
 -3.2720E-01 -3.2720E-01 -3.2720E-01 -1.9969E-01 -1.9969E-01  9.1762E-02
  9.1762E-02  9.1762E-02
 prteigrs : prtvol=0 or 1, do not print more k-points.
 
 

--- !ResultsGS
iteration_state: {dtset: 2, }
comment   : Summary of ground state results
lattice_vectors:
- [ -2.7100000,   2.7100000,   2.7100000, ]
- [  2.7100000,  -2.7100000,   2.7100000, ]
- [  2.7100000,   2.7100000,  -2.7100000, ]
lattice_lengths: [   4.69386,    4.69386,    4.69386, ]
lattice_angles: [109.471, 109.471, 109.471, ] # degrees, (23, 13, 12)
lattice_volume:   7.9610044E+01
convergence: {deltae:  0.000E+00, res2:  0.000E+00, residm:  1.324E-12, diffor:  0.000E+00, }
etotal    :  -2.46914770E+01
entropy   :   0.00000000E+00
fermie    :  -2.62926938E-01
cartesian_stress_tensor: null
pressure_GPa: null
xred      :
- [  0.0000E+00,   0.0000E+00,   0.0000E+00, Fe]
cartesian_forces: null
force_length_stats: {min: null, max: null, mean: null, }
...

 Integrated electronic and magnetization densities in atomic spheres:
 ---------------------------------------------------------------------
 Radius=ratsph(iatom), smearing ratsm=  0.0000. Diff(up-dn)=approximate z local magnetic moment.
 Atom    Radius    up_density   dn_density  Total(up+dn)  Diff(up-dn)
    1   2.00000     4.574615     1.473416      6.048031     3.101199
 ---------------------------------------------------------------------
  Sum:              4.574615     1.473416      6.048031     3.101199
 Total magnetization (from the atomic spheres):             3.101199
 Total magnetization (exact up - dn):                       3.306436
 
================================================================================
 
 ----iterations are completed or convergence reached----
 
 Mean square residual over all n,k,spin=   55.828E-15; max=  13.243E-13
 reduced coordinates (array xred) for    1 atoms
       0.000000000000      0.000000000000      0.000000000000
 
 cartesian coordinates (angstrom) at end:
    1      0.00000000000000     0.00000000000000     0.00000000000000
 length scales=  5.420000000000  5.420000000000  5.420000000000 bohr
              =  2.868140470558  2.868140470558  2.868140470558 angstroms
 prteigrs : about to open file t79o_DS2_EIG
 Eigenvalues (hartree) for nkpt=   2  k points, SPIN UP:
 kpt#   1, nband=  8, wtk=  0.25000, kpt=  0.2500  0.2500  0.2500 (reduced coord)
  -0.42354   -0.42354   -0.42354   -0.32498   -0.32498    0.02551    0.02551    0.02551
 prteigrs : prtvol=0 or 1, do not print more k-points.
 
 Eigenvalues (hartree) for nkpt=   2  k points, SPIN DOWN:
 kpt#   1, nband=  8, wtk=  0.25000, kpt=  0.2500  0.2500  0.2500 (reduced coord)
  -0.32720   -0.32720   -0.32720   -0.19969   -0.19969    0.09176    0.09176    0.09176
 prteigrs : prtvol=0 or 1, do not print more k-points.
 
 
================================================================================
== DATASET  3 ==================================================================
-   mpi_nproc: 1, omp_nthreads: 1 (-1 if OMP is not activated)
 

--- !DatasetInfo
iteration_state: {dtset: 3, }
dimensions: {natom: 1, nkpt: 4, mband: 8, nsppol: 2, nspinor: 1, nspden: 2, mpw: 402, }
cutoff_energies: {ecut:  18.0, pawecutdg:  -1.0, }
electrons: {nelect:   8.00000000E+00, charge:   0.00000000E+00, occopt:   3.00000000E+00, tsmear:   1.00000000E-02, }
meta: {optdriver: 1, rfstrs: 3, }
...

 mkfilename : getwfk/=0, take file _WFK from output of DATASET   2.
 
 Exchange-correlation functional for the present dataset will be:
  LDA: new Teter (4/93) with spin-polarized option - ixc=1
 Citation for XC functional:
  S. Goedecker, M. Teter, J. Huetter, PRB 54, 1703 (1996)
 
 Real(R)+Recip(G) space primitive vectors, cartesian coordinates (Bohr,Bohr^-1):
 R(1)= -2.7100000  2.7100000  2.7100000  G(1)=  0.0000000  0.1845018  0.1845018
 R(2)=  2.7100000 -2.7100000  2.7100000  G(2)=  0.1845018  0.0000000  0.1845018
 R(3)=  2.7100000  2.7100000 -2.7100000  G(3)=  0.1845018  0.1845018  0.0000000
 Unit cell volume ucvol=  7.9610044E+01 bohr^3
 Angles (23,13,12)=  1.09471221E+02  1.09471221E+02  1.09471221E+02 degrees
 setup1 : take into account q-point for computing boxcut.
 
 getcut: wavevector=  0.0000  0.0000  0.0000  ngfft=  20  20  20
         ecut(hartree)=     21.780   => boxcut(ratio)=   2.03324
--------------------------------------------------------------------------------
 
 symkchk : k-point set has full space-group symmetry.
 
 ==>  initialize data related to q vector <== 
 
 The list of irreducible perturbations for this q vector is:
    1)    idir= 1    ipert=   4
    2)    idir= 1    ipert=   5
 
================================================================================
 
--------------------------------------------------------------------------------
 Perturbation wavevector (in red.coord.)   0.000000  0.000000  0.000000
 Found    16 symmetries that leave the perturbation invariant.
 symkpt : the number of k-points, thanks to the symmetries,
 is reduced to     3 .
 
--------------------------------------------------------------------------------
 
--------------------------------------------------------------------------------
 
 dfpt_looppert : total number of electrons, from k and k+q
  fully or partially occupied states are    8.000000E+00 and    8.000000E+00.
 Initialisation of the first-order wave-functions :
  ireadwf=   0

--- !BeginCycle
iteration_state: {dtset: 3, }
solver: {iscf: 7, nstep: 50, nline: 4, wfoptalg: 0, }
tolerances: {tolvrs: 1.00E-08, }
...
 
     iter   2DEtotal(Ha)        deltaE(Ha) residm    vres2    difmagsph maxmagsph
-ETOT  1   14.569502088329     -6.619E+01 1.703E-01 5.639E+03 1.985E+00 1.985E+00
 ETOT  2   11.417412417696     -3.152E+00 8.736E-02 1.822E+03 5.801E-01 2.565E+00
 ETOT  3   9.9416043005509     -1.476E+00 8.796E-03 4.240E+00 3.455E-01 2.911E+00
 ETOT  4   9.9322723933418     -9.332E-03 1.567E-04 6.539E-01 2.643E-01 3.175E+00
 ETOT  5   9.9294818146930     -2.791E-03 5.216E-06 1.152E-01 1.624E-01 3.338E+00
 ETOT  6   9.9285831680748     -8.986E-04 7.442E-07 2.148E-03 1.523E-01 3.490E+00
 ETOT  7   9.9285654128113     -1.776E-05 1.677E-08 9.935E-06 2.407E-02 3.514E+00
 ETOT  8   9.9285653911436     -2.167E-08 6.044E-10 1.645E-07 6.846E-04 3.515E+00
 ETOT  9   9.9285653909676     -1.760E-10 7.924E-13 1.743E-09 4.265E-05 3.515E+00
 
 At SCF step    9       vres2   =  1.74E-09 < tolvrs=  1.00E-08 =>converged.
 Integrated electronic and magnetization densities in atomic spheres:
 ---------------------------------------------------------------------
 Radius=ratsph(iatom), smearing ratsm=  0.0000. Diff(up-dn)=approximate z local magnetic moment.
 Atom    Radius    up_density   dn_density  Total(up+dn)  Diff(up-dn)
    1   2.00000     2.012154    -1.502655      0.509499     3.514808
 ---------------------------------------------------------------------
  Sum:              2.012154    -1.502655      0.509499     3.514808
 Total magnetization (from the atomic spheres):             3.514808
 Total magnetization (exact up - dn):                       3.760094
 
================================================================================
 
 ----iterations are completed or convergence reached----
 
 Mean square residual over all n,k,spin=   66.988E-15; max=  79.240E-14
 
 Seventeen components of 2nd-order total energy (hartree) are
 1,2,3: 0th-order hamiltonian combined with 1st-order wavefunctions
     kin0=   6.81854052E+01 eigvalue=   3.56220593E+00  local=  -3.93933734E-01
 4,5,6,7: 1st-order hamiltonian combined with 1st and 0th-order wfs
 loc psp =   1.91330988E-01  Hartree=   5.08082559E+00     xc=  -1.57792923E+00
     kin1=  -5.34976425E+01
 8,9,10: eventually, occupation + non-local contributions
    edocc=   1.98791440E+00     enl0=  -4.87730464E+00   enl1=  -8.94959275E+01
 1-10 gives the relaxation energy (to be shifted if some occ is /=2.0)
   erelax=  -7.08350554E+01
 11,12,13 Non-relaxation  contributions : frozen-wavefunctions and Ewald
  fr.hart=  -6.57402563E-01   fr.kin=   3.28307648E+01 fr.loc=  -3.45652878E+00
 14,15,16 Non-relaxation  contributions : frozen-wavefunctions and Ewald
  fr.nonl=   4.71007861E+01    fr.xc=   3.16629334E-01  Ewald=  -1.60431044E+00
 17 Non-relaxation  contributions : pseudopotential core energy
  pspcore=   6.23368243E+00
 Resulting in :
 2DEtotal=    0.9928565391E+01 Ha. Also 2DEtotal=    0.270170004033E+03 eV
    (2DErelax=   -7.0835055436E+01 Ha. 2DEnonrelax=    8.0763620827E+01 Ha)
    (  non-var. 2DEtotal :    9.9285660035E+00 Ha)
 
 
--------------------------------------------------------------------------------
 Perturbation wavevector (in red.coord.)   0.000000  0.000000  0.000000
 Found     8 symmetries that leave the perturbation invariant.
 symkpt : the number of k-points, thanks to the symmetries,
 is reduced to     3 .
 
--------------------------------------------------------------------------------
 
--------------------------------------------------------------------------------
 
 dfpt_looppert : total number of electrons, from k and k+q
  fully or partially occupied states are    8.000000E+00 and    8.000000E+00.
 Initialisation of the first-order wave-functions :
  ireadwf=   0

--- !BeginCycle
iteration_state: {dtset: 3, }
solver: {iscf: 7, nstep: 50, nline: 4, wfoptalg: 0, }
tolerances: {tolvrs: 1.00E-08, }
...
 
     iter   2DEtotal(Ha)        deltaE(Ha) residm    vres2    difmagsph maxmagsph
-ETOT  1   6.7741892003534     -4.072E+01 1.210E+00 2.899E+03 2.964E-07 2.964E-07
 ETOT  2   4.6679167929911     -2.106E+00 2.790E-02 5.010E+02 7.263E-08 2.238E-07
 ETOT  3   4.1459934412491     -5.219E-01 1.657E-03 2.047E+00 1.576E-08 2.395E-07
 ETOT  4   4.1426631500621     -3.330E-03 1.038E-04 3.776E-01 1.059E-10 2.397E-07
 ETOT  5   4.1424102688217     -2.529E-04 2.354E-06 6.341E-04 4.519E-09 2.351E-07
 ETOT  6   4.1424095057048     -7.631E-07 1.242E-06 2.305E-06 3.611E-08 2.712E-07
 ETOT  7   4.1424095030716     -2.633E-09 2.744E-07 1.725E-07 5.617E-08 2.151E-07
 ETOT  8   4.1424095029297     -1.419E-10 1.330E-07 2.286E-10 2.892E-09 2.122E-07
 
 At SCF step    8       vres2   =  2.29E-10 < tolvrs=  1.00E-08 =>converged.
 Integrated electronic and magnetization densities in atomic spheres:
 ---------------------------------------------------------------------
 Radius=ratsph(iatom), smearing ratsm=  0.0000. Diff(up-dn)=approximate z local magnetic moment.
 Atom    Radius    up_density   dn_density  Total(up+dn)  Diff(up-dn)
    1   2.00000     0.000000    -0.000000     -0.000000     0.000000
 ---------------------------------------------------------------------
  Sum:              0.000000    -0.000000     -0.000000     0.000000
 Total magnetization (from the atomic spheres):             0.000000
 Total magnetization (exact up - dn):                       0.000000
 
================================================================================
 
 ----iterations are completed or convergence reached----
 
 Mean square residual over all n,k,spin=   36.953E-10; max=  13.295E-08
 
 Seventeen components of 2nd-order total energy (hartree) are
 1,2,3: 0th-order hamiltonian combined with 1st-order wavefunctions
     kin0=   3.98315156E+01 eigvalue=   2.17443531E+00  local=  -5.65041701E-01
 4,5,6,7: 1st-order hamiltonian combined with 1st and 0th-order wfs
 loc psp =  -8.19414667E-01  Hartree=   6.19400274E+00     xc=  -8.89564833E-01
     kin1=  -2.52096000E+01
 8,9,10: eventually, occupation + non-local contributions
    edocc=   6.42687838E-01     enl0=  -5.96448599E-01   enl1=  -6.41108186E+01
 1-10 gives the relaxation energy (to be shifted if some occ is /=2.0)
   erelax=  -4.33482469E+01
 11,12,13 Non-relaxation  contributions : frozen-wavefunctions and Ewald
  fr.hart=  -8.64779398E-02   fr.kin=   1.64153824E+01 fr.loc=  -5.10761388E+00
 14,15,16 Non-relaxation  contributions : frozen-wavefunctions and Ewald
  fr.nonl=   3.14177637E+01    fr.xc=   4.68405450E-01  Ewald=   4.38319674E+00
 17 Non-relaxation  contributions : pseudopotential core energy
  pspcore=   0.00000000E+00
 Resulting in :
 2DEtotal=    0.4142409503E+01 Ha. Also 2DEtotal=    0.112720695090E+03 eV
    (2DErelax=   -4.3348246919E+01 Ha. 2DEnonrelax=    4.7490656422E+01 Ha)
    (  non-var. 2DEtotal :    4.1424091045E+00 Ha)
 
================================================================================
 
 ---- first-order wavefunction calculations are completed ----
 
 
 ==> Compute Derivative Database <==
  
  2nd-order matrix (non-cartesian coordinates, masses not included,
   asr not included )
  cartesian coordinates for strain terms (1/ucvol factor 
   for elastic tensor components not included) 
     j1       j2             matrix element
  dir pert dir pert     real part     imaginary part
  
   1    1   2    3         0.0000000000         0.0000000000
   1    1   3    3         0.0000000000         0.0000000000
   1    1   1    4         0.0000000001         0.0000000000
   1    1   1    5         0.0000000002         0.0000000000
  
   2    1   1    3         0.0000000000         0.0000000000
   2    1   3    3         0.0000000000         0.0000000000
   2    1   1    4         0.0000000010         0.0000000000
   2    1   1    5         0.0000000008         0.0000000000
  
   3    1   1    3         0.0000000000         0.0000000000
   3    1   2    3         0.0000000000         0.0000000000
   3    1   1    4        -0.0000000008         0.0000000000
   3    1   1    5        -0.0000000010         0.0000000000
  
   1    3   2    1         0.0000000000         0.0000000000
   1    3   3    1         0.0000000000         0.0000000000
  
   2    3   1    1         0.0000000000         0.0000000000
   2    3   3    1         0.0000000000         0.0000000000
  
   3    3   1    1         0.0000000000         0.0000000000
   3    3   2    1         0.0000000000         0.0000000000
  
   1    4   1    4         9.9285660035         0.0000000000
   1    4   1    5        -0.0000000490         0.0000000000
  
   2    4   1    4         3.0755474446         0.0000000000
   2    4   1    5         0.0000000162         0.0000000000
  
   3    4   1    4         3.0755474449         0.0000000000
   3    4   1    5         0.0000000161         0.0000000000
  
   1    5   1    4         0.0000000011         0.0000000000
   1    5   1    5         4.1424091045         0.0000000000
  
   2    5   1    4        -0.0000000027         0.0000000000
   2    5   1    5         0.0000000040         0.0000000000
  
   3    5   1    4         0.0000000056         0.0000000000
   3    5   1    5        -0.0000000020         0.0000000000
  
  
  Rigid-atom elastic tensor , in cartesian coordinates,
     j1       j2             matrix element
  dir pert dir pert     real part    imaginary part
  
   1    4   1    4         0.1247149920         0.0000000000
   1    4   1    5        -0.0000000006         0.0000000000
  
   2    4   1    4         0.0386326560         0.0000000000
   2    4   1    5         0.0000000002         0.0000000000
  
   3    4   1    4         0.0386326560         0.0000000000
   3    4   1    5         0.0000000002         0.0000000000
  
   1    5   1    4         0.0000000000         0.0000000000
   1    5   1    5         0.0520337497         0.0000000000
  
   2    5   1    4        -0.0000000000         0.0000000000
   2    5   1    5         0.0000000001         0.0000000000
  
   3    5   1    4         0.0000000001         0.0000000000
   3    5   1    5        -0.0000000000         0.0000000000
  
  Internal strain coupling parameters, in cartesian coordinates,
   zero average net force deriv. has been imposed  
     j1       j2             matrix element
  dir pert dir pert     real part    imaginary part
  
   1    1   1    4         0.0000000000         0.0000000000
   1    1   1    5         0.0000000000         0.0000000000
  
   2    1   1    4         0.0000000000         0.0000000000
   2    1   1    5         0.0000000000         0.0000000000
  
   3    1   1    4         0.0000000000         0.0000000000
   3    1   1    5         0.0000000000         0.0000000000
 
== END DATASET(S) ==============================================================
================================================================================
  
 -outvars: echo values of variables after computation  --------
            acell      5.4200000000E+00  5.4200000000E+00  5.4200000000E+00 Bohr
              amu      5.58470000E+01
          dilatmx      1.10000000E+00
             ecut      1.80000000E+01 Hartree
           etotal1    -2.4691477016E+01
           etotal3     4.1424095029E+00
            fcart1    -0.0000000000E+00 -0.0000000000E+00 -0.0000000000E+00
            fcart3     0.0000000000E+00  0.0000000000E+00  0.0000000000E+00
-          fftalg         512
           getden1          0
           getden2         -1
           getden3          0
           getwfk1          0
           getwfk2         -1
           getwfk3         -1
             iscf1          7
             iscf2         -2
             iscf3          7
           jdtset        1    2    3
              kpt1     2.50000000E-01  2.50000000E-01  2.50000000E-01
                      -2.50000000E-01  2.50000000E-01  2.50000000E-01
              kpt2     2.50000000E-01  2.50000000E-01  2.50000000E-01
                      -2.50000000E-01  2.50000000E-01  2.50000000E-01
              kpt3     2.50000000E-01  2.50000000E-01  2.50000000E-01
                      -2.50000000E-01  2.50000000E-01  2.50000000E-01
                       2.50000000E-01 -2.50000000E-01  2.50000000E-01
                      -2.50000000E-01 -2.50000000E-01  2.50000000E-01
           kptopt1          1
           kptopt2          1
           kptopt3          2
         kptrlatt        2    0    0      0    2    0      0    0    2
          kptrlen      9.38771538E+00
P           mkmem1          2
P           mkmem2          2
P           mkmem3          4
P          mkqmem1          2
P          mkqmem2          2
P          mkqmem3          4
P          mk1mem1          2
P          mk1mem2          2
P          mk1mem3          4
            natom           1
            nband1          8
            nband2          8
            nband3          8
           nbdbuf1          0
           nbdbuf2          2
           nbdbuf3          2
           ndtset           3
            ngfft          20      20      20
             nkpt1          2
             nkpt2          2
             nkpt3          4
             nqpt1          0
             nqpt2          0
             nqpt3          1
           nspden           2
           nsppol           2
            nstep          50
             nsym          48
           ntypat           1
              occ1     1.000000  1.000000  1.000000  0.997986  0.997986  0.000000
                       0.000000  0.000000
                       1.000000  0.999994  0.999950  0.999950  0.999088  0.873318
                       0.000000  0.000000
                       0.998386  0.998386  0.998386  0.001789  0.001789  0.000000
                       0.000000  0.000000
                       1.000000  0.842376  0.141648  0.141648  0.003700  0.000092
                       0.000000  0.000000
              occ3     1.000000  1.000000  1.000000  0.997986  0.997986  0.000000
                       0.000000  0.000000
                       1.000000  0.999994  0.999950  0.999950  0.999088  0.873318
                       0.000000  0.000000
                       1.000000  0.999994  0.999950  0.999950  0.999088  0.873318
                       0.000000  0.000000
                       1.000000  0.999994  0.999950  0.999950  0.999088  0.873318
                       0.000000  0.000000
                       0.998386  0.998386  0.998386  0.001789  0.001789  0.000000
                       0.000000  0.000000
                       1.000000  0.842376  0.141648  0.141648  0.003700  0.000092
                       0.000000  0.000000
                       1.000000  0.842376  0.141648  0.141648  0.003700  0.000092
                       0.000000  0.000000
                       1.000000  0.842376  0.141648  0.141648  0.003700  0.000092
                       0.000000  0.000000
           occopt           3
        optdriver1          0
        optdriver2          0
        optdriver3          1
           prtpot1          0
           prtpot2          0
           prtpot3          1
            rfdir1          1       1       1
            rfdir2          1       1       1
            rfdir3          1       0       0
           rfstrs1          0
           rfstrs2          0
           rfstrs3          3
            rprim     -5.0000000000E-01  5.0000000000E-01  5.0000000000E-01
                       5.0000000000E-01 -5.0000000000E-01  5.0000000000E-01
                       5.0000000000E-01  5.0000000000E-01 -5.0000000000E-01
           shiftk      5.00000000E-01  5.00000000E-01  5.00000000E-01
          spgroup         229
           spinat1     0.0000000000E+00  0.0000000000E+00  4.0000000000E+00
           spinat2     0.0000000000E+00  0.0000000000E+00  0.0000000000E+00
           spinat3     0.0000000000E+00  0.0000000000E+00  0.0000000000E+00
           strten1     1.6138915816E-02  1.6138915816E-02  1.6138915816E-02
                       0.0000000000E+00  0.0000000000E+00  0.0000000000E+00
           strten3     0.0000000000E+00  0.0000000000E+00  0.0000000000E+00
                       0.0000000000E+00  0.0000000000E+00  0.0000000000E+00
           symrel      1  0  0   0  1  0   0  0  1      -1  0  0   0 -1  0   0  0 -1
                      -1 -1 -1   0  0  1   0  1  0       1  1  1   0  0 -1   0 -1  0
                       0  1  0   1  0  0  -1 -1 -1       0 -1  0  -1  0  0   1  1  1
                       0  0  1  -1 -1 -1   1  0  0       0  0 -1   1  1  1  -1  0  0
                       0  1  0   1  0  0   0  0  1       0 -1  0  -1  0  0   0  0 -1
                      -1 -1 -1   0  0  1   1  0  0       1  1  1   0  0 -1  -1  0  0
                       1  0  0   0  1  0  -1 -1 -1      -1  0  0   0 -1  0   1  1  1
                       0  0  1  -1 -1 -1   0  1  0       0  0 -1   1  1  1   0 -1  0
                      -1 -1 -1   1  0  0   0  0  1       1  1  1  -1  0  0   0  0 -1
                       0  1  0   0  0  1   1  0  0       0 -1  0   0  0 -1  -1  0  0
                       1  0  0  -1 -1 -1   0  1  0      -1  0  0   1  1  1   0 -1  0
                       0  0  1   0  1  0  -1 -1 -1       0  0 -1   0 -1  0   1  1  1
                       1  0  0  -1 -1 -1   0  0  1      -1  0  0   1  1  1   0  0 -1
                       0  1  0   0  0  1  -1 -1 -1       0 -1  0   0  0 -1   1  1  1
                      -1 -1 -1   1  0  0   0  1  0       1  1  1  -1  0  0   0 -1  0
                       0  0  1   0  1  0   1  0  0       0  0 -1   0 -1  0  -1  0  0
                       0  1  0  -1 -1 -1   0  0  1       0 -1  0   1  1  1   0  0 -1
                       1  0  0   0  0  1  -1 -1 -1      -1  0  0   0  0 -1   1  1  1
                      -1 -1 -1   0  1  0   1  0  0       1  1  1   0 -1  0  -1  0  0
                       0  0  1   1  0  0   0  1  0       0  0 -1  -1  0  0   0 -1  0
                      -1 -1 -1   0  1  0   0  0  1       1  1  1   0 -1  0   0  0 -1
                       1  0  0   0  0  1   0  1  0      -1  0  0   0  0 -1   0 -1  0
                       0  1  0  -1 -1 -1   1  0  0       0 -1  0   1  1  1  -1  0  0
                       0  0  1   1  0  0  -1 -1 -1       0  0 -1  -1  0  0   1  1  1
           tolvrs1     1.00000000E-10
           tolvrs2     0.00000000E+00
           tolvrs3     1.00000000E-08
           tolwfr1     0.00000000E+00
           tolwfr2     1.00000000E-08
           tolwfr3     0.00000000E+00
            typat      1
              wtk1       0.25000    0.75000
              wtk2       0.25000    0.75000
              wtk3       0.25000    0.25000    0.25000    0.25000
            znucl       26.00000
 
================================================================================


- Timing analysis has been suppressed with timopt=0



================================================================================

 Suggested references for the acknowledgment of ABINIT usage.

 The users of ABINIT have little formal obligations with respect to the ABINIT group
 (those specified in the GNU General Public License, http://www.gnu.org/copyleft/gpl.txt).
 However, it is common practice in the scientific literature,
 to acknowledge the efforts of people that have made the research possible.
 In this spirit, please find below suggested citations of work written by ABINIT developers,
 corresponding to implementations inside of ABINIT that you have used in the present run.
 Note also that it will be of great value to readers of publications presenting these results,
 to read papers enabling them to understand the theoretical formalism and details
 of the ABINIT implementation.
 For information on why they are suggested, see also https://docs.abinit.org/theory/acknowledgments.
-
- [1] Specification of an extensible and portable file format for electronic structure and crystallographic data
- X. Gonze, C.-O. Almbladh, A. Cucca, D. Caliste, C. Freysoldt, M. Marques, V. Olevano, Y. Pouillon, M.J. Verstraete,
- Comput. Material Science 43, 1056 (2008).
- Comment: to be cited in case the ETSF_IO file format is used, i.e. iomode=3.
- DOI and bibtex: see https://docs.abinit.org/theory/bibliography/#gonze2008
-
- [2] Metric tensor formulation of strain in density-functional perturbation theory, 
- D. R. Hamann, X. Wu, K. M. Rabe, and D. Vanderbilt, Phys. Rev. B71, 035117 (2005).
- Comment: Non-vanishing rfstrs. Strong suggestion to cite this paper in your publications.
- DOI and bibtex: see https://docs.abinit.org/theory/bibliography/#hamann2005
-
- [3] The Abinit project: Impact, environment and recent developments.
- Computer Phys. Comm. 248, 107042 (2020).
- X.Gonze, B. Amadon, G. Antonius, F.Arnardi, L.Baguet, J.-M.Beuken,
- J.Bieder, F.Bottin, J.Bouchet, E.Bousquet, N.Brouwer, F.Bruneval,
- G.Brunin, T.Cavignac, J.-B. Charraud, Wei Chen, M.Cote, S.Cottenier,
- J.Denier, G.Geneste, Ph.Ghosez, M.Giantomassi, Y.Gillet, O.Gingras,
- D.R.Hamann, G.Hautier, Xu He, N.Helbig, N.Holzwarth, Y.Jia, F.Jollet,
- W.Lafargue-Dit-Hauret, K.Lejaeghere, M.A.L.Marques, A.Martin, C.Martins,
- H.P.C. Miranda, F.Naccarato, K. Persson, G.Petretto, V.Planes, Y.Pouillon,
- S.Prokhorenko, F.Ricci, G.-M.Rignanese, A.H.Romero, M.M.Schmitt, M.Torrent,
- M.J.van Setten, B.Van Troeye, M.J.Verstraete, G.Zerah and J.W.Zwanzig
- Comment: the fifth generic paper describing the ABINIT project.
- Note that a version of this paper, that is not formatted for Computer Phys. Comm. 
- is available at https://www.abinit.org/sites/default/files/ABINIT20.pdf .
- The licence allows the authors to put it on the Web.
- DOI and bibtex: see https://docs.abinit.org/theory/bibliography/#gonze2020
-
- [4] ABINIT: Overview, and focus on selected capabilities
- J. Chem. Phys. 152, 124102 (2020).
- A. Romero, D.C. Allan, B. Amadon, G. Antonius, T. Applencourt, L.Baguet,
- J.Bieder, F.Bottin, J.Bouchet, E.Bousquet, F.Bruneval,
- G.Brunin, D.Caliste, M.Cote,
- J.Denier, C. Dreyer, Ph.Ghosez, M.Giantomassi, Y.Gillet, O.Gingras,
- D.R.Hamann, G.Hautier, F.Jollet, G. Jomard,
- A.Martin, 
- H.P.C. Miranda, F.Naccarato, G.Petretto, N.A. Pike, V.Planes,
- S.Prokhorenko, T. Rangel, F.Ricci, G.-M.Rignanese, M.Royo, M.Stengel, M.Torrent,
- M.J.van Setten, B.Van Troeye, M.J.Verstraete, J.Wiktor, J.W.Zwanziger, and X.Gonze.
- Comment: a global overview of ABINIT, with focus on selected capabilities .
- Note that a version of this paper, that is not formatted for J. Chem. Phys 
- is available at https://www.abinit.org/sites/default/files/ABINIT20_JPC.pdf .
- The licence allows the authors to put it on the Web.
- DOI and bibtex: see https://docs.abinit.org/theory/bibliography/#romero2020
-
- [5] Recent developments in the ABINIT software package.
- Computer Phys. Comm. 205, 106 (2016).
- X.Gonze, F.Jollet, F.Abreu Araujo, D.Adams, B.Amadon, T.Applencourt,
- C.Audouze, J.-M.Beuken, J.Bieder, A.Bokhanchuk, E.Bousquet, F.Bruneval
- D.Caliste, M.Cote, F.Dahm, F.Da Pieve, M.Delaveau, M.Di Gennaro,
- B.Dorado, C.Espejo, G.Geneste, L.Genovese, A.Gerossier, M.Giantomassi,
- Y.Gillet, D.R.Hamann, L.He, G.Jomard, J.Laflamme Janssen, S.Le Roux,
- A.Levitt, A.Lherbier, F.Liu, I.Lukacevic, A.Martin, C.Martins,
- M.J.T.Oliveira, S.Ponce, Y.Pouillon, T.Rangel, G.-M.Rignanese,
- A.H.Romero, B.Rousseau, O.Rubel, A.A.Shukri, M.Stankovski, M.Torrent,
- M.J.Van Setten, B.Van Troeye, M.J.Verstraete, D.Waroquier, J.Wiktor,
- B.Xu, A.Zhou, J.W.Zwanziger.
- Comment: the fourth generic paper describing the ABINIT project.
- Note that a version of this paper, that is not formatted for Computer Phys. Comm. 
- is available at https://www.abinit.org/sites/default/files/ABINIT16.pdf .
- The licence allows the authors to put it on the Web.
- DOI and bibtex: see https://docs.abinit.org/theory/bibliography/#gonze2016
-
- Proc.   0 individual time (sec): cpu=          2.8  wall=          2.8
 
================================================================================
 
 Calculation completed.
.Delivered  13 WARNINGs and  10 COMMENTs to log file.
+Overall time at end (sec) : cpu=          2.8  wall=          2.8
