Al    ONCVPSP-3.2.3.1  r_core=   1.76802   1.76802   1.70587
13.0000      3.0000      170504    zatom,zion,pspd
8      11   2     4   600     0    pspcod,pspxc,lmax,lloc,mmax,r2well
5.99000000  5.00000000  0.00000000    rchrg fchrg qchrg
2     2     2     0     0    nproj
1     1           extension_switch
0                         5.1266666014246D+00  7.2829148183016D-01
1  0.0000000000000D+00 -1.5381676765625D-09  3.4042463917250D-09
2  1.0000000000000D-02  2.2298172446312D-02 -7.7006378468391D-03
3  2.0000000000000D-02  4.4482909181753D-02 -1.5144395297959D-02
4  3.0000000000000D-02  6.6442672061522D-02 -2.2078637794878D-02
5  4.0000000000000D-02  8.8069689883742D-02 -2.8259159999525D-02
6  5.0000000000000D-02  1.0926177178604D-01 -3.3454245150594D-02
7  6.0000000000000D-02  1.2992403766179D-01 -3.7448540570734D-02
8  7.0000000000000D-02  1.4997053976839D-01 -4.0046692097503D-02
9  8.0000000000000D-02  1.6932575123847D-01 -4.1076683615210D-02
10  9.0000000000000D-02  1.8792589908680D-01 -4.0392832030819D-02
11  1.0000000000000D-01  2.0572012150657D-01 -3.7878392907015D-02
12  1.1000000000000D-01  2.2267143173679D-01 -3.3447737472285D-02
13  1.2000000000000D-01  2.3875747352368D-01 -2.7048067794651D-02
14  1.3000000000000D-01  2.5397105615577D-01 -1.8660643448698D-02
15  1.4000000000000D-01  2.6832046018282D-01 -8.3014999337503D-03
16  1.5000000000000D-01  2.8182950819018D-01  3.9783536814676D-03
17  1.6000000000000D-01  2.9453739834692D-01  1.8093263006292D-02
18  1.7000000000000D-01  3.0649830183170D-01  3.3923780094109D-02
19  1.8000000000000D-01  3.1778072861769D-01  5.1318028879750D-02
20  1.9000000000000D-01  3.2846666942010D-01  7.0093567090137D-02
21  2.0000000000000D-01  3.3865052483013D-01  9.0039720304245D-02
22  2.1000000000000D-01  3.4843783573305D-01  1.1092035703720D-01
23  2.2000000000000D-01  3.5794383199225D-01  1.3247706734258D-01
24  2.3000000000000D-01  3.6729181903513D-01  1.5443270155514D-01
25  2.4000000000000D-01  3.7661142436277D-01  1.7649522051751D-01
26  2.5000000000000D-01  3.8603672809098D-01  1.9836180402172D-01
27  2.6000000000000D-01  3.9570430338406D-01  2.1972316031696D-01
28  2.7000000000000D-01  4.0575119404116D-01  2.4026797644315D-01
29  2.8000000000000D-01  4.1631285751676D-01  2.5968744689120D-01
30  2.9000000000000D-01  4.2752110228744D-01  2.7767981669799D-01
31  3.0000000000000D-01  4.3950204870612D-01  2.9395487457968D-01
32  3.1000000000000D-01  4.5237414230935D-01  3.0823833209881D-01
33  3.2000000000000D-01  4.6624624796217D-01  3.2027602614776D-01
34  3.3000000000000D-01  4.8121585224833D-01  3.2983788419562D-01
35  3.4000000000000D-01  4.9736740015081D-01  3.3672159476312D-01
36  3.5000000000000D-01  5.1477079033817D-01  3.4075592941836D-01
37  3.6000000000000D-01  5.3348005129820D-01  3.4180366717731D-01
38  3.7000000000000D-01  5.5353221816965D-01  3.3976407748374D-01
39  3.8000000000000D-01  5.7494642744653D-01  3.3457492386498D-01
40  3.9000000000000D-01  5.9772324380537D-01  3.2621395683046D-01
41  4.0000000000000D-01  6.2184423017097D-01  3.1469987151442D-01
42  4.1000000000000D-01  6.4727176883518D-01  3.0009271286661D-01
43  4.2000000000000D-01  6.7394913802004D-01  2.8249371876669D-01
44  4.3000000000000D-01  7.0180084477685D-01  2.6204459917636D-01
45  4.4000000000000D-01  7.3073321158710D-01  2.3892625724091D-01
46  4.5000000000000D-01  7.6063521052422D-01  2.1335696600368D-01
47  4.6000000000000D-01  7.9137953539861D-01  1.8559002199422D-01
48  4.7000000000000D-01  8.2282389898724D-01  1.5591090428975D-01
49  4.8000000000000D-01  8.5481253929043D-01  1.2463397462914D-01
50  4.9000000000000D-01  8.8717791580622D-01  9.2098760678731D-02
51  5.0000000000000D-01  9.1974257410779D-01  5.8665870522231D-02
52  5.1000000000000D-01  9.5232115458941D-01  2.4712591786958D-02
53  5.2000000000000D-01  9.8472251914677D-01 -9.3717665506989D-03
54  5.3000000000000D-01  1.0167519678078D+00 -4.3190727781875D-02
55  5.4000000000000D-01  1.0482135159545D+00 -7.6345631579153D-02
56  5.5000000000000D-01  1.0789122017959D+00 -1.0844068153399D-01
57  5.6000000000000D-01  1.1086563931855D+00 -1.3908798780363D-01
58  5.7000000000000D-01  1.1372600627249D+00 -1.6791253624342D-01
59  5.8000000000000D-01  1.1645450003696D+00 -1.9455701602588D-01
60  5.9000000000000D-01  1.1903429334540D+00 -2.1868643931539D-01
61  6.0000000000000D-01  1.2144975251562D+00 -2.3999248903580D-01
62  6.1000000000000D-01  1.2368662239449D+00 -2.5819753415175D-01
63  6.2000000000000D-01  1.2573219384336D+00 -2.7305825607160D-01
64  6.3000000000000D-01  1.2757545143318D+00 -2.8436883481179D-01
65  6.4000000000000D-01  1.2920719927583D+00 -2.9196364927563D-01
66  6.5000000000000D-01  1.3062016320576D+00 -2.9571945238703D-01
67  6.6000000000000D-01  1.3180906784076D+00 -2.9555698879207D-01
68  6.7000000000000D-01  1.3277068738487D+00 -2.9144203025931D-01
69  6.8000000000000D-01  1.3350386938936D+00 -2.8338581172449D-01
70  6.9000000000000D-01  1.3400953105331D+00 -2.7144485903250D-01
71  7.0000000000000D-01  1.3429062801784D+00 -2.5572020767891D-01
72  7.1000000000000D-01  1.3435209598315D+00 -2.3635602015941D-01
73  7.2000000000000D-01  1.3420076585091D+00 -2.1353761780640D-01
74  7.3000000000000D-01  1.3384525346049D+00 -1.8748895108694D-01
75  7.4000000000000D-01  1.3329582534001D+00 -1.5846954013950D-01
76  7.5000000000000D-01  1.3256424222924D+00 -1.2677092475874D-01
77  7.6000000000000D-01  1.3166358244585D+00 -9.2712669986661D-02
78  7.7000000000000D-01  1.3060804745263D+00 -5.6637979798751D-02
79  7.8000000000000D-01  1.2941275224243D+00 -1.8908977088221D-02
80  7.9000000000000D-01  1.2809350337963D+00  2.0098286944813D-02
81  8.0000000000000D-01  1.2666656772335D+00  5.9999026782921D-02
82  8.1000000000000D-01  1.2514843500408D+00  1.0040504952812D-01
83  8.2000000000000D-01  1.2355557752915D+00  1.4093014207279D-01
84  8.3000000000000D-01  1.2190421035298D+00  1.8119544448108D-01
85  8.4000000000000D-01  1.2021005526351D+00  2.2083473524161D-01
86  8.5000000000000D-01  1.1848811190627D+00  2.5949955474150D-01
87  8.6000000000000D-01  1.1675243929228D+00  2.9686409500429D-01
88  8.7000000000000D-01  1.1501595081666D+00  3.3262978641260D-01
89  8.8000000000000D-01  1.1329022575167D+00  3.6652951577208D-01
90  8.9000000000000D-01  1.1158533997382D+00  3.9833141462467D-01
91  9.0000000000000D-01  1.0990971844180D+00  4.2784216212865D-01
92  9.1000000000000D-01  1.0827001166293D+00  4.5490975302850D-01
93  9.2000000000000D-01  1.0667099807471D+00  4.7942568815857D-01
94  9.3000000000000D-01  1.0511551392822D+00  5.0132655247313D-01
95  9.4000000000000D-01  1.0360441189647D+00  5.2059495367895D-01
96  9.5000000000000D-01  1.0213654924787D+00  5.3725980304542D-01
97  9.6000000000000D-01  1.0070880602458D+00  5.5139592886205D-01
98  9.7000000000000D-01  9.9316133264229D-01  5.6312302191497D-01
99  9.8000000000000D-01  9.7951630887633D-01  5.7260392158268D-01
100  9.9000000000000D-01  9.6606654466356D-01  5.8004226022139D-01
101  1.0000000000000D+00  9.5270949683496D-01  5.8567949238793D-01
102  1.0100000000000D+00  9.3932812909636D-01  5.8979134412880D-01
103  1.0200000000000D+00  9.2579275944640D-01  5.9268372579160D-01
104  1.0300000000000D+00  9.1196312620629D-01  5.9468815968848D-01
105  1.0400000000000D+00  8.9769064652093D-01  5.9615678079256D-01
106  1.0500000000000D+00  8.8282083815495D-01  5.9745697536993D-01
107  1.0600000000000D+00  8.6719587290891D-01  5.9896572797609D-01
108  1.0700000000000D+00  8.5065722786281D-01  6.0106375192770D-01
109  1.0800000000000D+00  8.3304839889880D-01  6.0412948223545D-01
110  1.0900000000000D+00  8.1421763975985D-01  6.0853301261569D-01
111  1.1000000000000D+00  7.9402068902456D-01  6.1463006012269D-01
112  1.1100000000000D+00  7.7232344712227D-01  6.2275604148857D-01
113  1.1200000000000D+00  7.4900456570743D-01  6.3322034480429D-01
114  1.1300000000000D+00  7.2395791257624D-01  6.4630087823459D-01
115  1.1400000000000D+00  6.9709487605857D-01  6.6223897577710D-01
116  1.1500000000000D+00  6.6834647499092D-01  6.8123473522739D-01
117  1.1600000000000D+00  6.3766524224231D-01  7.0344285935315D-01
118  1.1700000000000D+00  6.0502685267650D-01  7.2896906479857D-01
119  1.1800000000000D+00  5.7043146852268D-01  7.5786711858852D-01
120  1.1900000000000D+00  5.3390477966676D-01  7.9013655200421D-01
121  1.2000000000000D+00  4.9549871976701D-01  8.2572109406260D-01
122  1.2100000000000D+00  4.5529184220241D-01  8.6450785992902D-01
123  1.2200000000000D+00  4.1338934496428D-01  9.0632731825292D-01
124  1.2300000000000D+00  3.6992273833512D-01  9.5095405090222D-01
125  1.2400000000000D+00  3.2504915306263D-01  9.9810830998913D-01
126  1.2500000000000D+00  2.7895029055674D-01  1.0474583685947D+00
127  1.2600000000000D+00  2.3183102373868D-01  1.0986236458326D+00
128  1.2700000000000D+00  1.8391766010880D-01  1.1511785803751D+00
129  1.2800000000000D+00  1.3545588154670D-01  1.2046572200162D+00
130  1.2900000000000D+00  8.6708383758391D-02  1.2585584762101D+00
131  1.3000000000000D+00  3.7952239284545D-02  1.3123519903058D+00
132  1.3100000000000D+00 -1.0523988885850D-02  1.3654845512506D+00
133  1.3200000000000D+00 -5.8423348503159D-02  1.4173869878004D+00
134  1.3300000000000D+00 -1.0544378059649D-01  1.4674814608143D+00
135  1.3400000000000D+00 -1.5128154552516D-01  1.5151890714710D+00
136  1.3500000000000D+00 -1.9563475092760D-01  1.5599376929005D+00
137  1.3600000000000D+00 -2.3820694155003D-01  1.6011699363420D+00
138  1.3700000000000D+00 -2.7871070630876D-01  1.6383511586656D+00
139  1.3800000000000D+00 -3.1687125964027D-01  1.6709773790029D+00
140  1.3900000000000D+00 -3.5242995083050D-01  1.6985830872995D+00
141  1.4000000000000D+00 -3.8514766464721D-01  1.7207487635374D+00
142  1.4100000000000D+00 -4.1480805649263D-01  1.7371080453066D+00
143  1.4200000000000D+00 -4.4122058421171D-01  1.7473534970462D+00
144  1.4300000000000D+00 -4.6422326723502D-01  1.7512415840782D+00
145  1.4400000000000D+00 -4.8368497507259D-01  1.7485926552920D+00
146  1.4500000000000D+00 -4.9950732002831D-01  1.7392911067043D+00
147  1.4600000000000D+00 -5.1162608641175D-01  1.7232864344464D+00
148  1.4700000000000D+00 -5.2001219002140D-01  1.7005927937805D+00
149  1.4800000000000D+00 -5.2467218502057D-01  1.6712880266873D+00
150  1.4900000000000D+00 -5.2564829733311D-01  1.6355124560167D+00
151  1.5000000000000D+00 -5.2301804054285D-01  1.5934673571535D+00
152  1.5100000000000D+00 -5.1689341462520D-01  1.5454133600837D+00
153  1.5200000000000D+00 -5.0741974051310D-01  1.4916686975857D+00
154  1.5300000000000D+00 -4.9477415066584D-01  1.4326073901338D+00
155  1.5400000000000D+00 -4.7916377874562D-01  1.3686572639729D+00
156  1.5500000000000D+00 -4.6082366533294D-01  1.3002977443244D+00
157  1.5600000000000D+00 -4.4001441702822D-01  1.2280572745922D+00
158  1.5700000000000D+00 -4.1701962544567D-01  1.1525103183348D+00
159  1.5800000000000D+00 -3.9214307270295D-01  1.0742736899972D+00
160  1.5900000000000D+00 -3.6570573547685D-01  9.9400233434399D-01
161  1.6000000000000D+00 -3.3804259543821D-01  9.1238422652238D-01
162  1.6100000000000D+00 -3.0949928906095D-01  8.3013466349446D-01
163  1.6200000000000D+00 -2.8042859518512D-01  7.4798968979090D-01
164  1.6300000000000D+00 -2.5118681041651D-01  6.6669896240967D-01
165  1.6400000000000D+00 -2.2213001632987D-01  5.8701794027883D-01
166  1.6500000000000D+00 -1.9361029819781D-01  5.0969968731999D-01
167  1.6600000000000D+00 -1.6597193280427D-01  4.3548630428030D-01
168  1.6700000000000D+00 -1.3954760740646D-01  3.6510023429253D-01
169  1.6800000000000D+00 -1.1465469955490D-01  2.9923553615047D-01
170  1.6900000000000D+00 -9.1591677964670D-02  2.3854932393277D-01
171  1.7000000000000D+00 -7.0634661081513D-02  1.8365350021573D-01
172  1.7100000000000D+00 -5.2042475720200D-02  1.3512846746959D-01
173  1.7200000000000D+00 -3.6025527253433D-02  9.3442729290445D-02
174  1.7300000000000D+00 -2.2716238635646D-02  5.8876737786225D-02
175  1.7400000000000D+00 -1.2343702691028D-02  3.1976236829968D-02
176  1.7500000000000D+00 -5.2549257261740D-03  1.3606898476446D-02
177  1.7600000000000D+00 -1.3486746541536D-03  3.4878299434992D-03
178  1.7700000000000D+00  1.8191734736534D-04 -4.7589108560434D-04
179  1.7800000000000D+00  3.1554347309652D-04 -8.1934699723620D-04
180  1.7900000000000D+00 -1.6475527959046D-05  4.2749871731330D-05
181  1.8000000000000D+00 -1.1068972894107D-04  2.8710682563706D-04
182  1.8100000000000D+00 -1.0004683467589D-05  2.5944863460380D-05
183  1.8200000000000D+00  2.0131033197353D-05 -5.2271950479896D-05
184  1.8300000000000D+00  6.6027198342049D-06 -1.7142489165428D-05
185  1.8400000000000D+00 -5.5243743160932D-08  1.5657612354110D-07
186  1.8500000000000D+00 -3.3559398535971D-08  9.5116663543705D-08
187  1.8600000000000D+00  0.0000000000000D+00  0.0000000000000D+00
188  1.8700000000000D+00  0.0000000000000D+00  0.0000000000000D+00
189  1.8800000000000D+00  0.0000000000000D+00  0.0000000000000D+00
190  1.8900000000000D+00  0.0000000000000D+00  0.0000000000000D+00
191  1.9000000000000D+00  0.0000000000000D+00  0.0000000000000D+00
192  1.9100000000000D+00  0.0000000000000D+00  0.0000000000000D+00
193  1.9200000000000D+00  0.0000000000000D+00  0.0000000000000D+00
194  1.9300000000000D+00  0.0000000000000D+00  0.0000000000000D+00
195  1.9400000000000D+00  0.0000000000000D+00  0.0000000000000D+00
196  1.9500000000000D+00  0.0000000000000D+00  0.0000000000000D+00
197  1.9600000000000D+00  0.0000000000000D+00  0.0000000000000D+00
198  1.9700000000000D+00  0.0000000000000D+00  0.0000000000000D+00
199  1.9800000000000D+00  0.0000000000000D+00  0.0000000000000D+00
200  1.9900000000000D+00  0.0000000000000D+00  0.0000000000000D+00
201  2.0000000000000D+00  0.0000000000000D+00  0.0000000000000D+00
202  2.0100000000000D+00  0.0000000000000D+00  0.0000000000000D+00
203  2.0200000000000D+00  0.0000000000000D+00  0.0000000000000D+00
204  2.0300000000000D+00  0.0000000000000D+00  0.0000000000000D+00
205  2.0400000000000D+00  0.0000000000000D+00  0.0000000000000D+00
206  2.0500000000000D+00  0.0000000000000D+00  0.0000000000000D+00
207  2.0600000000000D+00  0.0000000000000D+00  0.0000000000000D+00
208  2.0700000000000D+00  0.0000000000000D+00  0.0000000000000D+00
209  2.0800000000000D+00  0.0000000000000D+00  0.0000000000000D+00
210  2.0900000000000D+00  0.0000000000000D+00  0.0000000000000D+00
211  2.1000000000000D+00  0.0000000000000D+00  0.0000000000000D+00
212  2.1100000000000D+00  0.0000000000000D+00  0.0000000000000D+00
213  2.1200000000000D+00  0.0000000000000D+00  0.0000000000000D+00
214  2.1300000000000D+00  0.0000000000000D+00  0.0000000000000D+00
215  2.1400000000000D+00  0.0000000000000D+00  0.0000000000000D+00
216  2.1500000000000D+00  0.0000000000000D+00  0.0000000000000D+00
217  2.1600000000000D+00  0.0000000000000D+00  0.0000000000000D+00
218  2.1700000000000D+00  0.0000000000000D+00  0.0000000000000D+00
219  2.1800000000000D+00  0.0000000000000D+00  0.0000000000000D+00
220  2.1900000000000D+00  0.0000000000000D+00  0.0000000000000D+00
221  2.2000000000000D+00  0.0000000000000D+00  0.0000000000000D+00
222  2.2100000000000D+00  0.0000000000000D+00  0.0000000000000D+00
223  2.2200000000000D+00  0.0000000000000D+00  0.0000000000000D+00
224  2.2300000000000D+00  0.0000000000000D+00  0.0000000000000D+00
225  2.2400000000000D+00  0.0000000000000D+00  0.0000000000000D+00
226  2.2500000000000D+00  0.0000000000000D+00  0.0000000000000D+00
227  2.2600000000000D+00  0.0000000000000D+00  0.0000000000000D+00
228  2.2700000000000D+00  0.0000000000000D+00  0.0000000000000D+00
229  2.2800000000000D+00  0.0000000000000D+00  0.0000000000000D+00
230  2.2900000000000D+00  0.0000000000000D+00  0.0000000000000D+00
231  2.3000000000000D+00  0.0000000000000D+00  0.0000000000000D+00
232  2.3100000000000D+00  0.0000000000000D+00  0.0000000000000D+00
233  2.3200000000000D+00  0.0000000000000D+00  0.0000000000000D+00
234  2.3300000000000D+00  0.0000000000000D+00  0.0000000000000D+00
235  2.3400000000000D+00  0.0000000000000D+00  0.0000000000000D+00
236  2.3500000000000D+00  0.0000000000000D+00  0.0000000000000D+00
237  2.3600000000000D+00  0.0000000000000D+00  0.0000000000000D+00
238  2.3700000000000D+00  0.0000000000000D+00  0.0000000000000D+00
239  2.3800000000000D+00  0.0000000000000D+00  0.0000000000000D+00
240  2.3900000000000D+00  0.0000000000000D+00  0.0000000000000D+00
241  2.4000000000000D+00  0.0000000000000D+00  0.0000000000000D+00
242  2.4100000000000D+00  0.0000000000000D+00  0.0000000000000D+00
243  2.4200000000000D+00  0.0000000000000D+00  0.0000000000000D+00
244  2.4300000000000D+00  0.0000000000000D+00  0.0000000000000D+00
245  2.4400000000000D+00  0.0000000000000D+00  0.0000000000000D+00
246  2.4500000000000D+00  0.0000000000000D+00  0.0000000000000D+00
247  2.4600000000000D+00  0.0000000000000D+00  0.0000000000000D+00
248  2.4700000000000D+00  0.0000000000000D+00  0.0000000000000D+00
249  2.4800000000000D+00  0.0000000000000D+00  0.0000000000000D+00
250  2.4900000000000D+00  0.0000000000000D+00  0.0000000000000D+00
251  2.5000000000000D+00  0.0000000000000D+00  0.0000000000000D+00
252  2.5100000000000D+00  0.0000000000000D+00  0.0000000000000D+00
253  2.5200000000000D+00  0.0000000000000D+00  0.0000000000000D+00
254  2.5300000000000D+00  0.0000000000000D+00  0.0000000000000D+00
255  2.5400000000000D+00  0.0000000000000D+00  0.0000000000000D+00
256  2.5500000000000D+00  0.0000000000000D+00  0.0000000000000D+00
257  2.5600000000000D+00  0.0000000000000D+00  0.0000000000000D+00
258  2.5700000000000D+00  0.0000000000000D+00  0.0000000000000D+00
259  2.5800000000000D+00  0.0000000000000D+00  0.0000000000000D+00
260  2.5900000000000D+00  0.0000000000000D+00  0.0000000000000D+00
261  2.6000000000000D+00  0.0000000000000D+00  0.0000000000000D+00
262  2.6100000000000D+00  0.0000000000000D+00  0.0000000000000D+00
263  2.6200000000000D+00  0.0000000000000D+00  0.0000000000000D+00
264  2.6300000000000D+00  0.0000000000000D+00  0.0000000000000D+00
265  2.6400000000000D+00  0.0000000000000D+00  0.0000000000000D+00
266  2.6500000000000D+00  0.0000000000000D+00  0.0000000000000D+00
267  2.6600000000000D+00  0.0000000000000D+00  0.0000000000000D+00
268  2.6700000000000D+00  0.0000000000000D+00  0.0000000000000D+00
269  2.6800000000000D+00  0.0000000000000D+00  0.0000000000000D+00
270  2.6900000000000D+00  0.0000000000000D+00  0.0000000000000D+00
271  2.7000000000000D+00  0.0000000000000D+00  0.0000000000000D+00
272  2.7100000000000D+00  0.0000000000000D+00  0.0000000000000D+00
273  2.7200000000000D+00  0.0000000000000D+00  0.0000000000000D+00
274  2.7300000000000D+00  0.0000000000000D+00  0.0000000000000D+00
275  2.7400000000000D+00  0.0000000000000D+00  0.0000000000000D+00
276  2.7500000000000D+00  0.0000000000000D+00  0.0000000000000D+00
277  2.7600000000000D+00  0.0000000000000D+00  0.0000000000000D+00
278  2.7700000000000D+00  0.0000000000000D+00  0.0000000000000D+00
279  2.7800000000000D+00  0.0000000000000D+00  0.0000000000000D+00
280  2.7900000000000D+00  0.0000000000000D+00  0.0000000000000D+00
281  2.8000000000000D+00  0.0000000000000D+00  0.0000000000000D+00
282  2.8100000000000D+00  0.0000000000000D+00  0.0000000000000D+00
283  2.8200000000000D+00  0.0000000000000D+00  0.0000000000000D+00
284  2.8300000000000D+00  0.0000000000000D+00  0.0000000000000D+00
285  2.8400000000000D+00  0.0000000000000D+00  0.0000000000000D+00
286  2.8500000000000D+00  0.0000000000000D+00  0.0000000000000D+00
287  2.8600000000000D+00  0.0000000000000D+00  0.0000000000000D+00
288  2.8700000000000D+00  0.0000000000000D+00  0.0000000000000D+00
289  2.8800000000000D+00  0.0000000000000D+00  0.0000000000000D+00
290  2.8900000000000D+00  0.0000000000000D+00  0.0000000000000D+00
291  2.9000000000000D+00  0.0000000000000D+00  0.0000000000000D+00
292  2.9100000000000D+00  0.0000000000000D+00  0.0000000000000D+00
293  2.9200000000000D+00  0.0000000000000D+00  0.0000000000000D+00
294  2.9300000000000D+00  0.0000000000000D+00  0.0000000000000D+00
295  2.9400000000000D+00  0.0000000000000D+00  0.0000000000000D+00
296  2.9500000000000D+00  0.0000000000000D+00  0.0000000000000D+00
297  2.9600000000000D+00  0.0000000000000D+00  0.0000000000000D+00
298  2.9700000000000D+00  0.0000000000000D+00  0.0000000000000D+00
299  2.9800000000000D+00  0.0000000000000D+00  0.0000000000000D+00
300  2.9900000000000D+00  0.0000000000000D+00  0.0000000000000D+00
301  3.0000000000000D+00  0.0000000000000D+00  0.0000000000000D+00
302  3.0100000000000D+00  0.0000000000000D+00  0.0000000000000D+00
303  3.0200000000000D+00  0.0000000000000D+00  0.0000000000000D+00
304  3.0300000000000D+00  0.0000000000000D+00  0.0000000000000D+00
305  3.0400000000000D+00  0.0000000000000D+00  0.0000000000000D+00
306  3.0500000000000D+00  0.0000000000000D+00  0.0000000000000D+00
307  3.0600000000000D+00  0.0000000000000D+00  0.0000000000000D+00
308  3.0700000000000D+00  0.0000000000000D+00  0.0000000000000D+00
309  3.0800000000000D+00  0.0000000000000D+00  0.0000000000000D+00
310  3.0900000000000D+00  0.0000000000000D+00  0.0000000000000D+00
311  3.1000000000000D+00  0.0000000000000D+00  0.0000000000000D+00
312  3.1100000000000D+00  0.0000000000000D+00  0.0000000000000D+00
313  3.1200000000000D+00  0.0000000000000D+00  0.0000000000000D+00
314  3.1300000000000D+00  0.0000000000000D+00  0.0000000000000D+00
315  3.1400000000000D+00  0.0000000000000D+00  0.0000000000000D+00
316  3.1500000000000D+00  0.0000000000000D+00  0.0000000000000D+00
317  3.1600000000000D+00  0.0000000000000D+00  0.0000000000000D+00
318  3.1700000000000D+00  0.0000000000000D+00  0.0000000000000D+00
319  3.1800000000000D+00  0.0000000000000D+00  0.0000000000000D+00
320  3.1900000000000D+00  0.0000000000000D+00  0.0000000000000D+00
321  3.2000000000000D+00  0.0000000000000D+00  0.0000000000000D+00
322  3.2100000000000D+00  0.0000000000000D+00  0.0000000000000D+00
323  3.2200000000000D+00  0.0000000000000D+00  0.0000000000000D+00
324  3.2300000000000D+00  0.0000000000000D+00  0.0000000000000D+00
325  3.2400000000000D+00  0.0000000000000D+00  0.0000000000000D+00
326  3.2500000000000D+00  0.0000000000000D+00  0.0000000000000D+00
327  3.2600000000000D+00  0.0000000000000D+00  0.0000000000000D+00
328  3.2700000000000D+00  0.0000000000000D+00  0.0000000000000D+00
329  3.2800000000000D+00  0.0000000000000D+00  0.0000000000000D+00
330  3.2900000000000D+00  0.0000000000000D+00  0.0000000000000D+00
331  3.3000000000000D+00  0.0000000000000D+00  0.0000000000000D+00
332  3.3100000000000D+00  0.0000000000000D+00  0.0000000000000D+00
333  3.3200000000000D+00  0.0000000000000D+00  0.0000000000000D+00
334  3.3300000000000D+00  0.0000000000000D+00  0.0000000000000D+00
335  3.3400000000000D+00  0.0000000000000D+00  0.0000000000000D+00
336  3.3500000000000D+00  0.0000000000000D+00  0.0000000000000D+00
337  3.3600000000000D+00  0.0000000000000D+00  0.0000000000000D+00
338  3.3700000000000D+00  0.0000000000000D+00  0.0000000000000D+00
339  3.3800000000000D+00  0.0000000000000D+00  0.0000000000000D+00
340  3.3900000000000D+00  0.0000000000000D+00  0.0000000000000D+00
341  3.4000000000000D+00  0.0000000000000D+00  0.0000000000000D+00
342  3.4100000000000D+00  0.0000000000000D+00  0.0000000000000D+00
343  3.4200000000000D+00  0.0000000000000D+00  0.0000000000000D+00
344  3.4300000000000D+00  0.0000000000000D+00  0.0000000000000D+00
345  3.4400000000000D+00  0.0000000000000D+00  0.0000000000000D+00
346  3.4500000000000D+00  0.0000000000000D+00  0.0000000000000D+00
347  3.4600000000000D+00  0.0000000000000D+00  0.0000000000000D+00
348  3.4700000000000D+00  0.0000000000000D+00  0.0000000000000D+00
349  3.4800000000000D+00  0.0000000000000D+00  0.0000000000000D+00
350  3.4900000000000D+00  0.0000000000000D+00  0.0000000000000D+00
351  3.5000000000000D+00  0.0000000000000D+00  0.0000000000000D+00
352  3.5100000000000D+00  0.0000000000000D+00  0.0000000000000D+00
353  3.5200000000000D+00  0.0000000000000D+00  0.0000000000000D+00
354  3.5300000000000D+00  0.0000000000000D+00  0.0000000000000D+00
355  3.5400000000000D+00  0.0000000000000D+00  0.0000000000000D+00
356  3.5500000000000D+00  0.0000000000000D+00  0.0000000000000D+00
357  3.5600000000000D+00  0.0000000000000D+00  0.0000000000000D+00
358  3.5700000000000D+00  0.0000000000000D+00  0.0000000000000D+00
359  3.5800000000000D+00  0.0000000000000D+00  0.0000000000000D+00
360  3.5900000000000D+00  0.0000000000000D+00  0.0000000000000D+00
361  3.6000000000000D+00  0.0000000000000D+00  0.0000000000000D+00
362  3.6100000000000D+00  0.0000000000000D+00  0.0000000000000D+00
363  3.6200000000000D+00  0.0000000000000D+00  0.0000000000000D+00
364  3.6300000000000D+00  0.0000000000000D+00  0.0000000000000D+00
365  3.6400000000000D+00  0.0000000000000D+00  0.0000000000000D+00
366  3.6500000000000D+00  0.0000000000000D+00  0.0000000000000D+00
367  3.6600000000000D+00  0.0000000000000D+00  0.0000000000000D+00
368  3.6700000000000D+00  0.0000000000000D+00  0.0000000000000D+00
369  3.6800000000000D+00  0.0000000000000D+00  0.0000000000000D+00
370  3.6900000000000D+00  0.0000000000000D+00  0.0000000000000D+00
371  3.7000000000000D+00  0.0000000000000D+00  0.0000000000000D+00
372  3.7100000000000D+00  0.0000000000000D+00  0.0000000000000D+00
373  3.7200000000000D+00  0.0000000000000D+00  0.0000000000000D+00
374  3.7300000000000D+00  0.0000000000000D+00  0.0000000000000D+00
375  3.7400000000000D+00  0.0000000000000D+00  0.0000000000000D+00
376  3.7500000000000D+00  0.0000000000000D+00  0.0000000000000D+00
377  3.7600000000000D+00  0.0000000000000D+00  0.0000000000000D+00
378  3.7700000000000D+00  0.0000000000000D+00  0.0000000000000D+00
379  3.7800000000000D+00  0.0000000000000D+00  0.0000000000000D+00
380  3.7900000000000D+00  0.0000000000000D+00  0.0000000000000D+00
381  3.8000000000000D+00  0.0000000000000D+00  0.0000000000000D+00
382  3.8100000000000D+00  0.0000000000000D+00  0.0000000000000D+00
383  3.8200000000000D+00  0.0000000000000D+00  0.0000000000000D+00
384  3.8300000000000D+00  0.0000000000000D+00  0.0000000000000D+00
385  3.8400000000000D+00  0.0000000000000D+00  0.0000000000000D+00
386  3.8500000000000D+00  0.0000000000000D+00  0.0000000000000D+00
387  3.8600000000000D+00  0.0000000000000D+00  0.0000000000000D+00
388  3.8700000000000D+00  0.0000000000000D+00  0.0000000000000D+00
389  3.8800000000000D+00  0.0000000000000D+00  0.0000000000000D+00
390  3.8900000000000D+00  0.0000000000000D+00  0.0000000000000D+00
391  3.9000000000000D+00  0.0000000000000D+00  0.0000000000000D+00
392  3.9100000000000D+00  0.0000000000000D+00  0.0000000000000D+00
393  3.9200000000000D+00  0.0000000000000D+00  0.0000000000000D+00
394  3.9300000000000D+00  0.0000000000000D+00  0.0000000000000D+00
395  3.9400000000000D+00  0.0000000000000D+00  0.0000000000000D+00
396  3.9500000000000D+00  0.0000000000000D+00  0.0000000000000D+00
397  3.9600000000000D+00  0.0000000000000D+00  0.0000000000000D+00
398  3.9700000000000D+00  0.0000000000000D+00  0.0000000000000D+00
399  3.9800000000000D+00  0.0000000000000D+00  0.0000000000000D+00
400  3.9900000000000D+00  0.0000000000000D+00  0.0000000000000D+00
401  4.0000000000000D+00  0.0000000000000D+00  0.0000000000000D+00
402  4.0100000000000D+00  0.0000000000000D+00  0.0000000000000D+00
403  4.0200000000000D+00  0.0000000000000D+00  0.0000000000000D+00
404  4.0300000000000D+00  0.0000000000000D+00  0.0000000000000D+00
405  4.0400000000000D+00  0.0000000000000D+00  0.0000000000000D+00
406  4.0500000000000D+00  0.0000000000000D+00  0.0000000000000D+00
407  4.0600000000000D+00  0.0000000000000D+00  0.0000000000000D+00
408  4.0700000000000D+00  0.0000000000000D+00  0.0000000000000D+00
409  4.0800000000000D+00  0.0000000000000D+00  0.0000000000000D+00
410  4.0900000000000D+00  0.0000000000000D+00  0.0000000000000D+00
411  4.1000000000000D+00  0.0000000000000D+00  0.0000000000000D+00
412  4.1100000000000D+00  0.0000000000000D+00  0.0000000000000D+00
413  4.1200000000000D+00  0.0000000000000D+00  0.0000000000000D+00
414  4.1300000000000D+00  0.0000000000000D+00  0.0000000000000D+00
415  4.1400000000000D+00  0.0000000000000D+00  0.0000000000000D+00
416  4.1500000000000D+00  0.0000000000000D+00  0.0000000000000D+00
417  4.1600000000000D+00  0.0000000000000D+00  0.0000000000000D+00
418  4.1700000000000D+00  0.0000000000000D+00  0.0000000000000D+00
419  4.1800000000000D+00  0.0000000000000D+00  0.0000000000000D+00
420  4.1900000000000D+00  0.0000000000000D+00  0.0000000000000D+00
421  4.2000000000000D+00  0.0000000000000D+00  0.0000000000000D+00
422  4.2100000000000D+00  0.0000000000000D+00  0.0000000000000D+00
423  4.2200000000000D+00  0.0000000000000D+00  0.0000000000000D+00
424  4.2300000000000D+00  0.0000000000000D+00  0.0000000000000D+00
425  4.2400000000000D+00  0.0000000000000D+00  0.0000000000000D+00
426  4.2500000000000D+00  0.0000000000000D+00  0.0000000000000D+00
427  4.2600000000000D+00  0.0000000000000D+00  0.0000000000000D+00
428  4.2700000000000D+00  0.0000000000000D+00  0.0000000000000D+00
429  4.2800000000000D+00  0.0000000000000D+00  0.0000000000000D+00
430  4.2900000000000D+00  0.0000000000000D+00  0.0000000000000D+00
431  4.3000000000000D+00  0.0000000000000D+00  0.0000000000000D+00
432  4.3100000000000D+00  0.0000000000000D+00  0.0000000000000D+00
433  4.3200000000000D+00  0.0000000000000D+00  0.0000000000000D+00
434  4.3300000000000D+00  0.0000000000000D+00  0.0000000000000D+00
435  4.3400000000000D+00  0.0000000000000D+00  0.0000000000000D+00
436  4.3500000000000D+00  0.0000000000000D+00  0.0000000000000D+00
437  4.3600000000000D+00  0.0000000000000D+00  0.0000000000000D+00
438  4.3700000000000D+00  0.0000000000000D+00  0.0000000000000D+00
439  4.3800000000000D+00  0.0000000000000D+00  0.0000000000000D+00
440  4.3900000000000D+00  0.0000000000000D+00  0.0000000000000D+00
441  4.4000000000000D+00  0.0000000000000D+00  0.0000000000000D+00
442  4.4100000000000D+00  0.0000000000000D+00  0.0000000000000D+00
443  4.4200000000000D+00  0.0000000000000D+00  0.0000000000000D+00