H     ONCVPSP-3.2.3.1  r_core=   1.00957   0.70586
1.0000      1.0000      170501    zatom,zion,pspd
8      11   1     4   300     0    pspcod,pspxc,lmax,lloc,mmax,r2well
2.99000000  0.00000000  0.00000000    rchrg fchrg qchrg
2     1     0     0     0    nproj
1     1           extension_switch
0                        -1.7011234716222D+00 -5.3448391737199D-01
1  0.0000000000000D+00  3.3082100336923D-08 -5.2646831893988D-08
2  1.0000000000000D-02  3.8801090786174D-02  1.0206983152474D-01
3  2.0000000000000D-02  7.8462208407639D-02  2.0241542806079D-01
4  3.0000000000000D-02  1.1982095784946D-01  2.9934821976025D-01
5  4.0000000000000D-02  1.6367055221032D-01  3.9125025705919D-01
6  5.0000000000000D-02  2.1073873761856D-01  4.7660775964138D-01
7  6.0000000000000D-02  2.6166803905055D-01  5.5404259040870D-01
8  7.0000000000000D-02  3.1699772762663D-01  6.2234102603773D-01
9  8.0000000000000D-02  3.7714787687812D-01  6.8047924834917D-01
10  9.0000000000000D-02  4.4240583531575D-01  7.2764504460561D-01
11  1.0000000000000D-01  5.1291539614659D-01  7.6325527875828D-01
12  1.1000000000000D-01  5.8866889306221D-01  7.8696877816647D-01
13  1.2000000000000D-01  6.6950239464070D-01  7.9869436982725D-01
14  1.3000000000000D-01  7.5509411013806D-01  7.9859389495600D-01
15  1.4000000000000D-01  8.4496605742562D-01  7.8708012902455D-01
16  1.5000000000000D-01  9.3848898073639D-01  7.6480963419849D-01
17  1.6000000000000D-01  1.0348904429196D+00  7.3267067058646D-01
18  1.7000000000000D-01  1.1332659552623D+00  6.9176638990348D-01
19  1.8000000000000D-01  1.2325929488030D+00  6.4339362816448D-01
20  1.9000000000000D-01  1.3317473355618D+00  5.8901770106145D-01
21  2.0000000000000D-01  1.4295223573076D+00  5.3024368503726D-01
22  2.1000000000000D-01  1.5246493743571D+00  4.6878473719668D-01
23  2.2000000000000D-01  1.6158202083146D+00  4.0642806671532D-01
24  2.3000000000000D-01  1.7017106213730D+00  3.4499921813575D-01
25  2.4000000000000D-01  1.7810044914074D+00  2.8632536192851D-01
26  2.5000000000000D-01  1.8524182270681D+00  2.3219830922919D-01
27  2.6000000000000D-01  1.9147249607228D+00  1.8433797529136D-01
28  2.7000000000000D-01  1.9667780595428D+00  1.4435700973200D-01
29  2.8000000000000D-01  2.0075335062491D+00  1.1372729117984D-01
30  2.9000000000000D-01  2.0360707208302D+00  9.3748949824684D-02
31  3.0000000000000D-01  2.0516114225576D+00  8.5522534235097D-02
32  3.1000000000000D-01  2.0535361673248D+00  8.9924879538002D-02
33  3.2000000000000D-01  2.0413982380725D+00  1.0758916376042D-01
34  3.3000000000000D-01  2.0149346150070D+00  1.3888955915319D-01
35  3.4000000000000D-01  1.9740738065627D+00  1.8393079718396D-01
36  3.5000000000000D-01  1.9189403805625D+00  2.4254287129369D-01
37  3.6000000000000D-01  1.8498560966765D+00  3.1428100228747D-01
38  3.7000000000000D-01  1.7673376048932D+00  3.9843088930330D-01
39  3.8000000000000D-01  1.6720907390740D+00  4.9401916665600D-01
40  3.9000000000000D-01  1.5650014985289D+00  5.9982888549548D-01
41  4.0000000000000D-01  1.4471238726864D+00  7.1441974114709D-01
42  4.1000000000000D-01  1.3196647231416D+00  8.3615267414798D-01
43  4.2000000000000D-01  1.1839659925028D+00  9.6321838719675D-01
44  4.3000000000000D-01  1.0414845594370D+00  1.0936692432188D+00
45  4.4000000000000D-01  8.9377010317200D-01  1.2254539430499D+00
46  4.5000000000000D-01  7.4244137758642D-01  1.3564543262153D+00
47  4.6000000000000D-01  5.8916132417345D-01  1.4845235960617D+00
48  4.7000000000000D-01  4.3561147403359D-01  1.6075252419550D+00
49  4.8000000000000D-01  2.8346610120762D-01  1.7233719170206D+00
50  4.9000000000000D-01  1.3436659285609D-01  1.8300635302995D+00
51  5.0000000000000D-01 -1.0103504044287D-02  1.9257238272730D+00
52  5.1000000000000D-01 -1.4844231459499D-01  2.0086347622452D+00
53  5.2000000000000D-01 -2.7925192501223D-01  2.0772680095409D+00
54  5.3000000000000D-01 -4.0125873899685D-01  2.1303130170283D+00
55  5.4000000000000D-01 -5.1333155090076D-01  2.1667010741230D+00
56  5.5000000000000D-01 -6.1449703130500D-01  2.1856249458691D+00
57  5.6000000000000D-01 -7.0395237261626D-01  2.1865537131475D+00
58  5.7000000000000D-01 -7.8107489947169D-01  2.1692425554276D+00
59  5.8000000000000D-01 -8.4542850943220D-01  2.1337373139231D+00
60  5.9000000000000D-01 -8.9676687319950D-01  2.0803737787868D+00
61  6.0000000000000D-01 -9.3503338828829D-01  2.0097717505472D+00
62  6.1000000000000D-01 -9.6035794549343D-01  1.9228240329603D+00
63  6.2000000000000D-01 -9.7305063112939D-01  1.8206806177364D+00
64  6.3000000000000D-01 -9.7359254994024D-01  1.7047284212698D+00
65  6.4000000000000D-01 -9.6262401140774D-01  1.5765670256784D+00
66  6.5000000000000D-01 -9.4093037551897D-01  1.4379809604965D+00
67  6.6000000000000D-01 -9.0942590172840D-01  1.2909091353494D+00
68  6.7000000000000D-01 -8.6913598561001D-01  1.1374120958929D+00
69  6.8000000000000D-01 -8.2117820113462D-01  9.7963782458536D-01
70  6.9000000000000D-01 -7.6674259363318D-01  8.1978684748012D-01
71  7.0000000000000D-01 -7.0707165112267D-01  6.6007734452501D-01
72  7.1000000000000D-01 -6.4344060046318D-01  5.0271149651186D-01
73  7.2000000000000D-01 -5.7713458936401D-01  3.4983411154819D-01
74  7.3000000000000D-01 -5.0941742508299D-01  2.0347178866295D-01
75  7.4000000000000D-01 -4.4150498562024D-01  6.5486672366721D-02
76  7.5000000000000D-01 -3.7454481714458D-01 -6.2453992352020D-02
77  7.6000000000000D-01 -3.0959748043010D-01 -1.7890484529812D-01
78  7.7000000000000D-01 -2.4762016684123D-01 -2.8266489948032D-01
79  7.8000000000000D-01 -1.8945280854661D-01 -3.7279525472385D-01
80  7.9000000000000D-01 -1.3580690642936D-01 -4.4863171046186D-01
81  8.0000000000000D-01 -8.7257241491292D-02 -5.0979205483075D-01
82  8.1000000000000D-01 -4.4236575750289D-02 -5.5617791204302D-01
83  8.2000000000000D-01 -7.0333871924118D-03 -5.8797113685089D-01
84  8.3000000000000D-01  2.4207377980723D-02 -6.0562485069101D-01
85  8.4000000000000D-01  4.9480613580987D-02 -6.0984931898400D-01
86  8.5000000000000D-01  6.8914558540798D-02 -6.0159296917040D-01
87  8.6000000000000D-01  8.2761690937371D-02 -5.8201894359173D-01
88  8.7000000000000D-01  9.1387254399868D-02 -5.5247766817335D-01
89  8.8000000000000D-01  9.5255706222282D-02 -5.1447599464991D-01
90  8.9000000000000D-01  9.4915416582518D-02 -4.6964354065377D-01
91  9.0000000000000D-01  9.0981981030649D-02 -4.1969690559029D-01
92  9.1000000000000D-01  8.4120533767831D-02 -3.6640248085209D-01
93  9.2000000000000D-01  7.5027466511639D-02 -3.1153859942619D-01
94  9.3000000000000D-01  6.4411966447090D-02 -2.5685778148006D-01
95  9.4000000000000D-01  5.2977787224480D-02 -2.0404982976288D-01
96  9.5000000000000D-01  4.1405658611808D-02 -1.5470651058311D-01
97  9.6000000000000D-01  3.0336723460135D-02 -1.1028852314968D-01
98  9.7000000000000D-01  2.0357367007351D-02 -7.2095415654943D-02
99  9.8000000000000D-01  1.1991089454766D-02 -4.1254952469236D-02
100  9.9000000000000D-01  5.6303709134922D-03 -1.8534942287819D-02
101  1.0000000000000D+00  1.7927863720288D-03 -5.0809702676735D-03
102  1.0100000000000D+00  4.1834574445151D-04 -4.6393796174108D-04
103  1.0200000000000D+00  2.3603893561971D-05  3.6603194945048D-05
104  1.0300000000000D+00 -1.0666647514523D-05 -4.0769590637861D-05
105  1.0400000000000D+00  5.0910450014812D-06  6.3040076595107D-06
106  1.0500000000000D+00 -1.0749731185523D-06  1.3023682117217D-06
107  1.0600000000000D+00  0.0000000000000D+00  0.0000000000000D+00
108  1.0700000000000D+00  0.0000000000000D+00  0.0000000000000D+00
109  1.0800000000000D+00  0.0000000000000D+00  0.0000000000000D+00
110  1.0900000000000D+00  0.0000000000000D+00  0.0000000000000D+00
111  1.1000000000000D+00  0.0000000000000D+00  0.0000000000000D+00
112  1.1100000000000D+00  0.0000000000000D+00  0.0000000000000D+00
113  1.1200000000000D+00  0.0000000000000D+00  0.0000000000000D+00
114  1.1300000000000D+00  0.0000000000000D+00  0.0000000000000D+00
115  1.1400000000000D+00  0.0000000000000D+00  0.0000000000000D+00
116  1.1500000000000D+00  0.0000000000000D+00  0.0000000000000D+00
117  1.1600000000000D+00  0.0000000000000D+00  0.0000000000000D+00
118  1.1700000000000D+00  0.0000000000000D+00  0.0000000000000D+00
119  1.1800000000000D+00  0.0000000000000D+00  0.0000000000000D+00
120  1.1900000000000D+00  0.0000000000000D+00  0.0000000000000D+00
121  1.2000000000000D+00  0.0000000000000D+00  0.0000000000000D+00
122  1.2100000000000D+00  0.0000000000000D+00  0.0000000000000D+00
123  1.2200000000000D+00  0.0000000000000D+00  0.0000000000000D+00
124  1.2300000000000D+00  0.0000000000000D+00  0.0000000000000D+00
125  1.2400000000000D+00  0.0000000000000D+00  0.0000000000000D+00
126  1.2500000000000D+00  0.0000000000000D+00  0.0000000000000D+00
127  1.2600000000000D+00  0.0000000000000D+00  0.0000000000000D+00
128  1.2700000000000D+00  0.0000000000000D+00  0.0000000000000D+00
129  1.2800000000000D+00  0.0000000000000D+00  0.0000000000000D+00
130  1.2900000000000D+00  0.0000000000000D+00  0.0000000000000D+00
131  1.3000000000000D+00  0.0000000000000D+00  0.0000000000000D+00
132  1.3100000000000D+00  0.0000000000000D+00  0.0000000000000D+00
133  1.3200000000000D+00  0.0000000000000D+00  0.0000000000000D+00
134  1.3300000000000D+00  0.0000000000000D+00  0.0000000000000D+00
135  1.3400000000000D+00  0.0000000000000D+00  0.0000000000000D+00
136  1.3500000000000D+00  0.0000000000000D+00  0.0000000000000D+00
137  1.3600000000000D+00  0.0000000000000D+00  0.0000000000000D+00
138  1.3700000000000D+00  0.0000000000000D+00  0.0000000000000D+00
139  1.3800000000000D+00  0.0000000000000D+00  0.0000000000000D+00
140  1.3900000000000D+00  0.0000000000000D+00  0.0000000000000D+00
141  1.4000000000000D+00  0.0000000000000D+00  0.0000000000000D+00
142  1.4100000000000D+00  0.0000000000000D+00  0.0000000000000D+00
143  1.4200000000000D+00  0.0000000000000D+00  0.0000000000000D+00
144  1.4300000000000D+00  0.0000000000000D+00  0.0000000000000D+00
145  1.4400000000000D+00  0.0000000000000D+00  0.0000000000000D+00
146  1.4500000000000D+00  0.0000000000000D+00  0.0000000000000D+00
147  1.4600000000000D+00  0.0000000000000D+00  0.0000000000000D+00
148  1.4700000000000D+00  0.0000000000000D+00  0.0000000000000D+00
149  1.4800000000000D+00  0.0000000000000D+00  0.0000000000000D+00
150  1.4900000000000D+00  0.0000000000000D+00  0.0000000000000D+00
151  1.5000000000000D+00  0.0000000000000D+00  0.0000000000000D+00
152  1.5100000000000D+00  0.0000000000000D+00  0.0000000000000D+00
153  1.5200000000000D+00  0.0000000000000D+00  0.0000000000000D+00
154  1.5300000000000D+00  0.0000000000000D+00  0.0000000000000D+00
155  1.5400000000000D+00  0.0000000000000D+00  0.0000000000000D+00
156  1.5500000000000D+00  0.0000000000000D+00  0.0000000000000D+00
157  1.5600000000000D+00  0.0000000000000D+00  0.0000000000000D+00
158  1.5700000000000D+00  0.0000000000000D+00  0.0000000000000D+00
159  1.5800000000000D+00  0.0000000000000D+00  0.0000000000000D+00
160  1.5900000000000D+00  0.0000000000000D+00  0.0000000000000D+00
161  1.6000000000000D+00  0.0000000000000D+00  0.0000000000000D+00
162  1.6100000000000D+00  0.0000000000000D+00  0.0000000000000D+00
163  1.6200000000000D+00  0.0000000000000D+00  0.0000000000000D+00
164  1.6300000000000D+00  0.0000000000000D+00  0.0000000000000D+00
165  1.6400000000000D+00  0.0000000000000D+00  0.0000000000000D+00
166  1.6500000000000D+00  0.0000000000000D+00  0.0000000000000D+00
167  1.6600000000000D+00  0.0000000000000D+00  0.0000000000000D+00
168  1.6700000000000D+00  0.0000000000000D+00  0.0000000000000D+00
169  1.6800000000000D+00  0.0000000000000D+00  0.0000000000000D+00
170  1.6900000000000D+00  0.0000000000000D+00  0.0000000000000D+00
171  1.7000000000000D+00  0.0000000000000D+00  0.0000000000000D+00
172  1.7100000000000D+00  0.0000000000000D+00  0.0000000000000D+00
173  1.7200000000000D+00  0.0000000000000D+00  0.0000000000000D+00
174  1.7300000000000D+00  0.0000000000000D+00  0.0000000000000D+00
175  1.7400000000000D+00  0.0000000000000D+00  0.0000000000000D+00
176  1.7500000000000D+00  0.0000000000000D+00  0.0000000000000D+00
177  1.7600000000000D+00  0.0000000000000D+00  0.0000000000000D+00
178  1.7700000000000D+00  0.0000000000000D+00  0.0000000000000D+00
179  1.7800000000000D+00  0.0000000000000D+00  0.0000000000000D+00
180  1.7900000000000D+00  0.0000000000000D+00  0.0000000000000D+00
181  1.8000000000000D+00  0.0000000000000D+00  0.0000000000000D+00
182  1.8100000000000D+00  0.0000000000000D+00  0.0000000000000D+00
183  1.8200000000000D+00  0.0000000000000D+00  0.0000000000000D+00
184  1.8300000000000D+00  0.0000000000000D+00  0.0000000000000D+00
185  1.8400000000000D+00  0.0000000000000D+00  0.0000000000000D+00
186  1.8500000000000D+00  0.0000000000000D+00  0.0000000000000D+00
187  1.8600000000000D+00  0.0000000000000D+00  0.0000000000000D+00
188  1.8700000000000D+00  0.0000000000000D+00  0.0000000000000D+00
189  1.8800000000000D+00  0.0000000000000D+00  0.0000000000000D+00
190  1.8900000000000D+00  0.0000000000000D+00  0.0000000000000D+00
191  1.9000000000000D+00  0.0000000000000D+00  0.0000000000000D+00
192  1.9100000000000D+00  0.0000000000000D+00  0.0000000000000D+00
193  1.9200000000000D+00  0.0000000000000D+00  0.0000000000000D+00
194  1.9300000000000D+00  0.0000000000000D+00  0.0000000000000D+00
195  1.9400000000000D+00  0.0000000000000D+00  0.0000000000000D+00
196  1.9500000000000D+00  0.0000000000000D+00  0.0000000000000D+00
197  1.9600000000000D+00  0.0000000000000D+00  0.0000000000000D+00
198  1.9700000000000D+00  0.0000000000000D+00  0.0000000000000D+00
199  1.9800000000000D+00  0.0000000000000D+00  0.0000000000000D+00
200  1.9900000000000D+00  0.0000000000000D+00  0.0000000000000D+00
201  2.0000000000000D+00  0.0000000000000D+00  0.0000000000000D+00
202  2.0100000000000D+00  0.0000000000000D+00  0.0000000000000D+00
203  2.0200000000000D+00  0.0000000000000D+00  0.0000000000000D+00
204  2.0300000000000D+00  0.0000000000000D+00  0.0000000000000D+00
205  2.0400000000000D+00  0.0000000000000D+00  0.0000000000000D+00
206  2.0500000000000D+00  0.0000000000000D+00  0.0000000000000D+00
207  2.0600000000000D+00  0.0000000000000D+00  0.0000000000000D+00
208  2.0700000000000D+00  0.0000000000000D+00  0.0000000000000D+00
209  2.0800000000000D+00  0.0000000000000D+00  0.0000000000000D+00
210  2.0900000000000D+00  0.0000000000000D+00  0.0000000000000D+00
211  2.1000000000000D+00  0.0000000000000D+00  0.0000000000000D+00
212  2.1100000000000D+00  0.0000000000000D+00  0.0000000000000D+00
213  2.1200000000000D+00  0.0000000000000D+00  0.0000000000000D+00
214  2.1300000000000D+00  0.0000000000000D+00  0.0000000000000D+00
215  2.1400000000000D+00  0.0000000000000D+00  0.0000000000000D+00
216  2.1500000000000D+00  0.0000000000000D+00  0.0000000000000D+00
217  2.1600000000000D+00  0.0000000000000D+00  0.0000000000000D+00
218  2.1700000000000D+00  0.0000000000000D+00  0.0000000000000D+00
219  2.1800000000000D+00  0.0000000000000D+00  0.0000000000000D+00
220  2.1900000000000D+00  0.0000000000000D+00  0.0000000000000D+00
221  2.2000000000000D+00  0.0000000000000D+00  0.0000000000000D+00
222  2.2100000000000D+00  0.0000000000000D+00  0.0000000000000D+00
223  2.2200000000000D+00  0.0000000000000D+00  0.0000000000000D+00
224  2.2300000000000D+00  0.0000000000000D+00  0.0000000000000D+00
225  2.2400000000000D+00  0.0000000000000D+00  0.0000000000000D+00
226  2.2500000000000D+00  0.0000000000000D+00  0.0000000000000D+00
227  2.2600000000000D+00  0.0000000000000D+00  0.0000000000000D+00
228  2.2700000000000D+00  0.0000000000000D+00  0.0000000000000D+00
229  2.2800000000000D+00  0.0000000000000D+00  0.0000000000000D+00
230  2.2900000000000D+00  0.0000000000000D+00  0.0000000000000D+00
231  2.3000000000000D+00  0.0000000000000D+00  0.0000000000000D+00
232  2.3100000000000D+00  0.0000000000000D+00  0.0000000000000D+00
233  2.3200000000000D+00  0.0000000000000D+00  0.0000000000000D+00
234  2.3300000000000D+00  0.0000000000000D+00  0.0000000000000D+00
235  2.3400000000000D+00  0.0000000000000D+00  0.0000000000000D+00
236  2.3500000000000D+00  0.0000000000000D+00  0.0000000000000D+00
237  2.3600000000000D+00  0.0000000000000D+00  0.0000000000000D+00
238  2.3700000000000D+00  0.0000000000000D+00  0.0000000000000D+00
239  2.3800000000000D+00  0.0000000000000D+00  0.0000000000000D+00
240  2.3900000000000D+00  0.0000000000000D+00  0.0000000000000D+00
241  2.4000000000000D+00  0.0000000000000D+00  0.0000000000000D+00
242  2.4100000000000D+00  0.0000000000000D+00  0.0000000000000D+00
243  2.4200000000000D+00  0.0000000000000D+00  0.0000000000000D+00
244  2.4300000000000D+00  0.0000000000000D+00  0.0000000000000D+00
245  2.4400000000000D+00  0.0000000000000D+00  0.0000000000000D+00
246  2.4500000000000D+00  0.0000000000000D+00  0.0000000000000D+00
247  2.4600000000000D+00  0.0000000000000D+00  0.0000000000000D+00
248  2.4700000000000D+00  0.0000000000000D+00  0.0000000000000D+00
249  2.4800000000000D+00  0.0000000000000D+00  0.0000000000000D+00
250  2.4900000000000D+00  0.0000000000000D+00  0.0000000000000D+00
251  2.5000000000000D+00  0.0000000000000D+00  0.0000000000000D+00
252  2.5100000000000D+00  0.0000000000000D+00  0.0000000000000D+00
253  2.5200000000000D+00  0.0000000000000D+00  0.0000000000000D+00
254  2.5300000000000D+00  0.0000000000000D+00  0.0000000000000D+00
255  2.5400000000000D+00  0.0000000000000D+00  0.0000000000000D+00
256  2.5500000000000D+00  0.0000000000000D+00  0.0000000000000D+00
257  2.5600000000000D+00  0.0000000000000D+00  0.0000000000000D+00
258  2.5700000000000D+00  0.0000000000000D+00  0.0000000000000D+00
259  2.5800000000000D+00  0.0000000000000D+00  0.0000000000000D+00
260  2.5900000000000D+00  0.0000000000000D+00  0.0000000000000D+00
261  2.6000000000000D+00  0.0000000000000D+00  0.0000000000000D+00
262  2.6100000000000D+00  0.0000000000000D+00  0.0000000000000D+00
263  2.6200000000000D+00  0.0000000000000D+00  0.0000000000000D+00
264  2.6300000000000D+00  0.0000000000000D+00  0.0000000000000D+00
265  2.6400000000000D+00  0.0000000000000D+00  0.0000000000000D+00
266  2.6500000000000D+00  0.0000000000000D+00  0.0000000000000D+00
267  2.6600000000000D+00  0.0000000000000D+00  0.0000000000000D+00
268  2.6700000000000D+00  0.0000000000000D+00  0.0000000000000D+00
269  2.6800000000000D+00  0.0000000000000D+00  0.0000000000000D+00
270  2.6900000000000D+00  0.0000000000000D+00  0.0000000000000D+00
271  2.7000000000000D+00  0.0000000000000D+00  0.0000000000000D+00
272  2.7100000000000D+00  0.0000000000000D+00  0.0000000000000D+00
273  2.7200000000000D+00  0.0000000000000D+00  0.0000000000000D+00
274  2.7300000000000D+00  0.0000000000000D+00  0.0000000000000D+00
275  2.7400000000000D+00  0.0000000000000D+00  0.0000000000000D+00
276  2.7500000000000D+00  0.0000000000000D+00  0.0000000000000D+00
277  2.7600000000000D+00  0.0000000000000D+00  0.0000000000000D+00
278  2.7700000000000D+00  0.0000000000000D+00  0.0000000000000D+00
279  2.7800000000000D+00  0.0000000000000D+00  0.0000000000000D+00
280  2.7900000000000D+00  0.0000000000000D+00  0.0000000000000D+00
281  2.8000000000000D+00  0.0000000000000D+00  0.0000000000000D+00
282  2.8100000000000D+00  0.0000000000000D+00  0.0000000000000D+00
283  2.8200000000000D+00  0.0000000000000D+00  0.0000000000000D+00
284  2.8300000000000D+00  0.0000000000000D+00  0.0000000000000D+00
285  2.8400000000000D+00  0.0000000000000D+00  0.0000000000000D+00
286  2.8500000000000D+00  0.0000000000000D+00  0.0000000000000D+00
287  2.8600000000000D+00  0.0000000000000D+00  0.0000000000000D+00
288  2.8700000000000D+00  0.0000000000000D+00  0.0000000000000D+00
289  2.8800000000000D+00  0.0000000000000D+00  0.0000000000000D+00
290  2.8900000000000D+00  0.0000000000000D+00  0.0000000000000D+00
291  2.9000000000000D+00  0.0000000000000D+00  0.0000000000000D+00
292  2.9100000000000D+00  0.0000000000000D+00  0.0000000000000D+00
293  2.9200000000000D+00  0.0000000000000D+00  0.0000000000000D+00
294  2.9300000000000D+00  0.0000000000000D+00  0.0000000000000D+00
295  2.9400000000000D+00  0.0000000000000D+00  0.0000000000000D+00
296  2.9500000000000D+00  0.0000000000000D+00  0.0000000000000D+00
297  2.9600000000000D+00  0.0000000000000D+00  0.0000000000000D+00
298  2.9700000000000D+00  0.0000000000000D+00  0.0000000000000D+00
299  2.9800000000000D+00  0.0000000000000D+00  0.0000000000000D+00
300  2.9900000000000D+00  0.0000000000000D+00  0.0000000000000D+00
1                        -5.0332112096139D-01
1  0.0000000000000D+00 -1.1508028778251D-06
2  1.0000000000000D-02 -9.3498813504617D-03
3  2.0000000000000D-02 -3.7035805730466D-02
4  3.0000000000000D-02 -8.1984762837186D-02
5  4.0000000000000D-02 -1.4246797494993D-01
6  5.0000000000000D-02 -2.1618707212974D-01
7  6.0000000000000D-02 -3.0038853372737D-01
8  7.0000000000000D-02 -3.9200056725615D-01
9  8.0000000000000D-02 -4.8778544488302D-01
10  9.0000000000000D-02 -5.8449951756792D-01
11  1.0000000000000D-01 -6.7905271797649D-01
12  1.1000000000000D-01 -7.6865936706054D-01
13  1.2000000000000D-01 -8.5097251651208D-01
14  1.3000000000000D-01 -9.2419487045443D-01
15  1.4000000000000D-01 -9.8716049541471D-01
16  1.5000000000000D-01 -1.0393829907634D+00
17  1.6000000000000D-01 -1.0810674803872D+00
18  1.7000000000000D-01 -1.1130856169120D+00
19  1.8000000000000D-01 -1.1369146714777D+00
20  1.9000000000000D-01 -1.1545436211621D+00
21  2.0000000000000D-01 -1.1683508506111D+00
22  2.1000000000000D-01 -1.1809595685117D+00
23  2.2000000000000D-01 -1.1950782279416D+00
24  2.3000000000000D-01 -1.2133340713621D+00
25  2.4000000000000D-01 -1.2381083523661D+00
26  2.5000000000000D-01 -1.2713817931173D+00
27  2.6000000000000D-01 -1.3145984153866D+00
28  2.7000000000000D-01 -1.3685550519654D+00
29  2.8000000000000D-01 -1.4333226421051D+00
30  2.9000000000000D-01 -1.5082038961118D+00
31  3.0000000000000D-01 -1.5917301528467D+00
32  3.1000000000000D-01 -1.6816983345465D+00
33  3.2000000000000D-01 -1.7752469193265D+00
34  3.3000000000000D-01 -1.8689678999812D+00
35  3.4000000000000D-01 -1.9590498744153D+00
36  3.5000000000000D-01 -2.0414458086326D+00
37  3.6000000000000D-01 -2.1120577082216D+00
38  3.7000000000000D-01 -2.1669294949851D+00
39  3.8000000000000D-01 -2.2024388608437D+00
40  3.9000000000000D-01 -2.2154787905411D+00
41  4.0000000000000D-01 -2.2036198157664D+00
42  4.1000000000000D-01 -2.1652448719332D+00
43  4.2000000000000D-01 -2.0996498396485D+00
44  4.3000000000000D-01 -2.0071044105303D+00
45  4.4000000000000D-01 -1.8888697492116D+00
46  4.5000000000000D-01 -1.7471714438848D+00
47  4.6000000000000D-01 -1.5851283507483D+00
48  4.7000000000000D-01 -1.4066400422620D+00
49  4.8000000000000D-01 -1.2162375640294D+00
50  4.9000000000000D-01 -1.0189039936441D+00
51  5.0000000000000D-01 -8.1987278992343D-01
52  5.1000000000000D-01 -6.2441304892013D-01
53  5.2000000000000D-01 -4.3761148697865D-01
54  5.3000000000000D-01 -2.6416121508860D-01
55  5.4000000000000D-01 -1.0816713817420D-01
56  5.5000000000000D-01  2.7022886093331D-02
57  5.6000000000000D-01  1.3895312569366D-01
58  5.7000000000000D-01  2.2615480985750D-01
59  5.8000000000000D-01  2.8819606967076D-01
60  5.9000000000000D-01  3.2568440120150D-01
61  6.0000000000000D-01  3.4022125504829D-01
62  6.1000000000000D-01  3.3431058980974D-01
63  6.2000000000000D-01  3.1122536240568D-01
64  6.3000000000000D-01  2.7483790584310D-01
65  6.4000000000000D-01  2.2942183277588D-01
66  6.5000000000000D-01  1.7943444490912D-01
67  6.6000000000000D-01  1.2928955032551D-01
68  6.7000000000000D-01  8.3131044052708D-02
69  6.8000000000000D-01  4.4617579046973D-02
70  6.9000000000000D-01  1.6715533424074D-02
71  7.0000000000000D-01  1.6962975592638D-03
72  7.1000000000000D-01 -6.6930380733633D-04
73  7.2000000000000D-01  1.3110909317807D-04
74  7.3000000000000D-01 -1.6952663931035D-05
75  7.4000000000000D-01  2.8584407752932D-07
76  7.5000000000000D-01  0.0000000000000D+00
77  7.6000000000000D-01  0.0000000000000D+00
78  7.7000000000000D-01  0.0000000000000D+00
79  7.8000000000000D-01  0.0000000000000D+00
80  7.9000000000000D-01  0.0000000000000D+00
81  8.0000000000000D-01  0.0000000000000D+00
82  8.1000000000000D-01  0.0000000000000D+00
83  8.2000000000000D-01  0.0000000000000D+00
84  8.3000000000000D-01  0.0000000000000D+00
85  8.4000000000000D-01  0.0000000000000D+00
86  8.5000000000000D-01  0.0000000000000D+00
87  8.6000000000000D-01  0.0000000000000D+00
88  8.7000000000000D-01  0.0000000000000D+00
89  8.8000000000000D-01  0.0000000000000D+00
90  8.9000000000000D-01  0.0000000000000D+00
91  9.0000000000000D-01  0.0000000000000D+00
92  9.1000000000000D-01  0.0000000000000D+00
93  9.2000000000000D-01  0.0000000000000D+00
94  9.3000000000000D-01  0.0000000000000D+00
95  9.4000000000000D-01  0.0000000000000D+00
96  9.5000000000000D-01  0.0000000000000D+00
97  9.6000000000000D-01  0.0000000000000D+00
98  9.7000000000000D-01  0.0000000000000D+00
99  9.8000000000000D-01  0.0000000000000D+00
100  9.9000000000000D-01  0.0000000000000D+00
101  1.0000000000000D+00  0.0000000000000D+00
102  1.0100000000000D+00  0.0000000000000D+00
103  1.0200000000000D+00  0.0000000000000D+00
104  1.0300000000000D+00  0.0000000000000D+00
105  1.0400000000000D+00  0.0000000000000D+00
106  1.0500000000000D+00  0.0000000000000D+00
107  1.0600000000000D+00  0.0000000000000D+00
108  1.0700000000000D+00  0.0000000000000D+00
109  1.0800000000000D+00  0.0000000000000D+00
110  1.0900000000000D+00  0.0000000000000D+00
111  1.1000000000000D+00  0.0000000000000D+00
112  1.1100000000000D+00  0.0000000000000D+00
113  1.1200000000000D+00  0.0000000000000D+00
114  1.1300000000000D+00  0.0000000000000D+00
115  1.1400000000000D+00  0.0000000000000D+00
116  1.1500000000000D+00  0.0000000000000D+00
117  1.1600000000000D+00  0.0000000000000D+00
118  1.1700000000000D+00  0.0000000000000D+00
119  1.1800000000000D+00  0.0000000000000D+00
120  1.1900000000000D+00  0.0000000000000D+00
121  1.2000000000000D+00  0.0000000000000D+00
122  1.2100000000000D+00  0.0000000000000D+00
123  1.2200000000000D+00  0.0000000000000D+00
124  1.2300000000000D+00  0.0000000000000D+00
125  1.2400000000000D+00  0.0000000000000D+00
126  1.2500000000000D+00  0.0000000000000D+00
127  1.2600000000000D+00  0.0000000000000D+00
128  1.2700000000000D+00  0.0000000000000D+00
129  1.2800000000000D+00  0.0000000000000D+00
130  1.2900000000000D+00  0.0000000000000D+00
131  1.3000000000000D+00  0.0000000000000D+00
132  1.3100000000000D+00  0.0000000000000D+00
133  1.3200000000000D+00  0.0000000000000D+00
134  1.3300000000000D+00  0.0000000000000D+00
135  1.3400000000000D+00  0.0000000000000D+00
136  1.3500000000000D+00  0.0000000000000D+00
137  1.3600000000000D+00  0.0000000000000D+00
138  1.3700000000000D+00  0.0000000000000D+00
139  1.3800000000000D+00  0.0000000000000D+00
140  1.3900000000000D+00  0.0000000000000D+00
141  1.4000000000000D+00  0.0000000000000D+00
142  1.4100000000000D+00  0.0000000000000D+00
143  1.4200000000000D+00  0.0000000000000D+00
144  1.4300000000000D+00  0.0000000000000D+00
145  1.4400000000000D+00  0.0000000000000D+00
146  1.4500000000000D+00  0.0000000000000D+00
147  1.4600000000000D+00  0.0000000000000D+00
148  1.4700000000000D+00  0.0000000000000D+00
149  1.4800000000000D+00  0.0000000000000D+00
150  1.4900000000000D+00  0.0000000000000D+00
151  1.5000000000000D+00  0.0000000000000D+00
152  1.5100000000000D+00  0.0000000000000D+00
153  1.5200000000000D+00  0.0000000000000D+00
154  1.5300000000000D+00  0.0000000000000D+00
155  1.5400000000000D+00  0.0000000000000D+00
156  1.5500000000000D+00  0.0000000000000D+00
157  1.5600000000000D+00  0.0000000000000D+00
158  1.5700000000000D+00  0.0000000000000D+00
159  1.5800000000000D+00  0.0000000000000D+00
160  1.5900000000000D+00  0.0000000000000D+00
161  1.6000000000000D+00  0.0000000000000D+00
162  1.6100000000000D+00  0.0000000000000D+00
163  1.6200000000000D+00  0.0000000000000D+00
164  1.6300000000000D+00  0.0000000000000D+00
165  1.6400000000000D+00  0.0000000000000D+00
166  1.6500000000000D+00  0.0000000000000D+00
167  1.6600000000000D+00  0.0000000000000D+00
168  1.6700000000000D+00  0.0000000000000D+00
169  1.6800000000000D+00  0.0000000000000D+00
170  1.6900000000000D+00  0.0000000000000D+00
171  1.7000000000000D+00  0.0000000000000D+00
172  1.7100000000000D+00  0.0000000000000D+00
173  1.7200000000000D+00  0.0000000000000D+00
174  1.7300000000000D+00  0.0000000000000D+00
175  1.7400000000000D+00  0.0000000000000D+00
176  1.7500000000000D+00  0.0000000000000D+00
177  1.7600000000000D+00  0.0000000000000D+00
178  1.7700000000000D+00  0.0000000000000D+00
179  1.7800000000000D+00  0.0000000000000D+00
180  1.7900000000000D+00  0.0000000000000D+00
181  1.8000000000000D+00  0.0000000000000D+00
182  1.8100000000000D+00  0.0000000000000D+00
183  1.8200000000000D+00  0.0000000000000D+00
184  1.8300000000000D+00  0.0000000000000D+00
185  1.8400000000000D+00  0.0000000000000D+00
186  1.8500000000000D+00  0.0000000000000D+00
187  1.8600000000000D+00  0.0000000000000D+00
188  1.8700000000000D+00  0.0000000000000D+00
189  1.8800000000000D+00  0.0000000000000D+00
190  1.8900000000000D+00  0.0000000000000D+00
191  1.9000000000000D+00  0.0000000000000D+00
192  1.9100000000000D+00  0.0000000000000D+00
193  1.9200000000000D+00  0.0000000000000D+00
194  1.9300000000000D+00  0.0000000000000D+00
195  1.9400000000000D+00  0.0000000000000D+00
196  1.9500000000000D+00  0.0000000000000D+00
197  1.9600000000000D+00  0.0000000000000D+00
198  1.9700000000000D+00  0.0000000000000D+00
199  1.9800000000000D+00  0.0000000000000D+00
200  1.9900000000000D+00  0.0000000000000D+00
201  2.0000000000000D+00  0.0000000000000D+00
202  2.0100000000000D+00  0.0000000000000D+00
203  2.0200000000000D+00  0.0000000000000D+00
204  2.0300000000000D+00  0.0000000000000D+00
205  2.0400000000000D+00  0.0000000000000D+00
206  2.0500000000000D+00  0.0000000000000D+00
207  2.0600000000000D+00  0.0000000000000D+00
208  2.0700000000000D+00  0.0000000000000D+00
209  2.0800000000000D+00  0.0000000000000D+00
210  2.0900000000000D+00  0.0000000000000D+00
211  2.1000000000000D+00  0.0000000000000D+00