In    ONCVPSP-3.2.3.1  r_core=   2.10853   2.37566   1.87143
49.0000     13.0000      170510    zatom,zion,pspd
8      11   2     4   600     0    pspcod,pspxc,lmax,lloc,mmax,r2well
5.99000000  5.00000000  0.00000000    rchrg fchrg qchrg
2     2     2     0     0    nproj
1     1           extension_switch
0                         1.2954318711292D+01  1.9277128443095D+00
1  0.0000000000000D+00 -1.9897916647693D-10  2.0077289830667D-10
2  1.0000000000000D-02  5.9081042351110D-02 -4.0730854536254D-02
3  2.0000000000000D-02  1.1788228035358D-01 -8.1186462044011D-02
4  3.0000000000000D-02  1.7612552538865D-01 -1.2109317140320D-01
5  4.0000000000000D-02  2.3353581110076D-01 -1.6018051415561D-01
6  5.0000000000000D-02  2.8984298158794D-01 -1.9818277299923D-01
7  6.0000000000000D-02  3.4478325220367D-01 -2.3484052302071D-01
8  7.0000000000000D-02  3.9810073407446D-01 -2.6990213681472D-01
9  8.0000000000000D-02  4.4954891363657D-01 -3.0312524483967D-01
10  9.0000000000000D-02  4.9889207874199D-01 -3.3427814260833D-01
11  1.0000000000000D-01  5.4590668317721D-01 -3.6314113660769D-01
12  1.1000000000000D-01  5.9038264177689D-01 -3.8950782118397D-01
13  1.2000000000000D-01  6.3212454869644D-01 -4.1318627901365D-01
14  1.3000000000000D-01  6.7095281183086D-01 -4.3400019820816D-01
15  1.4000000000000D-01  7.0670469682971D-01 -4.5178989956602D-01
16  1.5000000000000D-01  7.3923527465792D-01 -4.6641326798963D-01
17  1.6000000000000D-01  7.6841826718558D-01 -4.7774658262126D-01
18  1.7000000000000D-01  7.9414678585559D-01 -4.8568524082217D-01
19  1.8000000000000D-01  8.1633395907209D-01 -4.9014437171661D-01
20  1.9000000000000D-01  8.3491344457210D-01 -4.9105933564547D-01
21  2.0000000000000D-01  8.4983982368471D-01 -4.8838610651969D-01
22  2.1000000000000D-01  8.6108887504313D-01 -4.8210153472753D-01
23  2.2000000000000D-01  8.6865772599102D-01 -4.7220348892871D-01
24  2.3000000000000D-01  8.7256488061272D-01 -4.5871087575882D-01
25  2.4000000000000D-01  8.7285012401301D-01 -4.4166353716545D-01
26  2.5000000000000D-01  8.6957430317292D-01 -4.2112202579949D-01
27  2.6000000000000D-01  8.6281898540903D-01 -3.9716725958657D-01
28  2.7000000000000D-01  8.5268599616167D-01 -3.6990005730180D-01
29  2.8000000000000D-01  8.3929683852850D-01 -3.3944055766087D-01
30  2.9000000000000D-01  8.2279199763926D-01 -3.0592752511878D-01
31  3.0000000000000D-01  8.0333013363338D-01 -2.6951754623036D-01
32  3.1000000000000D-01  7.8108716764796D-01 -2.3038412106980D-01
33  3.2000000000000D-01  7.5625526584866D-01 -1.8871665482680D-01
34  3.3000000000000D-01  7.2904172713419D-01 -1.4471935529000D-01
35  3.4000000000000D-01  6.9966778071468D-01 -9.8610042491733D-02
36  3.5000000000000D-01  6.6836730030045D-01 -5.0618877317282D-02
37  3.6000000000000D-01  6.3538544213867D-01 -9.8701637433995D-04
38  3.7000000000000D-01  6.0097721459705D-01  5.0034799129090D-02
39  3.8000000000000D-01  5.6540598741330D-01  1.0218771234053D-01
40  3.9000000000000D-01  5.2894194910495D-01  1.5520626903056D-01
41  4.0000000000000D-01  4.9186052136232D-01  2.0881997633373D-01
42  4.1000000000000D-01  4.5444073952672D-01  2.6275489285816D-01
43  4.2000000000000D-01  4.1696360848456D-01  3.1673524084497D-01
44  4.3000000000000D-01  3.7971044348331D-01  3.7048503089776D-01
45  4.4000000000000D-01  3.4296120549693D-01  4.2372968969645D-01
46  4.5000000000000D-01  3.0699284083444D-01  4.7619768105987D-01
47  4.6000000000000D-01  2.7207763469563D-01  5.2762211072802D-01
48  4.7000000000000D-01  2.3848158833186D-01  5.7774230529845D-01
49  4.8000000000000D-01  2.0646282936665D-01  6.2630535587177D-01
50  4.9000000000000D-01  1.7627006467187D-01  6.7306761713877D-01
51  5.0000000000000D-01  1.4814108498008D-01  7.1779615287497D-01
52  5.1000000000000D-01  1.2230133014304D-01  7.6027011909685D-01
53  5.2000000000000D-01  9.8962523622766D-02  8.0028207647687D-01
54  5.3000000000000D-01  7.8321384424366D-02  8.3763922400863D-01
55  5.4000000000000D-01  6.0558424253415D-02  8.7216454635841D-01
56  5.5000000000000D-01  4.5836837204802D-02  9.0369786783253D-01
57  5.6000000000000D-01  3.4301488768633D-02  9.3209680642755D-01
58  5.7000000000000D-01  2.6078010374836D-02  9.5723762201102D-01
59  5.8000000000000D-01  2.1272005092520D-02  9.7901595330062D-01
60  5.9000000000000D-01  1.9968369460395D-02  9.9734743896389D-01
61  6.0000000000000D-01  2.2230735748514D-02  1.0121682188495D+00
62  6.1000000000000D-01  2.8101038249421D-02  1.0234353120751D+00
63  6.2000000000000D-01  3.7599206467398D-02  1.0311268694363D+00
64  6.3000000000000D-01  5.0722987323448D-02  1.0352422983611D+00
65  6.4000000000000D-01  6.7447897730514D-02  1.0358022594053D+00
66  6.5000000000000D-01  8.7727308111216D-02  1.0328485340691D+00
67  6.6000000000000D-01  1.1149265664689D-01  1.0264437645061D+00
68  6.7000000000000D-01  1.3865379325985D-01  1.0166710664807D+00
69  6.8000000000000D-01  1.6909945154201D-01  1.0036335177191D+00
70  6.9000000000000D-01  2.0269784606639D-01  9.8745352457382D-01
71  7.0000000000000D-01  2.3929739175237D-01  9.6827207068014D-01
72  7.1000000000000D-01  2.7872754120495D-01  9.4624785202868D-01
73  7.2000000000000D-01  3.2079973522072D-01  9.2155630359331D-01
74  7.3000000000000D-01  3.6530846095319D-01  8.9438852334379D-01
75  7.4000000000000D-01  4.1203241155886D-01  8.6495010012822D-01
76  7.5000000000000D-01  4.6073574051213D-01  8.3345985252705D-01
77  7.6000000000000D-01  5.1116940318163D-01  8.0014848635688D-01
78  7.7000000000000D-01  5.6307257770874D-01  7.6525717903238D-01
79  7.8000000000000D-01  6.1617415672648D-01  7.2903609947369D-01
80  7.9000000000000D-01  6.7019430100349D-01  6.9174287267389D-01
81  8.0000000000000D-01  7.2484604569934D-01  6.5364099841196D-01
82  8.1000000000000D-01  7.7983694957568D-01  6.1499823390785D-01
83  8.2000000000000D-01  8.3487077722564D-01  5.7608495046683D-01
84  8.3000000000000D-01  8.8964920416309D-01  5.3717247434705D-01
85  8.4000000000000D-01  9.4387353445643D-01  4.9853142220599D-01
86  8.5000000000000D-01  9.9724642049918D-01  4.6043004153733D-01
87  8.6000000000000D-01  1.0494735744824D+00  4.2313256649848D-01
88  8.7000000000000D-01  1.1002654611737D+00  3.8689759945051D-01
89  8.8000000000000D-01  1.1493389617137D+00  3.5197652838667D-01
90  8.9000000000000D-01  1.1964189983106D+00  3.1861199021374D-01
91  9.0000000000000D-01  1.2412401099518D+00  2.8703638957269D-01
92  9.1000000000000D-01  1.2835479695512D+00  2.5747048254392D-01
93  9.2000000000000D-01  1.3231008333128D+00  2.3012203417856D-01
94  9.3000000000000D-01  1.3596709135130D+00  2.0518455833428D-01
95  9.4000000000000D-01  1.3930456663861D+00  1.8283614777391D-01
96  9.5000000000000D-01  1.4230289873291D+00  1.6323840191148D-01
97  9.6000000000000D-01  1.4494423062287D+00  1.4653545896644D-01
98  9.7000000000000D-01  1.4721255763447D+00  1.3285313861861D-01
99  9.8000000000000D-01  1.4909381508681D+00  1.2229820053547D-01
100  9.9000000000000D-01  1.5057595419713D+00  1.1495772341309D-01
101  1.0000000000000D+00  1.5164900579329D+00  1.1089860837339D-01
102  1.0100000000000D+00  1.5230513146945D+00  1.1016720975686D-01
103  1.0200000000000D+00  1.5253866190077D+00  1.1278909552336D-01
104  1.0300000000000D+00  1.5234612211529D+00  1.1876893862558D-01
105  1.0400000000000D+00  1.5172624360550D+00  1.2809053985619D-01
106  1.0500000000000D+00  1.5067996324618D+00  1.4071698181084D-01
107  1.0600000000000D+00  1.4921040906716D+00  1.5659091277609D-01
108  1.0700000000000D+00  1.4732287301944D+00  1.7563495844043D-01
109  1.0800000000000D+00  1.4502477095143D+00  1.9775225853873D-01
110  1.0900000000000D+00  1.4232559009764D+00  2.2282712468149D-01
111  1.1000000000000D+00  1.3923682445948D+00  2.5072581484724D-01
112  1.1100000000000D+00  1.3577189853358D+00  2.8129741926503D-01
113  1.1200000000000D+00  1.3194607992356D+00  3.1437485161638D-01
114  1.1300000000000D+00  1.2777638143562D+00  3.4977593885811D-01
115  1.1400000000000D+00  1.2328145332967D+00  3.8730460226905D-01
116  1.1500000000000D+00  1.1848146644906D+00  4.2675212183081D-01
117  1.1600000000000D+00  1.1339798702485D+00  4.6789847535260D-01
118  1.1700000000000D+00  1.0805384399059D+00  5.1051374337914D-01
119  1.1800000000000D+00  1.0247298969144D+00  5.5435957047603D-01
120  1.1900000000000D+00  9.6680354909657D-01  5.9919067313594D-01
121  1.2000000000000D+00  9.0701699168670D-01  6.4475638419831D-01
122  1.2100000000000D+00  8.4563457297622D-01  6.9080222352531D-01
123  1.2200000000000D+00  7.8292583256661D-01  7.3707148451861D-01
124  1.2300000000000D+00  7.1916392245871D-01  7.8330682591296D-01
125  1.2400000000000D+00  6.5462402116308D-01  8.2925185837498D-01
126  1.2500000000000D+00  5.8958175104781D-01  8.7465271544421D-01
127  1.2600000000000D+00  5.2431160911606D-01  9.1925959844681D-01
128  1.2700000000000D+00  4.5908542112063D-01  9.6282828537578D-01
129  1.2800000000000D+00  3.9417082881348D-01  1.0051215938710D+00
130  1.2900000000000D+00  3.2982981992046D-01  1.0459107887122D+00
131  1.3000000000000D+00  2.6631730976890D-01  1.0849769250017D+00
132  1.3100000000000D+00  2.0387978344943D-01  1.1221121182677D+00
133  1.3200000000000D+00  1.4275400687119D-01  1.1571207333334D+00
134  1.3300000000000D+00  8.3165814040266D-02  1.1898204849322D+00
135  1.3400000000000D+00  2.5328978212977D-02  1.2200434426988D+00
136  1.3500000000000D+00 -3.0555826689287D-02  1.2476369345767D+00
137  1.3600000000000D+00 -8.4301969071103D-02  1.2724643438048D+00
138  1.3700000000000D+00 -1.3573770075557D-01  1.2944057936153D+00
139  1.3800000000000D+00 -1.8470689287400D-01  1.3133587170119D+00
140  1.3900000000000D+00 -2.3106966241867D-01  1.3292383080876D+00
141  1.4000000000000D+00 -2.7470288605152D-01  1.3419778521451D+00
142  1.4100000000000D+00 -3.1550060041059D-01  1.3515289346765D+00
143  1.4200000000000D+00 -3.5337428596242D-01  1.3578615269468D+00
144  1.4300000000000D+00 -3.8825303522042D-01  1.3609639499073D+00
145  1.4400000000000D+00 -4.2008360533348D-01  1.3608427172834D+00
146  1.4500000000000D+00 -4.4883035529672D-01  1.3575222589741D+00
147  1.4600000000000D+00 -4.7447507164669D-01  1.3510445296169D+00
148  1.4700000000000D+00 -4.9701668279544D-01  1.3414685033586D+00
149  1.4800000000000D+00 -5.1647086783137D-01  1.3288695617086D+00
150  1.4900000000000D+00 -5.3286956229518D-01  1.3133387779252D+00
151  1.5000000000000D+00 -5.4626036629572D-01  1.2949821043392D+00
152  1.5100000000000D+00 -5.5670586093638D-01  1.2739194695610D+00
153  1.5200000000000D+00 -5.6428283760566D-01  1.2502837911738D+00
154  1.5300000000000D+00 -5.6908144891330D-01  1.2242199136236D+00
155  1.5400000000000D+00 -5.7120428574564D-01  1.1958834768638D+00
156  1.5500000000000D+00 -5.7076539042605D-01  1.1654397265908D+00
157  1.5600000000000D+00 -5.6788921179340D-01  1.1330622729419D+00
158  1.5700000000000D+00 -5.6270951184181D-01  1.0989318081184D+00
159  1.5800000000000D+00 -5.5536823133491D-01  1.0632347912842D+00
160  1.5900000000000D+00 -5.4601432365524D-01  1.0261621108367D+00
161  1.6000000000000D+00 -5.3480256507261D-01  9.8790773296482D-01
162  1.6100000000000D+00 -5.2189235073103D-01  9.4866734668798D-01
163  1.6200000000000D+00 -5.0744648431812D-01  9.0863701379343D-01
164  1.6300000000000D+00 -4.9162997121972D-01  8.6801183445064D-01
165  1.6400000000000D+00 -4.7460882193634D-01  8.2698463541004D-01
166  1.6500000000000D+00 -4.5654887601772D-01  7.8574469065291D-01
167  1.6600000000000D+00 -4.3761465429238D-01  7.4447649192401D-01
168  1.6700000000000D+00 -4.1796823898624D-01  7.0335853202418D-01
169  1.6800000000000D+00 -3.9776822174694D-01  6.6256224930844D-01
170  1.6900000000000D+00 -3.7716866265874D-01  6.2225089318499D-01
171  1.7000000000000D+00 -3.5631809040737D-01  5.8257836533039D-01
172  1.7100000000000D+00 -3.3535869866105D-01  5.4368873417616D-01
173  1.7200000000000D+00 -3.1442558292635D-01  5.0571574284180D-01
174  1.7300000000000D+00 -2.9364610465103D-01  4.6878243497638D-01
175  1.7400000000000D+00 -2.7313937186107D-01  4.3300105863375D-01
176  1.7500000000000D+00 -2.5301569248126D-01  3.9847254010508D-01
177  1.7600000000000D+00 -2.3337610790616D-01  3.6528601101520D-01
178  1.7700000000000D+00 -2.1431204493717D-01  3.3351859225809D-01
179  1.7800000000000D+00 -1.9590504068504D-01  3.0323521727694D-01
180  1.7900000000000D+00 -1.7822656021293D-01  2.7448855912459D-01
181  1.8000000000000D+00 -1.6133790014028D-01  2.4731905822617D-01
182  1.8100000000000D+00 -1.4529018032068D-01  2.2175504496503D-01
183  1.8200000000000D+00 -1.3012442026126D-01  1.9781295668627D-01
184  1.8300000000000D+00 -1.1587169769171D-01  1.7549764500526D-01
185  1.8400000000000D+00 -1.0255338920242D-01  1.5480277281225D-01
186  1.8500000000000D+00 -9.0181483532158D-02  1.3571129036746D-01
187  1.8600000000000D+00 -7.8758972106591D-02  1.1819599481803D-01
188  1.8700000000000D+00 -6.8280300883920D-02  1.0222015567858D-01
189  1.8800000000000D+00 -5.8731891238667D-02  8.7738213816965D-02
190  1.8900000000000D+00 -5.0092711416984D-02  7.4696533952645D-02
191  1.9000000000000D+00 -4.2334903670354D-02  6.3034215309971D-02
192  1.9100000000000D+00 -3.5424452664096D-02  5.2683944833282D-02
193  1.9200000000000D+00 -2.9321893075316D-02  4.3572890001918D-02
194  1.9300000000000D+00 -2.3983048166128D-02  3.5623622125448D-02
195  1.9400000000000D+00 -1.9359791346962D-02  2.8755061150604D-02
196  1.9500000000000D+00 -1.5400825335602D-02  2.2883435527238D-02
197  1.9600000000000D+00 -1.2052470561935D-02  1.7923248267483D-02
198  1.9700000000000D+00 -9.2594546766320D-03  1.3788239383771D-02
199  1.9800000000000D+00 -6.9656991035796D-03  1.0392340749779D-02
200  1.9900000000000D+00 -5.1150908308283D-03  7.6506097103459D-03
201  2.0000000000000D+00 -3.6522366756632D-03  5.4801385613260D-03
202  2.0100000000000D+00 -2.5231922135824D-03  3.8009311469151D-03
203  2.0200000000000D+00 -1.6761538573291D-03  2.5367335811187D-03
204  2.0300000000000D+00 -1.0621209021030D-03  1.6158269115833D-03
205  2.0400000000000D+00 -6.3553087082981D-04  9.7177907608875D-04
206  2.0500000000000D+00 -3.5472576807655D-04  5.4403106122712D-04
207  2.0600000000000D+00 -1.8250896843632D-04  2.7855730517383D-04
208  2.0700000000000D+00 -8.6695155680253D-05  1.2851300481176D-04
209  2.0800000000000D+00 -4.0617099424262D-05  5.4590572327926D-05
210  2.0900000000000D+00 -2.3297584449591D-05  2.5569776046724D-05
211  2.1000000000000D+00 -1.8757550507486D-05  1.7876966423564D-05
212  2.1100000000000D+00 -1.6180508708494D-05  1.5547265817364D-05
213  2.1200000000000D+00 -9.9169516659302D-06  9.8722042408904D-06
214  2.1300000000000D+00 -2.4689981170158D-06  2.5433738251405D-06
215  2.1400000000000D+00  1.5584680222402D-06 -1.5292044384525D-06
216  2.1500000000000D+00  1.5731302806563D-06 -1.5612833077685D-06
217  2.1600000000000D+00 -3.1885225852895D-08  2.8236897338160D-08
218  2.1700000000000D+00 -3.5603669362973D-07  3.1350607833448D-07
219  2.1800000000000D+00 -1.9738453765734D-07  1.7299901870362D-07
220  2.1900000000000D+00  2.8195644074052D-08 -2.6990703243105D-08
221  2.2000000000000D+00  4.6157026076902D-08 -4.4184505597884D-08
222  2.2100000000000D+00  8.4401887059090D-09 -8.0794972471170D-09
223  2.2200000000000D+00  0.0000000000000D+00  0.0000000000000D+00
224  2.2300000000000D+00  0.0000000000000D+00  0.0000000000000D+00
225  2.2400000000000D+00  0.0000000000000D+00  0.0000000000000D+00
226  2.2500000000000D+00  0.0000000000000D+00  0.0000000000000D+00
227  2.2600000000000D+00  0.0000000000000D+00  0.0000000000000D+00
228  2.2700000000000D+00  0.0000000000000D+00  0.0000000000000D+00
229  2.2800000000000D+00  0.0000000000000D+00  0.0000000000000D+00
230  2.2900000000000D+00  0.0000000000000D+00  0.0000000000000D+00
231  2.3000000000000D+00  0.0000000000000D+00  0.0000000000000D+00
232  2.3100000000000D+00  0.0000000000000D+00  0.0000000000000D+00
233  2.3200000000000D+00  0.0000000000000D+00  0.0000000000000D+00
234  2.3300000000000D+00  0.0000000000000D+00  0.0000000000000D+00
235  2.3400000000000D+00  0.0000000000000D+00  0.0000000000000D+00
236  2.3500000000000D+00  0.0000000000000D+00  0.0000000000000D+00
237  2.3600000000000D+00  0.0000000000000D+00  0.0000000000000D+00
238  2.3700000000000D+00  0.0000000000000D+00  0.0000000000000D+00
239  2.3800000000000D+00  0.0000000000000D+00  0.0000000000000D+00
240  2.3900000000000D+00  0.0000000000000D+00  0.0000000000000D+00
241  2.4000000000000D+00  0.0000000000000D+00  0.0000000000000D+00
242  2.4100000000000D+00  0.0000000000000D+00  0.0000000000000D+00
243  2.4200000000000D+00  0.0000000000000D+00  0.0000000000000D+00
244  2.4300000000000D+00  0.0000000000000D+00  0.0000000000000D+00
245  2.4400000000000D+00  0.0000000000000D+00  0.0000000000000D+00
246  2.4500000000000D+00  0.0000000000000D+00  0.0000000000000D+00
247  2.4600000000000D+00  0.0000000000000D+00  0.0000000000000D+00
248  2.4700000000000D+00  0.0000000000000D+00  0.0000000000000D+00
249  2.4800000000000D+00  0.0000000000000D+00  0.0000000000000D+00
250  2.4900000000000D+00  0.0000000000000D+00  0.0000000000000D+00
251  2.5000000000000D+00  0.0000000000000D+00  0.0000000000000D+00
252  2.5100000000000D+00  0.0000000000000D+00  0.0000000000000D+00
253  2.5200000000000D+00  0.0000000000000D+00  0.0000000000000D+00
254  2.5300000000000D+00  0.0000000000000D+00  0.0000000000000D+00
255  2.5400000000000D+00  0.0000000000000D+00  0.0000000000000D+00
256  2.5500000000000D+00  0.0000000000000D+00  0.0000000000000D+00
257  2.5600000000000D+00  0.0000000000000D+00  0.0000000000000D+00
258  2.5700000000000D+00  0.0000000000000D+00  0.0000000000000D+00
259  2.5800000000000D+00  0.0000000000000D+00  0.0000000000000D+00
260  2.5900000000000D+00  0.0000000000000D+00  0.0000000000000D+00
261  2.6000000000000D+00  0.0000000000000D+00  0.0000000000000D+00
262  2.6100000000000D+00  0.0000000000000D+00  0.0000000000000D+00
263  2.6200000000000D+00  0.0000000000000D+00  0.0000000000000D+00
264  2.6300000000000D+00  0.0000000000000D+00  0.0000000000000D+00
265  2.6400000000000D+00  0.0000000000000D+00  0.0000000000000D+00
266  2.6500000000000D+00  0.0000000000000D+00  0.0000000000000D+00
267  2.6600000000000D+00  0.0000000000000D+00  0.0000000000000D+00
268  2.6700000000000D+00  0.0000000000000D+00  0.0000000000000D+00
269  2.6800000000000D+00  0.0000000000000D+00  0.0000000000000D+00
270  2.6900000000000D+00  0.0000000000000D+00  0.0000000000000D+00
271  2.7000000000000D+00  0.0000000000000D+00  0.0000000000000D+00
272  2.7100000000000D+00  0.0000000000000D+00  0.0000000000000D+00
273  2.7200000000000D+00  0.0000000000000D+00  0.0000000000000D+00
274  2.7300000000000D+00  0.0000000000000D+00  0.0000000000000D+00
275  2.7400000000000D+00  0.0000000000000D+00  0.0000000000000D+00
276  2.7500000000000D+00  0.0000000000000D+00  0.0000000000000D+00
277  2.7600000000000D+00  0.0000000000000D+00  0.0000000000000D+00
278  2.7700000000000D+00  0.0000000000000D+00  0.0000000000000D+00
279  2.7800000000000D+00  0.0000000000000D+00  0.0000000000000D+00
280  2.7900000000000D+00  0.0000000000000D+00  0.0000000000000D+00
281  2.8000000000000D+00  0.0000000000000D+00  0.0000000000000D+00
282  2.8100000000000D+00  0.0000000000000D+00  0.0000000000000D+00
283  2.8200000000000D+00  0.0000000000000D+00  0.0000000000000D+00
284  2.8300000000000D+00  0.0000000000000D+00  0.0000000000000D+00
285  2.8400000000000D+00  0.0000000000000D+00  0.0000000000000D+00
286  2.8500000000000D+00  0.0000000000000D+00  0.0000000000000D+00
287  2.8600000000000D+00  0.0000000000000D+00  0.0000000000000D+00
288  2.8700000000000D+00  0.0000000000000D+00  0.0000000000000D+00
289  2.8800000000000D+00  0.0000000000000D+00  0.0000000000000D+00
290  2.8900000000000D+00  0.0000000000000D+00  0.0000000000000D+00
291  2.9000000000000D+00  0.0000000000000D+00  0.0000000000000D+00
292  2.9100000000000D+00  0.0000000000000D+00  0.0000000000000D+00
293  2.9200000000000D+00  0.0000000000000D+00  0.0000000000000D+00
294  2.9300000000000D+00  0.0000000000000D+00  0.0000000000000D+00
295  2.9400000000000D+00  0.0000000000000D+00  0.0000000000000D+00
296  2.9500000000000D+00  0.0000000000000D+00  0.0000000000000D+00
297  2.9600000000000D+00  0.0000000000000D+00  0.0000000000000D+00
298  2.9700000000000D+00  0.0000000000000D+00  0.0000000000000D+00
299  2.9800000000000D+00  0.0000000000000D+00  0.0000000000000D+00
300  2.9900000000000D+00  0.0000000000000D+00  0.0000000000000D+00
301  3.0000000000000D+00  0.0000000000000D+00  0.0000000000000D+00
302  3.0100000000000D+00  0.0000000000000D+00  0.0000000000000D+00
303  3.0200000000000D+00  0.0000000000000D+00  0.0000000000000D+00
304  3.0300000000000D+00  0.0000000000000D+00  0.0000000000000D+00
305  3.0400000000000D+00  0.0000000000000D+00  0.0000000000000D+00
306  3.0500000000000D+00  0.0000000000000D+00  0.0000000000000D+00
307  3.0600000000000D+00  0.0000000000000D+00  0.0000000000000D+00
308  3.0700000000000D+00  0.0000000000000D+00  0.0000000000000D+00
309  3.0800000000000D+00  0.0000000000000D+00  0.0000000000000D+00
310  3.0900000000000D+00  0.0000000000000D+00  0.0000000000000D+00
311  3.1000000000000D+00  0.0000000000000D+00  0.0000000000000D+00
312  3.1100000000000D+00  0.0000000000000D+00  0.0000000000000D+00
313  3.1200000000000D+00  0.0000000000000D+00  0.0000000000000D+00
314  3.1300000000000D+00  0.0000000000000D+00  0.0000000000000D+00
315  3.1400000000000D+00  0.0000000000000D+00  0.0000000000000D+00
316  3.1500000000000D+00  0.0000000000000D+00  0.0000000000000D+00
317  3.1600000000000D+00  0.0000000000000D+00  0.0000000000000D+00
318  3.1700000000000D+00  0.0000000000000D+00  0.0000000000000D+00
319  3.1800000000000D+00  0.0000000000000D+00  0.0000000000000D+00
320  3.1900000000000D+00  0.0000000000000D+00  0.0000000000000D+00
321  3.2000000000000D+00  0.0000000000000D+00  0.0000000000000D+00
322  3.2100000000000D+00  0.0000000000000D+00  0.0000000000000D+00
323  3.2200000000000D+00  0.0000000000000D+00  0.0000000000000D+00
324  3.2300000000000D+00  0.0000000000000D+00  0.0000000000000D+00
325  3.2400000000000D+00  0.0000000000000D+00  0.0000000000000D+00
326  3.2500000000000D+00  0.0000000000000D+00  0.0000000000000D+00
327  3.2600000000000D+00  0.0000000000000D+00  0.0000000000000D+00
328  3.2700000000000D+00  0.0000000000000D+00  0.0000000000000D+00
329  3.2800000000000D+00  0.0000000000000D+00  0.0000000000000D+00
330  3.2900000000000D+00  0.0000000000000D+00  0.0000000000000D+00
331  3.3000000000000D+00  0.0000000000000D+00  0.0000000000000D+00
332  3.3100000000000D+00  0.0000000000000D+00  0.0000000000000D+00
333  3.3200000000000D+00  0.0000000000000D+00  0.0000000000000D+00
334  3.3300000000000D+00  0.0000000000000D+00  0.0000000000000D+00
335  3.3400000000000D+00  0.0000000000000D+00  0.0000000000000D+00
336  3.3500000000000D+00  0.0000000000000D+00  0.0000000000000D+00
337  3.3600000000000D+00  0.0000000000000D+00  0.0000000000000D+00
338  3.3700000000000D+00  0.0000000000000D+00  0.0000000000000D+00
339  3.3800000000000D+00  0.0000000000000D+00  0.0000000000000D+00
340  3.3900000000000D+00  0.0000000000000D+00  0.0000000000000D+00
341  3.4000000000000D+00  0.0000000000000D+00  0.0000000000000D+00
342  3.4100000000000D+00  0.0000000000000D+00  0.0000000000000D+00
343  3.4200000000000D+00  0.0000000000000D+00  0.0000000000000D+00
344  3.4300000000000D+00  0.0000000000000D+00  0.0000000000000D+00
345  3.4400000000000D+00  0.0000000000000D+00  0.0000000000000D+00
346  3.4500000000000D+00  0.0000000000000D+00  0.0000000000000D+00
347  3.4600000000000D+00  0.0000000000000D+00  0.0000000000000D+00
348  3.4700000000000D+00  0.0000000000000D+00  0.0000000000000D+00
349  3.4800000000000D+00  0.0000000000000D+00  0.0000000000000D+00
350  3.4900000000000D+00  0.0000000000000D+00  0.0000000000000D+00
351  3.5000000000000D+00  0.0000000000000D+00  0.0000000000000D+00
352  3.5100000000000D+00  0.0000000000000D+00  0.0000000000000D+00
353  3.5200000000000D+00  0.0000000000000D+00  0.0000000000000D+00
354  3.5300000000000D+00  0.0000000000000D+00  0.0000000000000D+00
355  3.5400000000000D+00  0.0000000000000D+00  0.0000000000000D+00
356  3.5500000000000D+00  0.0000000000000D+00  0.0000000000000D+00
357  3.5600000000000D+00  0.0000000000000D+00  0.0000000000000D+00
358  3.5700000000000D+00  0.0000000000000D+00  0.0000000000000D+00
359  3.5800000000000D+00  0.0000000000000D+00  0.0000000000000D+00
360  3.5900000000000D+00  0.0000000000000D+00  0.0000000000000D+00
361  3.6000000000000D+00  0.0000000000000D+00  0.0000000000000D+00
362  3.6100000000000D+00  0.0000000000000D+00  0.0000000000000D+00
363  3.6200000000000D+00  0.0000000000000D+00  0.0000000000000D+00
364  3.6300000000000D+00  0.0000000000000D+00  0.0000000000000D+00
365  3.6400000000000D+00  0.0000000000000D+00  0.0000000000000D+00
366  3.6500000000000D+00  0.0000000000000D+00  0.0000000000000D+00
367  3.6600000000000D+00  0.0000000000000D+00  0.0000000000000D+00
368  3.6700000000000D+00  0.0000000000000D+00  0.0000000000000D+00
369  3.6800000000000D+00  0.0000000000000D+00  0.0000000000000D+00
370  3.6900000000000D+00  0.0000000000000D+00  0.0000000000000D+00
371  3.7000000000000D+00  0.0000000000000D+00  0.0000000000000D+00
372  3.7100000000000D+00  0.0000000000000D+00  0.0000000000000D+00
373  3.7200000000000D+00  0.0000000000000D+00  0.0000000000000D+00
374  3.7300000000000D+00  0.0000000000000D+00  0.0000000000000D+00
375  3.7400000000000D+00  0.0000000000000D+00  0.0000000000000D+00
376  3.7500000000000D+00  0.0000000000000D+00  0.0000000000000D+00
377  3.7600000000000D+00  0.0000000000000D+00  0.0000000000000D+00
378  3.7700000000000D+00  0.0000000000000D+00  0.0000000000000D+00
379  3.7800000000000D+00  0.0000000000000D+00  0.0000000000000D+00
380  3.7900000000000D+00  0.0000000000000D+00  0.0000000000000D+00
381  3.8000000000000D+00  0.0000000000000D+00  0.0000000000000D+00
382  3.8100000000000D+00  0.0000000000000D+00  0.0000000000000D+00
383  3.8200000000000D+00  0.0000000000000D+00  0.0000000000000D+00
384  3.8300000000000D+00  0.0000000000000D+00  0.0000000000000D+00
385  3.8400000000000D+00  0.0000000000000D+00  0.0000000000000D+00
386  3.8500000000000D+00  0.0000000000000D+00  0.0000000000000D+00
387  3.8600000000000D+00  0.0000000000000D+00  0.0000000000000D+00
388  3.8700000000000D+00  0.0000000000000D+00  0.0000000000000D+00
389  3.8800000000000D+00  0.0000000000000D+00  0.0000000000000D+00
390  3.8900000000000D+00  0.0000000000000D+00  0.0000000000000D+00
391  3.9000000000000D+00  0.0000000000000D+00  0.0000000000000D+00
392  3.9100000000000D+00  0.0000000000000D+00  0.0000000000000D+00
393  3.9200000000000D+00  0.0000000000000D+00  0.0000000000000D+00
394  3.9300000000000D+00  0.0000000000000D+00  0.0000000000000D+00
395  3.9400000000000D+00  0.0000000000000D+00  0.0000000000000D+00
396  3.9500000000000D+00  0.0000000000000D+00  0.0000000000000D+00
397  3.9600000000000D+00  0.0000000000000D+00  0.0000000000000D+00
398  3.9700000000000D+00  0.0000000000000D+00  0.0000000000000D+00
399  3.9800000000000D+00  0.0000000000000D+00  0.0000000000000D+00
400  3.9900000000000D+00  0.0000000000000D+00  0.0000000000000D+00
401  4.0000000000000D+00  0.0000000000000D+00  0.0000000000000D+00
402  4.0100000000000D+00  0.0000000000000D+00  0.0000000000000D+00
403  4.0200000000000D+00  0.0000000000000D+00  0.0000000000000D+00
404  4.0300000000000D+00  0.0000000000000D+00  0.0000000000000D+00
405  4.0400000000000D+00  0.0000000000000D+00  0.0000000000000D+00
406  4.0500000000000D+00  0.0000000000000D+00  0.0000000000000D+00
407  4.0600000000000D+00  0.0000000000000D+00  0.0000000000000D+00
408  4.0700000000000D+00  0.0000000000000D+00  0.0000000000000D+00
409  4.0800000000000D+00  0.0000000000000D+00  0.0000000000000D+00
410  4.0900000000000D+00  0.0000000000000D+00  0.0000000000000D+00
411  4.1000000000000D+00  0.0000000000000D+00  0.0000000000000D+00
412  4.1100000000000D+00  0.0000000000000D+00  0.0000000000000D+00
413  4.1200000000000D+00  0.0000000000000D+00  0.0000000000000D+00
414  4.1300000000000D+00  0.0000000000000D+00  0.0000000000000D+00
415  4.1400000000000D+00  0.0000000000000D+00  0.0000000000000D+00
416  4.1500000000000D+00  0.0000000000000D+00  0.0000000000000D+00
417  4.1600000000000D+00  0.0000000000000D+00  0.0000000000000D+00
418  4.1700000000000D+00  0.0000000000000D+00  0.0000000000000D+00
419  4.1800000000000D+00  0.0000000000000D+00  0.0000000000000D+00
420  4.1900000000000D+00  0.0000000000000D+00  0.0000000000000D+00
421  4.2000000000000D+00  0.0000000000000D+00  0.0000000000000D+00
422  4.2100000000000D+00  0.0000000000000D+00  0.0000000000000D+00
423  4.2200000000000D+00  0.0000000000000D+00  0.0000000000000D+00
424  4.2300000000000D+00  0.0000000000000D+00  0.0000000000000D+00
425  4.2400000000000D+00  0.0000000000000D+00  0.0000000000000D+00
426  4.2500000000000D+00  0.0000000000000D+00  0.0000000000000D+00
427  4.2600000000000D+00  0.0000000000000D+00  0.0000000000000D+00
428  4.2700000000000D+00  0.0000000000000D+00  0.0000000000000D+00
429  4.2800000000000D+00  0.0000000000000D+00  0.0000000000000D+00
430  4.2900000000000D+00  0.0000000000000D+00  0.0000000000000D+00
431  4.3000000000000D+00  0.0000000000000D+00  0.0000000000000D+00
432  4.3100000000000D+00  0.0000000000000D+00  0.0000000000000D+00
433  4.3200000000000D+00  0.0000000000000D+00  0.0000000000000D+00
434  4.3300000000000D+00  0.0000000000000D+00  0.0000000000000D+00
435  4.3400000000000D+00  0.0000000000000D+00  0.0000000000000D+00
436  4.3500000000000D+00  0.0000000000000D+00  0.0000000000000D+00
437  4.3600000000000D+00  0.0000000000000D+00  0.0000000000000D+00
438  4.3700000000000D+00  0.0000000000000D+00  0.0000000000000D+00
439  4.3800000000000D+00  0.0000000000000D+00  0.0000000000000D+00
440  4.3900000000000D+00  0.0000000000000D+00  0.0000000000000D+00
441  4.4000000000000D+00  0.0000000000000D+00  0.0000000000000D+00
442  4.4100000000000D+00  0.0000000000000D+00  0.0000000000000D+00
443  4.4200000000000D+00  0.0000000000000D+00  0.0000000000000D+00