O     ONCVPSP-3.2.3.1  r_core=   1.35509   1.45563   1.26150
8.0000      6.0000      170504    zatom,zion,pspd
8      11   2     4   600     0    pspcod,pspxc,lmax,lloc,mmax,r2well
5.99000000  4.00000000  0.00000000    rchrg fchrg qchrg
2     2     1     0     0    nproj
1     1           extension_switch
0                         6.0567354683862D+00  8.2402409647555D-01
1  0.0000000000000D+00 -2.2498329865783D-09  5.6883400767482D-09
2  1.0000000000000D-02  9.6628298964105D-02 -3.8338277531244D-02
3  2.0000000000000D-02  1.9288513881170D-01 -7.6200750970053D-02
4  3.0000000000000D-02  2.8840191058960D-01 -1.1311751295130D-01
5  4.0000000000000D-02  3.8281566855271D-01 -1.4863035920204D-01
6  5.0000000000000D-02  4.7577186955815D-01 -1.8229841566382D-01
7  6.0000000000000D-02  5.6692700343876D-01 -2.1370350043310D-01
8  7.0000000000000D-02  6.5595108070714D-01 -2.4245513893020D-01
9  8.0000000000000D-02  7.4252994619030D-01 -2.6819515639574D-01
10  9.0000000000000D-02  8.2636738993799D-01 -2.9060177874573D-01
11  1.0000000000000D-01  9.0718702993789D-01 -3.0939318087956D-01
12  1.1000000000000D-01  9.8473394475655D-01 -3.2433043059460D-01
13  1.2000000000000D-01  1.0587760381481D+00 -3.3521978616926D-01
14  1.3000000000000D-01  1.1291051218684D+00 -3.4191431626796D-01
15  1.4000000000000D-01  1.1955377073313D+00 -3.4431482192334D-01
16  1.5000000000000D-01  1.2579155012764D+00 -3.4237005177707D-01
17  1.6000000000000D-01  1.3161056052069D+00 -3.3607621332529D-01
18  1.7000000000000D-01  1.3700004229252D+00 -3.2547579442205D-01
19  1.8000000000000D-01  1.4195172849780D+00 -3.1065572055691D-01
20  1.9000000000000D-01  1.4645978031302D+00 -2.9174488425089D-01
21  2.0000000000000D-01  1.5052069720656D+00 -2.6891109312975D-01
22  2.1000000000000D-01  1.5413320392833D+00 -2.4235749266353D-01
23  2.2000000000000D-01  1.5729811675631D+00 -2.1231852804760D-01
24  2.3000000000000D-01  1.6001819173565D+00 -1.7905551710327D-01
25  2.4000000000000D-01  1.6229795789712D+00 -1.4285191226578D-01
26  2.5000000000000D-01  1.6414353864145D+00 -1.0400833460349D-01
27  2.6000000000000D-01  1.6556246462141D+00 -6.2837466287392D-02
28  2.7000000000000D-01  1.6656348154150D+00 -1.9658889944897D-02
29  2.8000000000000D-01  1.6715635632508D+00  2.5206036150053D-02
30  2.9000000000000D-01  1.6735168506937D+00  7.1439179088814D-02
31  3.0000000000000D-01  1.6716070612133D+00  1.1873042306787D-01
32  3.1000000000000D-01  1.6659512146262D+00  1.6678217032585D-01
33  3.2000000000000D-01  1.6566692939276D+00  2.1531347508671D-01
34  3.3000000000000D-01  1.6438827124946D+00  2.6406374096610D-01
35  3.4000000000000D-01  1.6277129460753D+00  3.1279592014675D-01
36  3.5000000000000D-01  1.6082803505892D+00  3.6129916154889D-01
37  3.6000000000000D-01  1.5857031830065D+00  4.0939086506818D-01
38  3.7000000000000D-01  1.5600968385253D+00  4.5691810955825D-01
39  3.8000000000000D-01  1.5315733129831D+00  5.0375843342807D-01
40  3.9000000000000D-01  1.5002408950015D+00  5.4981995831041D-01
41  4.0000000000000D-01  1.4662040878466D+00  5.9504085804868D-01
42  4.1000000000000D-01  1.4295637564689D+00  6.3938818704005D-01
43  4.2000000000000D-01  1.3904174907438D+00  6.8285609356767D-01
44  4.3000000000000D-01  1.3488601716443D+00  7.2546345495054D-01
45  4.4000000000000D-01  1.3049847230188D+00  7.6725098194675D-01
46  4.5000000000000D-01  1.2588830278858D+00  8.0827784967959D-01
47  4.6000000000000D-01  1.2106469847661D+00  8.4861792124141D-01
48  4.7000000000000D-01  1.1603696766109D+00  8.8835563791433D-01
49  4.8000000000000D-01  1.1081466224028D+00  9.2758165648491D-01
50  4.9000000000000D-01  1.0540770795588D+00  9.6638831930479D-01
51  5.0000000000000D-01  9.9826536387922D-01  1.0048650464629D+00
52  5.1000000000000D-01  9.4082215300360D-01  1.0430937416102D+00
53  5.2000000000000D-01  8.8186573916034D-01  1.0811443035708D+00
54  5.3000000000000D-01  8.2152319744998D-01  1.1190703348565D+00
55  5.4000000000000D-01  7.5993143697309D-01  1.1569051355818D+00
56  5.5000000000000D-01  6.9723810379475D-01  1.1946580670881D+00
57  5.6000000000000D-01  6.3360230700311D-01  1.2323113638731D+00
58  5.7000000000000D-01  5.6919514193225D-01  1.2698174652972D+00
59  5.8000000000000D-01  5.0419998795176D-01  1.3070969300637D+00
60  5.9000000000000D-01  4.3881256199525D-01  1.3440369868447D+00
61  6.0000000000000D-01  3.7324071319117D-01  1.3804907637104D+00
62  6.1000000000000D-01  3.0770394845111D-01  1.4162772274996D+00
63  6.2000000000000D-01  2.4243268364122D-01  1.4511818520149D+00
64  6.3000000000000D-01  1.7766721989915D-01  1.4849580212232D+00
65  6.4000000000000D-01  1.1365644967685D-01  1.5173291606925D+00
66  6.5000000000000D-01  5.0656302148717D-02  1.5479915774256D+00
67  6.6000000000000D-01 -1.1072057429988D-02  1.5766179754311D+00
68  6.7000000000000D-01 -7.1264255029314D-02  1.6028616019041D+00
69  6.8000000000000D-01 -1.2965493786879D-01  1.6263609669931D+00
70  6.9000000000000D-01 -1.8598017899485D-01  1.6467450690945D+00
71  7.0000000000000D-01 -2.3998002443290D-01  1.6636390475760D+00
72  7.1000000000000D-01 -2.9140114757235D-01  1.6766701759261D+00
73  7.2000000000000D-01 -3.3999957264048D-01  1.6854741008255D+00
74  7.3000000000000D-01 -3.8554342689678D-01  1.6897012265930D+00
75  7.4000000000000D-01 -4.2781567959272D-01  1.6890231400222D+00
76  7.5000000000000D-01 -4.6661682482700D-01  1.6831389678927D+00
77  7.6000000000000D-01 -5.0176746520325D-01  1.6717815584511D+00
78  7.7000000000000D-01 -5.3311075368767D-01  1.6547233789900D+00
79  7.8000000000000D-01 -5.6051465225912D-01  1.6317820242668D+00
80  7.9000000000000D-01 -5.8387396784056D-01  1.6028252349148D+00
81  8.0000000000000D-01 -6.0311212857369D-01  1.5677753311240D+00
82  8.1000000000000D-01 -6.1818266671462D-01  1.5266129746482D+00
83  8.2000000000000D-01 -6.2907037824410D-01  1.4793801815061D+00
84  8.3000000000000D-01 -6.3579213364450D-01  1.4261825184492D+00
85  8.4000000000000D-01 -6.3839731913447D-01  1.3671904282180D+00
86  8.5000000000000D-01 -6.3696789289724D-01  1.3026396416074D+00
87  8.6000000000000D-01 -6.3161804640864D-01  1.2328306482080D+00
88  8.7000000000000D-01 -6.2249346678077D-01  1.1581272121804D+00
89  8.8000000000000D-01 -6.0977020199400D-01  1.0789539342993D+00
90  8.9000000000000D-01 -5.9365313689889D-01  9.9579287655682D-01
91  9.0000000000000D-01 -5.7437409383428D-01  9.0917928057825D-01
92  9.1000000000000D-01 -5.5218957753087D-01  8.1969642574520D-01
93  9.2000000000000D-01 -5.2737818955499D-01  7.2796968698857D-01
94  9.3000000000000D-01 -5.0023774280286D-01  6.3465986548047D-01
95  9.4000000000000D-01 -4.7108211139254D-01  5.4045587768924D-01
96  9.5000000000000D-01 -4.4023785563675D-01  4.4606689925964D-01
97  9.6000000000000D-01 -4.0804066554011D-01  3.5221406974938D-01
98  9.7000000000000D-01 -3.7483166938228D-01  2.5962187222374D-01
99  9.8000000000000D-01 -3.4095365637141D-01  1.6900930794704D-01
100  9.9000000000000D-01 -3.0674726401144D-01  8.1080990738993D-02
101  1.0000000000000D+00 -2.7254718174328D-01 -3.4817119697616D-03
102  1.0100000000000D+00 -2.3867842251325D-01 -8.4029363934900D-02
103  1.0200000000000D+00 -2.0545271319756D-01 -1.5995284494934D-01
104  1.0300000000000D+00 -1.7316505330303D-01 -2.3069131356040D-01
105  1.0400000000000D+00 -1.4209048909302D-01 -2.9573963099699D-01
106  1.0500000000000D+00 -1.1248114700459D-01 -3.5465513771918D-01
107  1.0600000000000D+00 -8.4563566952047D-02 -4.0706368206855D-01
108  1.0700000000000D+00 -5.8536371068274D-02 -4.5266481298480D-01
109  1.0800000000000D+00 -3.4568298796139D-02 -4.9123606026976D-01
110  1.0900000000000D+00 -1.2796633577298D-02 -5.2263623995953D-01
111  1.1000000000000D+00  6.6739599542611D-03 -5.4680773815084D-01
112  1.1100000000000D+00  2.3772174646801D-02 -5.6377773978199D-01
113  1.1200000000000D+00  3.8460369774725D-02 -5.7365838889319D-01
114  1.1300000000000D+00  5.0734450258252D-02 -5.7664588088557D-01
115  1.1400000000000D+00  6.0623323978924D-02 -5.7301850681280D-01
116  1.1500000000000D+00  6.8187949968700D-02 -5.6313368212602D-01
117  1.1600000000000D+00  7.3519998901503D-02 -5.4742401391953D-01
118  1.1700000000000D+00  7.6740154532592D-02 -5.2639248007489D-01
119  1.1800000000000D+00  7.7996089238923D-02 -5.0060680253239D-01
120  1.1900000000000D+00  7.7460061831196D-02 -4.7069284398140D-01
121  1.2000000000000D+00  7.5326557396549D-02 -4.3732826577122D-01
122  1.2100000000000D+00  7.1809368091372D-02 -4.0123461943258D-01
123  1.2200000000000D+00  6.7135980548364D-02 -3.6316126391765D-01
124  1.2300000000000D+00  6.1541473887964D-02 -3.2386825205783D-01
125  1.2400000000000D+00  5.5262910669856D-02 -2.8411101531981D-01
126  1.2500000000000D+00  4.8535932812457D-02 -2.4463195782409D-01
127  1.2600000000000D+00  4.1590834295701D-02 -2.0615040245245D-01
128  1.2700000000000D+00  3.4648842016048D-02 -1.6935313735449D-01
129  1.2800000000000D+00  2.7918541439692D-02 -1.3488533520672D-01
130  1.2900000000000D+00  2.1592529043598D-02 -1.0334206434185D-01
131  1.3000000000000D+00  1.5844324683234D-02 -7.5260465809880D-02
132  1.3100000000000D+00  1.0826995444777D-02 -5.1119254441454D-02
133  1.3200000000000D+00  6.6657735386496D-03 -3.1309499042005D-02
134  1.3300000000000D+00  3.4410414355266D-03 -1.6061602843058D-02
135  1.3400000000000D+00  1.2960956229530D-03 -5.9392953092762D-03
136  1.3500000000000D+00  2.6054450593960D-04 -1.0368603084278D-03
137  1.3600000000000D+00 -3.2621566923019D-05  2.8493430892763D-04
138  1.3700000000000D+00 -8.9093899141464D-06  5.4742913395408D-05
139  1.3800000000000D+00  1.6477778452742D-05 -9.6071545890376D-05
140  1.3900000000000D+00 -1.2613159090722D-06  8.0242443167933D-06
141  1.4000000000000D+00 -2.0277582452128D-06  1.2538138872844D-05
142  1.4100000000000D+00 -1.2404542027779D-07  1.2636100184857D-07
143  1.4200000000000D+00 -3.1482167998335D-08  3.2069852153556D-08
144  1.4300000000000D+00  0.0000000000000D+00  0.0000000000000D+00
145  1.4400000000000D+00  0.0000000000000D+00  0.0000000000000D+00
146  1.4500000000000D+00  0.0000000000000D+00  0.0000000000000D+00
147  1.4600000000000D+00  0.0000000000000D+00  0.0000000000000D+00
148  1.4700000000000D+00  0.0000000000000D+00  0.0000000000000D+00
149  1.4800000000000D+00  0.0000000000000D+00  0.0000000000000D+00
150  1.4900000000000D+00  0.0000000000000D+00  0.0000000000000D+00
151  1.5000000000000D+00  0.0000000000000D+00  0.0000000000000D+00
152  1.5100000000000D+00  0.0000000000000D+00  0.0000000000000D+00
153  1.5200000000000D+00  0.0000000000000D+00  0.0000000000000D+00
154  1.5300000000000D+00  0.0000000000000D+00  0.0000000000000D+00
155  1.5400000000000D+00  0.0000000000000D+00  0.0000000000000D+00
156  1.5500000000000D+00  0.0000000000000D+00  0.0000000000000D+00
157  1.5600000000000D+00  0.0000000000000D+00  0.0000000000000D+00
158  1.5700000000000D+00  0.0000000000000D+00  0.0000000000000D+00
159  1.5800000000000D+00  0.0000000000000D+00  0.0000000000000D+00
160  1.5900000000000D+00  0.0000000000000D+00  0.0000000000000D+00
161  1.6000000000000D+00  0.0000000000000D+00  0.0000000000000D+00
162  1.6100000000000D+00  0.0000000000000D+00  0.0000000000000D+00
163  1.6200000000000D+00  0.0000000000000D+00  0.0000000000000D+00
164  1.6300000000000D+00  0.0000000000000D+00  0.0000000000000D+00
165  1.6400000000000D+00  0.0000000000000D+00  0.0000000000000D+00
166  1.6500000000000D+00  0.0000000000000D+00  0.0000000000000D+00
167  1.6600000000000D+00  0.0000000000000D+00  0.0000000000000D+00
168  1.6700000000000D+00  0.0000000000000D+00  0.0000000000000D+00
169  1.6800000000000D+00  0.0000000000000D+00  0.0000000000000D+00
170  1.6900000000000D+00  0.0000000000000D+00  0.0000000000000D+00
171  1.7000000000000D+00  0.0000000000000D+00  0.0000000000000D+00
172  1.7100000000000D+00  0.0000000000000D+00  0.0000000000000D+00
173  1.7200000000000D+00  0.0000000000000D+00  0.0000000000000D+00
174  1.7300000000000D+00  0.0000000000000D+00  0.0000000000000D+00
175  1.7400000000000D+00  0.0000000000000D+00  0.0000000000000D+00
176  1.7500000000000D+00  0.0000000000000D+00  0.0000000000000D+00
177  1.7600000000000D+00  0.0000000000000D+00  0.0000000000000D+00
178  1.7700000000000D+00  0.0000000000000D+00  0.0000000000000D+00
179  1.7800000000000D+00  0.0000000000000D+00  0.0000000000000D+00
180  1.7900000000000D+00  0.0000000000000D+00  0.0000000000000D+00
181  1.8000000000000D+00  0.0000000000000D+00  0.0000000000000D+00
182  1.8100000000000D+00  0.0000000000000D+00  0.0000000000000D+00
183  1.8200000000000D+00  0.0000000000000D+00  0.0000000000000D+00
184  1.8300000000000D+00  0.0000000000000D+00  0.0000000000000D+00
185  1.8400000000000D+00  0.0000000000000D+00  0.0000000000000D+00
186  1.8500000000000D+00  0.0000000000000D+00  0.0000000000000D+00
187  1.8600000000000D+00  0.0000000000000D+00  0.0000000000000D+00
188  1.8700000000000D+00  0.0000000000000D+00  0.0000000000000D+00
189  1.8800000000000D+00  0.0000000000000D+00  0.0000000000000D+00
190  1.8900000000000D+00  0.0000000000000D+00  0.0000000000000D+00
191  1.9000000000000D+00  0.0000000000000D+00  0.0000000000000D+00
192  1.9100000000000D+00  0.0000000000000D+00  0.0000000000000D+00
193  1.9200000000000D+00  0.0000000000000D+00  0.0000000000000D+00
194  1.9300000000000D+00  0.0000000000000D+00  0.0000000000000D+00
195  1.9400000000000D+00  0.0000000000000D+00  0.0000000000000D+00
196  1.9500000000000D+00  0.0000000000000D+00  0.0000000000000D+00
197  1.9600000000000D+00  0.0000000000000D+00  0.0000000000000D+00
198  1.9700000000000D+00  0.0000000000000D+00  0.0000000000000D+00
199  1.9800000000000D+00  0.0000000000000D+00  0.0000000000000D+00
200  1.9900000000000D+00  0.0000000000000D+00  0.0000000000000D+00
201  2.0000000000000D+00  0.0000000000000D+00  0.0000000000000D+00
202  2.0100000000000D+00  0.0000000000000D+00  0.0000000000000D+00
203  2.0200000000000D+00  0.0000000000000D+00  0.0000000000000D+00
204  2.0300000000000D+00  0.0000000000000D+00  0.0000000000000D+00
205  2.0400000000000D+00  0.0000000000000D+00  0.0000000000000D+00
206  2.0500000000000D+00  0.0000000000000D+00  0.0000000000000D+00
207  2.0600000000000D+00  0.0000000000000D+00  0.0000000000000D+00
208  2.0700000000000D+00  0.0000000000000D+00  0.0000000000000D+00
209  2.0800000000000D+00  0.0000000000000D+00  0.0000000000000D+00
210  2.0900000000000D+00  0.0000000000000D+00  0.0000000000000D+00
211  2.1000000000000D+00  0.0000000000000D+00  0.0000000000000D+00
212  2.1100000000000D+00  0.0000000000000D+00  0.0000000000000D+00
213  2.1200000000000D+00  0.0000000000000D+00  0.0000000000000D+00
214  2.1300000000000D+00  0.0000000000000D+00  0.0000000000000D+00
215  2.1400000000000D+00  0.0000000000000D+00  0.0000000000000D+00
216  2.1500000000000D+00  0.0000000000000D+00  0.0000000000000D+00
217  2.1600000000000D+00  0.0000000000000D+00  0.0000000000000D+00
218  2.1700000000000D+00  0.0000000000000D+00  0.0000000000000D+00
219  2.1800000000000D+00  0.0000000000000D+00  0.0000000000000D+00
220  2.1900000000000D+00  0.0000000000000D+00  0.0000000000000D+00
221  2.2000000000000D+00  0.0000000000000D+00  0.0000000000000D+00
222  2.2100000000000D+00  0.0000000000000D+00  0.0000000000000D+00
223  2.2200000000000D+00  0.0000000000000D+00  0.0000000000000D+00
224  2.2300000000000D+00  0.0000000000000D+00  0.0000000000000D+00
225  2.2400000000000D+00  0.0000000000000D+00  0.0000000000000D+00
226  2.2500000000000D+00  0.0000000000000D+00  0.0000000000000D+00
227  2.2600000000000D+00  0.0000000000000D+00  0.0000000000000D+00
228  2.2700000000000D+00  0.0000000000000D+00  0.0000000000000D+00
229  2.2800000000000D+00  0.0000000000000D+00  0.0000000000000D+00
230  2.2900000000000D+00  0.0000000000000D+00  0.0000000000000D+00
231  2.3000000000000D+00  0.0000000000000D+00  0.0000000000000D+00
232  2.3100000000000D+00  0.0000000000000D+00  0.0000000000000D+00
233  2.3200000000000D+00  0.0000000000000D+00  0.0000000000000D+00
234  2.3300000000000D+00  0.0000000000000D+00  0.0000000000000D+00
235  2.3400000000000D+00  0.0000000000000D+00  0.0000000000000D+00
236  2.3500000000000D+00  0.0000000000000D+00  0.0000000000000D+00
237  2.3600000000000D+00  0.0000000000000D+00  0.0000000000000D+00
238  2.3700000000000D+00  0.0000000000000D+00  0.0000000000000D+00
239  2.3800000000000D+00  0.0000000000000D+00  0.0000000000000D+00
240  2.3900000000000D+00  0.0000000000000D+00  0.0000000000000D+00
241  2.4000000000000D+00  0.0000000000000D+00  0.0000000000000D+00
242  2.4100000000000D+00  0.0000000000000D+00  0.0000000000000D+00
243  2.4200000000000D+00  0.0000000000000D+00  0.0000000000000D+00
244  2.4300000000000D+00  0.0000000000000D+00  0.0000000000000D+00
245  2.4400000000000D+00  0.0000000000000D+00  0.0000000000000D+00
246  2.4500000000000D+00  0.0000000000000D+00  0.0000000000000D+00
247  2.4600000000000D+00  0.0000000000000D+00  0.0000000000000D+00
248  2.4700000000000D+00  0.0000000000000D+00  0.0000000000000D+00
249  2.4800000000000D+00  0.0000000000000D+00  0.0000000000000D+00
250  2.4900000000000D+00  0.0000000000000D+00  0.0000000000000D+00
251  2.5000000000000D+00  0.0000000000000D+00  0.0000000000000D+00
252  2.5100000000000D+00  0.0000000000000D+00  0.0000000000000D+00
253  2.5200000000000D+00  0.0000000000000D+00  0.0000000000000D+00
254  2.5300000000000D+00  0.0000000000000D+00  0.0000000000000D+00
255  2.5400000000000D+00  0.0000000000000D+00  0.0000000000000D+00
256  2.5500000000000D+00  0.0000000000000D+00  0.0000000000000D+00
257  2.5600000000000D+00  0.0000000000000D+00  0.0000000000000D+00
258  2.5700000000000D+00  0.0000000000000D+00  0.0000000000000D+00
259  2.5800000000000D+00  0.0000000000000D+00  0.0000000000000D+00
260  2.5900000000000D+00  0.0000000000000D+00  0.0000000000000D+00
261  2.6000000000000D+00  0.0000000000000D+00  0.0000000000000D+00
262  2.6100000000000D+00  0.0000000000000D+00  0.0000000000000D+00
263  2.6200000000000D+00  0.0000000000000D+00  0.0000000000000D+00
264  2.6300000000000D+00  0.0000000000000D+00  0.0000000000000D+00
265  2.6400000000000D+00  0.0000000000000D+00  0.0000000000000D+00
266  2.6500000000000D+00  0.0000000000000D+00  0.0000000000000D+00
267  2.6600000000000D+00  0.0000000000000D+00  0.0000000000000D+00
268  2.6700000000000D+00  0.0000000000000D+00  0.0000000000000D+00
269  2.6800000000000D+00  0.0000000000000D+00  0.0000000000000D+00
270  2.6900000000000D+00  0.0000000000000D+00  0.0000000000000D+00
271  2.7000000000000D+00  0.0000000000000D+00  0.0000000000000D+00
272  2.7100000000000D+00  0.0000000000000D+00  0.0000000000000D+00
273  2.7200000000000D+00  0.0000000000000D+00  0.0000000000000D+00
274  2.7300000000000D+00  0.0000000000000D+00  0.0000000000000D+00
275  2.7400000000000D+00  0.0000000000000D+00  0.0000000000000D+00
276  2.7500000000000D+00  0.0000000000000D+00  0.0000000000000D+00
277  2.7600000000000D+00  0.0000000000000D+00  0.0000000000000D+00
278  2.7700000000000D+00  0.0000000000000D+00  0.0000000000000D+00
279  2.7800000000000D+00  0.0000000000000D+00  0.0000000000000D+00
280  2.7900000000000D+00  0.0000000000000D+00  0.0000000000000D+00
281  2.8000000000000D+00  0.0000000000000D+00  0.0000000000000D+00
282  2.8100000000000D+00  0.0000000000000D+00  0.0000000000000D+00
283  2.8200000000000D+00  0.0000000000000D+00  0.0000000000000D+00
284  2.8300000000000D+00  0.0000000000000D+00  0.0000000000000D+00
285  2.8400000000000D+00  0.0000000000000D+00  0.0000000000000D+00
286  2.8500000000000D+00  0.0000000000000D+00  0.0000000000000D+00
287  2.8600000000000D+00  0.0000000000000D+00  0.0000000000000D+00
288  2.8700000000000D+00  0.0000000000000D+00  0.0000000000000D+00
289  2.8800000000000D+00  0.0000000000000D+00  0.0000000000000D+00
290  2.8900000000000D+00  0.0000000000000D+00  0.0000000000000D+00
291  2.9000000000000D+00  0.0000000000000D+00  0.0000000000000D+00
292  2.9100000000000D+00  0.0000000000000D+00  0.0000000000000D+00
293  2.9200000000000D+00  0.0000000000000D+00  0.0000000000000D+00
294  2.9300000000000D+00  0.0000000000000D+00  0.0000000000000D+00
295  2.9400000000000D+00  0.0000000000000D+00  0.0000000000000D+00
296  2.9500000000000D+00  0.0000000000000D+00  0.0000000000000D+00
297  2.9600000000000D+00  0.0000000000000D+00  0.0000000000000D+00
298  2.9700000000000D+00  0.0000000000000D+00  0.0000000000000D+00
299  2.9800000000000D+00  0.0000000000000D+00  0.0000000000000D+00
300  2.9900000000000D+00  0.0000000000000D+00  0.0000000000000D+00
301  3.0000000000000D+00  0.0000000000000D+00  0.0000000000000D+00
302  3.0100000000000D+00  0.0000000000000D+00  0.0000000000000D+00
303  3.0200000000000D+00  0.0000000000000D+00  0.0000000000000D+00
304  3.0300000000000D+00  0.0000000000000D+00  0.0000000000000D+00
305  3.0400000000000D+00  0.0000000000000D+00  0.0000000000000D+00
306  3.0500000000000D+00  0.0000000000000D+00  0.0000000000000D+00
307  3.0600000000000D+00  0.0000000000000D+00  0.0000000000000D+00
308  3.0700000000000D+00  0.0000000000000D+00  0.0000000000000D+00
309  3.0800000000000D+00  0.0000000000000D+00  0.0000000000000D+00
310  3.0900000000000D+00  0.0000000000000D+00  0.0000000000000D+00
311  3.1000000000000D+00  0.0000000000000D+00  0.0000000000000D+00
312  3.1100000000000D+00  0.0000000000000D+00  0.0000000000000D+00
313  3.1200000000000D+00  0.0000000000000D+00  0.0000000000000D+00
314  3.1300000000000D+00  0.0000000000000D+00  0.0000000000000D+00
315  3.1400000000000D+00  0.0000000000000D+00  0.0000000000000D+00
316  3.1500000000000D+00  0.0000000000000D+00  0.0000000000000D+00
317  3.1600000000000D+00  0.0000000000000D+00  0.0000000000000D+00
318  3.1700000000000D+00  0.0000000000000D+00  0.0000000000000D+00
319  3.1800000000000D+00  0.0000000000000D+00  0.0000000000000D+00
320  3.1900000000000D+00  0.0000000000000D+00  0.0000000000000D+00
321  3.2000000000000D+00  0.0000000000000D+00  0.0000000000000D+00
322  3.2100000000000D+00  0.0000000000000D+00  0.0000000000000D+00
323  3.2200000000000D+00  0.0000000000000D+00  0.0000000000000D+00
324  3.2300000000000D+00  0.0000000000000D+00  0.0000000000000D+00
325  3.2400000000000D+00  0.0000000000000D+00  0.0000000000000D+00
326  3.2500000000000D+00  0.0000000000000D+00  0.0000000000000D+00
327  3.2600000000000D+00  0.0000000000000D+00  0.0000000000000D+00
328  3.2700000000000D+00  0.0000000000000D+00  0.0000000000000D+00
329  3.2800000000000D+00  0.0000000000000D+00  0.0000000000000D+00
330  3.2900000000000D+00  0.0000000000000D+00  0.0000000000000D+00
331  3.3000000000000D+00  0.0000000000000D+00  0.0000000000000D+00
332  3.3100000000000D+00  0.0000000000000D+00  0.0000000000000D+00
333  3.3200000000000D+00  0.0000000000000D+00  0.0000000000000D+00
334  3.3300000000000D+00  0.0000000000000D+00  0.0000000000000D+00
335  3.3400000000000D+00  0.0000000000000D+00  0.0000000000000D+00
336  3.3500000000000D+00  0.0000000000000D+00  0.0000000000000D+00
337  3.3600000000000D+00  0.0000000000000D+00  0.0000000000000D+00
338  3.3700000000000D+00  0.0000000000000D+00  0.0000000000000D+00
339  3.3800000000000D+00  0.0000000000000D+00  0.0000000000000D+00
340  3.3900000000000D+00  0.0000000000000D+00  0.0000000000000D+00
341  3.4000000000000D+00  0.0000000000000D+00  0.0000000000000D+00
342  3.4100000000000D+00  0.0000000000000D+00  0.0000000000000D+00
343  3.4200000000000D+00  0.0000000000000D+00  0.0000000000000D+00
344  3.4300000000000D+00  0.0000000000000D+00  0.0000000000000D+00
345  3.4400000000000D+00  0.0000000000000D+00  0.0000000000000D+00
346  3.4500000000000D+00  0.0000000000000D+00  0.0000000000000D+00
347  3.4600000000000D+00  0.0000000000000D+00  0.0000000000000D+00
348  3.4700000000000D+00  0.0000000000000D+00  0.0000000000000D+00
349  3.4800000000000D+00  0.0000000000000D+00  0.0000000000000D+00
350  3.4900000000000D+00  0.0000000000000D+00  0.0000000000000D+00
351  3.5000000000000D+00  0.0000000000000D+00  0.0000000000000D+00
352  3.5100000000000D+00  0.0000000000000D+00  0.0000000000000D+00
353  3.5200000000000D+00  0.0000000000000D+00  0.0000000000000D+00
354  3.5300000000000D+00  0.0000000000000D+00  0.0000000000000D+00
355  3.5400000000000D+00  0.0000000000000D+00  0.0000000000000D+00
356  3.5500000000000D+00  0.0000000000000D+00  0.0000000000000D+00
357  3.5600000000000D+00  0.0000000000000D+00  0.0000000000000D+00
358  3.5700000000000D+00  0.0000000000000D+00  0.0000000000000D+00
359  3.5800000000000D+00  0.0000000000000D+00  0.0000000000000D+00
360  3.5900000000000D+00  0.0000000000000D+00  0.0000000000000D+00
361  3.6000000000000D+00  0.0000000000000D+00  0.0000000000000D+00
362  3.6100000000000D+00  0.0000000000000D+00  0.0000000000000D+00
363  3.6200000000000D+00  0.0000000000000D+00  0.0000000000000D+00
364  3.6300000000000D+00  0.0000000000000D+00  0.0000000000000D+00
365  3.6400000000000D+00  0.0000000000000D+00  0.0000000000000D+00
366  3.6500000000000D+00  0.0000000000000D+00  0.0000000000000D+00
367  3.6600000000000D+00  0.0000000000000D+00  0.0000000000000D+00
368  3.6700000000000D+00  0.0000000000000D+00  0.0000000000000D+00
369  3.6800000000000D+00  0.0000000000000D+00  0.0000000000000D+00
370  3.6900000000000D+00  0.0000000000000D+00  0.0000000000000D+00
371  3.7000000000000D+00  0.0000000000000D+00  0.0000000000000D+00
372  3.7100000000000D+00  0.0000000000000D+00  0.0000000000000D+00
373  3.7200000000000D+00  0.0000000000000D+00  0.0000000000000D+00
374  3.7300000000000D+00  0.0000000000000D+00  0.0000000000000D+00
375  3.7400000000000D+00  0.0000000000000D+00  0.0000000000000D+00
376  3.7500000000000D+00  0.0000000000000D+00  0.0000000000000D+00
377  3.7600000000000D+00  0.0000000000000D+00  0.0000000000000D+00
378  3.7700000000000D+00  0.0000000000000D+00  0.0000000000000D+00
379  3.7800000000000D+00  0.0000000000000D+00  0.0000000000000D+00
380  3.7900000000000D+00  0.0000000000000D+00  0.0000000000000D+00
381  3.8000000000000D+00  0.0000000000000D+00  0.0000000000000D+00
382  3.8100000000000D+00  0.0000000000000D+00  0.0000000000000D+00
383  3.8200000000000D+00  0.0000000000000D+00  0.0000000000000D+00
384  3.8300000000000D+00  0.0000000000000D+00  0.0000000000000D+00
385  3.8400000000000D+00  0.0000000000000D+00  0.0000000000000D+00
386  3.8500000000000D+00  0.0000000000000D+00  0.0000000000000D+00
387  3.8600000000000D+00  0.0000000000000D+00  0.0000000000000D+00
388  3.8700000000000D+00  0.0000000000000D+00  0.0000000000000D+00
389  3.8800000000000D+00  0.0000000000000D+00  0.0000000000000D+00
390  3.8900000000000D+00  0.0000000000000D+00  0.0000000000000D+00
391  3.9000000000000D+00  0.0000000000000D+00  0.0000000000000D+00
392  3.9100000000000D+00  0.0000000000000D+00  0.0000000000000D+00
393  3.9200000000000D+00  0.0000000000000D+00  0.0000000000000D+00
394  3.9300000000000D+00  0.0000000000000D+00  0.0000000000000D+00
395  3.9400000000000D+00  0.0000000000000D+00  0.0000000000000D+00
396  3.9500000000000D+00  0.0000000000000D+00  0.0000000000000D+00
397  3.9600000000000D+00  0.0000000000000D+00  0.0000000000000D+00
398  3.9700000000000D+00  0.0000000000000D+00  0.0000000000000D+00
399  3.9800000000000D+00  0.0000000000000D+00  0.0000000000000D+00
400  3.9900000000000D+00  0.0000000000000D+00  0.0000000000000D+00
401  4.0000000000000D+00  0.0000000000000D+00  0.0000000000000D+00
402  4.0100000000000D+00  0.0000000000000D+00  0.0000000000000D+00
403  4.0200000000000D+00  0.0000000000000D+00  0.0000000000000D+00
404  4.0300000000000D+00  0.0000000000000D+00  0.0000000000000D+00
405  4.0400000000000D+00  0.0000000000000D+00  0.0000000000000D+00
406  4.0500000000000D+00  0.0000000000000D+00  0.0000000000000D+00
407  4.0600000000000D+00  0.0000000000000D+00  0.0000000000000D+00
408  4.0700000000000D+00  0.0000000000000D+00  0.0000000000000D+00
409  4.0800000000000D+00  0.0000000000000D+00  0.0000000000000D+00
410  4.0900000000000D+00  0.0000000000000D+00  0.0000000000000D+00
411  4.1000000000000D+00  0.0000000000000D+00  0.0000000000000D+00
412  4.1100000000000D+00  0.0000000000000D+00  0.0000000000000D+00
413  4.1200000000000D+00  0.0000000000000D+00  0.0000000000000D+00
414  4.1300000000000D+00  0.0000000000000D+00  0.0000000000000D+00
415  4.1400000000000D+00  0.0000000000000D+00  0.0000000000000D+00
416  4.1500000000000D+00  0.0000000000000D+00  0.0000000000000D+00
417  4.1600000000000D+00  0.0000000000000D+00  0.0000000000000D+00
418  4.1700000000000D+00  0.0000000000000D+00  0.0000000000000D+00
419  4.1800000000000D+00  0.0000000000000D+00  0.0000000000000D+00
420  4.1900000000000D+00  0.0000000000000D+00  0.0000000000000D+00
421  4.2000000000000D+00  0.0000000000000D+00  0.0000000000000D+00
422  4.2100000000000D+00  0.0000000000000D+00  0.0000000000000D+00
423  4.2200000000000D+00  0.0000000000000D+00  0.0000000000000D+00
424  4.2300000000000D+00  0.0000000000000D+00  0.0000000000000D+00
425  4.2400000000000D+00  0.0000000000000D+00  0.0000000000000D+00
426  4.2500000000000D+00  0.0000000000000D+00  0.0000000000000D+00
427  4.2600000000000D+00  0.0000000000000D+00  0.0000000000000D+00
428  4.2700000000000D+00  0.0000000000000D+00  0.0000000000000D+00
429  4.2800000000000D+00  0.0000000000000D+00  0.0000000000000D+00
430  4.2900000000000D+00  0.0000000000000D+00  0.0000000000000D+00
431  4.3000000000000D+00  0.0000000000000D+00  0.0000000000000D+00
432  4.3100000000000D+00  0.0000000000000D+00  0.0000000000000D+00
433  4.3200000000000D+00  0.0000000000000D+00  0.0000000000000D+00
434  4.3300000000000D+00  0.0000000000000D+00  0.0000000000000D+00
435  4.3400000000000D+00  0.0000000000000D+00  0.0000000000000D+00
436  4.3500000000000D+00  0.0000000000000D+00  0.0000000000000D+00
437  4.3600000000000D+00  0.0000000000000D+00  0.0000000000000D+00
438  4.3700000000000D+00  0.0000000000000D+00  0.0000000000000D+00
439  4.3800000000000D+00  0.0000000000000D+00  0.0000000000000D+00
440  4.3900000000000D+00  0.0000000000000D+00  0.0000000000000D+00
441  4.4000000000000D+00  0.0000000000000D+00  0.0000000000000D+00
442  4.4100000000000D+00  0.0000000000000D+00  0.0000000000000D+00
443  4.4200000000000D+00  0.0000000000000D+00  0.0000000000000D+00