
.Version 8.11.12 of ABINIT 
.(MPI version, prepared for a x86_64_linux_gnu9.2 computer) 

.Copyright (C) 1998-2019 ABINIT group . 
 ABINIT comes with ABSOLUTELY NO WARRANTY.
 It is free software, and you are welcome to redistribute it
 under certain conditions (GNU General Public License,
 see ~abinit/COPYING or http://www.gnu.org/copyleft/gpl.txt).

 ABINIT is a project of the Universite Catholique de Louvain,
 Corning Inc. and other collaborators, see ~abinit/doc/developers/contributors.txt .
 Please read https://docs.abinit.org/theory/acknowledgments for suggested
 acknowledgments of the ABINIT effort.
 For more information, see https://www.abinit.org .

.Starting date : Mon 25 Nov 2019.
- ( at 08h49 )
  
- input  file    -> t27.in
- output file    -> t27_MPI4.out
- root for input  files -> t27_MPI4i
- root for output files -> t27_MPI4o


 DATASET    1 : space group Fd -3 m (#227); Bravais cF (face-center cubic)
================================================================================
 Values of the parameters that define the memory need for DATASET  1.
     intxc =       0    ionmov =       0      iscf =       7    lmnmax =       4
     lnmax =       4     mgfft =      24  mpssoang =       2    mqgrid =    3001
     natom =       2  nloc_mem =       1    nspden =       1   nspinor =       1
    nsppol =       1      nsym =      48    n1xccc =    2501    ntypat =       1
    occopt =       7   xclevel =       2
-    mband =          12        mffmem =           1         mkmem =           5
       mpw =         265          nfft =        6912          nkpt =          10
================================================================================
P This job should need less than                       4.175 Mbytes of memory.
  Rough estimation (10% accuracy) of disk space for files :
_ WF disk file :      0.972 Mbytes ; DEN or POT disk file :      0.055 Mbytes.
================================================================================


 DATASET    2 : space group Fd -3 m (#227); Bravais cF (face-center cubic)
================================================================================
 Values of the parameters that define the memory need for DATASET  2.
     intxc =       0    ionmov =       0      iscf =       7    lmnmax =       4
     lnmax =       4     mgfft =      24  mpssoang =       2    mqgrid =    3001
     natom =       2  nloc_mem =       1    nspden =       1   nspinor =       1
    nsppol =       1      nsym =      48    n1xccc =    2501    ntypat =       1
    occopt =       7   xclevel =       2
-    mband =          12        mffmem =           1         mkmem =          10
       mpw =         140          nfft =        3456          nkpt =          10
================================================================================
P This job should need less than                       3.098 Mbytes of memory.
  Rough estimation (10% accuracy) of disk space for files :
_ WF disk file :      1.027 Mbytes ; DEN or POT disk file :      0.028 Mbytes.
================================================================================


 DATASET    3 : space group Fd -3 m (#227); Bravais cF (face-center cubic)
================================================================================
 Values of the parameters that define the memory need for DATASET  3.
     intxc =       0    ionmov =       0      iscf =       7    lmnmax =       4
     lnmax =       4     mgfft =      24  mpssoang =       2    mqgrid =    3001
     natom =       2  nloc_mem =       1    nspden =       1   nspinor =       1
    nsppol =       1      nsym =      48    n1xccc =    2501    ntypat =       1
    occopt =       7   xclevel =       2
-    mband =          12        mffmem =           1         mkmem =          10
       mpw =         133          nfft =       13824          nkpt =          10
================================================================================
P This job should need less than                       6.496 Mbytes of memory.
  Rough estimation (10% accuracy) of disk space for files :
_ WF disk file :      0.246 Mbytes ; DEN or POT disk file :      0.107 Mbytes.
================================================================================


 DATASET    4 : space group Fd -3 m (#227); Bravais cF (face-center cubic)
================================================================================
 Values of the parameters that define the memory need for DATASET  4.
     intxc =       0    ionmov =       0      iscf =       7    lmnmax =       4
     lnmax =       4     mgfft =      24  mpssoang =       2    mqgrid =    3001
     natom =       2  nloc_mem =       1    nspden =       1   nspinor =       1
    nsppol =       1      nsym =      48    n1xccc =    2501    ntypat =       1
    occopt =       7   xclevel =       2
-    mband =          12        mffmem =           1         mkmem =          10
       mpw =         133          nfft =        6912          nkpt =          10
================================================================================
P This job should need less than                       4.176 Mbytes of memory.
  Rough estimation (10% accuracy) of disk space for files :
_ WF disk file :      0.489 Mbytes ; DEN or POT disk file :      0.055 Mbytes.
================================================================================


 DATASET    5 : space group Fd -3 m (#227); Bravais cF (face-center cubic)
================================================================================
 Values of the parameters that define the memory need for DATASET  5.
     intxc =       0    ionmov =       0      iscf =       7    lmnmax =       4
     lnmax =       4     mgfft =      24  mpssoang =       2    mqgrid =    3001
     natom =       2  nloc_mem =       1    nspden =       1   nspinor =       1
    nsppol =       1      nsym =      48    n1xccc =    2501    ntypat =       1
    occopt =       7   xclevel =       2
-    mband =          12        mffmem =           1         mkmem =           3
       mpw =         531          nfft =       13824          nkpt =          10
================================================================================
P This job should need less than                       6.125 Mbytes of memory.
  Rough estimation (10% accuracy) of disk space for files :
_ WF disk file :      0.974 Mbytes ; DEN or POT disk file :      0.107 Mbytes.
================================================================================


 DATASET    6 : space group Fd -3 m (#227); Bravais cF (face-center cubic)
================================================================================
 Values of the parameters that define the memory need for DATASET  6.
     intxc =       0    ionmov =       0      iscf =       7    lmnmax =       4
     lnmax =       4     mgfft =      32  mpssoang =       2    mqgrid =    3001
     natom =       2  nloc_mem =       1    nspden =       1   nspinor =       1
    nsppol =       1      nsym =      48    n1xccc =    2501    ntypat =       1
    occopt =       7   xclevel =       2
-    mband =          12        mffmem =           1         mkmem =          10
       mpw =         140          nfft =        8192          nkpt =          10
================================================================================
P This job should need less than                       5.006 Mbytes of memory.
  Rough estimation (10% accuracy) of disk space for files :
_ WF disk file :      1.027 Mbytes ; DEN or POT disk file :      0.065 Mbytes.
================================================================================

--------------------------------------------------------------------------------
------------- Echo of variables that govern the present computation ------------
--------------------------------------------------------------------------------
-
- outvars: echo of selected default values                                      
-   iomode0 =  0 , fftalg0 =312 , wfoptalg0 =  0
-
- outvars: echo of global parameters not present in the input file              
-  max_nthreads =    0
-
 -outvars: echo values of preprocessed input variables --------
-          iomode1          1
-          iomode2          1
-          iomode3          1
-          iomode4          1
-          iomode5          0
-          iomode6          1
            acell      7.0000000000E+00  7.0000000000E+00  7.0000000000E+00 Bohr
              amu      1.20110000E+01
     densfor_pred1          6
     densfor_pred2          6
     densfor_pred3          6
     densfor_pred4          6
     densfor_pred5          2
     densfor_pred6          6
           diemac      1.20000000E+01
             ecut      2.50000000E+01 Hartree
-          fftalg         312
           getden1          0
           getden2          0
           getden3          0
           getden4         -1
           getden5          0
           getden6         -1
           getwfk1         -1
           getwfk2         -1
           getwfk3         -1
           getwfk4          0
           getwfk5         -1
           getwfk6          1
           iatsph1       1    2
           iatsph2       1    2
              ixc          11
           jdtset        1    2    3    4    5    6
              kpt     -1.25000000E-01 -2.50000000E-01  0.00000000E+00
                      -1.25000000E-01  5.00000000E-01  0.00000000E+00
                      -2.50000000E-01 -3.75000000E-01  0.00000000E+00
                      -1.25000000E-01 -3.75000000E-01  1.25000000E-01
                      -1.25000000E-01  2.50000000E-01  0.00000000E+00
                      -2.50000000E-01  3.75000000E-01  0.00000000E+00
                      -3.75000000E-01  5.00000000E-01  0.00000000E+00
                      -2.50000000E-01  5.00000000E-01  1.25000000E-01
                      -1.25000000E-01  0.00000000E+00  0.00000000E+00
                      -3.75000000E-01  0.00000000E+00  0.00000000E+00
         kptrlatt        4   -4    4     -4    4    4     -4   -4    4
          kptrlen      2.80000000E+01
P           mkmem1          5
P           mkmem2         10
P           mkmem3         10
P           mkmem4         10
P           mkmem5          3
P           mkmem6         10
            natom           2
           natsph1       2
           natsph2       2
            nband          12
           ndtset           6
            ngfft1         24      24      24
            ngfft2         24      24      24
            ngfft3         24      24      24
            ngfft4         24      24      24
            ngfft5         24      24      24
            ngfft6         32      32      32
             nkpt          10
-          npband1          1
-          npband2          1
-          npband3          4
-          npband4          2
-          npband5          1
-          npband6          1
-           npfft1          2
-           npfft2          4
-           npfft3          1
-           npfft4          2
-           npfft5          1
-           npfft6          4
-           npkpt1          2
-           npkpt2          1
-           npkpt3          1
-           npkpt4          1
-           npkpt5          1
-           npkpt6          1
            nstep1         30
            nstep2         30
            nstep3         30
            nstep4         11
            nstep5          1
            nstep6         30
             nsym          48
           ntypat           1
              occ      2.000000  2.000000  2.000000  2.000000  0.000000  0.000000
                       0.000000  0.000000  0.000000  0.000000  0.000000  0.000000
                       2.000000  2.000000  2.000000  2.000000  0.000000  0.000000
                       0.000000  0.000000  0.000000  0.000000  0.000000  0.000000
                       2.000000  2.000000  2.000000  2.000000  0.000000  0.000000
                       0.000000  0.000000  0.000000  0.000000  0.000000  0.000000
                       2.000000  2.000000  2.000000  2.000000  0.000000  0.000000
                       0.000000  0.000000  0.000000  0.000000  0.000000  0.000000
                       2.000000  2.000000  2.000000  2.000000  0.000000  0.000000
                       0.000000  0.000000  0.000000  0.000000  0.000000  0.000000
                       2.000000  2.000000  2.000000  2.000000  0.000000  0.000000
                       0.000000  0.000000  0.000000  0.000000  0.000000  0.000000
                       2.000000  2.000000  2.000000  2.000000  0.000000  0.000000
                       0.000000  0.000000  0.000000  0.000000  0.000000  0.000000
                       2.000000  2.000000  2.000000  2.000000  0.000000  0.000000
                       0.000000  0.000000  0.000000  0.000000  0.000000  0.000000
                       2.000000  2.000000  2.000000  2.000000  0.000000  0.000000
                       0.000000  0.000000  0.000000  0.000000  0.000000  0.000000
                       2.000000  2.000000  2.000000  2.000000  0.000000  0.000000
                       0.000000  0.000000  0.000000  0.000000  0.000000  0.000000
           occopt           7
           ortalg1         -2
           ortalg2         -2
           ortalg3         -2
           ortalg4         -2
           ortalg5          2
           ortalg6         -2
        paral_kgb1          1
        paral_kgb2          1
        paral_kgb3          1
        paral_kgb4          1
        paral_kgb5          0
        paral_kgb6          1
           prtdos1          3
           prtdos2          3
           prtdos3          0
           prtdos4          0
           prtdos5          0
           prtdos6          0
           prtgeo           1
         prtnabla           1
           prtpot           1
         prtvclmb           1
           prtvha           1
          prtvhxc           1
          prtvpsp           1
           prtvxc           1
           prt1dm           1
            rprim      0.0000000000E+00  5.0000000000E-01  5.0000000000E-01
                       5.0000000000E-01  0.0000000000E+00  5.0000000000E-01
                       5.0000000000E-01  5.0000000000E-01  0.0000000000E+00
           shiftk      5.00000000E-01  5.00000000E-01  5.00000000E-01
          spgroup         227
           symrel      1  0  0   0  1  0   0  0  1      -1  0  0   0 -1  0   0  0 -1
                       0 -1  1   0 -1  0   1 -1  0       0  1 -1   0  1  0  -1  1  0
                      -1  0  0  -1  0  1  -1  1  0       1  0  0   1  0 -1   1 -1  0
                       0  1 -1   1  0 -1   0  0 -1       0 -1  1  -1  0  1   0  0  1
                      -1  0  0  -1  1  0  -1  0  1       1  0  0   1 -1  0   1  0 -1
                       0 -1  1   1 -1  0   0 -1  0       0  1 -1  -1  1  0   0  1  0
                       1  0  0   0  0  1   0  1  0      -1  0  0   0  0 -1   0 -1  0
                       0  1 -1   0  0 -1   1  0 -1       0 -1  1   0  0  1  -1  0  1
                      -1  0  1  -1  1  0  -1  0  0       1  0 -1   1 -1  0   1  0  0
                       0 -1  0   1 -1  0   0 -1  1       0  1  0  -1  1  0   0  1 -1
                       1  0 -1   0  0 -1   0  1 -1      -1  0  1   0  0  1   0 -1  1
                       0  1  0   0  0  1   1  0  0       0 -1  0   0  0 -1  -1  0  0
                       1  0 -1   0  1 -1   0  0 -1      -1  0  1   0 -1  1   0  0  1
                       0 -1  0   0 -1  1   1 -1  0       0  1  0   0  1 -1  -1  1  0
                      -1  0  1  -1  0  0  -1  1  0       1  0 -1   1  0  0   1 -1  0
                       0  1  0   1  0  0   0  0  1       0 -1  0  -1  0  0   0  0 -1
                       0  0 -1   0  1 -1   1  0 -1       0  0  1   0 -1  1  -1  0  1
                       1 -1  0   0 -1  1   0 -1  0      -1  1  0   0  1 -1   0  1  0
                       0  0  1   1  0  0   0  1  0       0  0 -1  -1  0  0   0 -1  0
                      -1  1  0  -1  0  0  -1  0  1       1 -1  0   1  0  0   1  0 -1
                       0  0  1   0  1  0   1  0  0       0  0 -1   0 -1  0  -1  0  0
                       1 -1  0   0 -1  0   0 -1  1      -1  1  0   0  1  0   0  1 -1
                       0  0 -1   1  0 -1   0  1 -1       0  0  1  -1  0  1   0 -1  1
                      -1  1  0  -1  0  1  -1  0  0       1 -1  0   1  0 -1   1  0  0
            tnons      0.0000000  0.0000000  0.0000000     0.2500000  0.2500000  0.2500000
                       0.0000000  0.0000000  0.0000000     0.2500000  0.2500000  0.2500000
                       0.0000000  0.0000000  0.0000000     0.2500000  0.2500000  0.2500000
                       0.0000000  0.0000000  0.0000000     0.2500000  0.2500000  0.2500000
                       0.0000000  0.0000000  0.0000000     0.2500000  0.2500000  0.2500000
                       0.0000000  0.0000000  0.0000000     0.2500000  0.2500000  0.2500000
                       0.0000000  0.0000000  0.0000000     0.2500000  0.2500000  0.2500000
                       0.0000000  0.0000000  0.0000000     0.2500000  0.2500000  0.2500000
                       0.0000000  0.0000000  0.0000000     0.2500000  0.2500000  0.2500000
                       0.0000000  0.0000000  0.0000000     0.2500000  0.2500000  0.2500000
                       0.0000000  0.0000000  0.0000000     0.2500000  0.2500000  0.2500000
                       0.0000000  0.0000000  0.0000000     0.2500000  0.2500000  0.2500000
                       0.0000000  0.0000000  0.0000000     0.2500000  0.2500000  0.2500000
                       0.0000000  0.0000000  0.0000000     0.2500000  0.2500000  0.2500000
                       0.0000000  0.0000000  0.0000000     0.2500000  0.2500000  0.2500000
                       0.0000000  0.0000000  0.0000000     0.2500000  0.2500000  0.2500000
                       0.0000000  0.0000000  0.0000000     0.2500000  0.2500000  0.2500000
                       0.0000000  0.0000000  0.0000000     0.2500000  0.2500000  0.2500000
                       0.0000000  0.0000000  0.0000000     0.2500000  0.2500000  0.2500000
                       0.0000000  0.0000000  0.0000000     0.2500000  0.2500000  0.2500000
                       0.0000000  0.0000000  0.0000000     0.2500000  0.2500000  0.2500000
                       0.0000000  0.0000000  0.0000000     0.2500000  0.2500000  0.2500000
                       0.0000000  0.0000000  0.0000000     0.2500000  0.2500000  0.2500000
                       0.0000000  0.0000000  0.0000000     0.2500000  0.2500000  0.2500000
           tolwfr      1.00000000E-20
           tsmear      1.00000000E-03 Hartree
            typat      1  1
         wfoptalg1        114
         wfoptalg2        114
         wfoptalg3        114
         wfoptalg4        114
         wfoptalg5          0
         wfoptalg6        114
              wtk        0.09375    0.09375    0.09375    0.18750    0.09375    0.09375
                         0.09375    0.18750    0.03125    0.03125
           xangst      0.0000000000E+00  0.0000000000E+00  0.0000000000E+00
                       9.2606011503E-01  9.2606011503E-01  9.2606011503E-01
            xcart      0.0000000000E+00  0.0000000000E+00  0.0000000000E+00
                       1.7500000000E+00  1.7500000000E+00  1.7500000000E+00
             xred      0.0000000000E+00  0.0000000000E+00  0.0000000000E+00
                       2.5000000000E-01  2.5000000000E-01  2.5000000000E-01
            znucl        6.00000

================================================================================

 chkinp: Checking input parameters for consistency, jdtset=   1.

 chkinp: Checking input parameters for consistency, jdtset=   2.

 chkinp: Checking input parameters for consistency, jdtset=   3.

 chkinp: Checking input parameters for consistency, jdtset=   4.

 chkinp: Checking input parameters for consistency, jdtset=   5.

 chkinp: Checking input parameters for consistency, jdtset=   6.

================================================================================
== DATASET  1 ==================================================================
-   nproc =    4

 Exchange-correlation functional for the present dataset will be:
  GGA: Perdew-Burke-Ernzerhof functional - ixc=11
 Citation for XC functional:
  J.P.Perdew, K.Burke, M.Ernzerhof, PRL 77, 3865 (1996)

 Real(R)+Recip(G) space primitive vectors, cartesian coordinates (Bohr,Bohr^-1):
 R(1)=  0.0000000  3.5000000  3.5000000  G(1)= -0.1428571  0.1428571  0.1428571
 R(2)=  3.5000000  0.0000000  3.5000000  G(2)=  0.1428571 -0.1428571  0.1428571
 R(3)=  3.5000000  3.5000000  0.0000000  G(3)=  0.1428571  0.1428571 -0.1428571
 Unit cell volume ucvol=  8.5750000E+01 bohr^3
 Angles (23,13,12)=  6.00000000E+01  6.00000000E+01  6.00000000E+01 degrees

 getcut: wavevector=  0.0000  0.0000  0.0000  ngfft=  24  24  24
         ecut(hartree)=     25.000   => boxcut(ratio)=   2.15423

--- Pseudopotential description ------------------------------------------------
- pspini: atom type   1  psp file is /home/buildbot/bb/ABINIT/abiref_gnu_9.2_openmpi/trunk__gonze3/tests/Psps_for_tests/C.psp8
- pspatm: opening atomic psp file    /home/buildbot/bb/ABINIT/abiref_gnu_9.2_openmpi/trunk__gonze3/tests/Psps_for_tests/C.psp8
- C     ONCVPSP-3.2.3  r_core=   1.51078   1.70218
-  6.00000   4.00000    160922                znucl, zion, pspdat
    8   11    1    4       600   0.00000      pspcod,pspxc,lmax,lloc,mmax,r2well
    5.99000000000000    4.00000000000000    0.00000000000000   rchrg,fchrg,qchrg
     nproj     2     2
     extension_switch     1
  pspatm : epsatm=    6.54852399
         --- l  ekb(1:nproj) -->
             0    5.385069    0.619074
             1   -3.489168   -1.040664
 pspatm: atomic psp has been read  and splines computed

   1.04776384E+02                                ecore*ucvol(ha*bohr**3)
--------------------------------------------------------------------------------

_setup2: Arith. and geom. avg. npw (full set) are     255.094     255.080

================================================================================

     iter   Etot(hartree)      deltaE(h)  residm     vres2
 ETOT  1  -12.012170738940    -1.201E+01 2.139E-04 1.357E+01
 ETOT  2  -12.016466002050    -4.295E-03 2.162E-08 4.689E-02
 ETOT  3  -12.016473781903    -7.780E-06 4.077E-09 7.670E-04
 ETOT  4  -12.016473888726    -1.068E-07 2.744E-10 1.237E-05
 ETOT  5  -12.016473890041    -1.315E-09 8.181E-12 3.502E-08
 ETOT  6  -12.016473890045    -4.107E-12 1.587E-14 1.153E-10
 ETOT  7  -12.016473890045    -5.329E-15 5.001E-17 5.647E-13
 ETOT  8  -12.016473890045     4.441E-14 1.037E-18 1.246E-15
 ETOT  9  -12.016473890045     1.421E-14 2.386E-20 2.188E-18
 ETOT 10  -12.016473890045    -2.132E-14 5.089E-22 5.723E-21

 At SCF step   10   max residual=  5.09E-22 < tolwfr=  1.00E-20 =>converged.

 Cartesian components of stress tensor (hartree/bohr^3)
  sigma(1 1)=  1.35852971E-03  sigma(3 2)=  0.00000000E+00
  sigma(2 2)=  1.35852971E-03  sigma(3 1)=  0.00000000E+00
  sigma(3 3)=  1.35852971E-03  sigma(2 1)=  0.00000000E+00

 bonds_lgth_angles : about to open file t27_MPI4o_DS1_GEO

 io1dm : about to open file t27_MPI4o_DS1_1DM
 Integrated electronic density in atomic spheres:
 ------------------------------------------------
 Atom  Sphere_radius  Integrated_density
    1        2.00000          4.38641074
    2        2.00000          4.38641074
================================================================================

 ----iterations are completed or convergence reached----

 Mean square residual over all n,k,spin=   79.919E-25; max=  50.891E-23
 reduced coordinates (array xred) for    2 atoms
       0.000000000000      0.000000000000      0.000000000000
       0.250000000000      0.250000000000      0.250000000000
 rms dE/dt=  5.7482E-29; max dE/dt=  5.0487E-29; dE/dt below (all hartree)
    1      -0.000000000000     -0.000000000000      0.000000000000
    2      -0.000000000000      0.000000000000      0.000000000000

 cartesian coordinates (angstrom) at end:
    1      0.00000000000000     0.00000000000000     0.00000000000000
    2      0.92606011503250     0.92606011503250     0.92606011503250

 cartesian forces (hartree/bohr) at end:
    1      0.00000000000000     0.00000000000000     0.00000000000000
    2     -0.00000000000000     0.00000000000000    -0.00000000000000
 frms,max,avg= 3.9259565E-30 4.8082950E-30   0.000E+00  0.000E+00  0.000E+00 h/b

 cartesian forces (eV/Angstrom) at end:
    1      0.00000000000000     0.00000000000000     0.00000000000000
    2     -0.00000000000000     0.00000000000000    -0.00000000000000
 frms,max,avg= 2.0188078E-28 2.4725245E-28   0.000E+00  0.000E+00  0.000E+00 e/A
 length scales=  7.000000000000  7.000000000000  7.000000000000 bohr
              =  3.704240460130  3.704240460130  3.704240460130 angstroms
 prteigrs : about to open file t27_MPI4o_DS1_EIG
 Fermi (or HOMO) energy (hartree) =   0.25259   Average Vxc (hartree)=  -0.47247
 Eigenvalues (hartree) for nkpt=  10  k points:
 kpt#   1, nband= 12, wtk=  0.09375, kpt= -0.1250 -0.2500  0.0000 (reduced coord)
  -0.41577    0.09234    0.17106    0.19516    0.46871    0.57632    0.58614    0.68611
   0.96857    0.99066    1.19209    1.25095
      occupation numbers for kpt#   1
   2.00000    2.00000    2.00000    2.00000    0.00000    0.00000    0.00000    0.00000
   0.00000    0.00000    0.00000    0.00000
 prteigrs : prtvol=0 or 1, do not print more k-points.


--------------------------------------------------------------------------------
 Components of total free energy (in Hartree) :

    Kinetic energy  =  7.72815176868875E+00
    Hartree energy  =  1.01562010004079E+00
    XC energy       = -4.23219893806243E+00
    Ewald energy    = -1.23126812437528E+01
    PspCore energy  =  1.22188202783018E+00
    Loc. psp. energy= -4.29342735514324E+00
    NL   psp  energy= -1.14382024964600E+00
    >>>>> Internal E= -1.20164738900448E+01

    -kT*entropy     = -7.55261880796144E-19
    >>>>>>>>> Etotal= -1.20164738900448E+01

 Other information on the energy :
    Total energy(eV)= -3.26984883665675E+02 ; Band energy (Ha)=  -3.1988487387E-01
--------------------------------------------------------------------------------



 Cartesian components of stress tensor (hartree/bohr^3)
  sigma(1 1)=  1.35852971E-03  sigma(3 2)=  0.00000000E+00
  sigma(2 2)=  1.35852971E-03  sigma(3 1)=  0.00000000E+00
  sigma(3 3)=  1.35852971E-03  sigma(2 1)=  0.00000000E+00

-Cartesian components of stress tensor (GPa)         [Pressure= -3.9969E+01 GPa]
- sigma(1 1)=  3.99693172E+01  sigma(3 2)=  0.00000000E+00
- sigma(2 2)=  3.99693172E+01  sigma(3 1)=  0.00000000E+00
- sigma(3 3)=  3.99693172E+01  sigma(2 1)=  0.00000000E+00

================================================================================
== DATASET  2 ==================================================================
-   nproc =    4

 mkfilename : getwfk/=0, take file _WFK from output of DATASET   1.

 Exchange-correlation functional for the present dataset will be:
  GGA: Perdew-Burke-Ernzerhof functional - ixc=11
 Citation for XC functional:
  J.P.Perdew, K.Burke, M.Ernzerhof, PRL 77, 3865 (1996)

 Real(R)+Recip(G) space primitive vectors, cartesian coordinates (Bohr,Bohr^-1):
 R(1)=  0.0000000  3.5000000  3.5000000  G(1)= -0.1428571  0.1428571  0.1428571
 R(2)=  3.5000000  0.0000000  3.5000000  G(2)=  0.1428571 -0.1428571  0.1428571
 R(3)=  3.5000000  3.5000000  0.0000000  G(3)=  0.1428571  0.1428571 -0.1428571
 Unit cell volume ucvol=  8.5750000E+01 bohr^3
 Angles (23,13,12)=  6.00000000E+01  6.00000000E+01  6.00000000E+01 degrees

 getcut: wavevector=  0.0000  0.0000  0.0000  ngfft=  24  24  24
         ecut(hartree)=     25.000   => boxcut(ratio)=   2.15423
--------------------------------------------------------------------------------

-inwffil : will read wavefunctions from disk file t27_MPI4o_DS1_WFK
_setup2: Arith. and geom. avg. npw (full set) are     134.313     134.277

================================================================================

     iter   Etot(hartree)      deltaE(h)  residm     vres2
 ETOT  1  -12.016473890045    -1.202E+01 1.234E-23 1.058E-22

 At SCF step    1   max residual=  1.23E-23 < tolwfr=  1.00E-20 =>converged.

 Cartesian components of stress tensor (hartree/bohr^3)
  sigma(1 1)=  1.35852971E-03  sigma(3 2)=  0.00000000E+00
  sigma(2 2)=  1.35852971E-03  sigma(3 1)=  0.00000000E+00
  sigma(3 3)=  1.35852971E-03  sigma(2 1)=  0.00000000E+00

 bonds_lgth_angles : about to open file t27_MPI4o_DS2_GEO

 io1dm : about to open file t27_MPI4o_DS2_1DM
 Integrated electronic density in atomic spheres:
 ------------------------------------------------
 Atom  Sphere_radius  Integrated_density
    1        2.00000          4.38641074
    2        2.00000          4.38641074
================================================================================

 ----iterations are completed or convergence reached----

 Mean square residual over all n,k,spin=   17.524E-26; max=  12.337E-24
 reduced coordinates (array xred) for    2 atoms
       0.000000000000      0.000000000000      0.000000000000
       0.250000000000      0.250000000000      0.250000000000
 rms dE/dt=  6.1451E-29; max dE/dt=  6.7316E-29; dE/dt below (all hartree)
    1       0.000000000000     -0.000000000000     -0.000000000000
    2      -0.000000000000      0.000000000000      0.000000000000

 cartesian coordinates (angstrom) at end:
    1      0.00000000000000     0.00000000000000     0.00000000000000
    2      0.92606011503250     0.92606011503250     0.92606011503250

 cartesian forces (hartree/bohr) at end:
    1      0.00000000000000     0.00000000000000    -0.00000000000000
    2     -0.00000000000000    -0.00000000000000     0.00000000000000
 frms,max,avg= 1.5886789E-29 2.1637328E-29   0.000E+00  0.000E+00  0.000E+00 h/b

 cartesian forces (eV/Angstrom) at end:
    1      0.00000000000000     0.00000000000000    -0.00000000000000
    2     -0.00000000000000    -0.00000000000000     0.00000000000000
 frms,max,avg= 8.1693148E-28 1.1126360E-27   0.000E+00  0.000E+00  0.000E+00 e/A
 length scales=  7.000000000000  7.000000000000  7.000000000000 bohr
              =  3.704240460130  3.704240460130  3.704240460130 angstroms
 prteigrs : about to open file t27_MPI4o_DS2_EIG
 Fermi (or HOMO) energy (hartree) =   0.25259   Average Vxc (hartree)=  -0.47247
 Eigenvalues (hartree) for nkpt=  10  k points:
 kpt#   1, nband= 12, wtk=  0.09375, kpt= -0.1250 -0.2500  0.0000 (reduced coord)
  -0.41577    0.09234    0.17106    0.19516    0.46871    0.57632    0.58614    0.68611
   0.96857    0.99066    1.19209    1.25095
      occupation numbers for kpt#   1
   2.00000    2.00000    2.00000    2.00000    0.00000    0.00000    0.00000    0.00000
   0.00000    0.00000    0.00000    0.00000
 prteigrs : prtvol=0 or 1, do not print more k-points.


--------------------------------------------------------------------------------
 Components of total free energy (in Hartree) :

    Kinetic energy  =  7.72815176868833E+00
    Hartree energy  =  1.01562010004055E+00
    XC energy       = -4.23219893806233E+00
    Ewald energy    = -1.23126812437528E+01
    PspCore energy  =  1.22188202783018E+00
    Loc. psp. energy= -4.29342735514266E+00
    NL   psp  energy= -1.14382024964604E+00
    >>>>> Internal E= -1.20164738900448E+01

    -kT*entropy     = -7.55261880796144E-19
    >>>>>>>>> Etotal= -1.20164738900448E+01

 Other information on the energy :
    Total energy(eV)= -3.26984883665676E+02 ; Band energy (Ha)=  -3.1988487388E-01
--------------------------------------------------------------------------------



 Cartesian components of stress tensor (hartree/bohr^3)
  sigma(1 1)=  1.35852971E-03  sigma(3 2)=  0.00000000E+00
  sigma(2 2)=  1.35852971E-03  sigma(3 1)=  0.00000000E+00
  sigma(3 3)=  1.35852971E-03  sigma(2 1)=  0.00000000E+00

-Cartesian components of stress tensor (GPa)         [Pressure= -3.9969E+01 GPa]
- sigma(1 1)=  3.99693172E+01  sigma(3 2)=  0.00000000E+00
- sigma(2 2)=  3.99693172E+01  sigma(3 1)=  0.00000000E+00
- sigma(3 3)=  3.99693172E+01  sigma(2 1)=  0.00000000E+00

================================================================================
== DATASET  3 ==================================================================
-   nproc =    4

 mkfilename : getwfk/=0, take file _WFK from output of DATASET   2.

 Exchange-correlation functional for the present dataset will be:
  GGA: Perdew-Burke-Ernzerhof functional - ixc=11
 Citation for XC functional:
  J.P.Perdew, K.Burke, M.Ernzerhof, PRL 77, 3865 (1996)

 Real(R)+Recip(G) space primitive vectors, cartesian coordinates (Bohr,Bohr^-1):
 R(1)=  0.0000000  3.5000000  3.5000000  G(1)= -0.1428571  0.1428571  0.1428571
 R(2)=  3.5000000  0.0000000  3.5000000  G(2)=  0.1428571 -0.1428571  0.1428571
 R(3)=  3.5000000  3.5000000  0.0000000  G(3)=  0.1428571  0.1428571 -0.1428571
 Unit cell volume ucvol=  8.5750000E+01 bohr^3
 Angles (23,13,12)=  6.00000000E+01  6.00000000E+01  6.00000000E+01 degrees

 getcut: wavevector=  0.0000  0.0000  0.0000  ngfft=  24  24  24
         ecut(hartree)=     25.000   => boxcut(ratio)=   2.15423
--------------------------------------------------------------------------------

-inwffil : will read wavefunctions from disk file t27_MPI4o_DS2_WFK
_setup2: Arith. and geom. avg. npw (full set) are     128.156     128.146

================================================================================

     iter   Etot(hartree)      deltaE(h)  residm     vres2
 ETOT  1  -12.016473890045    -1.202E+01 4.861E-25 1.503E-24

 At SCF step    1   max residual=  4.86E-25 < tolwfr=  1.00E-20 =>converged.

 Cartesian components of stress tensor (hartree/bohr^3)
  sigma(1 1)=  1.35852971E-03  sigma(3 2)=  0.00000000E+00
  sigma(2 2)=  1.35852971E-03  sigma(3 1)=  0.00000000E+00
  sigma(3 3)=  1.35852971E-03  sigma(2 1)=  0.00000000E+00

 bonds_lgth_angles : about to open file t27_MPI4o_DS3_GEO

 io1dm : about to open file t27_MPI4o_DS3_1DM
 Integrated electronic density in atomic spheres:
 ------------------------------------------------
 Atom  Sphere_radius  Integrated_density
    1        2.00000          4.38641074
    2        2.00000          4.38641074
================================================================================

 ----iterations are completed or convergence reached----

 Mean square residual over all n,k,spin=   73.785E-28; max=  48.608E-26
 reduced coordinates (array xred) for    2 atoms
       0.000000000000      0.000000000000      0.000000000000
       0.250000000000      0.250000000000      0.250000000000
 rms dE/dt=  3.2225E-29; max dE/dt=  5.0487E-29; dE/dt below (all hartree)
    1      -0.000000000000      0.000000000000     -0.000000000000
    2       0.000000000000      0.000000000000     -0.000000000000

 cartesian coordinates (angstrom) at end:
    1      0.00000000000000     0.00000000000000     0.00000000000000
    2      0.92606011503250     0.92606011503250     0.92606011503250

 cartesian forces (hartree/bohr) at end:
    1      0.00000000000000     0.00000000000000     0.00000000000000
    2     -0.00000000000000    -0.00000000000000    -0.00000000000000
 frms,max,avg= 2.4041475E-30 2.4041475E-30   0.000E+00  0.000E+00  0.000E+00 h/b

 cartesian forces (eV/Angstrom) at end:
    1      0.00000000000000     0.00000000000000     0.00000000000000
    2     -0.00000000000000    -0.00000000000000    -0.00000000000000
 frms,max,avg= 1.2362623E-28 1.2362623E-28   0.000E+00  0.000E+00  0.000E+00 e/A
 length scales=  7.000000000000  7.000000000000  7.000000000000 bohr
              =  3.704240460130  3.704240460130  3.704240460130 angstroms
 prteigrs : about to open file t27_MPI4o_DS3_EIG
 Fermi (or HOMO) energy (hartree) =   0.25259   Average Vxc (hartree)=  -0.47247
 Eigenvalues (hartree) for nkpt=  10  k points:
 kpt#   1, nband= 12, wtk=  0.09375, kpt= -0.1250 -0.2500  0.0000 (reduced coord)
  -0.41577    0.09234    0.17106    0.19516    0.46871    0.57632    0.58614    0.68611
   0.96857    0.99066    1.19209    1.25095
      occupation numbers for kpt#   1
   2.00000    2.00000    2.00000    2.00000    0.00000    0.00000    0.00000    0.00000
   0.00000    0.00000    0.00000    0.00000
 prteigrs : prtvol=0 or 1, do not print more k-points.


--------------------------------------------------------------------------------
 Components of total free energy (in Hartree) :

    Kinetic energy  =  7.72815176868853E+00
    Hartree energy  =  1.01562010004064E+00
    XC energy       = -4.23219893806239E+00
    Ewald energy    = -1.23126812437528E+01
    PspCore energy  =  1.22188202783018E+00
    Loc. psp. energy= -4.29342735514282E+00
    NL   psp  energy= -1.14382024964610E+00
    >>>>> Internal E= -1.20164738900448E+01

    -kT*entropy     = -7.55261880796144E-19
    >>>>>>>>> Etotal= -1.20164738900448E+01

 Other information on the energy :
    Total energy(eV)= -3.26984883665676E+02 ; Band energy (Ha)=  -3.1988487388E-01
--------------------------------------------------------------------------------



 Cartesian components of stress tensor (hartree/bohr^3)
  sigma(1 1)=  1.35852971E-03  sigma(3 2)=  0.00000000E+00
  sigma(2 2)=  1.35852971E-03  sigma(3 1)=  0.00000000E+00
  sigma(3 3)=  1.35852971E-03  sigma(2 1)=  0.00000000E+00

-Cartesian components of stress tensor (GPa)         [Pressure= -3.9969E+01 GPa]
- sigma(1 1)=  3.99693172E+01  sigma(3 2)=  0.00000000E+00
- sigma(2 2)=  3.99693172E+01  sigma(3 1)=  0.00000000E+00
- sigma(3 3)=  3.99693172E+01  sigma(2 1)=  0.00000000E+00

================================================================================
== DATASET  4 ==================================================================
-   nproc =    4

 mkfilename : getden/=0, take file _DEN from output of DATASET   3.

 Exchange-correlation functional for the present dataset will be:
  GGA: Perdew-Burke-Ernzerhof functional - ixc=11
 Citation for XC functional:
  J.P.Perdew, K.Burke, M.Ernzerhof, PRL 77, 3865 (1996)

 Real(R)+Recip(G) space primitive vectors, cartesian coordinates (Bohr,Bohr^-1):
 R(1)=  0.0000000  3.5000000  3.5000000  G(1)= -0.1428571  0.1428571  0.1428571
 R(2)=  3.5000000  0.0000000  3.5000000  G(2)=  0.1428571 -0.1428571  0.1428571
 R(3)=  3.5000000  3.5000000  0.0000000  G(3)=  0.1428571  0.1428571 -0.1428571
 Unit cell volume ucvol=  8.5750000E+01 bohr^3
 Angles (23,13,12)=  6.00000000E+01  6.00000000E+01  6.00000000E+01 degrees

 getcut: wavevector=  0.0000  0.0000  0.0000  ngfft=  24  24  24
         ecut(hartree)=     25.000   => boxcut(ratio)=   2.15423
--------------------------------------------------------------------------------

_setup2: Arith. and geom. avg. npw (full set) are     127.844     127.836

================================================================================

     iter   Etot(hartree)      deltaE(h)  residm     vres2
 ETOT  1  -12.016342627689    -1.202E+01 5.277E-05 5.087E-04
 ETOT  2  -12.016473846787    -1.312E-04 7.593E-09 3.705E-04
 ETOT  3  -12.016473879451    -3.266E-08 1.451E-10 1.047E-04
 ETOT  4  -12.016473885200    -5.750E-09 2.502E-12 4.802E-05
 ETOT  5  -12.016473887459    -2.259E-09 7.780E-13 2.561E-05
 ETOT  6  -12.016473888287    -8.279E-10 1.808E-13 1.741E-05
 ETOT  7  -12.016473888692    -4.043E-10 5.860E-14 1.341E-05
 ETOT  8  -12.016473889600    -9.083E-10 5.334E-13 4.404E-06
 ETOT  9  -12.016473889239     3.605E-10 1.446E-13 7.982E-06
 ETOT 10  -12.016473890043    -8.039E-10 1.715E-12 2.074E-11
 ETOT 11  -12.016473890045    -1.458E-12 8.863E-16 2.601E-12

 Cartesian components of stress tensor (hartree/bohr^3)
  sigma(1 1)=  1.35852991E-03  sigma(3 2)=  0.00000000E+00
  sigma(2 2)=  1.35852991E-03  sigma(3 1)=  0.00000000E+00
  sigma(3 3)=  1.35852991E-03  sigma(2 1)=  0.00000000E+00


 scprqt:  WARNING -
  nstep=   11 was not enough SCF cycles to converge;
  maximum residual=  8.863E-16 exceeds tolwfr=  1.000E-20

 bonds_lgth_angles : about to open file t27_MPI4o_DS4_GEO

 io1dm : about to open file t27_MPI4o_DS4_1DM
 Integrated electronic density in atomic spheres:
 ------------------------------------------------
 Atom  Sphere_radius  Integrated_density
    1        2.00000          4.38641073
    2        2.00000          4.38641073
================================================================================

 ----iterations are completed or convergence reached----

 Mean square residual over all n,k,spin=   70.444E-18; max=  88.634E-17
 reduced coordinates (array xred) for    2 atoms
       0.000000000000      0.000000000000      0.000000000000
       0.250000000000      0.250000000000      0.250000000000
 rms dE/dt=  5.1414E-29; max dE/dt=  8.4145E-29; dE/dt below (all hartree)
    1       0.000000000000     -0.000000000000     -0.000000000000
    2       0.000000000000      0.000000000000     -0.000000000000

 cartesian coordinates (angstrom) at end:
    1      0.00000000000000     0.00000000000000     0.00000000000000
    2      0.92606011503250     0.92606011503250     0.92606011503250

 cartesian forces (hartree/bohr) at end:
    1      0.00000000000000    -0.00000000000000     0.00000000000000
    2      0.00000000000000     0.00000000000000    -0.00000000000000
 frms,max,avg= 1.0009264E-29 1.4424885E-29   0.000E+00  0.000E+00  0.000E+00 h/b

 cartesian forces (eV/Angstrom) at end:
    1      0.00000000000000    -0.00000000000000     0.00000000000000
    2      0.00000000000000     0.00000000000000    -0.00000000000000
 frms,max,avg= 5.1469702E-28 7.4175735E-28   0.000E+00  0.000E+00  0.000E+00 e/A
 length scales=  7.000000000000  7.000000000000  7.000000000000 bohr
              =  3.704240460130  3.704240460130  3.704240460130 angstroms
 prteigrs : about to open file t27_MPI4o_DS4_EIG
 Fermi (or HOMO) energy (hartree) =   0.25259   Average Vxc (hartree)=  -0.47247
 Eigenvalues (hartree) for nkpt=  10  k points:
 kpt#   1, nband= 12, wtk=  0.09375, kpt= -0.1250 -0.2500  0.0000 (reduced coord)
  -0.41577    0.09234    0.17106    0.19516    0.46871    0.57632    0.58614    0.68611
   0.96857    0.99066    1.19209    1.25095
      occupation numbers for kpt#   1
   2.00000    2.00000    2.00000    2.00000    0.00000    0.00000    0.00000    0.00000
   0.00000    0.00000    0.00000    0.00000
 prteigrs : prtvol=0 or 1, do not print more k-points.


--------------------------------------------------------------------------------
 Components of total free energy (in Hartree) :

    Kinetic energy  =  7.72815174720253E+00
    Hartree energy  =  1.01562009087870E+00
    XC energy       = -4.23219893363612E+00
    Ewald energy    = -1.23126812437528E+01
    PspCore energy  =  1.22188202783018E+00
    Loc. psp. energy= -4.29342733223327E+00
    NL   psp  energy= -1.14382024633402E+00
    >>>>> Internal E= -1.20164738900448E+01

    -kT*entropy     = -7.55261880796144E-19
    >>>>>>>>> Etotal= -1.20164738900448E+01

 Other information on the energy :
    Total energy(eV)= -3.26984883665677E+02 ; Band energy (Ha)=  -3.1988485881E-01
--------------------------------------------------------------------------------



 Cartesian components of stress tensor (hartree/bohr^3)
  sigma(1 1)=  1.35852991E-03  sigma(3 2)=  0.00000000E+00
  sigma(2 2)=  1.35852991E-03  sigma(3 1)=  0.00000000E+00
  sigma(3 3)=  1.35852991E-03  sigma(2 1)=  0.00000000E+00

-Cartesian components of stress tensor (GPa)         [Pressure= -3.9969E+01 GPa]
- sigma(1 1)=  3.99693230E+01  sigma(3 2)=  0.00000000E+00
- sigma(2 2)=  3.99693230E+01  sigma(3 1)=  0.00000000E+00
- sigma(3 3)=  3.99693230E+01  sigma(2 1)=  0.00000000E+00

================================================================================
== DATASET  5 ==================================================================
-   nproc =    4

 mkfilename : getwfk/=0, take file _WFK from output of DATASET   4.

 Exchange-correlation functional for the present dataset will be:
  GGA: Perdew-Burke-Ernzerhof functional - ixc=11
 Citation for XC functional:
  J.P.Perdew, K.Burke, M.Ernzerhof, PRL 77, 3865 (1996)

 Real(R)+Recip(G) space primitive vectors, cartesian coordinates (Bohr,Bohr^-1):
 R(1)=  0.0000000  3.5000000  3.5000000  G(1)= -0.1428571  0.1428571  0.1428571
 R(2)=  3.5000000  0.0000000  3.5000000  G(2)=  0.1428571 -0.1428571  0.1428571
 R(3)=  3.5000000  3.5000000  0.0000000  G(3)=  0.1428571  0.1428571 -0.1428571
 Unit cell volume ucvol=  8.5750000E+01 bohr^3
 Angles (23,13,12)=  6.00000000E+01  6.00000000E+01  6.00000000E+01 degrees

 getcut: wavevector=  0.0000  0.0000  0.0000  ngfft=  24  24  24
         ecut(hartree)=     25.000   => boxcut(ratio)=   2.15423
--------------------------------------------------------------------------------

-inwffil : will read wavefunctions from disk file t27_MPI4o_DS4_WFK
_setup2: Arith. and geom. avg. npw (full set) are     511.875     511.840

================================================================================

     iter   Etot(hartree)      deltaE(h)  residm     vres2
 ETOT  1  -12.016473890045    -1.202E+01 1.967E-17 4.325E-14

 Cartesian components of stress tensor (hartree/bohr^3)
  sigma(1 1)=  1.35852966E-03  sigma(3 2)=  0.00000000E+00
  sigma(2 2)=  1.35852966E-03  sigma(3 1)=  0.00000000E+00
  sigma(3 3)=  1.35852966E-03  sigma(2 1)=  0.00000000E+00


 scprqt:  WARNING -
  nstep=    1 was not enough SCF cycles to converge;
  maximum residual=  1.967E-17 exceeds tolwfr=  1.000E-20

 bonds_lgth_angles : about to open file t27_MPI4o_DS5_GEO

 io1dm : about to open file t27_MPI4o_DS5_1DM
 Integrated electronic density in atomic spheres:
 ------------------------------------------------
 Atom  Sphere_radius  Integrated_density
    1        2.00000          4.38641074
    2        2.00000          4.38641074
================================================================================

 ----iterations are completed or convergence reached----

 Mean square residual over all n,k,spin=   18.378E-20; max=  19.665E-18
 reduced coordinates (array xred) for    2 atoms
       0.000000000000      0.000000000000      0.000000000000
       0.250000000000      0.250000000000      0.250000000000
 rms dE/dt=  5.0487E-29; max dE/dt=  5.0487E-29; dE/dt below (all hartree)
    1      -0.000000000000      0.000000000000      0.000000000000
    2       0.000000000000     -0.000000000000     -0.000000000000

 cartesian coordinates (angstrom) at end:
    1      0.00000000000000     0.00000000000000     0.00000000000000
    2      0.92606011503250     0.92606011503250     0.92606011503250

 cartesian forces (hartree/bohr) at end:
    1     -0.00000000000000     0.00000000000000     0.00000000000000
    2      0.00000000000000    -0.00000000000000    -0.00000000000000
 frms,max,avg= 1.1777869E-29 1.9233180E-29   0.000E+00  0.000E+00  0.000E+00 h/b

 cartesian forces (eV/Angstrom) at end:
    1     -0.00000000000000     0.00000000000000     0.00000000000000
    2      0.00000000000000    -0.00000000000000    -0.00000000000000
 frms,max,avg= 6.0564234E-28 9.8900981E-28   0.000E+00  0.000E+00  0.000E+00 e/A
 length scales=  7.000000000000  7.000000000000  7.000000000000 bohr
              =  3.704240460130  3.704240460130  3.704240460130 angstroms
 prteigrs : about to open file t27_MPI4o_DS5_EIG
 Fermi (or HOMO) energy (hartree) =   0.25259   Average Vxc (hartree)=  -0.47247
 Eigenvalues (hartree) for nkpt=  10  k points:
 kpt#   1, nband= 12, wtk=  0.09375, kpt= -0.1250 -0.2500  0.0000 (reduced coord)
  -0.41577    0.09234    0.17106    0.19516    0.46871    0.57632    0.58614    0.68611
   0.96857    0.99066    1.19209    1.25095
      occupation numbers for kpt#   1
   2.00000    2.00000    2.00000    2.00000    0.00000    0.00000    0.00000    0.00000
   0.00000    0.00000    0.00000    0.00000
 prteigrs : prtvol=0 or 1, do not print more k-points.


--------------------------------------------------------------------------------
 Components of total free energy (in Hartree) :

    Kinetic energy  =  7.72815177553988E+00
    Hartree energy  =  1.01562010266384E+00
    XC energy       = -4.23219893923502E+00
    Ewald energy    = -1.23126812437528E+01
    PspCore energy  =  1.22188202783018E+00
    Loc. psp. energy= -4.29342736176646E+00
    NL   psp  energy= -1.14382025132429E+00
    >>>>> Internal E= -1.20164738900447E+01

    -kT*entropy     = -7.55261880796144E-19
    >>>>>>>>> Etotal= -1.20164738900447E+01

 Other information on the energy :
    Total energy(eV)= -3.26984883665673E+02 ; Band energy (Ha)=  -3.1988488274E-01
--------------------------------------------------------------------------------



 Cartesian components of stress tensor (hartree/bohr^3)
  sigma(1 1)=  1.35852966E-03  sigma(3 2)=  0.00000000E+00
  sigma(2 2)=  1.35852966E-03  sigma(3 1)=  0.00000000E+00
  sigma(3 3)=  1.35852966E-03  sigma(2 1)=  0.00000000E+00

-Cartesian components of stress tensor (GPa)         [Pressure= -3.9969E+01 GPa]
- sigma(1 1)=  3.99693159E+01  sigma(3 2)=  0.00000000E+00
- sigma(2 2)=  3.99693159E+01  sigma(3 1)=  0.00000000E+00
- sigma(3 3)=  3.99693159E+01  sigma(2 1)=  0.00000000E+00

================================================================================
== DATASET  6 ==================================================================
-   nproc =    4

 mkfilename : getwfk/=0, take file _WFK from output of DATASET   1.

 mkfilename : getden/=0, take file _DEN from output of DATASET   5.

 Exchange-correlation functional for the present dataset will be:
  GGA: Perdew-Burke-Ernzerhof functional - ixc=11
 Citation for XC functional:
  J.P.Perdew, K.Burke, M.Ernzerhof, PRL 77, 3865 (1996)

 Real(R)+Recip(G) space primitive vectors, cartesian coordinates (Bohr,Bohr^-1):
 R(1)=  0.0000000  3.5000000  3.5000000  G(1)= -0.1428571  0.1428571  0.1428571
 R(2)=  3.5000000  0.0000000  3.5000000  G(2)=  0.1428571 -0.1428571  0.1428571
 R(3)=  3.5000000  3.5000000  0.0000000  G(3)=  0.1428571  0.1428571 -0.1428571
 Unit cell volume ucvol=  8.5750000E+01 bohr^3
 Angles (23,13,12)=  6.00000000E+01  6.00000000E+01  6.00000000E+01 degrees

 getcut: wavevector=  0.0000  0.0000  0.0000  ngfft=  32  32  32
         ecut(hartree)=     25.000   => boxcut(ratio)=   2.87231

 getcut : COMMENT -
  Note that boxcut > 2.2 ; recall that boxcut=Gcut(box)/Gcut(sphere) = 2
  is sufficient for exact treatment of convolution.
  Such a large boxcut is a waste : you could raise ecut
  e.g. ecut=   51.563647 Hartrees makes boxcut=2

--------------------------------------------------------------------------------

-inwffil : will read wavefunctions from disk file t27_MPI4o_DS1_WFK
_setup2: Arith. and geom. avg. npw (full set) are     134.313     134.277

================================================================================

     iter   Etot(hartree)      deltaE(h)  residm     vres2
 ETOT  1  -12.016459360989    -1.202E+01 7.908E-09 2.855E+00
 ETOT  2  -12.016473633928    -1.427E-05 9.643E-11 3.213E-03
 ETOT  3  -12.016473856208    -2.223E-07 1.468E-08 1.752E-04
 ETOT  4  -12.016473883180    -2.697E-08 1.183E-09 1.017E-07
 ETOT  5  -12.016473884594    -1.415E-09 5.950E-13 5.067E-09
 ETOT  6  -12.016473884596    -1.679E-12 2.619E-15 8.811E-11
 ETOT  7  -12.016473884596    -4.619E-14 1.467E-16 1.282E-12
 ETOT  8  -12.016473884596     1.776E-15 9.312E-19 3.435E-14
 ETOT  9  -12.016473884596     3.553E-15 3.058E-20 6.758E-17
 ETOT 10  -12.016473884596    -8.882E-15 4.320E-22 1.085E-18

 At SCF step   10   max residual=  4.32E-22 < tolwfr=  1.00E-20 =>converged.

 Cartesian components of stress tensor (hartree/bohr^3)
  sigma(1 1)=  1.35852966E-03  sigma(3 2)=  0.00000000E+00
  sigma(2 2)=  1.35852966E-03  sigma(3 1)=  0.00000000E+00
  sigma(3 3)=  1.35852966E-03  sigma(2 1)=  0.00000000E+00

 bonds_lgth_angles : about to open file t27_MPI4o_DS6_GEO

 io1dm : about to open file t27_MPI4o_DS6_1DM
 Integrated electronic density in atomic spheres:
 ------------------------------------------------
 Atom  Sphere_radius  Integrated_density
    1        2.00000          4.38580155
    2        2.00000          4.38580155
================================================================================

 ----iterations are completed or convergence reached----

 Mean square residual over all n,k,spin=   31.421E-24; max=  43.196E-23
 reduced coordinates (array xred) for    2 atoms
       0.000000000000      0.000000000000      0.000000000000
       0.250000000000      0.250000000000      0.250000000000
 rms dE/dt=  1.6489E-28; max dE/dt=  2.6926E-28; dE/dt below (all hartree)
    1      -0.000000000000      0.000000000000      0.000000000000
    2      -0.000000000000      0.000000000000      0.000000000000

 cartesian coordinates (angstrom) at end:
    1      0.00000000000000     0.00000000000000     0.00000000000000
    2      0.92606011503250     0.92606011503250     0.92606011503250

 cartesian forces (hartree/bohr) at end:
    1      0.00000000000000     0.00000000000000    -0.00000000000000
    2     -0.00000000000000     0.00000000000000     0.00000000000000
 frms,max,avg= 2.4829929E-29 3.8466360E-29   0.000E+00  0.000E+00  0.000E+00 h/b

 cartesian forces (eV/Angstrom) at end:
    1      0.00000000000000     0.00000000000000    -0.00000000000000
    2     -0.00000000000000     0.00000000000000     0.00000000000000
 frms,max,avg= 1.2768062E-27 1.9780196E-27   0.000E+00  0.000E+00  0.000E+00 e/A
 length scales=  7.000000000000  7.000000000000  7.000000000000 bohr
              =  3.704240460130  3.704240460130  3.704240460130 angstroms
 prteigrs : about to open file t27_MPI4o_DS6_EIG
 Fermi (or HOMO) energy (hartree) =   0.25259   Average Vxc (hartree)=  -0.47247
 Eigenvalues (hartree) for nkpt=  10  k points:
 kpt#   1, nband= 12, wtk=  0.09375, kpt= -0.1250 -0.2500  0.0000 (reduced coord)
  -0.41577    0.09234    0.17106    0.19516    0.46871    0.57632    0.58614    0.68611
   0.96857    0.99066    1.19209    1.25095
      occupation numbers for kpt#   1
   2.00000    2.00000    2.00000    2.00000    0.00000    0.00000    0.00000    0.00000
   0.00000    0.00000    0.00000    0.00000
 prteigrs : prtvol=0 or 1, do not print more k-points.


--------------------------------------------------------------------------------
 Components of total free energy (in Hartree) :

    Kinetic energy  =  7.72815168786840E+00
    Hartree energy  =  1.01562008786878E+00
    XC energy       = -4.23219892552809E+00
    Ewald energy    = -1.23126812437528E+01
    PspCore energy  =  1.22188202783018E+00
    Loc. psp. energy= -4.29342730692906E+00
    NL   psp  energy= -1.14382021195351E+00
    >>>>> Internal E= -1.20164738845961E+01

    -kT*entropy     = -7.55261880796144E-19
    >>>>>>>>> Etotal= -1.20164738845961E+01

 Other information on the energy :
    Total energy(eV)= -3.26984883517410E+02 ; Band energy (Ha)=  -3.1988485998E-01
--------------------------------------------------------------------------------



 Cartesian components of stress tensor (hartree/bohr^3)
  sigma(1 1)=  1.35852966E-03  sigma(3 2)=  0.00000000E+00
  sigma(2 2)=  1.35852966E-03  sigma(3 1)=  0.00000000E+00
  sigma(3 3)=  1.35852966E-03  sigma(2 1)=  0.00000000E+00

-Cartesian components of stress tensor (GPa)         [Pressure= -3.9969E+01 GPa]
- sigma(1 1)=  3.99693159E+01  sigma(3 2)=  0.00000000E+00
- sigma(2 2)=  3.99693159E+01  sigma(3 1)=  0.00000000E+00
- sigma(3 3)=  3.99693159E+01  sigma(2 1)=  0.00000000E+00

== END DATASET(S) ==============================================================
================================================================================
  
 -outvars: echo values of variables after computation  --------
-          iomode1          1
-          iomode2          1
-          iomode3          1
-          iomode4          1
-          iomode5          0
-          iomode6          1
            acell      7.0000000000E+00  7.0000000000E+00  7.0000000000E+00 Bohr
              amu      1.20110000E+01
     densfor_pred1          6
     densfor_pred2          6
     densfor_pred3          6
     densfor_pred4          6
     densfor_pred5          2
     densfor_pred6          6
           diemac      1.20000000E+01
             ecut      2.50000000E+01 Hartree
           etotal1    -1.2016473890E+01
           etotal2    -1.2016473890E+01
           etotal3    -1.2016473890E+01
           etotal4    -1.2016473890E+01
           etotal5    -1.2016473890E+01
           etotal6    -1.2016473885E+01
            fcart1     4.8082950413E-30  0.0000000000E+00  4.8082950413E-30
                      -4.8082950413E-30  0.0000000000E+00 -4.8082950413E-30
            fcart2     2.1637327686E-29  2.4041475207E-30 -1.6829032645E-29
                      -2.1637327686E-29 -2.4041475207E-30  1.6829032645E-29
            fcart3     2.4041475207E-30  2.4041475207E-30  2.4041475207E-30
                      -2.4041475207E-30 -2.4041475207E-30 -2.4041475207E-30
            fcart4     0.0000000000E+00 -9.6165900827E-30  1.4424885124E-29
                       7.0064923216E-46  9.6165900827E-30 -1.4424885124E-29
            fcart5    -1.9233180165E-29  4.8082950413E-30  4.8082950413E-30
                       1.9233180165E-29 -4.8082950413E-30 -4.8082950413E-30
            fcart6     3.8466360331E-29  0.0000000000E+00 -1.9233180165E-29
                      -3.8466360331E-29  2.8025969286E-45  1.9233180165E-29
-          fftalg         312
           getden1          0
           getden2          0
           getden3          0
           getden4         -1
           getden5          0
           getden6         -1
           getwfk1         -1
           getwfk2         -1
           getwfk3         -1
           getwfk4          0
           getwfk5         -1
           getwfk6          1
           iatsph1       1    2
           iatsph2       1    2
              ixc          11
           jdtset        1    2    3    4    5    6
              kpt     -1.25000000E-01 -2.50000000E-01  0.00000000E+00
                      -1.25000000E-01  5.00000000E-01  0.00000000E+00
                      -2.50000000E-01 -3.75000000E-01  0.00000000E+00
                      -1.25000000E-01 -3.75000000E-01  1.25000000E-01
                      -1.25000000E-01  2.50000000E-01  0.00000000E+00
                      -2.50000000E-01  3.75000000E-01  0.00000000E+00
                      -3.75000000E-01  5.00000000E-01  0.00000000E+00
                      -2.50000000E-01  5.00000000E-01  1.25000000E-01
                      -1.25000000E-01  0.00000000E+00  0.00000000E+00
                      -3.75000000E-01  0.00000000E+00  0.00000000E+00
         kptrlatt        4   -4    4     -4    4    4     -4   -4    4
          kptrlen      2.80000000E+01
P           mkmem1          5
P           mkmem2         10
P           mkmem3         10
P           mkmem4         10
P           mkmem5          3
P           mkmem6         10
            natom           2
           natsph1       2
           natsph2       2
            nband          12
           ndtset           6
            ngfft1         24      24      24
            ngfft2         24      24      24
            ngfft3         24      24      24
            ngfft4         24      24      24
            ngfft5         24      24      24
            ngfft6         32      32      32
             nkpt          10
-          npband1          1
-          npband2          1
-          npband3          4
-          npband4          2
-          npband5          1
-          npband6          1
-           npfft1          2
-           npfft2          4
-           npfft3          1
-           npfft4          2
-           npfft5          1
-           npfft6          4
-           npkpt1          2
-           npkpt2          1
-           npkpt3          1
-           npkpt4          1
-           npkpt5          1
-           npkpt6          1
            nstep1         30
            nstep2         30
            nstep3         30
            nstep4         11
            nstep5          1
            nstep6         30
             nsym          48
           ntypat           1
              occ      2.000000  2.000000  2.000000  2.000000  0.000000  0.000000
                       0.000000  0.000000  0.000000  0.000000  0.000000  0.000000
                       2.000000  2.000000  2.000000  2.000000  0.000000  0.000000
                       0.000000  0.000000  0.000000  0.000000  0.000000  0.000000
                       2.000000  2.000000  2.000000  2.000000  0.000000  0.000000
                       0.000000  0.000000  0.000000  0.000000  0.000000  0.000000
                       2.000000  2.000000  2.000000  2.000000  0.000000  0.000000
                       0.000000  0.000000  0.000000  0.000000  0.000000  0.000000
                       2.000000  2.000000  2.000000  2.000000  0.000000  0.000000
                       0.000000  0.000000  0.000000  0.000000  0.000000  0.000000
                       2.000000  2.000000  2.000000  2.000000  0.000000  0.000000
                       0.000000  0.000000  0.000000  0.000000  0.000000  0.000000
                       2.000000  2.000000  2.000000  2.000000  0.000000  0.000000
                       0.000000  0.000000  0.000000  0.000000  0.000000  0.000000
                       2.000000  2.000000  2.000000  2.000000  0.000000  0.000000
                       0.000000  0.000000  0.000000  0.000000  0.000000  0.000000
                       2.000000  2.000000  2.000000  2.000000  0.000000  0.000000
                       0.000000  0.000000  0.000000  0.000000  0.000000  0.000000
                       2.000000  2.000000  2.000000  2.000000  0.000000  0.000000
                       0.000000  0.000000  0.000000  0.000000  0.000000  0.000000
           occopt           7
           ortalg1         -2
           ortalg2         -2
           ortalg3         -2
           ortalg4         -2
           ortalg5          2
           ortalg6         -2
        paral_kgb1          1
        paral_kgb2          1
        paral_kgb3          1
        paral_kgb4          1
        paral_kgb5          0
        paral_kgb6          1
           prtdos1          3
           prtdos2          3
           prtdos3          0
           prtdos4          0
           prtdos5          0
           prtdos6          0
           prtgeo           1
         prtnabla           1
           prtpot           1
         prtvclmb           1
           prtvha           1
          prtvhxc           1
          prtvpsp           1
           prtvxc           1
           prt1dm           1
            rprim      0.0000000000E+00  5.0000000000E-01  5.0000000000E-01
                       5.0000000000E-01  0.0000000000E+00  5.0000000000E-01
                       5.0000000000E-01  5.0000000000E-01  0.0000000000E+00
           shiftk      5.00000000E-01  5.00000000E-01  5.00000000E-01
          spgroup         227
           strten1     1.3585297077E-03  1.3585297077E-03  1.3585297077E-03
                       0.0000000000E+00  0.0000000000E+00  0.0000000000E+00
           strten2     1.3585297077E-03  1.3585297077E-03  1.3585297077E-03
                       0.0000000000E+00  0.0000000000E+00  0.0000000000E+00
           strten3     1.3585297077E-03  1.3585297077E-03  1.3585297077E-03
                       0.0000000000E+00  0.0000000000E+00  0.0000000000E+00
           strten4     1.3585299058E-03  1.3585299058E-03  1.3585299058E-03
                       0.0000000000E+00  0.0000000000E+00  0.0000000000E+00
           strten5     1.3585296626E-03  1.3585296626E-03  1.3585296626E-03
                       0.0000000000E+00  0.0000000000E+00  0.0000000000E+00
           strten6     1.3585296618E-03  1.3585296618E-03  1.3585296618E-03
                       0.0000000000E+00  0.0000000000E+00  0.0000000000E+00
           symrel      1  0  0   0  1  0   0  0  1      -1  0  0   0 -1  0   0  0 -1
                       0 -1  1   0 -1  0   1 -1  0       0  1 -1   0  1  0  -1  1  0
                      -1  0  0  -1  0  1  -1  1  0       1  0  0   1  0 -1   1 -1  0
                       0  1 -1   1  0 -1   0  0 -1       0 -1  1  -1  0  1   0  0  1
                      -1  0  0  -1  1  0  -1  0  1       1  0  0   1 -1  0   1  0 -1
                       0 -1  1   1 -1  0   0 -1  0       0  1 -1  -1  1  0   0  1  0
                       1  0  0   0  0  1   0  1  0      -1  0  0   0  0 -1   0 -1  0
                       0  1 -1   0  0 -1   1  0 -1       0 -1  1   0  0  1  -1  0  1
                      -1  0  1  -1  1  0  -1  0  0       1  0 -1   1 -1  0   1  0  0
                       0 -1  0   1 -1  0   0 -1  1       0  1  0  -1  1  0   0  1 -1
                       1  0 -1   0  0 -1   0  1 -1      -1  0  1   0  0  1   0 -1  1
                       0  1  0   0  0  1   1  0  0       0 -1  0   0  0 -1  -1  0  0
                       1  0 -1   0  1 -1   0  0 -1      -1  0  1   0 -1  1   0  0  1
                       0 -1  0   0 -1  1   1 -1  0       0  1  0   0  1 -1  -1  1  0
                      -1  0  1  -1  0  0  -1  1  0       1  0 -1   1  0  0   1 -1  0
                       0  1  0   1  0  0   0  0  1       0 -1  0  -1  0  0   0  0 -1
                       0  0 -1   0  1 -1   1  0 -1       0  0  1   0 -1  1  -1  0  1
                       1 -1  0   0 -1  1   0 -1  0      -1  1  0   0  1 -1   0  1  0
                       0  0  1   1  0  0   0  1  0       0  0 -1  -1  0  0   0 -1  0
                      -1  1  0  -1  0  0  -1  0  1       1 -1  0   1  0  0   1  0 -1
                       0  0  1   0  1  0   1  0  0       0  0 -1   0 -1  0  -1  0  0
                       1 -1  0   0 -1  0   0 -1  1      -1  1  0   0  1  0   0  1 -1
                       0  0 -1   1  0 -1   0  1 -1       0  0  1  -1  0  1   0 -1  1
                      -1  1  0  -1  0  1  -1  0  0       1 -1  0   1  0 -1   1  0  0
            tnons      0.0000000  0.0000000  0.0000000     0.2500000  0.2500000  0.2500000
                       0.0000000  0.0000000  0.0000000     0.2500000  0.2500000  0.2500000
                       0.0000000  0.0000000  0.0000000     0.2500000  0.2500000  0.2500000
                       0.0000000  0.0000000  0.0000000     0.2500000  0.2500000  0.2500000
                       0.0000000  0.0000000  0.0000000     0.2500000  0.2500000  0.2500000
                       0.0000000  0.0000000  0.0000000     0.2500000  0.2500000  0.2500000
                       0.0000000  0.0000000  0.0000000     0.2500000  0.2500000  0.2500000
                       0.0000000  0.0000000  0.0000000     0.2500000  0.2500000  0.2500000
                       0.0000000  0.0000000  0.0000000     0.2500000  0.2500000  0.2500000
                       0.0000000  0.0000000  0.0000000     0.2500000  0.2500000  0.2500000
                       0.0000000  0.0000000  0.0000000     0.2500000  0.2500000  0.2500000
                       0.0000000  0.0000000  0.0000000     0.2500000  0.2500000  0.2500000
                       0.0000000  0.0000000  0.0000000     0.2500000  0.2500000  0.2500000
                       0.0000000  0.0000000  0.0000000     0.2500000  0.2500000  0.2500000
                       0.0000000  0.0000000  0.0000000     0.2500000  0.2500000  0.2500000
                       0.0000000  0.0000000  0.0000000     0.2500000  0.2500000  0.2500000
                       0.0000000  0.0000000  0.0000000     0.2500000  0.2500000  0.2500000
                       0.0000000  0.0000000  0.0000000     0.2500000  0.2500000  0.2500000
                       0.0000000  0.0000000  0.0000000     0.2500000  0.2500000  0.2500000
                       0.0000000  0.0000000  0.0000000     0.2500000  0.2500000  0.2500000
                       0.0000000  0.0000000  0.0000000     0.2500000  0.2500000  0.2500000
                       0.0000000  0.0000000  0.0000000     0.2500000  0.2500000  0.2500000
                       0.0000000  0.0000000  0.0000000     0.2500000  0.2500000  0.2500000
                       0.0000000  0.0000000  0.0000000     0.2500000  0.2500000  0.2500000
           tolwfr      1.00000000E-20
           tsmear      1.00000000E-03 Hartree
            typat      1  1
         wfoptalg1        114
         wfoptalg2        114
         wfoptalg3        114
         wfoptalg4        114
         wfoptalg5          0
         wfoptalg6        114
              wtk        0.09375    0.09375    0.09375    0.18750    0.09375    0.09375
                         0.09375    0.18750    0.03125    0.03125
           xangst      0.0000000000E+00  0.0000000000E+00  0.0000000000E+00
                       9.2606011503E-01  9.2606011503E-01  9.2606011503E-01
            xcart      0.0000000000E+00  0.0000000000E+00  0.0000000000E+00
                       1.7500000000E+00  1.7500000000E+00  1.7500000000E+00
             xred      0.0000000000E+00  0.0000000000E+00  0.0000000000E+00
                       2.5000000000E-01  2.5000000000E-01  2.5000000000E-01
            znucl        6.00000

================================================================================


- Timing analysis has been suppressed with timopt=0



================================================================================

 Suggested references for the acknowledgment of ABINIT usage.

 The users of ABINIT have little formal obligations with respect to the ABINIT group
 (those specified in the GNU General Public License, http://www.gnu.org/copyleft/gpl.txt).
 However, it is common practice in the scientific literature,
 to acknowledge the efforts of people that have made the research possible.
 In this spirit, please find below suggested citations of work written by ABINIT developers,
 corresponding to implementations inside of ABINIT that you have used in the present run.
 Note also that it will be of great value to readers of publications presenting these results,
 to read papers enabling them to understand the theoretical formalism and details
 of the ABINIT implementation.
 For information on why they are suggested, see also https://docs.abinit.org/theory/acknowledgments.
-
- [1] Large scale ab initio calculations based on three levels of parallelization
- F. Bottin, S. Leroux, A. Knyazev, G. Zerah, Comput. Mat. Science 42, 329, (2008).
- Comment: in case LOBPCG algorithm is used (wfoptalg=4/14/114).
- Strong suggestion to cite this paper in your publications.
- This paper is also available at http://www.arxiv.org/abs/0707.3405
- DOI and bibtex: see https://docs.abinit.org/theory/bibliography/#bottin2008
-
- [2] Recent developments in the ABINIT software package.
- Computer Phys. Comm. 205, 106 (2016).
- X.Gonze, F.Jollet, F.Abreu Araujo, D.Adams, B.Amadon, T.Applencourt,
- C.Audouze, J.-M.Beuken, J.Bieder, A.Bokhanchuk, E.Bousquet, F.Bruneval
- D.Caliste, M.Cote, F.Dahm, F.Da Pieve, M.Delaveau, M.Di Gennaro,
- B.Dorado, C.Espejo, G.Geneste, L.Genovese, A.Gerossier, M.Giantomassi,
- Y.Gillet, D.R.Hamann, L.He, G.Jomard, J.Laflamme Janssen, S.Le Roux,
- A.Levitt, A.Lherbier, F.Liu, I.Lukacevic, A.Martin, C.Martins,
- M.J.T.Oliveira, S.Ponce, Y.Pouillon, T.Rangel, G.-M.Rignanese,
- A.H.Romero, B.Rousseau, O.Rubel, A.A.Shukri, M.Stankovski, M.Torrent,
- M.J.Van Setten, B.Van Troeye, M.J.Verstraete, D.Waroquier, J.Wiktor,
- B.Xu, A.Zhou, J.W.Zwanziger.
- Comment: the fourth generic paper describing the ABINIT project.
- Note that a version of this paper, that is not formatted for Computer Phys. Comm. 
- is available at https://www.abinit.org/about/ABINIT16.pdf .
- The licence allows the authors to put it on the Web.
- DOI and bibtex: see https://docs.abinit.org/theory/bibliography/#gonze2016
-
- [3] Optimized norm-conserving Vanderbilt pseudopotentials.
- D.R. Hamann, Phys. Rev. B 88, 085117 (2013).
- Comment: Some pseudopotential generated using the ONCVPSP code were used.
- DOI and bibtex: see https://docs.abinit.org/theory/bibliography/#hamann2013
-
- [4] ABINIT: First-principles approach of materials and nanosystem properties.
- Computer Phys. Comm. 180, 2582-2615 (2009).
- X. Gonze, B. Amadon, P.-M. Anglade, J.-M. Beuken, F. Bottin, P. Boulanger, F. Bruneval,
- D. Caliste, R. Caracas, M. Cote, T. Deutsch, L. Genovese, Ph. Ghosez, M. Giantomassi
- S. Goedecker, D.R. Hamann, P. Hermet, F. Jollet, G. Jomard, S. Leroux, M. Mancini, S. Mazevet,
- M.J.T. Oliveira, G. Onida, Y. Pouillon, T. Rangel, G.-M. Rignanese, D. Sangalli, R. Shaltaf,
- M. Torrent, M.J. Verstraete, G. Zerah, J.W. Zwanziger
- Comment: the third generic paper describing the ABINIT project.
- Note that a version of this paper, that is not formatted for Computer Phys. Comm. 
- is available at https://www.abinit.org/about/ABINIT_CPC_v10.pdf .
- The licence allows the authors to put it on the Web.
- DOI and bibtex: see https://docs.abinit.org/theory/bibliography/#gonze2009
-
- [5] A brief introduction to the ABINIT software package.
- Z. Kristallogr. 220, 558-562 (2005).
- X. Gonze, G.-M. Rignanese, M. Verstraete, J.-M. Beuken, Y. Pouillon, R. Caracas, F. Jollet,
- M. Torrent, G. Zerah, M. Mikami, Ph. Ghosez, M. Veithen, J.-Y. Raty, V. Olevano, F. Bruneval,
- L. Reining, R. Godby, G. Onida, D.R. Hamann, and D.C. Allan.
- Comment: the second generic paper describing the ABINIT project. Note that this paper
- should be cited especially if you are using the GW part of ABINIT, as several authors
- of this part are not in the list of authors of the first or third paper.
- The .pdf of the latter paper is available at https://www.abinit.org/about/zfk_0505-06_558-562.pdf.
- Note that it should not redistributed (Copyright by Oldenburg Wissenshaftverlag,
- the licence allows the authors to put it on the Web).
- DOI and bibtex: see https://docs.abinit.org/theory/bibliography/#gonze2005
-
- Proc.   0 individual time (sec): cpu=         13.1  wall=         13.8

================================================================================

 Calculation completed.
.Delivered   2 WARNINGs and   2 COMMENTs to log file.
+Overall time at end (sec) : cpu=         52.7  wall=         55.1
