
.Version 9.0.0 of ABINIT 
.(MPI version, prepared for a x86_64_linux_gnu9.2 computer) 

.Copyright (C) 1998-2020 ABINIT group . 
 ABINIT comes with ABSOLUTELY NO WARRANTY.
 It is free software, and you are welcome to redistribute it
 under certain conditions (GNU General Public License,
 see ~abinit/COPYING or http://www.gnu.org/copyleft/gpl.txt).

 ABINIT is a project of the Universite Catholique de Louvain,
 Corning Inc. and other collaborators, see ~abinit/doc/developers/contributors.txt .
 Please read https://docs.abinit.org/theory/acknowledgments for suggested
 acknowledgments of the ABINIT effort.
 For more information, see https://www.abinit.org .

.Starting date : Fri 14 Feb 2020.
- ( at 20h18 )
  
- input  file    -> /home/gmatteo/git_repos/abinit/_abiref_gnu9.2_openmpi/tests/Test_suite/mpiio_t28_MPI4/t28.in
- output file    -> t28_MPI4.out
- root for input  files -> t28_MPI4i
- root for output files -> t28_MPI4o


 DATASET    1 : space group F2 3 (#196); Bravais cF (face-center cubic)
================================================================================
 Values of the parameters that define the memory need for DATASET  1.
     intxc =       0    ionmov =       0      iscf =      17    lmnmax =      18
     lnmax =       6     mgfft =      16  mpssoang =       3    mqgrid =    3001
     natom =       2  nloc_mem =       2    nspden =       4   nspinor =       2
    nsppol =       1      nsym =      12    n1xccc =       1    ntypat =       2
    occopt =       1   xclevel =       1
-    mband =          50        mffmem =           1         mkmem =           2
       mpw =          80          nfft =        2048          nkpt =           4
Pmy_natom=         1
 PAW method is used; the additional fine FFT grid is defined by:
   mgfftf=        24    nfftf =      6912
================================================================================
P This job should need less than                       9.666 Mbytes of memory.
  Rough estimation (10% accuracy) of disk space for files :
_ WF disk file :      0.490 Mbytes ; DEN or POT disk file :      0.055 Mbytes.
================================================================================


 DATASET    2 : space group F2 3 (#196); Bravais cF (face-center cubic)
================================================================================
 Values of the parameters that define the memory need for DATASET  2.
     intxc =       0    ionmov =       0      iscf =      17    lmnmax =      18
     lnmax =       6     mgfft =      16  mpssoang =       3    mqgrid =    3001
     natom =       2  nloc_mem =       2    nspden =       4   nspinor =       2
    nsppol =       1      nsym =      12    n1xccc =       1    ntypat =       2
    occopt =       1   xclevel =       1
-    mband =          50        mffmem =           1         mkmem =           4
       mpw =          80          nfft =        2048          nkpt =           4
 PAW method is used; the additional fine FFT grid is defined by:
   mgfftf=        24    nfftf =      6912
================================================================================
P This job should need less than                      10.265 Mbytes of memory.
  Rough estimation (10% accuracy) of disk space for files :
_ WF disk file :      0.490 Mbytes ; DEN or POT disk file :      0.055 Mbytes.
================================================================================

--------------------------------------------------------------------------------
------------- Echo of variables that govern the present computation ------------
--------------------------------------------------------------------------------
-
- outvars: echo of selected default values                                      
-   iomode0 =  0 , fftalg0 =312 , wfoptalg0 = 10
-
- outvars: echo of global parameters not present in the input file              
-  max_nthreads =    0
-
 -outvars: echo values of preprocessed input variables --------
-          iomode           1
            acell      1.0683188747E+01  1.0683188747E+01  1.0683188747E+01 Bohr
              amu      6.97230000E+01  7.49215900E+01
     densfor_pred           6
           diemac      8.00000000E+00
             ecut      5.00000000E+00 Hartree
-          fftalg         312
           getwfk1          0
           getwfk2         -1
           iatsph1       1    2
           iatsph2       1    2
              ixc           7
           jdtset        1    2
              kpt     -2.50000000E-01  0.00000000E+00  0.00000000E+00
                      -2.50000000E-01  0.00000000E+00  5.00000000E-01
                       5.00000000E-01  0.00000000E+00  2.50000000E-01
                       2.50000000E-01  0.00000000E+00  0.00000000E+00
           kptopt           4
         kptrlatt        2    2   -2     -2    2   -2     -2    2    2
          kptrlen      2.13663775E+01
P           mkmem1          2
P           mkmem2          4
            natom           2
           natsph1       2
           natsph2       2
            nband          50
           ndtset           2
            ngfft          16      16      16
          ngfftdg          24      24      24
             nkpt           4
-           npfft           2
-           npkpt1          2
-           npkpt2          1
-        npspinor1          1
-        npspinor2          2
           nspden           4
          nspinor           2
            nstep          20
             nsym          12
           ntypat           2
              occ      1.000000  1.000000  1.000000  1.000000  1.000000  1.000000
                       1.000000  1.000000  1.000000  1.000000  1.000000  1.000000
                       1.000000  1.000000  1.000000  1.000000  1.000000  1.000000
                       1.000000  1.000000  1.000000  1.000000  1.000000  1.000000
                       1.000000  1.000000  1.000000  1.000000  1.000000  1.000000
                       1.000000  1.000000  1.000000  1.000000  1.000000  1.000000
                       1.000000  1.000000  1.000000  1.000000  1.000000  1.000000
                       1.000000  1.000000  0.000000  0.000000  0.000000  0.000000
                       0.000000  0.000000
        paral_kgb           1
        pawcpxocc           2
        pawecutdg      1.00000000E+01 Hartree
         pawmixdg           1
        pawspnorb           1
           prtdos           3
           prtpot           1
         prtvclmb           1
           prtvha           1
          prtvhxc           1
          prtvpsp           1
           prtvxc           1
            rprim      0.0000000000E+00  5.0000000000E-01  5.0000000000E-01
                       5.0000000000E-01  0.0000000000E+00  5.0000000000E-01
                       5.0000000000E-01  5.0000000000E-01  0.0000000000E+00
           shiftk      5.00000000E-01  5.00000000E-01  5.00000000E-01
          spgroup         196
           symrel      1  0  0   0  1  0   0  0  1       0 -1  1   0 -1  0   1 -1  0
                      -1  0  0  -1  0  1  -1  1  0       0  1 -1   1  0 -1   0  0 -1
                      -1  0  1  -1  1  0  -1  0  0       0 -1  0   1 -1  0   0 -1  1
                       1  0 -1   0  0 -1   0  1 -1       0  1  0   0  0  1   1  0  0
                       0  0 -1   0  1 -1   1  0 -1       1 -1  0   0 -1  1   0 -1  0
                       0  0  1   1  0  0   0  1  0      -1  1  0  -1  0  0  -1  0  1
           tolvrs      1.00000000E-07
            typat      1  2
           useylm           1
         wfoptalg         114
              wtk        0.12500    0.37500    0.37500    0.12500
           xangst      0.0000000000E+00  0.0000000000E+00  0.0000000000E+00
                       1.4133250000E+00  1.4133250000E+00  1.4133250000E+00
            xcart      0.0000000000E+00  0.0000000000E+00  0.0000000000E+00
                       2.6707971868E+00  2.6707971868E+00  2.6707971868E+00
             xred      0.0000000000E+00  0.0000000000E+00  0.0000000000E+00
                       2.5000000000E-01  2.5000000000E-01  2.5000000000E-01
            znucl       31.00000   33.00000

================================================================================

 chkinp: Checking input parameters for consistency, jdtset=   1.

 chkinp: Checking input parameters for consistency, jdtset=   2.

================================================================================
== DATASET  1 ==================================================================
-   mpi_nproc: 4, omp_nthreads: -1 (-1 if OMP is not activated)

 Exchange-correlation functional for the present dataset will be:
  LDA: Perdew-Wang 92 LSD fit to Ceperley-Alder data - ixc=7
 Citation for XC functional:
  J.P.Perdew and Y.Wang, PRB 45, 13244 (1992)

 Real(R)+Recip(G) space primitive vectors, cartesian coordinates (Bohr,Bohr^-1):
 R(1)=  0.0000000  5.3415944  5.3415944  G(1)= -0.0936050  0.0936050  0.0936050
 R(2)=  5.3415944  0.0000000  5.3415944  G(2)=  0.0936050 -0.0936050  0.0936050
 R(3)=  5.3415944  5.3415944  0.0000000  G(3)=  0.0936050  0.0936050 -0.0936050
 Unit cell volume ucvol=  3.0481948E+02 bohr^3
 Angles (23,13,12)=  6.00000000E+01  6.00000000E+01  6.00000000E+01 degrees

 Coarse grid specifications (used for wave-functions):

 getcut: wavevector=  0.0000  0.0000  0.0000  ngfft=  16  16  16
         ecut(hartree)=      5.000   => boxcut(ratio)=   2.10419

 Fine grid specifications (used for densities):

 getcut: wavevector=  0.0000  0.0000  0.0000  ngfft=  24  24  24
         ecut(hartree)=     10.000   => boxcut(ratio)=   2.23183

 getcut : COMMENT -
  Note that boxcut > 2.2 ; recall that boxcut=Gcut(box)/Gcut(sphere) = 2
  is sufficient for exact treatment of convolution.
  Such a large boxcut is a waste : you could raise ecut
  e.g. ecut=   12.452611 Hartrees makes boxcut=2


--- Pseudopotential description ------------------------------------------------
- pspini: atom type   1  psp file is /home/gmatteo/git_repos/abinit/tests/Psps_for_tests/31Ga_LDA_abinit
- pspatm: opening atomic psp file    /home/gmatteo/git_repos/abinit/tests/Psps_for_tests/31Ga_LDA_abinit
- Paw atomic data for element Ga - Generated by AtomPAW (N. Holzwarth) + AtomPAW2Abinit v3.1.1
- 31.00000  21.00000  20070427                znucl, zion, pspdat
    7    7    2    0       726   0.00000      pspcod,pspxc,lmax,lloc,mmax,r2well
 Pseudopotential format is: paw3
 basis_size (lnmax)=  6 (lmn_size= 18), orbitals=   0   0   1   1   2   2
 Spheres core radius: rc_sph= 1.80000000
 4 radial meshes are used:
  - mesh 1: r(i)=step*(i-1), size= 726 , step= 0.25000E-02
  - mesh 2: r(i)=step*(i-1), size= 721 , step= 0.25000E-02
  - mesh 3: r(i)=step*(i-1), size= 746 , step= 0.25000E-02
  - mesh 4: r(i)=step*(i-1), size=4001 , step= 0.25000E-02
 Shapefunction is SIN type: shapef(r)=[sin(pi*r/rshp)/(pi*r/rshp)]**2
 Radius for shape functions = sphere core radius
 Radial grid used for partial waves is grid 1
 Radial grid used for projectors is grid  2
 Radial grid used for (t)core density is grid 3
 Radial grid used for Vloc is grid 4
 Compensation charge density is taken into account in XC energy/potential
 pspatm: atomic psp has been read  and splines computed

- pspini: atom type   2  psp file is /home/gmatteo/git_repos/abinit/tests/Psps_for_tests/33As_LDA_abinit
- pspatm: opening atomic psp file    /home/gmatteo/git_repos/abinit/tests/Psps_for_tests/33As_LDA_abinit
- Paw atomic data for element As - Generated by AtomPAW (N. Holzwarth) + AtomPAW2Abinit v3.1.1
- 33.00000  23.00000  20070531                znucl, zion, pspdat
    7    7    2    0       686   0.00000      pspcod,pspxc,lmax,lloc,mmax,r2well
 Pseudopotential format is: paw3
 basis_size (lnmax)=  6 (lmn_size= 18), orbitals=   0   0   1   1   2   2
 Spheres core radius: rc_sph= 1.70000000
 4 radial meshes are used:
  - mesh 1: r(i)=step*(i-1), size= 686 , step= 0.25000E-02
  - mesh 2: r(i)=step*(i-1), size= 681 , step= 0.25000E-02
  - mesh 3: r(i)=step*(i-1), size= 706 , step= 0.25000E-02
  - mesh 4: r(i)=step*(i-1), size=4001 , step= 0.25000E-02
 Shapefunction is SIN type: shapef(r)=[sin(pi*r/rshp)/(pi*r/rshp)]**2
 Radius for shape functions = sphere core radius
 Radial grid used for partial waves is grid 1
 Radial grid used for projectors is grid  2
 Radial grid used for (t)core density is grid 3
 Radial grid used for Vloc is grid 4
 Compensation charge density is taken into account in XC energy/potential
 pspatm: atomic psp has been read  and splines computed

   3.13634637E+03                                ecore*ucvol(ha*bohr**3)
--------------------------------------------------------------------------------

_setup2: Arith. and geom. avg. npw (full set) are      79.500      79.495

================================================================================

     iter   Etot(hartree)      deltaE(h)  residm     nres2
 ETOT  1  -532.09995402840    -5.321E+02 1.884E-03 4.018E+01
 ETOT  2  -501.80778977882     3.029E+01 7.618E-03 1.453E+01
 ETOT  3  -500.01387387580     1.794E+00 4.186E-03 2.019E+00
 ETOT  4  -499.58111441282     4.328E-01 1.333E-03 3.313E-01
 ETOT  5  -499.58140443844    -2.900E-04 4.348E-04 1.012E-01
 ETOT  6  -499.57893802949     2.466E-03 1.465E-04 1.385E-03
 ETOT  7  -499.57911976895    -1.817E-04 3.733E-04 4.058E-04
 ETOT  8  -499.57911054622     9.223E-06 3.848E-04 4.516E-05
 ETOT  9  -499.57911030253     2.437E-07 1.504E-03 3.377E-06
 ETOT 10  -499.57911023243     7.011E-08 3.434E-04 3.687E-07
 ETOT 11  -499.57911022548     6.948E-09 5.993E-04 1.292E-08

 At SCF step   11       nres2   =  1.29E-08 < tolvrs=  1.00E-07 =>converged.

 Cartesian components of stress tensor (hartree/bohr^3)
  sigma(1 1)=  5.31049636E-01  sigma(3 2)=  0.00000000E+00
  sigma(2 2)=  5.31049636E-01  sigma(3 1)=  0.00000000E+00
  sigma(3 3)=  5.31049636E-01  sigma(2 1)=  0.00000000E+00


--- !ResultsGS
iteration_state: {dtset: 1, }
comment   : Summary of ground state results
rprimd    :
- [  0.0000000,   5.3415944,   5.3415944, ]
- [  5.3415944,   0.0000000,   5.3415944, ]
- [  5.3415944,   5.3415944,   0.0000000, ]
lattice_lengths: [   7.55416,    7.55416,    7.55416, ]
lattice_angles: [ 60.000,  60.000,  60.000, ]
lattice_volume:   3.0481948E+02
convergence_: {deltae:  6.95E-09, res2:  1.29E-08, residm:  5.99E-04, diffor: undef, }
etotal    :  -4.99579110E+02
entropy   :   0.00000000E+00
fermie    :   1.89941262E-01
cartesian_stress_tensor:
- [  5.31049636E-01,   0.00000000E+00,   0.00000000E+00, ]
- [  0.00000000E+00,   5.31049636E-01,   0.00000000E+00, ]
- [  0.00000000E+00,   0.00000000E+00,   5.31049636E-01, ]
pressure_GPa:  -1.5624E+04
cartesian_forces:
- [ -1.96910223E-31,  -1.96910223E-31,   5.90730670E-31, ]
- [  1.96910223E-31,   1.96910223E-31,  -5.90730670E-31, ]
force_length_stats: {min:   6.53077328E-31, max:   6.53077328E-31, mean:   6.53077328E-31, }
...

 Integrated electronic and magnetization densities in atomic spheres:
 ---------------------------------------------------------------------
 Radius=ratsph(iatom), smearing ratsm=  0.0000. mag(i)=approximate local magnetic moment.
 Atom    Radius     Total density     mag(x)      mag(y)      mag(z)
    1   1.80000       15.680718     -0.000000   -0.000000   -0.000000
    2   1.70000       14.452121     -0.000000   -0.000000   -0.000000
 ---------------------------------------------------------------------
 Total magnetization (spheres)      -0.000000   -0.000000   -0.000000
 Total magnetization (exact)        -0.000000    0.000000   -0.000000

 PAW TEST:
 ==== Compensation charge inside spheres ============
 The following values must be close to each other ...
 Compensation charge over spherical meshes =     14.653530850849446
 Compensation charge over fine fft grid    =     14.653611678613428

 ==== Results concerning PAW augmentation regions ====

 Total pseudopotential strength Dij (hartree):
 Atom #  1 - Component up-up
   === REAL PART:
  -7.88369   1.37535   0.00000   0.00000   0.00000   0.00000  -0.00000   0.00000  -0.00000   0.00000   0.00000   0.00000 ...
   1.37535   0.13686   0.00000  -0.00000   0.00000   0.00000  -0.00000   0.00000   0.00000   0.00000   0.00000   0.00000 ...
   0.00000   0.00000  -7.08509   0.00000  -0.00000   0.72987   0.00000   0.00000   0.00000   0.00000   0.00000   0.00031 ...
   0.00000  -0.00000   0.00000  -7.08509   0.00000   0.00000   0.72987   0.00000   0.00031   0.00000   0.00000   0.00000 ...
   0.00000   0.00000  -0.00000   0.00000  -7.08509   0.00000   0.00000   0.72987   0.00000   0.00031   0.00000   0.00000 ...
   0.00000   0.00000   0.72987   0.00000   0.00000  -0.00349   0.00000   0.00000   0.00000  -0.00000   0.00000  -0.00008 ...
  -0.00000  -0.00000   0.00000   0.72987   0.00000   0.00000  -0.00349   0.00000  -0.00008   0.00000  -0.00000   0.00000 ...
   0.00000   0.00000   0.00000   0.00000   0.72987   0.00000   0.00000  -0.00349   0.00000  -0.00008   0.00000  -0.00000 ...
  -0.00000   0.00000   0.00000   0.00031   0.00000   0.00000  -0.00008   0.00000  -4.18706   0.00000   0.00000   0.00000 ...
   0.00000   0.00000   0.00000   0.00000   0.00031  -0.00000   0.00000  -0.00008   0.00000  -4.18706   0.00000  -0.00000 ...
   0.00000   0.00000   0.00000   0.00000   0.00000   0.00000  -0.00000   0.00000   0.00000   0.00000  -4.18571   0.00000 ...
   0.00000   0.00000   0.00031   0.00000   0.00000  -0.00008   0.00000  -0.00000   0.00000  -0.00000   0.00000  -4.18706 ...
   ...  only 12  components have been written...
   === IMAGINARY PART:
  -0.00000  -0.00000  -0.00000  -0.00000  -0.00000  -0.00000  -0.00000  -0.00000  -0.00000  -0.00000  -0.00000  -0.00000 ...
   0.00000  -0.00000  -0.00000  -0.00000  -0.00000  -0.00000  -0.00000  -0.00000  -0.00000  -0.00000  -0.00000  -0.00000 ...
   0.00000   0.00000  -0.00000  -0.00000  -0.04125  -0.00000  -0.00000   0.00755  -0.00000  -0.00000  -0.00000  -0.00000 ...
   0.00000   0.00000   0.00000  -0.00000  -0.00000  -0.00000  -0.00000  -0.00000  -0.00000  -0.00000  -0.00000  -0.00000 ...
   0.00000   0.00000   0.04125   0.00000  -0.00000  -0.00755  -0.00000  -0.00000  -0.00000  -0.00000  -0.00000  -0.00000 ...
   0.00000   0.00000   0.00000   0.00000   0.00755  -0.00000  -0.00000  -0.00139  -0.00000  -0.00000  -0.00000  -0.00000 ...
   0.00000   0.00000   0.00000   0.00000   0.00000   0.00000  -0.00000  -0.00000  -0.00000  -0.00000  -0.00000  -0.00000 ...
   0.00000   0.00000  -0.00755   0.00000   0.00000   0.00139   0.00000  -0.00000  -0.00000  -0.00000  -0.00000  -0.00000 ...
   0.00000   0.00000   0.00000   0.00000   0.00000   0.00000   0.00000   0.00000  -0.00000  -0.00000  -0.00000  -0.00000 ...
   0.00000   0.00000   0.00000   0.00000   0.00000   0.00000   0.00000   0.00000   0.00000  -0.00000  -0.00000  -0.00357 ...
   0.00000   0.00000   0.00000   0.00000   0.00000   0.00000   0.00000   0.00000   0.00000   0.00000  -0.00000  -0.00000 ...
   0.00000   0.00000   0.00000   0.00000   0.00000   0.00000   0.00000   0.00000   0.00000   0.00357   0.00000  -0.00000 ...
   ...  only 12  components have been written...
 Atom #  1 - Component dwn-dwn
   === REAL PART:
  -7.88369   1.37535   0.00000  -0.00000   0.00000   0.00000   0.00000   0.00000   0.00000   0.00000   0.00000   0.00000 ...
   1.37535   0.13686   0.00000   0.00000   0.00000   0.00000   0.00000   0.00000  -0.00000   0.00000   0.00000   0.00000 ...
   0.00000   0.00000  -7.08509   0.00000   0.00000   0.72987   0.00000  -0.00000   0.00000  -0.00000   0.00000   0.00031 ...
  -0.00000   0.00000   0.00000  -7.08509   0.00000   0.00000   0.72987   0.00000   0.00031   0.00000  -0.00000   0.00000 ...
   0.00000   0.00000   0.00000   0.00000  -7.08509  -0.00000   0.00000   0.72987   0.00000   0.00031   0.00000  -0.00000 ...
   0.00000   0.00000   0.72987   0.00000  -0.00000  -0.00349   0.00000  -0.00000   0.00000   0.00000   0.00000  -0.00008 ...
   0.00000   0.00000   0.00000   0.72987   0.00000   0.00000  -0.00349   0.00000  -0.00008   0.00000   0.00000   0.00000 ...
   0.00000   0.00000  -0.00000   0.00000   0.72987  -0.00000   0.00000  -0.00349   0.00000  -0.00008   0.00000   0.00000 ...
   0.00000  -0.00000   0.00000   0.00031   0.00000   0.00000  -0.00008   0.00000  -4.18706   0.00000  -0.00000   0.00000 ...
   0.00000   0.00000  -0.00000   0.00000   0.00031   0.00000   0.00000  -0.00008   0.00000  -4.18706   0.00000   0.00000 ...
   0.00000   0.00000   0.00000  -0.00000   0.00000   0.00000   0.00000   0.00000  -0.00000   0.00000  -4.18571   0.00000 ...
   0.00000   0.00000   0.00031   0.00000  -0.00000  -0.00008   0.00000   0.00000   0.00000   0.00000   0.00000  -4.18706 ...
   ...  only 12  components have been written...
   === IMAGINARY PART:
  -0.00000  -0.00000  -0.00000  -0.00000  -0.00000  -0.00000  -0.00000  -0.00000  -0.00000  -0.00000  -0.00000  -0.00000 ...
   0.00000  -0.00000  -0.00000  -0.00000  -0.00000  -0.00000  -0.00000  -0.00000  -0.00000  -0.00000  -0.00000  -0.00000 ...
   0.00000   0.00000  -0.00000  -0.00000   0.04125  -0.00000  -0.00000  -0.00755  -0.00000  -0.00000  -0.00000  -0.00000 ...
   0.00000   0.00000   0.00000  -0.00000  -0.00000  -0.00000  -0.00000  -0.00000  -0.00000  -0.00000  -0.00000  -0.00000 ...
   0.00000   0.00000  -0.04125   0.00000  -0.00000   0.00755  -0.00000  -0.00000  -0.00000  -0.00000  -0.00000  -0.00000 ...
   0.00000   0.00000   0.00000   0.00000  -0.00755  -0.00000  -0.00000   0.00139  -0.00000  -0.00000  -0.00000  -0.00000 ...
   0.00000   0.00000   0.00000   0.00000   0.00000   0.00000  -0.00000  -0.00000  -0.00000  -0.00000  -0.00000  -0.00000 ...
   0.00000   0.00000   0.00755   0.00000   0.00000  -0.00139   0.00000  -0.00000  -0.00000  -0.00000  -0.00000  -0.00000 ...
   0.00000   0.00000   0.00000   0.00000   0.00000   0.00000   0.00000   0.00000  -0.00000  -0.00000  -0.00000  -0.00000 ...
   0.00000   0.00000   0.00000   0.00000   0.00000   0.00000   0.00000   0.00000   0.00000  -0.00000  -0.00000   0.00357 ...
   0.00000   0.00000   0.00000   0.00000   0.00000   0.00000   0.00000   0.00000   0.00000   0.00000  -0.00000  -0.00000 ...
   0.00000   0.00000   0.00000   0.00000   0.00000   0.00000   0.00000   0.00000   0.00000  -0.00357   0.00000  -0.00000 ...
   ...  only 12  components have been written...
 Atom #  1 - Component up-dwn
   === REAL PART:
   0.00000   0.00000   0.00000   0.00000   0.00000   0.00000   0.00000  -0.00000   0.00000  -0.00000   0.00000   0.00000 ...
   0.00000   0.00000   0.00000   0.00000  -0.00000   0.00000   0.00000  -0.00000   0.00000   0.00000   0.00000   0.00000 ...
   0.00000   0.00000   0.00000  -0.00000   0.00000   0.00000   0.00000   0.00000   0.00000   0.00000   0.00000   0.00000 ...
   0.00000   0.00000  -0.00000   0.00000   0.04125   0.00000   0.00000  -0.00755   0.00000   0.00000   0.00000   0.00000 ...
   0.00000  -0.00000   0.00000  -0.04125   0.00000   0.00000   0.00755   0.00000   0.00000   0.00000  -0.00000   0.00000 ...
   0.00000   0.00000   0.00000   0.00000   0.00000   0.00000   0.00000   0.00000  -0.00000   0.00000   0.00000   0.00000 ...
   0.00000   0.00000   0.00000   0.00000  -0.00755   0.00000   0.00000   0.00139   0.00000   0.00000   0.00000  -0.00000 ...
  -0.00000  -0.00000   0.00000   0.00755   0.00000   0.00000  -0.00139   0.00000   0.00000   0.00000   0.00000   0.00000 ...
   0.00000   0.00000   0.00000   0.00000   0.00000  -0.00000   0.00000   0.00000   0.00000  -0.00357   0.00000  -0.00000 ...
  -0.00000   0.00000   0.00000   0.00000   0.00000   0.00000   0.00000   0.00000   0.00357   0.00000  -0.00000   0.00000 ...
   0.00000   0.00000   0.00000   0.00000  -0.00000   0.00000   0.00000   0.00000   0.00000  -0.00000   0.00000   0.00618 ...
   0.00000   0.00000   0.00000   0.00000   0.00000   0.00000  -0.00000   0.00000  -0.00000   0.00000  -0.00618   0.00000 ...
   ...  only 12  components have been written...
   === IMAGINARY PART:
  -0.00000  -0.00000  -0.00000  -0.00000  -0.00000   0.00000  -0.00000  -0.00000  -0.00000  -0.00000  -0.00000   0.00000 ...
   0.00000  -0.00000   0.00000  -0.00000  -0.00000   0.00000  -0.00000  -0.00000  -0.00000  -0.00000  -0.00000  -0.00000 ...
  -0.00000   0.00000  -0.00000   0.04125  -0.00000  -0.00000  -0.00755  -0.00000  -0.00000  -0.00000   0.00000  -0.00000 ...
   0.00000   0.00000  -0.04125  -0.00000   0.00000   0.00755  -0.00000  -0.00000  -0.00000  -0.00000  -0.00000  -0.00000 ...
   0.00000   0.00000   0.00000   0.00000  -0.00000  -0.00000  -0.00000  -0.00000  -0.00000  -0.00000  -0.00000  -0.00000 ...
   0.00000   0.00000   0.00000  -0.00755   0.00000  -0.00000   0.00139  -0.00000  -0.00000  -0.00000  -0.00000  -0.00000 ...
   0.00000   0.00000   0.00755   0.00000  -0.00000  -0.00139  -0.00000  -0.00000  -0.00000   0.00000  -0.00000  -0.00000 ...
   0.00000   0.00000   0.00000  -0.00000   0.00000   0.00000  -0.00000  -0.00000   0.00000  -0.00000  -0.00000  -0.00000 ...
   0.00000   0.00000   0.00000   0.00000  -0.00000   0.00000   0.00000   0.00000  -0.00000   0.00000  -0.00000   0.00357 ...
   0.00000   0.00000   0.00000  -0.00000   0.00000   0.00000   0.00000   0.00000   0.00000  -0.00000   0.00618  -0.00000 ...
   0.00000   0.00000   0.00000   0.00000   0.00000  -0.00000   0.00000   0.00000   0.00000  -0.00618  -0.00000   0.00000 ...
   0.00000  -0.00000   0.00000   0.00000   0.00000   0.00000   0.00000   0.00000  -0.00357   0.00000   0.00000  -0.00000 ...
   ...  only 12  components have been written...
 Atom #  1 - Component dwn-up
   === REAL PART:
   0.00000   0.00000   0.00000   0.00000   0.00000   0.00000   0.00000  -0.00000   0.00000  -0.00000   0.00000   0.00000 ...
   0.00000   0.00000   0.00000   0.00000  -0.00000   0.00000   0.00000  -0.00000   0.00000   0.00000   0.00000   0.00000 ...
   0.00000   0.00000   0.00000  -0.00000   0.00000   0.00000   0.00000   0.00000   0.00000   0.00000   0.00000   0.00000 ...
   0.00000   0.00000  -0.00000   0.00000  -0.04125   0.00000   0.00000   0.00755   0.00000   0.00000   0.00000   0.00000 ...
   0.00000  -0.00000   0.00000   0.04125   0.00000   0.00000  -0.00755   0.00000   0.00000   0.00000  -0.00000   0.00000 ...
   0.00000   0.00000   0.00000   0.00000   0.00000   0.00000   0.00000   0.00000  -0.00000   0.00000   0.00000   0.00000 ...
   0.00000   0.00000   0.00000   0.00000   0.00755   0.00000   0.00000  -0.00139   0.00000   0.00000   0.00000  -0.00000 ...
  -0.00000  -0.00000   0.00000  -0.00755   0.00000   0.00000   0.00139   0.00000   0.00000   0.00000   0.00000   0.00000 ...
   0.00000   0.00000   0.00000   0.00000   0.00000  -0.00000   0.00000   0.00000   0.00000   0.00357   0.00000  -0.00000 ...
  -0.00000   0.00000   0.00000   0.00000   0.00000   0.00000   0.00000   0.00000  -0.00357   0.00000  -0.00000   0.00000 ...
   0.00000   0.00000   0.00000   0.00000  -0.00000   0.00000   0.00000   0.00000   0.00000  -0.00000   0.00000  -0.00618 ...
   0.00000   0.00000   0.00000   0.00000   0.00000   0.00000  -0.00000   0.00000  -0.00000   0.00000   0.00618   0.00000 ...
   ...  only 12  components have been written...
   === IMAGINARY PART:
  -0.00000  -0.00000   0.00000  -0.00000  -0.00000  -0.00000  -0.00000  -0.00000  -0.00000  -0.00000  -0.00000  -0.00000 ...
   0.00000  -0.00000  -0.00000  -0.00000  -0.00000  -0.00000  -0.00000  -0.00000  -0.00000  -0.00000  -0.00000   0.00000 ...
   0.00000  -0.00000  -0.00000   0.04125  -0.00000  -0.00000  -0.00755  -0.00000  -0.00000  -0.00000  -0.00000  -0.00000 ...
   0.00000   0.00000  -0.04125  -0.00000  -0.00000   0.00755  -0.00000   0.00000  -0.00000   0.00000  -0.00000  -0.00000 ...
   0.00000   0.00000   0.00000  -0.00000  -0.00000  -0.00000   0.00000  -0.00000   0.00000  -0.00000  -0.00000  -0.00000 ...
  -0.00000  -0.00000   0.00000  -0.00755   0.00000  -0.00000   0.00139  -0.00000  -0.00000  -0.00000   0.00000  -0.00000 ...
   0.00000   0.00000   0.00755   0.00000   0.00000  -0.00139  -0.00000   0.00000  -0.00000  -0.00000  -0.00000  -0.00000 ...
   0.00000   0.00000   0.00000   0.00000   0.00000   0.00000   0.00000  -0.00000  -0.00000  -0.00000  -0.00000  -0.00000 ...
   0.00000   0.00000   0.00000   0.00000   0.00000   0.00000   0.00000  -0.00000  -0.00000  -0.00000  -0.00000   0.00357 ...
   0.00000   0.00000   0.00000   0.00000   0.00000   0.00000  -0.00000   0.00000  -0.00000  -0.00000   0.00618  -0.00000 ...
   0.00000   0.00000  -0.00000   0.00000   0.00000   0.00000   0.00000   0.00000   0.00000  -0.00618  -0.00000  -0.00000 ...
  -0.00000   0.00000   0.00000   0.00000   0.00000   0.00000   0.00000   0.00000  -0.00357   0.00000  -0.00000  -0.00000 ...
   ...  only 12  components have been written...
 Atom #  2 - Component up-up
   === REAL PART:
 -12.29515   2.56100   0.00000  -0.00001   0.00000   0.00000   0.00000   0.00000  -0.00000   0.00000   0.00000   0.00000 ...
   2.56100   0.38233   0.00000   0.00000   0.00000   0.00000   0.00000   0.00000   0.00000   0.00000   0.00000   0.00000 ...
   0.00000   0.00000 -11.51704   0.00000  -0.00000   1.53575   0.00000   0.00000   0.00000  -0.00000   0.00000   0.00130 ...
  -0.00001   0.00000   0.00000 -11.51704   0.00000   0.00000   1.53575   0.00000   0.00130   0.00000  -0.00001   0.00000 ...
   0.00000   0.00000  -0.00000   0.00000 -11.51704   0.00000   0.00000   1.53575   0.00000   0.00130   0.00000  -0.00000 ...
   0.00000   0.00000   1.53575   0.00000   0.00000   0.00301   0.00000   0.00000   0.00000   0.00000   0.00000  -0.00012 ...
   0.00000   0.00000   0.00000   1.53575   0.00000   0.00000   0.00301   0.00000  -0.00012   0.00000   0.00000   0.00000 ...
   0.00000   0.00000   0.00000   0.00000   1.53575   0.00000   0.00000   0.00301   0.00000  -0.00012   0.00000   0.00000 ...
  -0.00000   0.00000   0.00000   0.00130   0.00000   0.00000  -0.00012   0.00000  -8.26267   0.00000   0.00000   0.00000 ...
   0.00000   0.00000  -0.00000   0.00000   0.00130   0.00000   0.00000  -0.00012   0.00000  -8.26267   0.00000  -0.00000 ...
   0.00000   0.00000   0.00000  -0.00001   0.00000   0.00000   0.00000   0.00000   0.00000   0.00000  -8.26199   0.00000 ...
   0.00000   0.00000   0.00130   0.00000  -0.00000  -0.00012   0.00000   0.00000   0.00000  -0.00000   0.00000  -8.26267 ...
   ...  only 12  components have been written...
   === IMAGINARY PART:
  -0.00000  -0.00000  -0.00000  -0.00000  -0.00000  -0.00000  -0.00000  -0.00000  -0.00000  -0.00000  -0.00000  -0.00000 ...
   0.00000  -0.00000  -0.00000  -0.00000  -0.00000  -0.00000  -0.00000  -0.00000  -0.00000  -0.00000  -0.00000  -0.00000 ...
   0.00000   0.00000  -0.00000  -0.00000  -0.05659  -0.00000  -0.00000   0.01338  -0.00000  -0.00000  -0.00000  -0.00000 ...
   0.00000   0.00000   0.00000  -0.00000  -0.00000  -0.00000  -0.00000  -0.00000  -0.00000  -0.00000  -0.00000  -0.00000 ...
   0.00000   0.00000   0.05659   0.00000  -0.00000  -0.01338  -0.00000  -0.00000  -0.00000  -0.00000  -0.00000  -0.00000 ...
   0.00000   0.00000   0.00000   0.00000   0.01338  -0.00000  -0.00000  -0.00319  -0.00000  -0.00000  -0.00000  -0.00000 ...
   0.00000   0.00000   0.00000   0.00000   0.00000   0.00000  -0.00000  -0.00000  -0.00000  -0.00000  -0.00000  -0.00000 ...
   0.00000   0.00000  -0.01338   0.00000   0.00000   0.00319   0.00000  -0.00000  -0.00000  -0.00000  -0.00000  -0.00000 ...
   0.00000   0.00000   0.00000   0.00000   0.00000   0.00000   0.00000   0.00000  -0.00000  -0.00000  -0.00000  -0.00000 ...
   0.00000   0.00000   0.00000   0.00000   0.00000   0.00000   0.00000   0.00000   0.00000  -0.00000  -0.00000  -0.00568 ...
   0.00000   0.00000   0.00000   0.00000   0.00000   0.00000   0.00000   0.00000   0.00000   0.00000  -0.00000  -0.00000 ...
   0.00000   0.00000   0.00000   0.00000   0.00000   0.00000   0.00000   0.00000   0.00000   0.00568   0.00000  -0.00000 ...
   ...  only 12  components have been written...
 Atom #  2 - Component dwn-dwn
   === REAL PART:
 -12.29515   2.56100   0.00000   0.00001   0.00000   0.00000  -0.00000   0.00000   0.00000   0.00000   0.00000   0.00000 ...
   2.56100   0.38233   0.00000  -0.00000   0.00000   0.00000  -0.00000   0.00000  -0.00000   0.00000   0.00000   0.00000 ...
   0.00000   0.00000 -11.51704   0.00000   0.00000   1.53575   0.00000  -0.00000   0.00000   0.00000   0.00000   0.00130 ...
   0.00001  -0.00000   0.00000 -11.51704   0.00000   0.00000   1.53575   0.00000   0.00130   0.00000   0.00001   0.00000 ...
   0.00000   0.00000   0.00000   0.00000 -11.51704  -0.00000   0.00000   1.53575   0.00000   0.00130   0.00000   0.00000 ...
   0.00000   0.00000   1.53575   0.00000  -0.00000   0.00301   0.00000  -0.00000   0.00000  -0.00000   0.00000  -0.00012 ...
  -0.00000  -0.00000   0.00000   1.53575   0.00000   0.00000   0.00301   0.00000  -0.00012   0.00000  -0.00000   0.00000 ...
   0.00000   0.00000  -0.00000   0.00000   1.53575  -0.00000   0.00000   0.00301   0.00000  -0.00012   0.00000  -0.00000 ...
   0.00000  -0.00000   0.00000   0.00130   0.00000   0.00000  -0.00012   0.00000  -8.26267   0.00000  -0.00000   0.00000 ...
   0.00000   0.00000   0.00000   0.00000   0.00130  -0.00000   0.00000  -0.00012   0.00000  -8.26267   0.00000   0.00000 ...
   0.00000   0.00000   0.00000   0.00001   0.00000   0.00000  -0.00000   0.00000  -0.00000   0.00000  -8.26199   0.00000 ...
   0.00000   0.00000   0.00130   0.00000   0.00000  -0.00012   0.00000  -0.00000   0.00000   0.00000   0.00000  -8.26267 ...
   ...  only 12  components have been written...
   === IMAGINARY PART:
  -0.00000  -0.00000  -0.00000  -0.00000  -0.00000  -0.00000  -0.00000  -0.00000  -0.00000  -0.00000  -0.00000  -0.00000 ...
   0.00000  -0.00000  -0.00000  -0.00000  -0.00000  -0.00000  -0.00000  -0.00000  -0.00000  -0.00000  -0.00000  -0.00000 ...
   0.00000   0.00000  -0.00000  -0.00000   0.05659  -0.00000  -0.00000  -0.01338  -0.00000  -0.00000  -0.00000  -0.00000 ...
   0.00000   0.00000   0.00000  -0.00000  -0.00000  -0.00000  -0.00000  -0.00000  -0.00000  -0.00000  -0.00000  -0.00000 ...
   0.00000   0.00000  -0.05659   0.00000  -0.00000   0.01338  -0.00000  -0.00000  -0.00000  -0.00000  -0.00000  -0.00000 ...
   0.00000   0.00000   0.00000   0.00000  -0.01338  -0.00000  -0.00000   0.00319  -0.00000  -0.00000  -0.00000  -0.00000 ...
   0.00000   0.00000   0.00000   0.00000   0.00000   0.00000  -0.00000  -0.00000  -0.00000  -0.00000  -0.00000  -0.00000 ...
   0.00000   0.00000   0.01338   0.00000   0.00000  -0.00319   0.00000  -0.00000  -0.00000  -0.00000  -0.00000  -0.00000 ...
   0.00000   0.00000   0.00000   0.00000   0.00000   0.00000   0.00000   0.00000  -0.00000  -0.00000  -0.00000  -0.00000 ...
   0.00000   0.00000   0.00000   0.00000   0.00000   0.00000   0.00000   0.00000   0.00000  -0.00000  -0.00000   0.00568 ...
   0.00000   0.00000   0.00000   0.00000   0.00000   0.00000   0.00000   0.00000   0.00000   0.00000  -0.00000  -0.00000 ...
   0.00000   0.00000   0.00000   0.00000   0.00000   0.00000   0.00000   0.00000   0.00000  -0.00568   0.00000  -0.00000 ...
   ...  only 12  components have been written...
 Atom #  2 - Component up-dwn
   === REAL PART:
   0.00000   0.00000   0.00000   0.00000  -0.00001   0.00000   0.00000   0.00000   0.00000  -0.00000   0.00000   0.00000 ...
   0.00000   0.00000   0.00000   0.00000   0.00000   0.00000   0.00000   0.00000   0.00000   0.00000   0.00000   0.00000 ...
   0.00000   0.00000   0.00000  -0.00000   0.00000   0.00000   0.00000   0.00000  -0.00000   0.00000   0.00000   0.00000 ...
   0.00000   0.00000  -0.00000   0.00000   0.05659   0.00000   0.00000  -0.01338   0.00000   0.00000   0.00000  -0.00000 ...
  -0.00001   0.00000   0.00000  -0.05659   0.00000   0.00000   0.01338   0.00000   0.00000   0.00000   0.00000   0.00000 ...
   0.00000   0.00000   0.00000   0.00000   0.00000   0.00000   0.00000   0.00000   0.00000   0.00000   0.00000   0.00000 ...
   0.00000   0.00000   0.00000   0.00000  -0.01338   0.00000   0.00000   0.00319   0.00000   0.00000   0.00000   0.00000 ...
   0.00000   0.00000   0.00000   0.01338   0.00000   0.00000  -0.00319   0.00000   0.00000   0.00000  -0.00000   0.00000 ...
   0.00000   0.00000  -0.00000   0.00000   0.00000   0.00000   0.00000   0.00000   0.00000  -0.00568   0.00000  -0.00000 ...
  -0.00000   0.00000   0.00000   0.00000   0.00000   0.00000   0.00000   0.00000   0.00568   0.00000  -0.00000   0.00000 ...
   0.00000   0.00000   0.00000   0.00000   0.00000   0.00000   0.00000  -0.00000   0.00000  -0.00000   0.00000   0.00984 ...
   0.00000   0.00000   0.00000  -0.00000   0.00000   0.00000   0.00000   0.00000  -0.00000   0.00000  -0.00984   0.00000 ...
   ...  only 12  components have been written...
   === IMAGINARY PART:
  -0.00000  -0.00000   0.00001  -0.00000  -0.00000  -0.00000  -0.00000  -0.00000  -0.00000  -0.00000  -0.00000   0.00000 ...
   0.00000  -0.00000  -0.00000  -0.00000  -0.00000  -0.00000  -0.00000  -0.00000  -0.00000  -0.00000  -0.00000  -0.00000 ...
   0.00001  -0.00000  -0.00000   0.05659  -0.00000  -0.00000  -0.01338  -0.00000  -0.00000  -0.00000  -0.00000  -0.00000 ...
   0.00000   0.00000  -0.05659  -0.00000   0.00000   0.01338  -0.00000  -0.00000  -0.00000   0.00000  -0.00000  -0.00000 ...
   0.00000   0.00000   0.00000   0.00000  -0.00000  -0.00000  -0.00000  -0.00000   0.00000  -0.00000  -0.00000  -0.00000 ...
  -0.00000  -0.00000   0.00000  -0.01338   0.00000  -0.00000   0.00319  -0.00000  -0.00000  -0.00000   0.00000  -0.00000 ...
   0.00000   0.00000   0.01338   0.00000  -0.00000  -0.00319  -0.00000  -0.00000  -0.00000  -0.00000  -0.00000  -0.00000 ...
   0.00000   0.00000   0.00000  -0.00000   0.00000   0.00000  -0.00000  -0.00000  -0.00000  -0.00000  -0.00000  -0.00000 ...
   0.00000   0.00000   0.00000   0.00000   0.00000   0.00000   0.00000  -0.00000  -0.00000   0.00000  -0.00000   0.00568 ...
   0.00000   0.00000   0.00000   0.00000   0.00000   0.00000  -0.00000   0.00000   0.00000  -0.00000   0.00984  -0.00000 ...
   0.00000   0.00000  -0.00000   0.00000   0.00000   0.00000   0.00000   0.00000   0.00000  -0.00984  -0.00000   0.00000 ...
   0.00000  -0.00000   0.00000   0.00000   0.00000   0.00000   0.00000   0.00000  -0.00568   0.00000   0.00000  -0.00000 ...
   ...  only 12  components have been written...
 Atom #  2 - Component dwn-up
   === REAL PART:
   0.00000   0.00000   0.00000   0.00000  -0.00001   0.00000   0.00000   0.00000   0.00000  -0.00000   0.00000   0.00000 ...
   0.00000   0.00000   0.00000   0.00000   0.00000   0.00000   0.00000   0.00000   0.00000   0.00000   0.00000   0.00000 ...
   0.00000   0.00000   0.00000  -0.00000   0.00000   0.00000   0.00000   0.00000  -0.00000   0.00000   0.00000   0.00000 ...
   0.00000   0.00000  -0.00000   0.00000  -0.05659   0.00000   0.00000   0.01338   0.00000   0.00000   0.00000  -0.00000 ...
  -0.00001   0.00000   0.00000   0.05659   0.00000   0.00000  -0.01338   0.00000   0.00000   0.00000   0.00000   0.00000 ...
   0.00000   0.00000   0.00000   0.00000   0.00000   0.00000   0.00000   0.00000   0.00000   0.00000   0.00000   0.00000 ...
   0.00000   0.00000   0.00000   0.00000   0.01338   0.00000   0.00000  -0.00319   0.00000   0.00000   0.00000   0.00000 ...
   0.00000   0.00000   0.00000  -0.01338   0.00000   0.00000   0.00319   0.00000   0.00000   0.00000  -0.00000   0.00000 ...
   0.00000   0.00000  -0.00000   0.00000   0.00000   0.00000   0.00000   0.00000   0.00000   0.00568   0.00000  -0.00000 ...
  -0.00000   0.00000   0.00000   0.00000   0.00000   0.00000   0.00000   0.00000  -0.00568   0.00000  -0.00000   0.00000 ...
   0.00000   0.00000   0.00000   0.00000   0.00000   0.00000   0.00000  -0.00000   0.00000  -0.00000   0.00000  -0.00984 ...
   0.00000   0.00000   0.00000  -0.00000   0.00000   0.00000   0.00000   0.00000  -0.00000   0.00000   0.00984   0.00000 ...
   ...  only 12  components have been written...
   === IMAGINARY PART:
  -0.00000  -0.00000  -0.00001  -0.00000  -0.00000   0.00000  -0.00000  -0.00000  -0.00000  -0.00000  -0.00000  -0.00000 ...
   0.00000  -0.00000   0.00000  -0.00000  -0.00000   0.00000  -0.00000  -0.00000  -0.00000  -0.00000  -0.00000   0.00000 ...
  -0.00001   0.00000  -0.00000   0.05659  -0.00000  -0.00000  -0.01338  -0.00000  -0.00000  -0.00000   0.00000  -0.00000 ...
   0.00000   0.00000  -0.05659  -0.00000  -0.00000   0.01338  -0.00000   0.00000  -0.00000  -0.00000  -0.00000  -0.00000 ...
   0.00000   0.00000   0.00000  -0.00000  -0.00000  -0.00000   0.00000  -0.00000  -0.00000  -0.00000  -0.00000  -0.00000 ...
   0.00000   0.00000   0.00000  -0.01338   0.00000  -0.00000   0.00319  -0.00000  -0.00000  -0.00000  -0.00000  -0.00000 ...
   0.00000   0.00000   0.01338   0.00000   0.00000  -0.00319  -0.00000   0.00000  -0.00000   0.00000  -0.00000  -0.00000 ...
   0.00000   0.00000   0.00000   0.00000   0.00000   0.00000   0.00000  -0.00000   0.00000  -0.00000  -0.00000  -0.00000 ...
   0.00000   0.00000   0.00000   0.00000  -0.00000   0.00000   0.00000   0.00000  -0.00000  -0.00000  -0.00000   0.00568 ...
   0.00000   0.00000   0.00000  -0.00000   0.00000   0.00000   0.00000   0.00000  -0.00000  -0.00000   0.00984  -0.00000 ...
   0.00000   0.00000   0.00000   0.00000   0.00000  -0.00000   0.00000   0.00000   0.00000  -0.00984  -0.00000  -0.00000 ...
  -0.00000   0.00000   0.00000   0.00000   0.00000   0.00000   0.00000   0.00000  -0.00568   0.00000  -0.00000  -0.00000 ...
   ...  only 12  components have been written...


 Augmentation waves occupancies Rhoij:
 Atom #  1 - Component dens (n)
   === REAL PART:
   2.00331   0.17373   0.00000   0.00000   0.00000   0.00000   0.00000   0.00000   0.00000   0.00000   0.00000   0.00000 ...
   0.17373   3.66319   0.00000   0.00000   0.00000   0.00000   0.00000   0.00000   0.00000   0.00000   0.00000   0.00000 ...
   0.00000   0.00000   1.96037   0.00000   0.00000   0.99000   0.00000   0.00000   0.00000   0.00000   0.00000  -0.00708 ...
   0.00000   0.00000   0.00000   1.96037   0.00000   0.00000   0.99000   0.00000  -0.00708   0.00000   0.00000   0.00000 ...
   0.00000   0.00000   0.00000   0.00000   1.96037   0.00000   0.00000   0.99000   0.00000  -0.00708   0.00000   0.00000 ...
   0.00000   0.00000   0.99000   0.00000   0.00000   2.97060   0.00000   0.00000   0.00000   0.00000   0.00000   0.05222 ...
   0.00000   0.00000   0.00000   0.99000   0.00000   0.00000   2.97060   0.00000   0.05222   0.00000   0.00000   0.00000 ...
   0.00000   0.00000   0.00000   0.00000   0.99000   0.00000   0.00000   2.97060   0.00000   0.05222   0.00000   0.00000 ...
   0.00000   0.00000   0.00000  -0.00708   0.00000   0.00000   0.05222   0.00000   1.28541   0.00000   0.00000   0.00000 ...
   0.00000   0.00000   0.00000   0.00000  -0.00708   0.00000   0.00000   0.05222   0.00000   1.28541   0.00000  -0.00000 ...
   0.00000   0.00000   0.00000   0.00000   0.00000   0.00000   0.00000   0.00000   0.00000   0.00000   1.49178   0.00000 ...
   0.00000   0.00000  -0.00708   0.00000   0.00000   0.05222   0.00000   0.00000   0.00000  -0.00000   0.00000   1.28541 ...
   ...  only 12  components have been written...
   === IMAGINARY PART:
  -0.00000   0.00000  -0.00000  -0.00000  -0.00000  -0.00000  -0.00000  -0.00000  -0.00000  -0.00000  -0.00000  -0.00000 ...
  -0.00000   0.00000  -0.00000  -0.00000  -0.00000  -0.00000  -0.00000  -0.00000  -0.00000  -0.00000  -0.00000  -0.00000 ...
   0.00000   0.00000   0.00000  -0.00000  -0.00000   0.00000  -0.00000  -0.00000  -0.00000  -0.00000  -0.00000  -0.00000 ...
   0.00000   0.00000   0.00000   0.00000  -0.00000  -0.00000   0.00000  -0.00000  -0.00000  -0.00000  -0.00000  -0.00000 ...
   0.00000   0.00000   0.00000   0.00000   0.00000  -0.00000  -0.00000   0.00000  -0.00000  -0.00000  -0.00000   0.00000 ...
   0.00000   0.00000  -0.00000   0.00000   0.00000   0.00000  -0.00000  -0.00000  -0.00000  -0.00000  -0.00000  -0.00000 ...
   0.00000   0.00000   0.00000  -0.00000   0.00000   0.00000   0.00000  -0.00000  -0.00000  -0.00000  -0.00000  -0.00000 ...
   0.00000   0.00000   0.00000   0.00000  -0.00000   0.00000   0.00000   0.00000  -0.00000  -0.00000  -0.00000  -0.00000 ...
   0.00000   0.00000   0.00000   0.00000   0.00000   0.00000   0.00000   0.00000  -0.00000  -0.00000  -0.00000  -0.00000 ...
   0.00000   0.00000   0.00000   0.00000   0.00000   0.00000   0.00000   0.00000   0.00000  -0.00000  -0.00000  -0.00000 ...
   0.00000   0.00000   0.00000   0.00000   0.00000   0.00000   0.00000   0.00000   0.00000   0.00000   0.00000  -0.00000 ...
   0.00000   0.00000   0.00000   0.00000  -0.00000   0.00000   0.00000   0.00000   0.00000   0.00000   0.00000  -0.00000 ...
   ...  only 12  components have been written...
 Atom #  1 - Component magn (x)
   === REAL PART:
  -0.00000   0.00000   0.00000  -0.00000  -0.00000   0.00000  -0.00000  -0.00001  -0.00000   0.00000   0.00000  -0.00000 ...
   0.00000  -0.00000   0.00000  -0.00000  -0.00001   0.00000  -0.00000  -0.00010  -0.00000   0.00001   0.00000  -0.00000 ...
   0.00000   0.00000   0.00000   0.00000   0.00000   0.00000   0.00003  -0.00000  -0.00000  -0.00000  -0.00000   0.00000 ...
  -0.00000  -0.00000   0.00000   0.00000  -0.00000   0.00003   0.00000  -0.00000   0.00000   0.00000  -0.00000  -0.00000 ...
  -0.00000  -0.00001   0.00000  -0.00000   0.00000   0.00000  -0.00000   0.00000   0.00000  -0.00000   0.00002  -0.00000 ...
   0.00000   0.00000   0.00000   0.00003   0.00000   0.00000   0.00022   0.00000  -0.00007  -0.00000  -0.00000  -0.00000 ...
  -0.00000  -0.00000   0.00003   0.00000  -0.00000   0.00022   0.00000  -0.00000  -0.00000   0.00000  -0.00000  -0.00007 ...
  -0.00001  -0.00010  -0.00000  -0.00000   0.00000   0.00000  -0.00000   0.00000   0.00000   0.00000   0.00018  -0.00000 ...
  -0.00000  -0.00000  -0.00000   0.00000   0.00000  -0.00007  -0.00000   0.00000  -0.00000  -0.00000  -0.00000   0.00002 ...
   0.00000   0.00001  -0.00000   0.00000  -0.00000  -0.00000   0.00000   0.00000  -0.00000  -0.00000   0.00017   0.00000 ...
   0.00000   0.00000  -0.00000  -0.00000   0.00002  -0.00000  -0.00000   0.00018  -0.00000   0.00017   0.00000   0.00000 ...
  -0.00000  -0.00000   0.00000  -0.00000  -0.00000  -0.00000  -0.00007  -0.00000   0.00002   0.00000   0.00000  -0.00000 ...
   ...  only 12  components have been written...
   === IMAGINARY PART:
  -0.00000  -0.00000   0.00000  -0.00000   0.00000   0.00000  -0.00000   0.00000   0.00000   0.00000  -0.00000   0.00000 ...
   0.00000  -0.00000   0.00000   0.00000   0.00000   0.00000  -0.00000   0.00000   0.00000   0.00000  -0.00000  -0.00000 ...
  -0.00000  -0.00000   0.00000  -0.00029  -0.00000   0.00000  -0.00268  -0.00000   0.00016   0.00000  -0.00000   0.00000 ...
   0.00000  -0.00000   0.00029   0.00000   0.00000   0.00268  -0.00000   0.00000   0.00000  -0.00000  -0.00000  -0.00016 ...
  -0.00000  -0.00000   0.00000  -0.00000   0.00000   0.00000  -0.00000   0.00000   0.00000  -0.00000  -0.00013  -0.00000 ...
  -0.00000  -0.00000  -0.00000  -0.00268  -0.00000  -0.00000   0.02717   0.00000   0.00154   0.00000  -0.00000   0.00000 ...
   0.00000   0.00000   0.00268   0.00000   0.00000  -0.02717   0.00000  -0.00000   0.00000  -0.00000  -0.00000  -0.00154 ...
  -0.00000  -0.00000   0.00000  -0.00000  -0.00000  -0.00000   0.00000  -0.00000   0.00000  -0.00000  -0.00145  -0.00000 ...
  -0.00000  -0.00000  -0.00016  -0.00000  -0.00000  -0.00154  -0.00000  -0.00000  -0.00000  -0.00000   0.00000  -0.00001 ...
  -0.00000  -0.00000  -0.00000   0.00000   0.00000  -0.00000   0.00000   0.00000   0.00000   0.00000   0.00072   0.00000 ...
   0.00000   0.00000   0.00000   0.00000   0.00013   0.00000   0.00000   0.00145  -0.00000  -0.00072  -0.00000  -0.00000 ...
  -0.00000   0.00000  -0.00000   0.00016   0.00000  -0.00000   0.00154   0.00000   0.00001  -0.00000   0.00000  -0.00000 ...
   ...  only 12  components have been written...
 Atom #  1 - Component magn (y)
   === REAL PART:
   0.00000   0.00000  -0.00000   0.00000   0.00000  -0.00001  -0.00000   0.00000   0.00000  -0.00000   0.00000   0.00000 ...
   0.00000   0.00000  -0.00001  -0.00000   0.00000  -0.00010  -0.00000   0.00000   0.00000  -0.00000   0.00000   0.00001 ...
  -0.00000  -0.00001   0.00000   0.00000   0.00000   0.00000   0.00000   0.00000   0.00000   0.00000   0.00002   0.00000 ...
   0.00000  -0.00000   0.00000   0.00000   0.00000  -0.00000   0.00000   0.00003   0.00000  -0.00000   0.00000   0.00000 ...
   0.00000   0.00000   0.00000   0.00000   0.00000  -0.00000   0.00003   0.00000  -0.00000  -0.00000   0.00000   0.00000 ...
  -0.00001  -0.00010   0.00000  -0.00000  -0.00000   0.00000   0.00000   0.00000   0.00000  -0.00000   0.00018   0.00000 ...
  -0.00000  -0.00000   0.00000   0.00000   0.00003   0.00000   0.00000   0.00022   0.00000  -0.00007   0.00000   0.00000 ...
   0.00000   0.00000   0.00000   0.00003   0.00000   0.00000   0.00022   0.00000  -0.00007   0.00000   0.00000  -0.00000 ...
   0.00000   0.00000   0.00000   0.00000  -0.00000   0.00000   0.00000  -0.00007   0.00000   0.00002   0.00000  -0.00000 ...
  -0.00000  -0.00000   0.00000  -0.00000  -0.00000  -0.00000  -0.00007   0.00000   0.00002   0.00000   0.00000   0.00000 ...
   0.00000   0.00000   0.00002   0.00000   0.00000   0.00018   0.00000   0.00000   0.00000   0.00000   0.00000   0.00017 ...
   0.00000   0.00001   0.00000   0.00000   0.00000   0.00000   0.00000  -0.00000  -0.00000   0.00000   0.00017   0.00000 ...
   ...  only 12  components have been written...
   === IMAGINARY PART:
  -0.00000  -0.00000   0.00000  -0.00000  -0.00000   0.00000  -0.00000  -0.00000  -0.00000  -0.00000  -0.00000   0.00000 ...
   0.00000  -0.00000   0.00000  -0.00000  -0.00000   0.00000   0.00000   0.00000  -0.00000  -0.00000  -0.00000   0.00000 ...
  -0.00000  -0.00000  -0.00000   0.00000   0.00000   0.00000   0.00000   0.00000  -0.00000  -0.00000   0.00013  -0.00000 ...
   0.00000   0.00000  -0.00000  -0.00000  -0.00029  -0.00000  -0.00000  -0.00268  -0.00000   0.00016  -0.00000   0.00000 ...
   0.00000   0.00000  -0.00000   0.00029   0.00000  -0.00000   0.00268  -0.00000  -0.00016  -0.00000   0.00000   0.00000 ...
  -0.00000  -0.00000  -0.00000   0.00000   0.00000  -0.00000  -0.00000  -0.00000  -0.00000  -0.00000   0.00145  -0.00000 ...
   0.00000  -0.00000  -0.00000   0.00000  -0.00268   0.00000  -0.00000   0.02717  -0.00000   0.00154  -0.00000   0.00000 ...
   0.00000  -0.00000  -0.00000   0.00268   0.00000   0.00000  -0.02717  -0.00000  -0.00154  -0.00000   0.00000   0.00000 ...
   0.00000   0.00000   0.00000   0.00000   0.00016   0.00000   0.00000   0.00154  -0.00000   0.00001  -0.00000   0.00000 ...
   0.00000   0.00000   0.00000  -0.00016   0.00000   0.00000  -0.00154   0.00000  -0.00001  -0.00000  -0.00000  -0.00000 ...
   0.00000   0.00000  -0.00013   0.00000  -0.00000  -0.00145   0.00000  -0.00000   0.00000   0.00000  -0.00000   0.00072 ...
  -0.00000  -0.00000   0.00000  -0.00000  -0.00000   0.00000  -0.00000  -0.00000  -0.00000   0.00000  -0.00072  -0.00000 ...
   ...  only 12  components have been written...
 Atom #  1 - Component magn (z)
   === REAL PART:
   0.00000  -0.00000  -0.00000  -0.00000   0.00000  -0.00000  -0.00001  -0.00000   0.00000   0.00000   0.00000   0.00000 ...
  -0.00000  -0.00000  -0.00000  -0.00001  -0.00000  -0.00000  -0.00010  -0.00000   0.00001   0.00000   0.00000   0.00000 ...
  -0.00000  -0.00000  -0.00000   0.00000   0.00000   0.00000   0.00000   0.00003   0.00000  -0.00000   0.00000  -0.00000 ...
  -0.00000  -0.00001   0.00000   0.00000   0.00000   0.00000   0.00000   0.00000  -0.00000  -0.00000  -0.00003   0.00000 ...
   0.00000  -0.00000   0.00000   0.00000   0.00000   0.00003   0.00000   0.00000  -0.00000   0.00000  -0.00000  -0.00000 ...
  -0.00000  -0.00000   0.00000   0.00000   0.00003  -0.00000   0.00000   0.00022  -0.00000  -0.00007   0.00000  -0.00000 ...
  -0.00001  -0.00010   0.00000   0.00000   0.00000   0.00000   0.00000   0.00000  -0.00000  -0.00000  -0.00036   0.00000 ...
  -0.00000  -0.00000   0.00003   0.00000   0.00000   0.00022   0.00000  -0.00000  -0.00000   0.00000  -0.00000  -0.00007 ...
   0.00000   0.00001   0.00000  -0.00000  -0.00000  -0.00000  -0.00000  -0.00000   0.00000   0.00000  -0.00034   0.00000 ...
   0.00000   0.00000  -0.00000  -0.00000   0.00000  -0.00007  -0.00000   0.00000   0.00000  -0.00000   0.00000   0.00002 ...
   0.00000   0.00000   0.00000  -0.00003  -0.00000   0.00000  -0.00036  -0.00000  -0.00034   0.00000   0.00000   0.00000 ...
   0.00000   0.00000  -0.00000   0.00000  -0.00000  -0.00000   0.00000  -0.00007   0.00000   0.00002   0.00000   0.00000 ...
   ...  only 12  components have been written...
   === IMAGINARY PART:
  -0.00000   0.00000   0.00000   0.00000  -0.00000   0.00000   0.00000  -0.00000   0.00000   0.00000  -0.00000   0.00000 ...
  -0.00000  -0.00000   0.00000   0.00000  -0.00000  -0.00000   0.00000   0.00000   0.00000   0.00000  -0.00000   0.00000 ...
  -0.00000  -0.00000   0.00000  -0.00000   0.00029  -0.00000  -0.00000   0.00268   0.00000  -0.00016   0.00000   0.00000 ...
  -0.00000  -0.00000   0.00000  -0.00000  -0.00000   0.00000   0.00000  -0.00000  -0.00000   0.00000  -0.00000  -0.00000 ...
   0.00000   0.00000  -0.00029   0.00000  -0.00000  -0.00268   0.00000  -0.00000  -0.00000  -0.00000  -0.00000   0.00016 ...
  -0.00000   0.00000   0.00000  -0.00000   0.00268   0.00000   0.00000  -0.02717   0.00000  -0.00154   0.00000   0.00000 ...
  -0.00000  -0.00000   0.00000  -0.00000  -0.00000  -0.00000   0.00000   0.00000  -0.00000   0.00000  -0.00000  -0.00000 ...
   0.00000  -0.00000  -0.00268   0.00000   0.00000   0.02717  -0.00000  -0.00000  -0.00000   0.00000  -0.00000   0.00154 ...
  -0.00000  -0.00000  -0.00000   0.00000   0.00000  -0.00000   0.00000   0.00000   0.00000   0.00000  -0.00000   0.00000 ...
  -0.00000  -0.00000   0.00016  -0.00000   0.00000   0.00154  -0.00000  -0.00000  -0.00000   0.00000   0.00000   0.00001 ...
   0.00000   0.00000  -0.00000   0.00000   0.00000  -0.00000   0.00000   0.00000   0.00000  -0.00000   0.00000   0.00000 ...
  -0.00000  -0.00000  -0.00000   0.00000  -0.00016  -0.00000   0.00000  -0.00154  -0.00000  -0.00001  -0.00000  -0.00000 ...
   ...  only 12  components have been written...
 Atom #  2 - Component dens (n)
   === REAL PART:
   1.99446   0.25926   0.00000   0.00000   0.00000   0.00000   0.00000   0.00000   0.00000   0.00000   0.00000   0.00000 ...
   0.25926   2.90943   0.00000   0.00000   0.00000   0.00000   0.00000   0.00000   0.00000   0.00000   0.00000   0.00000 ...
   0.00000   0.00000   1.84261   0.00000   0.00000   1.03379   0.00000   0.00000   0.00000   0.00000   0.00000   0.00739 ...
   0.00000   0.00000   0.00000   1.84261   0.00000   0.00000   1.03379   0.00000   0.00739   0.00000   0.00000   0.00000 ...
   0.00000   0.00000   0.00000   0.00000   1.84261   0.00000   0.00000   1.03379   0.00000   0.00739   0.00000  -0.00000 ...
   0.00000   0.00000   1.03379   0.00000   0.00000   3.72240   0.00000   0.00000   0.00000   0.00000   0.00000  -0.01087 ...
   0.00000   0.00000   0.00000   1.03379   0.00000   0.00000   3.72240   0.00000  -0.01087   0.00000   0.00000   0.00000 ...
   0.00000   0.00000   0.00000   0.00000   1.03379   0.00000   0.00000   3.72240   0.00000  -0.01087   0.00000   0.00000 ...
   0.00000   0.00000   0.00000   0.00739   0.00000   0.00000  -0.01087   0.00000   0.43398   0.00000   0.00000   0.00000 ...
   0.00000   0.00000   0.00000   0.00000   0.00739   0.00000   0.00000  -0.01087   0.00000   0.43398   0.00000   0.00000 ...
   0.00000   0.00000   0.00000   0.00000   0.00000   0.00000   0.00000   0.00000   0.00000   0.00000   0.51783   0.00000 ...
   0.00000   0.00000   0.00739   0.00000  -0.00000  -0.01087   0.00000   0.00000   0.00000   0.00000   0.00000   0.43398 ...
   ...  only 12  components have been written...
   === IMAGINARY PART:
   0.00000  -0.00000  -0.00000  -0.00000  -0.00000  -0.00000  -0.00000  -0.00000  -0.00000  -0.00000  -0.00000  -0.00000 ...
   0.00000   0.00000  -0.00000  -0.00000  -0.00000  -0.00000  -0.00000  -0.00000  -0.00000  -0.00000  -0.00000  -0.00000 ...
   0.00000   0.00000  -0.00000  -0.00000  -0.00000  -0.00000  -0.00000  -0.00000  -0.00000  -0.00000  -0.00000  -0.00000 ...
   0.00000   0.00000   0.00000  -0.00000  -0.00000  -0.00000  -0.00000  -0.00000  -0.00000  -0.00000  -0.00000  -0.00000 ...
   0.00000   0.00000   0.00000   0.00000  -0.00000  -0.00000  -0.00000  -0.00000  -0.00000  -0.00000  -0.00000   0.00000 ...
   0.00000   0.00000   0.00000   0.00000   0.00000   0.00000  -0.00000  -0.00000  -0.00000  -0.00000  -0.00000  -0.00000 ...
   0.00000   0.00000   0.00000   0.00000   0.00000   0.00000   0.00000  -0.00000  -0.00000  -0.00000  -0.00000  -0.00000 ...
   0.00000   0.00000   0.00000   0.00000   0.00000   0.00000   0.00000   0.00000  -0.00000  -0.00000  -0.00000  -0.00000 ...
   0.00000   0.00000   0.00000   0.00000   0.00000   0.00000   0.00000   0.00000  -0.00000  -0.00000  -0.00000  -0.00000 ...
   0.00000   0.00000   0.00000   0.00000   0.00000   0.00000   0.00000   0.00000   0.00000  -0.00000  -0.00000  -0.00000 ...
   0.00000   0.00000   0.00000   0.00000   0.00000   0.00000   0.00000   0.00000   0.00000   0.00000   0.00000  -0.00000 ...
   0.00000   0.00000   0.00000   0.00000  -0.00000   0.00000   0.00000   0.00000   0.00000   0.00000   0.00000  -0.00000 ...
   ...  only 12  components have been written...
 Atom #  2 - Component magn (x)
   === REAL PART:
   0.00000  -0.00000  -0.00000  -0.00000   0.00000  -0.00000  -0.00000   0.00000   0.00000   0.00000   0.00000   0.00000 ...
  -0.00000   0.00000  -0.00000  -0.00000   0.00000  -0.00000  -0.00000   0.00001  -0.00000   0.00001   0.00000  -0.00000 ...
  -0.00000  -0.00000  -0.00000   0.00000   0.00000   0.00000  -0.00000   0.00000   0.00000  -0.00000   0.00000   0.00000 ...
  -0.00000  -0.00000   0.00000  -0.00000  -0.00000  -0.00000   0.00000   0.00000   0.00000  -0.00000   0.00000   0.00000 ...
   0.00000   0.00000   0.00000  -0.00000  -0.00000   0.00000  -0.00000  -0.00000   0.00000  -0.00000  -0.00001  -0.00000 ...
  -0.00000  -0.00000   0.00000  -0.00000   0.00000  -0.00000   0.00001   0.00000   0.00001  -0.00000   0.00000  -0.00000 ...
  -0.00000  -0.00000  -0.00000   0.00000  -0.00000   0.00001  -0.00000  -0.00000  -0.00000  -0.00000   0.00000   0.00001 ...
   0.00000   0.00001   0.00000   0.00000  -0.00000   0.00000  -0.00000  -0.00000  -0.00000  -0.00000  -0.00026  -0.00000 ...
   0.00000  -0.00000   0.00000   0.00000   0.00000   0.00001  -0.00000  -0.00000  -0.00000   0.00000  -0.00000   0.00005 ...
   0.00000   0.00001  -0.00000  -0.00000  -0.00000  -0.00000  -0.00000  -0.00000   0.00000   0.00000   0.00027   0.00000 ...
   0.00000   0.00000   0.00000   0.00000  -0.00001   0.00000   0.00000  -0.00026  -0.00000   0.00027   0.00000   0.00000 ...
   0.00000  -0.00000   0.00000   0.00000  -0.00000  -0.00000   0.00001  -0.00000   0.00005   0.00000   0.00000  -0.00000 ...
   ...  only 12  components have been written...
   === IMAGINARY PART:
   0.00000  -0.00000  -0.00000   0.00000  -0.00000  -0.00000   0.00000   0.00000  -0.00000   0.00000  -0.00000   0.00000 ...
   0.00000  -0.00000  -0.00000   0.00000  -0.00000  -0.00000   0.00000   0.00000  -0.00000   0.00000  -0.00000   0.00000 ...
   0.00000   0.00000   0.00000  -0.00005  -0.00000  -0.00000  -0.00071  -0.00000  -0.00003  -0.00000  -0.00000  -0.00000 ...
  -0.00000  -0.00000   0.00005   0.00000   0.00000   0.00071  -0.00000   0.00000   0.00000   0.00000  -0.00000   0.00003 ...
   0.00000   0.00000   0.00000  -0.00000   0.00000   0.00000  -0.00000  -0.00000  -0.00000  -0.00000  -0.00002   0.00000 ...
   0.00000   0.00000   0.00000  -0.00071  -0.00000   0.00000   0.00284   0.00000   0.00001   0.00000   0.00000  -0.00000 ...
  -0.00000  -0.00000   0.00071   0.00000   0.00000  -0.00284  -0.00000  -0.00000  -0.00000   0.00000  -0.00000  -0.00001 ...
  -0.00000  -0.00000   0.00000  -0.00000   0.00000  -0.00000   0.00000   0.00000  -0.00000  -0.00000   0.00021  -0.00000 ...
   0.00000   0.00000   0.00003  -0.00000   0.00000  -0.00001   0.00000   0.00000   0.00000   0.00000   0.00000   0.00046 ...
  -0.00000  -0.00000   0.00000  -0.00000   0.00000  -0.00000  -0.00000   0.00000  -0.00000  -0.00000   0.00126   0.00000 ...
   0.00000   0.00000   0.00000   0.00000   0.00002  -0.00000   0.00000  -0.00021  -0.00000  -0.00126  -0.00000  -0.00000 ...
  -0.00000  -0.00000   0.00000  -0.00003  -0.00000   0.00000   0.00001   0.00000  -0.00046  -0.00000   0.00000  -0.00000 ...
   ...  only 12  components have been written...
 Atom #  2 - Component magn (y)
   === REAL PART:
   0.00000   0.00000   0.00000   0.00000  -0.00000   0.00000  -0.00000   0.00000   0.00000  -0.00000   0.00000   0.00000 ...
   0.00000   0.00000   0.00000  -0.00000   0.00000   0.00001  -0.00000   0.00000   0.00000  -0.00000   0.00000   0.00001 ...
   0.00000   0.00000   0.00000   0.00000   0.00000   0.00000   0.00000  -0.00000   0.00000   0.00000  -0.00001  -0.00000 ...
   0.00000  -0.00000   0.00000   0.00000   0.00000   0.00000   0.00000  -0.00000   0.00000   0.00000   0.00000   0.00000 ...
  -0.00000   0.00000   0.00000   0.00000   0.00000   0.00000  -0.00000   0.00000   0.00000   0.00000   0.00000   0.00000 ...
   0.00000   0.00001   0.00000   0.00000   0.00000   0.00000   0.00000  -0.00000   0.00000   0.00000  -0.00026   0.00000 ...
  -0.00000  -0.00000   0.00000   0.00000  -0.00000   0.00000   0.00000   0.00001   0.00000   0.00001   0.00000  -0.00000 ...
   0.00000   0.00000  -0.00000  -0.00000   0.00000  -0.00000   0.00001   0.00000   0.00001   0.00000   0.00000  -0.00000 ...
   0.00000   0.00000   0.00000   0.00000   0.00000   0.00000   0.00000   0.00001  -0.00000   0.00005   0.00000   0.00000 ...
  -0.00000  -0.00000   0.00000   0.00000   0.00000   0.00000   0.00001   0.00000   0.00005   0.00000   0.00000   0.00000 ...
   0.00000   0.00000  -0.00001   0.00000   0.00000  -0.00026   0.00000   0.00000   0.00000   0.00000   0.00000   0.00027 ...
   0.00000   0.00001  -0.00000   0.00000   0.00000   0.00000  -0.00000  -0.00000   0.00000   0.00000   0.00027   0.00000 ...
   ...  only 12  components have been written...
   === IMAGINARY PART:
  -0.00000  -0.00000  -0.00000   0.00000  -0.00000   0.00000  -0.00000   0.00000  -0.00000  -0.00000  -0.00000   0.00000 ...
   0.00000  -0.00000  -0.00000   0.00000   0.00000   0.00000   0.00000  -0.00000  -0.00000  -0.00000  -0.00000   0.00000 ...
   0.00000   0.00000  -0.00000   0.00000   0.00000  -0.00000   0.00000   0.00000   0.00000   0.00000   0.00002  -0.00000 ...
  -0.00000  -0.00000  -0.00000  -0.00000  -0.00005  -0.00000  -0.00000  -0.00071  -0.00000  -0.00003  -0.00000  -0.00000 ...
   0.00000  -0.00000  -0.00000   0.00005  -0.00000  -0.00000   0.00071  -0.00000   0.00003  -0.00000   0.00000  -0.00000 ...
  -0.00000  -0.00000   0.00000   0.00000   0.00000  -0.00000  -0.00000  -0.00000  -0.00000  -0.00000  -0.00021  -0.00000 ...
   0.00000  -0.00000  -0.00000   0.00000  -0.00071   0.00000  -0.00000   0.00284  -0.00000   0.00001  -0.00000  -0.00000 ...
  -0.00000   0.00000  -0.00000   0.00071   0.00000   0.00000  -0.00284  -0.00000  -0.00001  -0.00000  -0.00000   0.00000 ...
   0.00000   0.00000  -0.00000   0.00000  -0.00003   0.00000   0.00000   0.00001  -0.00000  -0.00046  -0.00000  -0.00000 ...
   0.00000   0.00000  -0.00000   0.00003   0.00000   0.00000  -0.00001   0.00000   0.00046   0.00000  -0.00000  -0.00000 ...
   0.00000   0.00000  -0.00002   0.00000  -0.00000   0.00021   0.00000   0.00000   0.00000   0.00000  -0.00000   0.00126 ...
  -0.00000  -0.00000   0.00000   0.00000   0.00000   0.00000   0.00000  -0.00000   0.00000   0.00000  -0.00126  -0.00000 ...
   ...  only 12  components have been written...
 Atom #  2 - Component magn (z)
   === REAL PART:
  -0.00000  -0.00000   0.00000   0.00000  -0.00000   0.00000   0.00000  -0.00000   0.00000   0.00000   0.00000   0.00000 ...
  -0.00000  -0.00000   0.00000   0.00000  -0.00000   0.00000   0.00001  -0.00000   0.00001   0.00000   0.00000   0.00000 ...
   0.00000   0.00000   0.00000  -0.00000   0.00000  -0.00000  -0.00000  -0.00000   0.00000   0.00000  -0.00000  -0.00000 ...
   0.00000   0.00000  -0.00000  -0.00000  -0.00000  -0.00000  -0.00000   0.00000  -0.00000  -0.00000   0.00001   0.00000 ...
  -0.00000  -0.00000   0.00000  -0.00000   0.00000  -0.00000  -0.00000   0.00000  -0.00000   0.00000  -0.00000   0.00000 ...
   0.00000   0.00000  -0.00000  -0.00000  -0.00000   0.00000  -0.00000   0.00001  -0.00000   0.00001  -0.00000   0.00000 ...
   0.00000   0.00001  -0.00000  -0.00000  -0.00000  -0.00000  -0.00000   0.00000  -0.00000   0.00000   0.00053  -0.00000 ...
  -0.00000  -0.00000  -0.00000   0.00000   0.00000   0.00001   0.00000  -0.00000  -0.00000   0.00000  -0.00000   0.00001 ...
   0.00000   0.00001   0.00000  -0.00000  -0.00000  -0.00000  -0.00000  -0.00000   0.00000  -0.00000  -0.00053  -0.00000 ...
   0.00000   0.00000   0.00000  -0.00000   0.00000   0.00001   0.00000   0.00000  -0.00000  -0.00000   0.00000   0.00005 ...
   0.00000   0.00000  -0.00000   0.00001  -0.00000  -0.00000   0.00053  -0.00000  -0.00053   0.00000   0.00000   0.00000 ...
   0.00000   0.00000  -0.00000   0.00000   0.00000   0.00000  -0.00000   0.00001  -0.00000   0.00005   0.00000   0.00000 ...
   ...  only 12  components have been written...
   === IMAGINARY PART:
  -0.00000  -0.00000   0.00000  -0.00000   0.00000  -0.00000   0.00000   0.00000   0.00000  -0.00000  -0.00000   0.00000 ...
   0.00000   0.00000  -0.00000  -0.00000   0.00000   0.00000   0.00000   0.00000   0.00000  -0.00000  -0.00000   0.00000 ...
  -0.00000   0.00000   0.00000  -0.00000   0.00005  -0.00000  -0.00000   0.00071  -0.00000   0.00003   0.00000   0.00000 ...
   0.00000   0.00000   0.00000  -0.00000  -0.00000   0.00000  -0.00000  -0.00000  -0.00000  -0.00000  -0.00000   0.00000 ...
  -0.00000  -0.00000  -0.00005   0.00000   0.00000  -0.00071   0.00000  -0.00000   0.00000   0.00000  -0.00000  -0.00003 ...
   0.00000  -0.00000   0.00000  -0.00000   0.00071  -0.00000   0.00000  -0.00284   0.00000  -0.00001  -0.00000  -0.00000 ...
  -0.00000  -0.00000   0.00000   0.00000  -0.00000  -0.00000   0.00000   0.00000  -0.00000  -0.00000  -0.00000  -0.00000 ...
  -0.00000  -0.00000  -0.00071   0.00000   0.00000   0.00284  -0.00000   0.00000  -0.00000  -0.00000   0.00000   0.00001 ...
  -0.00000  -0.00000   0.00000   0.00000  -0.00000  -0.00000   0.00000   0.00000   0.00000  -0.00000  -0.00000   0.00000 ...
   0.00000   0.00000  -0.00003   0.00000  -0.00000   0.00001   0.00000   0.00000   0.00000  -0.00000   0.00000  -0.00046 ...
   0.00000   0.00000  -0.00000   0.00000   0.00000   0.00000   0.00000  -0.00000   0.00000  -0.00000   0.00000   0.00000 ...
  -0.00000  -0.00000  -0.00000  -0.00000   0.00003   0.00000   0.00000  -0.00001  -0.00000   0.00046  -0.00000   0.00000 ...
   ...  only 12  components have been written...


================================================================================

 ----iterations are completed or convergence reached----

 Mean square residual over all n,k,spin=   70.707E-07; max=  59.930E-05
 reduced coordinates (array xred) for    2 atoms
       0.000000000000      0.000000000000      0.000000000000
       0.250000000000      0.250000000000      0.250000000000
 rms dE/dt=  2.9750E-30; max dE/dt=  4.2073E-30; dE/dt below (all hartree)
    1      -0.000000000000     -0.000000000000      0.000000000000
    2       0.000000000000      0.000000000000      0.000000000000

 cartesian coordinates (angstrom) at end:
    1      0.00000000000000     0.00000000000000     0.00000000000000
    2      1.41332500000000     1.41332500000000     1.41332500000000

 cartesian forces (hartree/bohr) at end:
    1     -0.00000000000000    -0.00000000000000     0.00000000000000
    2      0.00000000000000     0.00000000000000    -0.00000000000000
 frms,max,avg= 3.7705437E-31 5.9073067E-31   0.000E+00  0.000E+00  0.000E+00 h/b

 cartesian forces (eV/Angstrom) at end:
    1     -0.00000000000000    -0.00000000000000     0.00000000000000
    2      0.00000000000000     0.00000000000000    -0.00000000000000
 frms,max,avg= 1.9388914E-29 3.0376590E-29   0.000E+00  0.000E+00  0.000E+00 e/A
 length scales= 10.683188747042 10.683188747042 10.683188747042 bohr
              =  5.653300000000  5.653300000000  5.653300000000 angstroms
 prteigrs : about to open file t28_MPI4o_DS1_EIG
 Fermi (or HOMO) energy (hartree) =   0.18994   Average Vxc (hartree)=  -0.45677
 Eigenvalues (hartree) for nkpt=   4  k points:
 kpt#   1, nband= 50, wtk=  0.12500, kpt= -0.2500  0.0000  0.0000 (reduced coord)
 -13.67549  -13.67549   -9.70623   -9.70623   -9.60418   -9.60416   -9.52420   -9.52418
  -9.06203   -9.06203   -6.49372   -6.49372   -6.41021   -6.41021   -6.33840   -6.33839
  -1.23310   -1.23310   -1.06027   -1.06013   -1.05900   -1.05900   -0.78285   -0.78283
  -0.51268   -0.51268   -0.51120   -0.51086   -0.46169   -0.46167   -0.38982   -0.38981
  -0.38666   -0.38646   -0.28979   -0.28978    0.07987    0.07987    0.08136    0.08151
   0.11155    0.11157    0.18979    0.18994    0.18995    0.19001    0.30119    0.30136
   0.30390    0.33472
 prteigrs : prtvol=0 or 1, do not print more k-points.


--- !EnergyTerms
iteration_state     : {dtset: 1, }
comment             : Components of total free energy in Hartree
kinetic             :  6.13118282963640E+01
hartree             :  8.90897823258234E+01
xc                  : -2.89815188829505E+01
Ewald energy        : -2.44402045240619E+02
psp_core            :  1.02891928272786E+01
local_psp           : -3.06584715734614E+02
spherical_terms     : -8.03017965895491E+01
total_energy        : -4.99579272998267E+02
total_energy_eV     : -1.35942433660556E+04
...


--- !EnergyTermsDC
iteration_state     : {dtset: 1, }
comment             : '"Double-counting" decomposition of free energy'
band_energy         : -1.55896002379363E+02
Ewald energy        : -2.44402045240619E+02
psp_core            :  1.02891928272786E+01
xc_dc               : -8.00259077979811E+01
spherical_terms     : -2.95443476347935E+01
total_energy_dc     : -4.99579110225478E+02
total_energy_dc_eV  : -1.35942433660556E+04
...


 Cartesian components of stress tensor (hartree/bohr^3)
  sigma(1 1)=  5.31049636E-01  sigma(3 2)=  0.00000000E+00
  sigma(2 2)=  5.31049636E-01  sigma(3 1)=  0.00000000E+00
  sigma(3 3)=  5.31049636E-01  sigma(2 1)=  0.00000000E+00

-Cartesian components of stress tensor (GPa)         [Pressure= -1.5624E+04 GPa]
- sigma(1 1)=  1.56240171E+04  sigma(3 2)=  0.00000000E+00
- sigma(2 2)=  1.56240171E+04  sigma(3 1)=  0.00000000E+00
- sigma(3 3)=  1.56240171E+04  sigma(2 1)=  0.00000000E+00

================================================================================
== DATASET  2 ==================================================================
-   mpi_nproc: 4, omp_nthreads: -1 (-1 if OMP is not activated)

 mkfilename : getwfk/=0, take file _WFK from output of DATASET   1.

 Exchange-correlation functional for the present dataset will be:
  LDA: Perdew-Wang 92 LSD fit to Ceperley-Alder data - ixc=7
 Citation for XC functional:
  J.P.Perdew and Y.Wang, PRB 45, 13244 (1992)

 Real(R)+Recip(G) space primitive vectors, cartesian coordinates (Bohr,Bohr^-1):
 R(1)=  0.0000000  5.3415944  5.3415944  G(1)= -0.0936050  0.0936050  0.0936050
 R(2)=  5.3415944  0.0000000  5.3415944  G(2)=  0.0936050 -0.0936050  0.0936050
 R(3)=  5.3415944  5.3415944  0.0000000  G(3)=  0.0936050  0.0936050 -0.0936050
 Unit cell volume ucvol=  3.0481948E+02 bohr^3
 Angles (23,13,12)=  6.00000000E+01  6.00000000E+01  6.00000000E+01 degrees

 Coarse grid specifications (used for wave-functions):

 getcut: wavevector=  0.0000  0.0000  0.0000  ngfft=  16  16  16
         ecut(hartree)=      5.000   => boxcut(ratio)=   2.10419

 Fine grid specifications (used for densities):

 getcut: wavevector=  0.0000  0.0000  0.0000  ngfft=  24  24  24
         ecut(hartree)=     10.000   => boxcut(ratio)=   2.23183

 getcut : COMMENT -
  Note that boxcut > 2.2 ; recall that boxcut=Gcut(box)/Gcut(sphere) = 2
  is sufficient for exact treatment of convolution.
  Such a large boxcut is a waste : you could raise ecut
  e.g. ecut=   12.452611 Hartrees makes boxcut=2

--------------------------------------------------------------------------------

-inwffil : will read wavefunctions from disk file t28_MPI4o_DS1_WFK
_setup2: Arith. and geom. avg. npw (full set) are      79.500      79.495

================================================================================

     iter   Etot(hartree)      deltaE(h)  residm     nres2
 ETOT  1  -499.57911022918    -4.996E+02 7.572E-04 8.486E-08

 At SCF step    1       nres2   =  8.49E-08 < tolvrs=  1.00E-07 =>converged.

 Cartesian components of stress tensor (hartree/bohr^3)
  sigma(1 1)=  5.31050556E-01  sigma(3 2)=  0.00000000E+00
  sigma(2 2)=  5.31050556E-01  sigma(3 1)=  0.00000000E+00
  sigma(3 3)=  5.31050556E-01  sigma(2 1)=  0.00000000E+00


--- !ResultsGS
iteration_state: {dtset: 2, }
comment   : Summary of ground state results
rprimd    :
- [  0.0000000,   5.3415944,   5.3415944, ]
- [  5.3415944,   0.0000000,   5.3415944, ]
- [  5.3415944,   5.3415944,   0.0000000, ]
lattice_lengths: [   7.55416,    7.55416,    7.55416, ]
lattice_angles: [ 60.000,  60.000,  60.000, ]
lattice_volume:   3.0481948E+02
convergence_: {deltae: -5.00E+02, res2:  8.49E-08, residm:  7.57E-04, diffor: undef, }
etotal    :  -4.99579110E+02
entropy   :   0.00000000E+00
fermie    :   1.89931003E-01
cartesian_stress_tensor:
- [  5.31050556E-01,   0.00000000E+00,   0.00000000E+00, ]
- [  0.00000000E+00,   5.31050556E-01,   0.00000000E+00, ]
- [  0.00000000E+00,   0.00000000E+00,   5.31050556E-01, ]
pressure_GPa:  -1.5624E+04
cartesian_forces:
- [ -4.92275558E-32,  -4.92275558E-32,   1.47682667E-31, ]
- [  4.92275558E-32,   4.92275558E-32,  -1.47682667E-31, ]
force_length_stats: {min:   1.63269332E-31, max:   1.63269332E-31, mean:   1.63269332E-31, }
...

 Integrated electronic and magnetization densities in atomic spheres:
 ---------------------------------------------------------------------
 Radius=ratsph(iatom), smearing ratsm=  0.0000. mag(i)=approximate local magnetic moment.
 Atom    Radius     Total density     mag(x)      mag(y)      mag(z)
    1   1.80000       15.680582      0.000000    0.000000    0.000000
    2   1.70000       14.452289      0.000000    0.000000    0.000000
 ---------------------------------------------------------------------
 Total magnetization (spheres)       0.000000    0.000000    0.000000
 Total magnetization (exact)         0.000000    0.000000    0.000000

 PAW TEST:
 ==== Compensation charge inside spheres ============
 The following values must be close to each other ...
 Compensation charge over spherical meshes =     14.653513264718343
 Compensation charge over fine fft grid    =     14.653605158463993

 ==== Results concerning PAW augmentation regions ====

 Total pseudopotential strength Dij (hartree):
 Atom #  1 - Component up-up
   === REAL PART:
  -7.88367   1.37534   0.00000   0.00000   0.00000   0.00000  -0.00000   0.00000  -0.00000   0.00000   0.00000   0.00000 ...
   1.37534   0.13686   0.00000  -0.00000   0.00000   0.00000  -0.00000   0.00000   0.00000   0.00000   0.00000   0.00000 ...
   0.00000   0.00000  -7.08508   0.00000  -0.00000   0.72987   0.00000   0.00000   0.00000   0.00000   0.00000   0.00031 ...
   0.00000  -0.00000   0.00000  -7.08508   0.00000   0.00000   0.72987   0.00000   0.00031   0.00000   0.00000   0.00000 ...
   0.00000   0.00000  -0.00000   0.00000  -7.08508   0.00000   0.00000   0.72987   0.00000   0.00031   0.00000   0.00000 ...
   0.00000   0.00000   0.72987   0.00000   0.00000  -0.00349   0.00000   0.00000   0.00000  -0.00000   0.00000  -0.00008 ...
  -0.00000  -0.00000   0.00000   0.72987   0.00000   0.00000  -0.00349   0.00000  -0.00008   0.00000  -0.00000   0.00000 ...
   0.00000   0.00000   0.00000   0.00000   0.72987   0.00000   0.00000  -0.00349   0.00000  -0.00008   0.00000  -0.00000 ...
  -0.00000   0.00000   0.00000   0.00031   0.00000   0.00000  -0.00008   0.00000  -4.18704   0.00000   0.00000   0.00000 ...
   0.00000   0.00000   0.00000   0.00000   0.00031  -0.00000   0.00000  -0.00008   0.00000  -4.18704   0.00000  -0.00000 ...
   0.00000   0.00000   0.00000   0.00000   0.00000   0.00000  -0.00000   0.00000   0.00000   0.00000  -4.18570   0.00000 ...
   0.00000   0.00000   0.00031   0.00000   0.00000  -0.00008   0.00000  -0.00000   0.00000  -0.00000   0.00000  -4.18704 ...
   ...  only 12  components have been written...
   === IMAGINARY PART:
  -0.00000  -0.00000  -0.00000  -0.00000  -0.00000  -0.00000  -0.00000  -0.00000  -0.00000  -0.00000  -0.00000  -0.00000 ...
   0.00000  -0.00000  -0.00000  -0.00000  -0.00000  -0.00000  -0.00000  -0.00000  -0.00000  -0.00000  -0.00000  -0.00000 ...
   0.00000   0.00000  -0.00000  -0.00000  -0.04125  -0.00000  -0.00000   0.00755  -0.00000  -0.00000  -0.00000  -0.00000 ...
   0.00000   0.00000   0.00000  -0.00000  -0.00000  -0.00000  -0.00000  -0.00000  -0.00000  -0.00000  -0.00000  -0.00000 ...
   0.00000   0.00000   0.04125   0.00000  -0.00000  -0.00755  -0.00000  -0.00000  -0.00000  -0.00000  -0.00000  -0.00000 ...
   0.00000   0.00000   0.00000   0.00000   0.00755  -0.00000  -0.00000  -0.00139  -0.00000  -0.00000  -0.00000  -0.00000 ...
   0.00000   0.00000   0.00000   0.00000   0.00000   0.00000  -0.00000  -0.00000  -0.00000  -0.00000  -0.00000  -0.00000 ...
   0.00000   0.00000  -0.00755   0.00000   0.00000   0.00139   0.00000  -0.00000  -0.00000  -0.00000  -0.00000  -0.00000 ...
   0.00000   0.00000   0.00000   0.00000   0.00000   0.00000   0.00000   0.00000  -0.00000  -0.00000  -0.00000  -0.00000 ...
   0.00000   0.00000   0.00000   0.00000   0.00000   0.00000   0.00000   0.00000   0.00000  -0.00000  -0.00000  -0.00357 ...
   0.00000   0.00000   0.00000   0.00000   0.00000   0.00000   0.00000   0.00000   0.00000   0.00000  -0.00000  -0.00000 ...
   0.00000   0.00000   0.00000   0.00000   0.00000   0.00000   0.00000   0.00000   0.00000   0.00357   0.00000  -0.00000 ...
   ...  only 12  components have been written...
 Atom #  1 - Component dwn-dwn
   === REAL PART:
  -7.88367   1.37534   0.00000  -0.00000   0.00000   0.00000   0.00000   0.00000   0.00000   0.00000   0.00000   0.00000 ...
   1.37534   0.13686   0.00000   0.00000   0.00000   0.00000   0.00000   0.00000  -0.00000   0.00000   0.00000   0.00000 ...
   0.00000   0.00000  -7.08508   0.00000   0.00000   0.72987   0.00000  -0.00000   0.00000  -0.00000   0.00000   0.00031 ...
  -0.00000   0.00000   0.00000  -7.08508   0.00000   0.00000   0.72987   0.00000   0.00031   0.00000  -0.00000   0.00000 ...
   0.00000   0.00000   0.00000   0.00000  -7.08508  -0.00000   0.00000   0.72987   0.00000   0.00031   0.00000  -0.00000 ...
   0.00000   0.00000   0.72987   0.00000  -0.00000  -0.00349   0.00000  -0.00000   0.00000   0.00000   0.00000  -0.00008 ...
   0.00000   0.00000   0.00000   0.72987   0.00000   0.00000  -0.00349   0.00000  -0.00008   0.00000   0.00000   0.00000 ...
   0.00000   0.00000  -0.00000   0.00000   0.72987  -0.00000   0.00000  -0.00349   0.00000  -0.00008   0.00000   0.00000 ...
   0.00000  -0.00000   0.00000   0.00031   0.00000   0.00000  -0.00008   0.00000  -4.18704   0.00000  -0.00000   0.00000 ...
   0.00000   0.00000  -0.00000   0.00000   0.00031   0.00000   0.00000  -0.00008   0.00000  -4.18704   0.00000   0.00000 ...
   0.00000   0.00000   0.00000  -0.00000   0.00000   0.00000   0.00000   0.00000  -0.00000   0.00000  -4.18570   0.00000 ...
   0.00000   0.00000   0.00031   0.00000  -0.00000  -0.00008   0.00000   0.00000   0.00000   0.00000   0.00000  -4.18704 ...
   ...  only 12  components have been written...
   === IMAGINARY PART:
  -0.00000  -0.00000  -0.00000  -0.00000  -0.00000  -0.00000  -0.00000  -0.00000  -0.00000  -0.00000  -0.00000  -0.00000 ...
   0.00000  -0.00000  -0.00000  -0.00000  -0.00000  -0.00000  -0.00000  -0.00000  -0.00000  -0.00000  -0.00000  -0.00000 ...
   0.00000   0.00000  -0.00000  -0.00000   0.04125  -0.00000  -0.00000  -0.00755  -0.00000  -0.00000  -0.00000  -0.00000 ...
   0.00000   0.00000   0.00000  -0.00000  -0.00000  -0.00000  -0.00000  -0.00000  -0.00000  -0.00000  -0.00000  -0.00000 ...
[...]
  -0.00000   0.00000   0.00000   0.00000   0.00000   0.00000  -0.00000   0.00000   0.00000   0.00000   0.00000   0.00000 ...
   0.00000   0.00001   0.00000   0.00000   0.00000   0.00000   0.00000  -0.00000   0.00000   0.00000  -0.00026   0.00000 ...
  -0.00000  -0.00000   0.00000   0.00000  -0.00000   0.00000   0.00000   0.00001   0.00000   0.00001   0.00000  -0.00000 ...
   0.00000   0.00000  -0.00000  -0.00000   0.00000  -0.00000   0.00001   0.00000   0.00001   0.00000   0.00000  -0.00000 ...
   0.00000   0.00000   0.00000   0.00000   0.00000   0.00000   0.00000   0.00001  -0.00000   0.00005   0.00000   0.00000 ...
  -0.00000  -0.00000   0.00000   0.00000   0.00000   0.00000   0.00001   0.00000   0.00005   0.00000   0.00000   0.00000 ...
   0.00000   0.00000  -0.00001   0.00000   0.00000  -0.00026   0.00000   0.00000   0.00000   0.00000   0.00000   0.00027 ...
   0.00000   0.00001  -0.00000   0.00000   0.00000   0.00000  -0.00000  -0.00000   0.00000   0.00000   0.00027   0.00000 ...
   ...  only 12  components have been written...
   === IMAGINARY PART:
  -0.00000  -0.00000  -0.00000  -0.00000   0.00000  -0.00000   0.00000   0.00000  -0.00000  -0.00000  -0.00000   0.00000 ...
   0.00000  -0.00000  -0.00000   0.00000  -0.00000  -0.00000   0.00000  -0.00000  -0.00000  -0.00000  -0.00000   0.00000 ...
   0.00000   0.00000  -0.00000   0.00000   0.00000  -0.00000   0.00000   0.00000   0.00000   0.00000   0.00002  -0.00000 ...
   0.00000  -0.00000  -0.00000  -0.00000  -0.00005  -0.00000  -0.00000  -0.00071  -0.00000  -0.00003  -0.00000  -0.00000 ...
  -0.00000   0.00000  -0.00000   0.00005  -0.00000  -0.00000   0.00071  -0.00000   0.00003  -0.00000   0.00000  -0.00000 ...
   0.00000   0.00000   0.00000   0.00000   0.00000  -0.00000  -0.00000  -0.00000  -0.00000  -0.00000  -0.00021  -0.00000 ...
  -0.00000  -0.00000  -0.00000   0.00000  -0.00071   0.00000  -0.00000   0.00284  -0.00000   0.00001  -0.00000  -0.00000 ...
  -0.00000   0.00000  -0.00000   0.00071   0.00000   0.00000  -0.00284  -0.00000  -0.00001  -0.00000  -0.00000   0.00000 ...
   0.00000   0.00000  -0.00000   0.00000  -0.00003   0.00000   0.00000   0.00001  -0.00000  -0.00046  -0.00000  -0.00000 ...
   0.00000   0.00000  -0.00000   0.00003   0.00000   0.00000  -0.00001   0.00000   0.00046  -0.00000  -0.00000  -0.00000 ...
   0.00000   0.00000  -0.00002   0.00000  -0.00000   0.00021   0.00000   0.00000   0.00000   0.00000  -0.00000   0.00126 ...
  -0.00000  -0.00000   0.00000   0.00000   0.00000   0.00000   0.00000  -0.00000   0.00000   0.00000  -0.00126  -0.00000 ...
   ...  only 12  components have been written...
 Atom #  2 - Component magn (z)
   === REAL PART:
  -0.00000  -0.00000   0.00000   0.00000  -0.00000   0.00000   0.00000  -0.00000   0.00000   0.00000   0.00000   0.00000 ...
  -0.00000  -0.00000   0.00000   0.00000  -0.00000   0.00000   0.00001  -0.00000   0.00001   0.00000   0.00000   0.00000 ...
   0.00000   0.00000   0.00000  -0.00000   0.00000  -0.00000  -0.00000  -0.00000   0.00000   0.00000  -0.00000  -0.00000 ...
   0.00000   0.00000  -0.00000  -0.00000  -0.00000  -0.00000  -0.00000  -0.00000  -0.00000  -0.00000   0.00001   0.00000 ...
  -0.00000  -0.00000   0.00000  -0.00000   0.00000  -0.00000  -0.00000   0.00000  -0.00000   0.00000  -0.00000   0.00000 ...
   0.00000   0.00000  -0.00000  -0.00000  -0.00000   0.00000  -0.00000   0.00001  -0.00000   0.00001  -0.00000   0.00000 ...
   0.00000   0.00001  -0.00000  -0.00000  -0.00000  -0.00000  -0.00000   0.00000  -0.00000   0.00000   0.00053  -0.00000 ...
  -0.00000  -0.00000  -0.00000  -0.00000   0.00000   0.00001   0.00000  -0.00000  -0.00000   0.00000  -0.00000   0.00001 ...
   0.00000   0.00001   0.00000  -0.00000  -0.00000  -0.00000  -0.00000  -0.00000   0.00000  -0.00000  -0.00053  -0.00000 ...
   0.00000   0.00000   0.00000  -0.00000   0.00000   0.00001   0.00000   0.00000  -0.00000  -0.00000   0.00000   0.00005 ...
   0.00000   0.00000  -0.00000   0.00001  -0.00000  -0.00000   0.00053  -0.00000  -0.00053   0.00000   0.00000   0.00000 ...
   0.00000   0.00000  -0.00000   0.00000   0.00000   0.00000  -0.00000   0.00001  -0.00000   0.00005   0.00000   0.00000 ...
   ...  only 12  components have been written...
   === IMAGINARY PART:
  -0.00000  -0.00000  -0.00000  -0.00000   0.00000  -0.00000  -0.00000   0.00000   0.00000  -0.00000  -0.00000   0.00000 ...
   0.00000   0.00000   0.00000  -0.00000   0.00000   0.00000  -0.00000   0.00000   0.00000  -0.00000  -0.00000   0.00000 ...
   0.00000  -0.00000   0.00000  -0.00000   0.00005  -0.00000  -0.00000   0.00071  -0.00000   0.00003   0.00000   0.00000 ...
   0.00000   0.00000   0.00000  -0.00000  -0.00000   0.00000  -0.00000  -0.00000  -0.00000  -0.00000   0.00000   0.00000 ...
  -0.00000  -0.00000  -0.00005   0.00000  -0.00000  -0.00071   0.00000  -0.00000   0.00000   0.00000  -0.00000  -0.00003 ...
   0.00000  -0.00000   0.00000  -0.00000   0.00071  -0.00000   0.00000  -0.00284   0.00000  -0.00001  -0.00000  -0.00000 ...
   0.00000   0.00000   0.00000   0.00000  -0.00000  -0.00000  -0.00000   0.00000  -0.00000  -0.00000   0.00000  -0.00000 ...
  -0.00000  -0.00000  -0.00071   0.00000   0.00000   0.00284  -0.00000   0.00000  -0.00000  -0.00000   0.00000   0.00001 ...
  -0.00000  -0.00000   0.00000   0.00000  -0.00000  -0.00000   0.00000   0.00000   0.00000  -0.00000  -0.00000   0.00000 ...
   0.00000   0.00000  -0.00003   0.00000  -0.00000   0.00001   0.00000   0.00000   0.00000   0.00000   0.00000  -0.00046 ...
   0.00000   0.00000  -0.00000  -0.00000   0.00000   0.00000  -0.00000  -0.00000   0.00000  -0.00000  -0.00000   0.00000 ...
  -0.00000  -0.00000  -0.00000  -0.00000   0.00003   0.00000   0.00000  -0.00001  -0.00000   0.00046  -0.00000  -0.00000 ...
   ...  only 12  components have been written...


================================================================================

 ----iterations are completed or convergence reached----

 Mean square residual over all n,k,spin=   45.216E-07; max=  75.723E-05
 reduced coordinates (array xred) for    2 atoms
       0.000000000000      0.000000000000      0.000000000000
       0.250000000000      0.250000000000      0.250000000000
 rms dE/dt=  7.4375E-31; max dE/dt=  1.0518E-30; dE/dt below (all hartree)
    1       0.000000000000      0.000000000000      0.000000000000
    2       0.000000000000      0.000000000000     -0.000000000000

 cartesian coordinates (angstrom) at end:
    1      0.00000000000000     0.00000000000000     0.00000000000000
    2      1.41332500000000     1.41332500000000     1.41332500000000

 cartesian forces (hartree/bohr) at end:
    1     -0.00000000000000    -0.00000000000000     0.00000000000000
    2      0.00000000000000     0.00000000000000    -0.00000000000000
 frms,max,avg= 9.4263593E-32 1.4768267E-31   0.000E+00  0.000E+00  0.000E+00 h/b

 cartesian forces (eV/Angstrom) at end:
    1     -0.00000000000000    -0.00000000000000     0.00000000000000
    2      0.00000000000000     0.00000000000000    -0.00000000000000
 frms,max,avg= 4.8472284E-30 7.5941475E-30   0.000E+00  0.000E+00  0.000E+00 e/A
 length scales= 10.683188747042 10.683188747042 10.683188747042 bohr
              =  5.653300000000  5.653300000000  5.653300000000 angstroms
 prteigrs : about to open file t28_MPI4o_DS2_EIG
 Fermi (or HOMO) energy (hartree) =   0.18993   Average Vxc (hartree)=  -0.45677
 Eigenvalues (hartree) for nkpt=   4  k points:
 kpt#   1, nband= 50, wtk=  0.12500, kpt= -0.2500  0.0000  0.0000 (reduced coord)
 -13.67552  -13.67552   -9.70626   -9.70625   -9.60421   -9.60419   -9.52422   -9.52421
  -9.06201   -9.06201   -6.49370   -6.49370   -6.41020   -6.41019   -6.33838   -6.33838
  -1.23311   -1.23311   -1.06026   -1.06013   -1.05900   -1.05899   -0.78284   -0.78282
  -0.51268   -0.51268   -0.51119   -0.51086   -0.46169   -0.46168   -0.38982   -0.38981
  -0.38666   -0.38647   -0.28979   -0.28977    0.07987    0.07987    0.08136    0.08151
   0.11155    0.11157    0.18978    0.18993    0.18994    0.19000    0.30109    0.30135
   0.30151    0.32214
 prteigrs : prtvol=0 or 1, do not print more k-points.


--- !EnergyTerms
iteration_state     : {dtset: 2, }
comment             : Components of total free energy in Hartree
kinetic             :  6.13121355729208E+01
hartree             :  8.90897449474932E+01
xc                  : -2.89815090536523E+01
Ewald energy        : -2.44402045240619E+02
psp_core            :  1.02891928272786E+01
local_psp           : -3.06584558493858E+02
spherical_terms     : -8.03017635073383E+01
total_energy        : -4.99578802947775E+02
total_energy_eV     : -1.35942305753312E+04
...


--- !EnergyTermsDC
iteration_state     : {dtset: 2, }
comment             : '"Double-counting" decomposition of free energy'
band_energy         : -1.55896085194775E+02
Ewald energy        : -2.44402045240619E+02
psp_core            :  1.02891928272786E+01
xc_dc               : -8.00258736204291E+01
spherical_terms     : -2.95442990006391E+01
total_energy_dc     : -4.99579110229184E+02
total_energy_dc_eV  : -1.35942305753312E+04
...


 Cartesian components of stress tensor (hartree/bohr^3)
  sigma(1 1)=  5.31050556E-01  sigma(3 2)=  0.00000000E+00
  sigma(2 2)=  5.31050556E-01  sigma(3 1)=  0.00000000E+00
  sigma(3 3)=  5.31050556E-01  sigma(2 1)=  0.00000000E+00

-Cartesian components of stress tensor (GPa)         [Pressure= -1.5624E+04 GPa]
- sigma(1 1)=  1.56240441E+04  sigma(3 2)=  0.00000000E+00
- sigma(2 2)=  1.56240441E+04  sigma(3 1)=  0.00000000E+00
- sigma(3 3)=  1.56240441E+04  sigma(2 1)=  0.00000000E+00

== END DATASET(S) ==============================================================
================================================================================
  
 -outvars: echo values of variables after computation  --------
-          iomode           1
            acell      1.0683188747E+01  1.0683188747E+01  1.0683188747E+01 Bohr
              amu      6.97230000E+01  7.49215900E+01
     densfor_pred           6
           diemac      8.00000000E+00
             ecut      5.00000000E+00 Hartree
           etotal1    -4.9957911023E+02
           etotal2    -4.9957911023E+02
            fcart1    -1.9691022319E-31 -1.9691022319E-31  5.9073066958E-31
                       1.9691022319E-31  1.9691022319E-31 -5.9073066958E-31
            fcart2    -4.9227555798E-32 -4.9227555798E-32  1.4768266739E-31
                       4.9227555798E-32  4.9227555798E-32 -1.4768266739E-31
-          fftalg         312
           getwfk1          0
           getwfk2         -1
           iatsph1       1    2
           iatsph2       1    2
              ixc           7
           jdtset        1    2
              kpt     -2.50000000E-01  0.00000000E+00  0.00000000E+00
                      -2.50000000E-01  0.00000000E+00  5.00000000E-01
                       5.00000000E-01  0.00000000E+00  2.50000000E-01
                       2.50000000E-01  0.00000000E+00  0.00000000E+00
           kptopt           4
         kptrlatt        2    2   -2     -2    2   -2     -2    2    2
          kptrlen      2.13663775E+01
P           mkmem1          2
P           mkmem2          4
            natom           2
           natsph1       2
           natsph2       2
            nband          50
           ndtset           2
            ngfft          16      16      16
          ngfftdg          24      24      24
             nkpt           4
-           npfft           2
-           npkpt1          2
-           npkpt2          1
-        npspinor1          1
-        npspinor2          2
           nspden           4
          nspinor           2
            nstep          20
             nsym          12
           ntypat           2
              occ      1.000000  1.000000  1.000000  1.000000  1.000000  1.000000
                       1.000000  1.000000  1.000000  1.000000  1.000000  1.000000
                       1.000000  1.000000  1.000000  1.000000  1.000000  1.000000
                       1.000000  1.000000  1.000000  1.000000  1.000000  1.000000
                       1.000000  1.000000  1.000000  1.000000  1.000000  1.000000
                       1.000000  1.000000  1.000000  1.000000  1.000000  1.000000
                       1.000000  1.000000  1.000000  1.000000  1.000000  1.000000
                       1.000000  1.000000  0.000000  0.000000  0.000000  0.000000
                       0.000000  0.000000
        paral_kgb           1
        pawcpxocc           2
        pawecutdg      1.00000000E+01 Hartree
         pawmixdg           1
        pawspnorb           1
           prtdos           3
           prtpot           1
         prtvclmb           1
           prtvha           1
          prtvhxc           1
          prtvpsp           1
           prtvxc           1
            rprim      0.0000000000E+00  5.0000000000E-01  5.0000000000E-01
                       5.0000000000E-01  0.0000000000E+00  5.0000000000E-01
                       5.0000000000E-01  5.0000000000E-01  0.0000000000E+00
           shiftk      5.00000000E-01  5.00000000E-01  5.00000000E-01
          spgroup         196
           strten1     5.3104963581E-01  5.3104963581E-01  5.3104963581E-01
                       0.0000000000E+00  0.0000000000E+00  0.0000000000E+00
           strten2     5.3105055577E-01  5.3105055577E-01  5.3105055577E-01
                       0.0000000000E+00  0.0000000000E+00  0.0000000000E+00
           symrel      1  0  0   0  1  0   0  0  1       0 -1  1   0 -1  0   1 -1  0
                      -1  0  0  -1  0  1  -1  1  0       0  1 -1   1  0 -1   0  0 -1
                      -1  0  1  -1  1  0  -1  0  0       0 -1  0   1 -1  0   0 -1  1
                       1  0 -1   0  0 -1   0  1 -1       0  1  0   0  0  1   1  0  0
                       0  0 -1   0  1 -1   1  0 -1       1 -1  0   0 -1  1   0 -1  0
                       0  0  1   1  0  0   0  1  0      -1  1  0  -1  0  0  -1  0  1
           tolvrs      1.00000000E-07
            typat      1  2
           useylm           1
         wfoptalg         114
              wtk        0.12500    0.37500    0.37500    0.12500
           xangst      0.0000000000E+00  0.0000000000E+00  0.0000000000E+00
                       1.4133250000E+00  1.4133250000E+00  1.4133250000E+00
            xcart      0.0000000000E+00  0.0000000000E+00  0.0000000000E+00
                       2.6707971868E+00  2.6707971868E+00  2.6707971868E+00
             xred      0.0000000000E+00  0.0000000000E+00  0.0000000000E+00
                       2.5000000000E-01  2.5000000000E-01  2.5000000000E-01
            znucl       31.00000   33.00000

================================================================================


- Timing analysis has been suppressed with timopt=0



================================================================================

 Suggested references for the acknowledgment of ABINIT usage.

 The users of ABINIT have little formal obligations with respect to the ABINIT group
 (those specified in the GNU General Public License, http://www.gnu.org/copyleft/gpl.txt).
 However, it is common practice in the scientific literature,
 to acknowledge the efforts of people that have made the research possible.
 In this spirit, please find below suggested citations of work written by ABINIT developers,
 corresponding to implementations inside of ABINIT that you have used in the present run.
 Note also that it will be of great value to readers of publications presenting these results,
 to read papers enabling them to understand the theoretical formalism and details
 of the ABINIT implementation.
 For information on why they are suggested, see also https://docs.abinit.org/theory/acknowledgments.
-
- [1] Implementation of the Projector Augmented-Wave Method in the ABINIT code.
- M. Torrent, F. Jollet, F. Bottin, G. Zerah, and X. Gonze Comput. Mat. Science 42, 337, (2008).
- Comment: PAW calculations. Strong suggestion to cite this paper.
- DOI and bibtex: see https://docs.abinit.org/theory/bibliography/#torrent2008
-
- [2] Large scale ab initio calculations based on three levels of parallelization
- F. Bottin, S. Leroux, A. Knyazev, G. Zerah, Comput. Mat. Science 42, 329, (2008).
- Comment: in case LOBPCG algorithm is used (wfoptalg=4/14/114).
- Strong suggestion to cite this paper in your publications.
- This paper is also available at http://www.arxiv.org/abs/0707.3405
- DOI and bibtex: see https://docs.abinit.org/theory/bibliography/#bottin2008
-
- [3] The Abinit project: Impact, environment and recent developments.
- Computer Phys. Comm. 248, 107042 (2020).
- X.Gonze, B. Amadon, G. Antonius, F.Arnardi, L.Baguet, J.-M.Beuken,
- J.Bieder, F.Bottin, J.Bouchet, E.Bousquet, N.Brouwer, F.Bruneval,
- G.Brunin, T.Cavignac, J.-B. Charraud, Wei Chen, M.Cote, S.Cottenier,
- J.Denier, G.Geneste, Ph.Ghosez, M.Giantomassi, Y.Gillet, O.Gingras,
- D.R.Hamann, G.Hautier, Xu He, N.Helbig, N.Holzwarth, Y.Jia, F.Jollet,
- W.Lafargue-Dit-Hauret, K.Lejaeghere, M.A.L.Marques, A.Martin, C.Martins,
- H.P.C. Miranda, F.Naccarato, K. Persson, G.Petretto, V.Planes, Y.Pouillon,
- S.Prokhorenko, F.Ricci, G.-M.Rignanese, A.H.Romero, M.M.Schmitt, M.Torrent,
- M.J.van Setten, B.Van Troeye, M.J.Verstraete, G.Zerah and J.W.Zwanzig
- Comment: the fifth generic paper describing the ABINIT project.
- Note that a version of this paper, that is not formatted for Computer Phys. Comm. 
- is available at https://www.abinit.org/sites/default/files/ABINIT20.pdf .
- The licence allows the authors to put it on the Web.
- DOI and bibtex: see https://docs.abinit.org/theory/bibliography/#gonze2020
-
- [4] Recent developments in the ABINIT software package.
- Computer Phys. Comm. 205, 106 (2016).
- X.Gonze, F.Jollet, F.Abreu Araujo, D.Adams, B.Amadon, T.Applencourt,
- C.Audouze, J.-M.Beuken, J.Bieder, A.Bokhanchuk, E.Bousquet, F.Bruneval
- D.Caliste, M.Cote, F.Dahm, F.Da Pieve, M.Delaveau, M.Di Gennaro,
- B.Dorado, C.Espejo, G.Geneste, L.Genovese, A.Gerossier, M.Giantomassi,
- Y.Gillet, D.R.Hamann, L.He, G.Jomard, J.Laflamme Janssen, S.Le Roux,
- A.Levitt, A.Lherbier, F.Liu, I.Lukacevic, A.Martin, C.Martins,
- M.J.T.Oliveira, S.Ponce, Y.Pouillon, T.Rangel, G.-M.Rignanese,
- A.H.Romero, B.Rousseau, O.Rubel, A.A.Shukri, M.Stankovski, M.Torrent,
- M.J.Van Setten, B.Van Troeye, M.J.Verstraete, D.Waroquier, J.Wiktor,
- B.Xu, A.Zhou, J.W.Zwanziger.
- Comment: the fourth generic paper describing the ABINIT project.
- Note that a version of this paper, that is not formatted for Computer Phys. Comm. 
- is available at https://www.abinit.org/sites/default/files/ABINIT16.pdf .
- The licence allows the authors to put it on the Web.
- DOI and bibtex: see https://docs.abinit.org/theory/bibliography/#gonze2016
-
- [5] ABINIT: First-principles approach of materials and nanosystem properties.
- Computer Phys. Comm. 180, 2582-2615 (2009).
- X. Gonze, B. Amadon, P.-M. Anglade, J.-M. Beuken, F. Bottin, P. Boulanger, F. Bruneval,
- D. Caliste, R. Caracas, M. Cote, T. Deutsch, L. Genovese, Ph. Ghosez, M. Giantomassi
- S. Goedecker, D.R. Hamann, P. Hermet, F. Jollet, G. Jomard, S. Leroux, M. Mancini, S. Mazevet,
- M.J.T. Oliveira, G. Onida, Y. Pouillon, T. Rangel, G.-M. Rignanese, D. Sangalli, R. Shaltaf,
- M. Torrent, M.J. Verstraete, G. Zerah, J.W. Zwanziger
- Comment: the third generic paper describing the ABINIT project.
- Note that a version of this paper, that is not formatted for Computer Phys. Comm. 
- is available at https://www.abinit.org/sites/default/files/ABINIT_CPC_v10.pdf .
- The licence allows the authors to put it on the Web.
- DOI and bibtex: see https://docs.abinit.org/theory/bibliography/#gonze2009
-
- Proc.   0 individual time (sec): cpu=         12.1  wall=         12.5

================================================================================

 Calculation completed.
.Delivered   0 WARNINGs and   4 COMMENTs to log file.
+Overall time at end (sec) : cpu=         48.8  wall=         49.8
