
.Version 8.3.1 of ABINIT 
.(MPI version, prepared for a x86_64_linux_gnu5.3 computer) 

.Copyright (C) 1998-2018 ABINIT group . 
 ABINIT comes with ABSOLUTELY NO WARRANTY.
 It is free software, and you are welcome to redistribute it
 under certain conditions (GNU General Public License,
 see ~abinit/COPYING or http://www.gnu.org/copyleft/gpl.txt).

 ABINIT is a project of the Universite Catholique de Louvain,
 Corning Inc. and other collaborators, see ~abinit/doc/developers/contributors.txt .
 Please read ~abinit/doc/users/acknowledgments.html for suggested
 acknowledgments of the ABINIT effort.
 For more information, see https://www.abinit.org .

.Starting date : Wed  1 Mar 2017.
- ( at 13h27 )
  
- input  file    -> t49.in
- output file    -> t49_MPI4.out
- root for input  files -> t49_MPI4i
- root for output files -> t49_MPI4o


 DATASET    1 : space group R-3 m (#166); Bravais hR (rhombohedral)
================================================================================
 Values of the parameters that define the memory need for DATASET  1.
     intxc =       0    ionmov =       0      iscf =       7    lmnmax =       4
     lnmax =       4     mgfft =      16  mpssoang =       3    mqgrid =    3001
     natom =       2  nloc_mem =       1    nspden =       1   nspinor =       1
    nsppol =       1      nsym =      12    n1xccc =       0    ntypat =       1
    occopt =       7   xclevel =       1
-    mband =           8        mffmem =           1         mkmem =           1
       mpw =          41          nfft =        2048          nkpt =           1
================================================================================
P This job should need less than                       1.954 Mbytes of memory.
  Rough estimation (10% accuracy) of disk space for files :
_ WF disk file :      0.012 Mbytes ; DEN or POT disk file :      0.018 Mbytes.
================================================================================


 DATASET    2 : space group R-3 m (#166); Bravais hR (rhombohedral)
================================================================================
 Values of the parameters that define the memory need for DATASET  2.
     intxc =       0    ionmov =       0      iscf =       7    lmnmax =       4
     lnmax =       4     mgfft =      16  mpssoang =       3    mqgrid =    3001
     natom =       2  nloc_mem =       1    nspden =       1   nspinor =       1
    nsppol =       1      nsym =      12    n1xccc =       0    ntypat =       1
    occopt =       7   xclevel =       1
-    mband =           8        mffmem =           1         mkmem =           1
       mpw =          41          nfft =        2048          nkpt =           1
================================================================================
P This job should need less than                       1.954 Mbytes of memory.
  Rough estimation (10% accuracy) of disk space for files :
_ WF disk file :      0.012 Mbytes ; DEN or POT disk file :      0.018 Mbytes.
================================================================================

--------------------------------------------------------------------------------
------------- Echo of variables that govern the present computation ------------
--------------------------------------------------------------------------------
-
- outvars: echo of selected default values                                      
-   iomode0 =  0 , fftalg0 =312 , wfoptalg0 =  0
-
- outvars: echo of global parameters not present in the input file              
-  max_nthreads =    0
-
 -outvars: echo values of preprocessed input variables --------
-          iomode           1
            acell      1.0366000000E+01  1.0366000000E+01  1.0366000000E+01 Bohr
              amu      2.80855000E+01
     densfor_pred           6
           diemac      1.20000000E+01
             ecut      5.00000000E+00 Hartree
           enunit           2
-          fftalg         312
           getden1          0
           getden2         -1
           getwfk1          0
           getwfk2         -1
           istwfk        1
              ixc           3
           jdtset        1    2
         kptrlatt        1    0    0      0    1    0      0    0    1
          kptrlen      7.32986889E+00
P           mkmem           1
            natom           2
            nband           8
           ndtset           2
            ngfft          16      16      16
             nkpt           1
-          npband           2
-           npfft           2
            nstep           4
             nsym          12
           ntypat           1
              occ      2.000000  2.000000  2.000000  2.000000  0.000000  0.000000
                       0.000000  0.000000
           occopt           7
           ortalg          -2
        paral_kgb           1
            rprim      0.0000000000E+00  5.0000000000E-01  5.0000000000E-01
                       5.0000000000E-01  0.0000000000E+00  5.0000000000E-01
                       5.0000000000E-01  5.0000000000E-01  0.0000000000E+00
          spgroup         166
           symrel      1  0  0   0  1  0   0  0  1      -1  0  0   0 -1  0   0  0 -1
                       1  0  0   0  0  1   0  1  0      -1  0  0   0  0 -1   0 -1  0
                       0  1  0   0  0  1   1  0  0       0 -1  0   0  0 -1  -1  0  0
                       0  1  0   1  0  0   0  0  1       0 -1  0  -1  0  0   0  0 -1
                       0  0  1   1  0  0   0  1  0       0  0 -1  -1  0  0   0 -1  0
                       0  0  1   0  1  0   1  0  0       0  0 -1   0 -1  0  -1  0  0
           timopt          -1
            tnons      0.0000000  0.0000000  0.0000000     0.2200000  0.2200000  0.2200000
                       0.0000000  0.0000000  0.0000000     0.2200000  0.2200000  0.2200000
                       0.0000000  0.0000000  0.0000000     0.2200000  0.2200000  0.2200000
                       0.0000000  0.0000000  0.0000000     0.2200000  0.2200000  0.2200000
                       0.0000000  0.0000000  0.0000000     0.2200000  0.2200000  0.2200000
                       0.0000000  0.0000000  0.0000000     0.2200000  0.2200000  0.2200000
           toldfe      1.00000000E-10 Hartree
           tsmear      1.00000000E-03 Hartree
            typat      1  1
         wfoptalg         114
           xangst      0.0000000000E+00  0.0000000000E+00  0.0000000000E+00
                       1.2067992077E+00  1.2067992077E+00  1.2067992077E+00
            xcart      0.0000000000E+00  0.0000000000E+00  0.0000000000E+00
                       2.2805200000E+00  2.2805200000E+00  2.2805200000E+00
             xred      0.0000000000E+00  0.0000000000E+00  0.0000000000E+00
                       2.2000000000E-01  2.2000000000E-01  2.2000000000E-01
            znucl       14.00000

================================================================================

 chkinp: Checking input parameters for consistency, jdtset=   1.

 chkinp: WARNING -
   Chksymbreak=1 . Found potentially symmetry-breaking value of tnons, 
   which is neither a rational fraction in 1/8th nor in 1/12th :
   for the symmetry number    2
   symrel is  -1  0  0  0 -1  0  0  0 -1
   tnons is     2.200000E-01    2.200000E-01    2.200000E-01
   Please, read the description of the input variable chksymbreak,
   then, if you feel confident, you might switch it to zero, or consult with the forum.

 chkinp: WARNING -
   Chksymbreak=1 . Found potentially symmetry-breaking value of tnons, 
   which is neither a rational fraction in 1/8th nor in 1/12th :
   for the symmetry number    2
   symrel is  -1  0  0  0 -1  0  0  0 -1
   tnons is     2.200000E-01    2.200000E-01    2.200000E-01
   Please, read the description of the input variable chksymbreak,
   then, if you feel confident, you might switch it to zero, or consult with the forum.

 chkinp: WARNING -
   Chksymbreak=1 . Found potentially symmetry-breaking value of tnons, 
   which is neither a rational fraction in 1/8th nor in 1/12th :
   for the symmetry number    2
   symrel is  -1  0  0  0 -1  0  0  0 -1
   tnons is     2.200000E-01    2.200000E-01    2.200000E-01
   Please, read the description of the input variable chksymbreak,
   then, if you feel confident, you might switch it to zero, or consult with the forum.

 chkinp: WARNING -
   Chksymbreak=1 . Found potentially symmetry-breaking value of tnons, 
   which is neither a rational fraction in 1/8th nor in 1/12th :
   for the symmetry number    4
   symrel is  -1  0  0  0  0 -1  0 -1  0
   tnons is     2.200000E-01    2.200000E-01    2.200000E-01
   Please, read the description of the input variable chksymbreak,
   then, if you feel confident, you might switch it to zero, or consult with the forum.

 chkinp: WARNING -
   Chksymbreak=1 . Found potentially symmetry-breaking value of tnons, 
   which is neither a rational fraction in 1/8th nor in 1/12th :
   for the symmetry number    4
   symrel is  -1  0  0  0  0 -1  0 -1  0
   tnons is     2.200000E-01    2.200000E-01    2.200000E-01
   Please, read the description of the input variable chksymbreak,
   then, if you feel confident, you might switch it to zero, or consult with the forum.

 chkinp: WARNING -
   Chksymbreak=1 . Found potentially symmetry-breaking value of tnons, 
   which is neither a rational fraction in 1/8th nor in 1/12th :
   for the symmetry number    4
   symrel is  -1  0  0  0  0 -1  0 -1  0
   tnons is     2.200000E-01    2.200000E-01    2.200000E-01
   Please, read the description of the input variable chksymbreak,
   then, if you feel confident, you might switch it to zero, or consult with the forum.

 chkinp: WARNING -
   Chksymbreak=1 . Found potentially symmetry-breaking value of tnons, 
   which is neither a rational fraction in 1/8th nor in 1/12th :
   for the symmetry number    6
   symrel is   0 -1  0  0  0 -1 -1  0  0
   tnons is     2.200000E-01    2.200000E-01    2.200000E-01
   Please, read the description of the input variable chksymbreak,
   then, if you feel confident, you might switch it to zero, or consult with the forum.

 chkinp: WARNING -
   Chksymbreak=1 . Found potentially symmetry-breaking value of tnons, 
   which is neither a rational fraction in 1/8th nor in 1/12th :
   for the symmetry number    6
   symrel is   0 -1  0  0  0 -1 -1  0  0
   tnons is     2.200000E-01    2.200000E-01    2.200000E-01
   Please, read the description of the input variable chksymbreak,
   then, if you feel confident, you might switch it to zero, or consult with the forum.

 chkinp: WARNING -
   Chksymbreak=1 . Found potentially symmetry-breaking value of tnons, 
   which is neither a rational fraction in 1/8th nor in 1/12th :
   for the symmetry number    6
   symrel is   0 -1  0  0  0 -1 -1  0  0
   tnons is     2.200000E-01    2.200000E-01    2.200000E-01
   Please, read the description of the input variable chksymbreak,
   then, if you feel confident, you might switch it to zero, or consult with the forum.

 chkinp: WARNING -
   Chksymbreak=1 . Found potentially symmetry-breaking value of tnons, 
   which is neither a rational fraction in 1/8th nor in 1/12th :
   for the symmetry number    8
   symrel is   0 -1  0 -1  0  0  0  0 -1
   tnons is     2.200000E-01    2.200000E-01    2.200000E-01
   Please, read the description of the input variable chksymbreak,
   then, if you feel confident, you might switch it to zero, or consult with the forum.

 chkinp: WARNING -
   Chksymbreak=1 . Found potentially symmetry-breaking value of tnons, 
   which is neither a rational fraction in 1/8th nor in 1/12th :
   for the symmetry number    8
   symrel is   0 -1  0 -1  0  0  0  0 -1
   tnons is     2.200000E-01    2.200000E-01    2.200000E-01
   Please, read the description of the input variable chksymbreak,
   then, if you feel confident, you might switch it to zero, or consult with the forum.

 chkinp: WARNING -
   Chksymbreak=1 . Found potentially symmetry-breaking value of tnons, 
   which is neither a rational fraction in 1/8th nor in 1/12th :
   for the symmetry number    8
   symrel is   0 -1  0 -1  0  0  0  0 -1
   tnons is     2.200000E-01    2.200000E-01    2.200000E-01
   Please, read the description of the input variable chksymbreak,
   then, if you feel confident, you might switch it to zero, or consult with the forum.

 chkinp: WARNING -
   Chksymbreak=1 . Found potentially symmetry-breaking value of tnons, 
   which is neither a rational fraction in 1/8th nor in 1/12th :
   for the symmetry number   10
   symrel is   0  0 -1 -1  0  0  0 -1  0
   tnons is     2.200000E-01    2.200000E-01    2.200000E-01
   Please, read the description of the input variable chksymbreak,
   then, if you feel confident, you might switch it to zero, or consult with the forum.

 chkinp: WARNING -
   Chksymbreak=1 . Found potentially symmetry-breaking value of tnons, 
   which is neither a rational fraction in 1/8th nor in 1/12th :
   for the symmetry number   10
   symrel is   0  0 -1 -1  0  0  0 -1  0
   tnons is     2.200000E-01    2.200000E-01    2.200000E-01
   Please, read the description of the input variable chksymbreak,
   then, if you feel confident, you might switch it to zero, or consult with the forum.

 chkinp: WARNING -
   Chksymbreak=1 . Found potentially symmetry-breaking value of tnons, 
   which is neither a rational fraction in 1/8th nor in 1/12th :
   for the symmetry number   10
   symrel is   0  0 -1 -1  0  0  0 -1  0
   tnons is     2.200000E-01    2.200000E-01    2.200000E-01
   Please, read the description of the input variable chksymbreak,
   then, if you feel confident, you might switch it to zero, or consult with the forum.

 chkinp: WARNING -
   Chksymbreak=1 . Found potentially symmetry-breaking value of tnons, 
   which is neither a rational fraction in 1/8th nor in 1/12th :
   for the symmetry number   12
   symrel is   0  0 -1  0 -1  0 -1  0  0
   tnons is     2.200000E-01    2.200000E-01    2.200000E-01
   Please, read the description of the input variable chksymbreak,
   then, if you feel confident, you might switch it to zero, or consult with the forum.

 chkinp: WARNING -
   Chksymbreak=1 . Found potentially symmetry-breaking value of tnons, 
   which is neither a rational fraction in 1/8th nor in 1/12th :
   for the symmetry number   12
   symrel is   0  0 -1  0 -1  0 -1  0  0
   tnons is     2.200000E-01    2.200000E-01    2.200000E-01
   Please, read the description of the input variable chksymbreak,
   then, if you feel confident, you might switch it to zero, or consult with the forum.

 chkinp: WARNING -
   Chksymbreak=1 . Found potentially symmetry-breaking value of tnons, 
   which is neither a rational fraction in 1/8th nor in 1/12th :
   for the symmetry number   12
   symrel is   0  0 -1  0 -1  0 -1  0  0
   tnons is     2.200000E-01    2.200000E-01    2.200000E-01
   Please, read the description of the input variable chksymbreak,
   then, if you feel confident, you might switch it to zero, or consult with the forum.

 chkinp: Checking input parameters for consistency, jdtset=   2.

 chkinp: WARNING -
   Chksymbreak=1 . Found potentially symmetry-breaking value of tnons, 
   which is neither a rational fraction in 1/8th nor in 1/12th :
   for the symmetry number    2
   symrel is  -1  0  0  0 -1  0  0  0 -1
   tnons is     2.200000E-01    2.200000E-01    2.200000E-01
   Please, read the description of the input variable chksymbreak,
   then, if you feel confident, you might switch it to zero, or consult with the forum.

 chkinp: WARNING -
   Chksymbreak=1 . Found potentially symmetry-breaking value of tnons, 
   which is neither a rational fraction in 1/8th nor in 1/12th :
   for the symmetry number    2
   symrel is  -1  0  0  0 -1  0  0  0 -1
   tnons is     2.200000E-01    2.200000E-01    2.200000E-01
   Please, read the description of the input variable chksymbreak,
   then, if you feel confident, you might switch it to zero, or consult with the forum.

 chkinp: WARNING -
   Chksymbreak=1 . Found potentially symmetry-breaking value of tnons, 
   which is neither a rational fraction in 1/8th nor in 1/12th :
   for the symmetry number    2
   symrel is  -1  0  0  0 -1  0  0  0 -1
   tnons is     2.200000E-01    2.200000E-01    2.200000E-01
   Please, read the description of the input variable chksymbreak,
   then, if you feel confident, you might switch it to zero, or consult with the forum.

 chkinp: WARNING -
   Chksymbreak=1 . Found potentially symmetry-breaking value of tnons, 
   which is neither a rational fraction in 1/8th nor in 1/12th :
   for the symmetry number    4
   symrel is  -1  0  0  0  0 -1  0 -1  0
   tnons is     2.200000E-01    2.200000E-01    2.200000E-01
   Please, read the description of the input variable chksymbreak,
   then, if you feel confident, you might switch it to zero, or consult with the forum.

 chkinp: WARNING -
   Chksymbreak=1 . Found potentially symmetry-breaking value of tnons, 
   which is neither a rational fraction in 1/8th nor in 1/12th :
   for the symmetry number    4
   symrel is  -1  0  0  0  0 -1  0 -1  0
   tnons is     2.200000E-01    2.200000E-01    2.200000E-01
   Please, read the description of the input variable chksymbreak,
   then, if you feel confident, you might switch it to zero, or consult with the forum.

 chkinp: WARNING -
   Chksymbreak=1 . Found potentially symmetry-breaking value of tnons, 
   which is neither a rational fraction in 1/8th nor in 1/12th :
   for the symmetry number    4
   symrel is  -1  0  0  0  0 -1  0 -1  0
   tnons is     2.200000E-01    2.200000E-01    2.200000E-01
   Please, read the description of the input variable chksymbreak,
   then, if you feel confident, you might switch it to zero, or consult with the forum.

 chkinp: WARNING -
   Chksymbreak=1 . Found potentially symmetry-breaking value of tnons, 
   which is neither a rational fraction in 1/8th nor in 1/12th :
   for the symmetry number    6
   symrel is   0 -1  0  0  0 -1 -1  0  0
   tnons is     2.200000E-01    2.200000E-01    2.200000E-01
   Please, read the description of the input variable chksymbreak,
   then, if you feel confident, you might switch it to zero, or consult with the forum.

 chkinp: WARNING -
   Chksymbreak=1 . Found potentially symmetry-breaking value of tnons, 
   which is neither a rational fraction in 1/8th nor in 1/12th :
   for the symmetry number    6
   symrel is   0 -1  0  0  0 -1 -1  0  0
   tnons is     2.200000E-01    2.200000E-01    2.200000E-01
   Please, read the description of the input variable chksymbreak,
   then, if you feel confident, you might switch it to zero, or consult with the forum.

 chkinp: WARNING -
   Chksymbreak=1 . Found potentially symmetry-breaking value of tnons, 
   which is neither a rational fraction in 1/8th nor in 1/12th :
   for the symmetry number    6
   symrel is   0 -1  0  0  0 -1 -1  0  0
   tnons is     2.200000E-01    2.200000E-01    2.200000E-01
   Please, read the description of the input variable chksymbreak,
   then, if you feel confident, you might switch it to zero, or consult with the forum.

 chkinp: WARNING -
   Chksymbreak=1 . Found potentially symmetry-breaking value of tnons, 
   which is neither a rational fraction in 1/8th nor in 1/12th :
   for the symmetry number    8
   symrel is   0 -1  0 -1  0  0  0  0 -1
   tnons is     2.200000E-01    2.200000E-01    2.200000E-01
   Please, read the description of the input variable chksymbreak,
   then, if you feel confident, you might switch it to zero, or consult with the forum.

 chkinp: WARNING -
   Chksymbreak=1 . Found potentially symmetry-breaking value of tnons, 
   which is neither a rational fraction in 1/8th nor in 1/12th :
   for the symmetry number    8
   symrel is   0 -1  0 -1  0  0  0  0 -1
   tnons is     2.200000E-01    2.200000E-01    2.200000E-01
   Please, read the description of the input variable chksymbreak,
   then, if you feel confident, you might switch it to zero, or consult with the forum.

 chkinp: WARNING -
   Chksymbreak=1 . Found potentially symmetry-breaking value of tnons, 
   which is neither a rational fraction in 1/8th nor in 1/12th :
   for the symmetry number    8
   symrel is   0 -1  0 -1  0  0  0  0 -1
   tnons is     2.200000E-01    2.200000E-01    2.200000E-01
   Please, read the description of the input variable chksymbreak,
   then, if you feel confident, you might switch it to zero, or consult with the forum.

 chkinp: WARNING -
   Chksymbreak=1 . Found potentially symmetry-breaking value of tnons, 
   which is neither a rational fraction in 1/8th nor in 1/12th :
   for the symmetry number   10
   symrel is   0  0 -1 -1  0  0  0 -1  0
   tnons is     2.200000E-01    2.200000E-01    2.200000E-01
   Please, read the description of the input variable chksymbreak,
   then, if you feel confident, you might switch it to zero, or consult with the forum.

 chkinp: WARNING -
   Chksymbreak=1 . Found potentially symmetry-breaking value of tnons, 
   which is neither a rational fraction in 1/8th nor in 1/12th :
   for the symmetry number   10
   symrel is   0  0 -1 -1  0  0  0 -1  0
   tnons is     2.200000E-01    2.200000E-01    2.200000E-01
   Please, read the description of the input variable chksymbreak,
   then, if you feel confident, you might switch it to zero, or consult with the forum.

 chkinp: WARNING -
   Chksymbreak=1 . Found potentially symmetry-breaking value of tnons, 
   which is neither a rational fraction in 1/8th nor in 1/12th :
   for the symmetry number   10
   symrel is   0  0 -1 -1  0  0  0 -1  0
   tnons is     2.200000E-01    2.200000E-01    2.200000E-01
   Please, read the description of the input variable chksymbreak,
   then, if you feel confident, you might switch it to zero, or consult with the forum.

 chkinp: WARNING -
   Chksymbreak=1 . Found potentially symmetry-breaking value of tnons, 
   which is neither a rational fraction in 1/8th nor in 1/12th :
   for the symmetry number   12
   symrel is   0  0 -1  0 -1  0 -1  0  0
   tnons is     2.200000E-01    2.200000E-01    2.200000E-01
   Please, read the description of the input variable chksymbreak,
   then, if you feel confident, you might switch it to zero, or consult with the forum.

 chkinp: WARNING -
   Chksymbreak=1 . Found potentially symmetry-breaking value of tnons, 
   which is neither a rational fraction in 1/8th nor in 1/12th :
   for the symmetry number   12
   symrel is   0  0 -1  0 -1  0 -1  0  0
   tnons is     2.200000E-01    2.200000E-01    2.200000E-01
   Please, read the description of the input variable chksymbreak,
   then, if you feel confident, you might switch it to zero, or consult with the forum.

 chkinp: WARNING -
   Chksymbreak=1 . Found potentially symmetry-breaking value of tnons, 
   which is neither a rational fraction in 1/8th nor in 1/12th :
   for the symmetry number   12
   symrel is   0  0 -1  0 -1  0 -1  0  0
   tnons is     2.200000E-01    2.200000E-01    2.200000E-01
   Please, read the description of the input variable chksymbreak,
   then, if you feel confident, you might switch it to zero, or consult with the forum.

================================================================================
== DATASET  1 ==================================================================
-   nproc =    4

 Exchange-correlation functional for the present dataset will be:
  LDA: old Teter (4/91) fit to Ceperley-Alder data - ixc=3

 Real(R)+Recip(G) space primitive vectors, cartesian coordinates (Bohr,Bohr^-1):
 R(1)=  0.0000000  5.1830000  5.1830000  G(1)= -0.0964692  0.0964692  0.0964692
 R(2)=  5.1830000  0.0000000  5.1830000  G(2)=  0.0964692 -0.0964692  0.0964692
 R(3)=  5.1830000  5.1830000  0.0000000  G(3)=  0.0964692  0.0964692 -0.0964692
 Unit cell volume ucvol=  2.7846693E+02 bohr^3
 Angles (23,13,12)=  6.00000000E+01  6.00000000E+01  6.00000000E+01 degrees

 getcut: wavevector=  0.0000  0.0000  0.0000  ngfft=  16  16  16
         ecut(hartree)=      5.000   => boxcut(ratio)=   2.16857

--- Pseudopotential description ------------------------------------------------
- pspini: atom type   1  psp file is /home/buildbot/bb/ABINIT_GIT/abiref_gnu_5.3_openmpi/biederj_lobpcg_tosubmit/tests/Psps_for_tests/14si.phoney_mod
- pspatm: opening atomic psp file    /home/buildbot/bb/ABINIT_GIT/abiref_gnu_5.3_openmpi/biederj_lobpcg_tosubmit/tests/Psps_for_tests/14si.phoney_mod
- 2 bohr rc 15 hartree ec psp for silicon 8 November 1991 (new)
- 14.00000   4.00000    980710                znucl, zion, pspdat
    5    3    2    2       600   0.00000      pspcod,pspxc,lmax,lloc,mmax,r2well
    1.000000E-06    3.075239E-02              r1 and al (Hamman grid)
    0   0.000   0.000    2   2.0042666        l,e99.0,e99.9,nproj,rcpsp
   0.00000000   0.00000000   0.00000000   0.00000000     rms, ekb1, ekb2, epsatm
    1   0.000   0.000    2   2.0042666        l,e99.0,e99.9,nproj,rcpsp
   0.00000000   0.00000000   0.00000000   0.00000000     rms, ekb1, ekb2, epsatm
    2   0.000   0.000    0   2.0042666        l,e99.0,e99.9,nproj,rcpsp
   0.00000000   0.00000000   0.00000000   0.00000000     rms, ekb1, ekb2, epsatm
    0.00000000000000    0.00000000000000    0.00000000000000   rchrg,fchrg,qchrg
 pspatm : epsatm=   -1.82035725
         --- l  ekb(1:nproj) -->
             0    3.773677   10.247662
             1    2.166328    2.055393
 pspatm: atomic psp has been read  and splines computed

  -2.91257160E+01                                ecore*ucvol(ha*bohr**3)
--------------------------------------------------------------------------------

_setup2: Arith. and geom. avg. npw (full set) are      41.000      41.000

================================================================================

     iter   Etot(hartree)      deltaE(h)  residm     vres2
 ETOT  1  -7.2165380774565    -7.217E+00 2.089E-05 1.237E+01
 ETOT  2  -7.2307541068503    -1.422E-02 3.389E-10 7.738E-01
 ETOT  3  -7.2314426856167    -6.886E-04 4.190E-10 1.037E-02
 ETOT  4  -7.2314485409392    -5.855E-06 5.272E-11 3.046E-05

 Cartesian components of stress tensor (hartree/bohr^3)
  sigma(1 1)= -1.22104621E-03  sigma(3 2)= -2.82079906E-04
  sigma(2 2)= -1.22104621E-03  sigma(3 1)= -2.82079906E-04
  sigma(3 3)= -1.22104621E-03  sigma(2 1)= -2.82079906E-04


 scprqt:  WARNING -
  nstep=    4 was not enough SCF cycles to converge;
  maximum energy difference=  5.855E-06 exceeds toldfe=  1.000E-10

 Integrated electronic density in atomic spheres:
 ------------------------------------------------
 Atom  Sphere_radius  Integrated_density
    1        2.00000          2.01605495
    2        2.00000          1.84475651
================================================================================

 ----iterations are completed or convergence reached----

 Mean square residual over all n,k,spin=   1.8100E-11; max=  5.2717E-11
 reduced coordinates (array xred) for    2 atoms
       0.000000000000      0.000000000000      0.000000000000
       0.220000000000      0.220000000000      0.220000000000
 rms dE/dt=  1.1374E+00; max dE/dt=  1.1374E+00; dE/dt below (all hartree)
    1       1.137367020657      1.137367020657      1.137367020657
    2      -1.137367020657     -1.137367020657     -1.137367020657

 cartesian coordinates (angstrom) at end:
    1      0.00000000000000     0.00000000000000     0.00000000000000
    2      1.20679920773367     1.20679920773367     1.20679920773367

 cartesian forces (hartree/bohr) at end:
    1     -0.10972091652101    -0.10972091652101    -0.10972091652101
    2      0.10972091652101     0.10972091652101     0.10972091652101
 frms,max,avg= 1.0972092E-01 1.0972092E-01   0.000E+00  0.000E+00  0.000E+00 h/b

 cartesian forces (eV/Angstrom) at end:
    1     -5.64207590285203    -5.64207590285204    -5.64207590285203
    2      5.64207590285203     5.64207590285204     5.64207590285203
 frms,max,avg= 5.6420759E+00 5.6420759E+00   0.000E+00  0.000E+00  0.000E+00 e/A
 length scales= 10.366000000000 10.366000000000 10.366000000000 bohr
              =  5.485450944244  5.485450944244  5.485450944244 angstroms
 prteigrs : about to open file t49_MPI4o_DS1_EIG
 Fermi (or HOMO) energy (hartree) =   0.30185   Average Vxc (hartree)=  -0.32155
 Eigenvalues (hartree) for nkpt=   1  k points:
 kpt#   1, nband=  8, wtk=  1.00000, kpt=  0.0000  0.0000  0.0000 (reduced coord)
  -0.18466    0.20127    0.29410    0.29410    0.30869    0.30869    0.37035    0.38706
      occupation numbers for kpt#   1
   2.00000    2.00000    2.00000    2.00000    0.00000    0.00000    0.00000    0.00000
 Fermi (or HOMO) energy (eV) =   8.21389   Average Vxc (eV)=  -8.74978
 Eigenvalues (   eV  ) for nkpt=   1  k points:
 kpt#   1, nband=  8, wtk=  1.00000, kpt=  0.0000  0.0000  0.0000 (reduced coord)
  -5.02474    5.47689    8.00284    8.00284    8.39985    8.39985   10.07779   10.53243

--------------------------------------------------------------------------------
 Components of total free energy (in Hartree) :

    Kinetic energy  =  4.03417161779377E+00
    Hartree energy  =  8.29686099511203E-01
    XC energy       = -2.49482608571699E+00
    Ewald energy    = -8.26608138368135E+00
    PspCore energy  = -1.04593088893961E-01
    Loc. psp. energy= -2.88894678209167E+00
    NL   psp  energy=  1.65914108213977E+00
    >>>>> Internal E= -7.23144854093921E+00

    -kT*entropy     = -7.55261880796144E-19
    >>>>>>>>> Etotal= -7.23144854093921E+00

 Other information on the energy :
    Total energy(eV)= -1.96777722111334E+02 ; Band energy (Ha)=   1.2096281380E+00
--------------------------------------------------------------------------------

 Cartesian components of stress tensor (hartree/bohr^3)
  sigma(1 1)= -1.22104621E-03  sigma(3 2)= -2.82079906E-04
  sigma(2 2)= -1.22104621E-03  sigma(3 1)= -2.82079906E-04
  sigma(3 3)= -1.22104621E-03  sigma(2 1)= -2.82079906E-04

-Cartesian components of stress tensor (GPa)         [Pressure=  3.5924E+01 GPa]
- sigma(1 1)= -3.59244137E+01  sigma(3 2)= -8.29907598E+00
- sigma(2 2)= -3.59244137E+01  sigma(3 1)= -8.29907598E+00
- sigma(3 3)= -3.59244137E+01  sigma(2 1)= -8.29907598E+00

================================================================================
== DATASET  2 ==================================================================
-   nproc =    4

 mkfilename : getwfk/=0, take file _WFK from output of DATASET   1.

 mkfilename : getden/=0, take file _DEN from output of DATASET   1.

 Exchange-correlation functional for the present dataset will be:
  LDA: old Teter (4/91) fit to Ceperley-Alder data - ixc=3

 Real(R)+Recip(G) space primitive vectors, cartesian coordinates (Bohr,Bohr^-1):
 R(1)=  0.0000000  5.1830000  5.1830000  G(1)= -0.0964692  0.0964692  0.0964692
 R(2)=  5.1830000  0.0000000  5.1830000  G(2)=  0.0964692 -0.0964692  0.0964692
 R(3)=  5.1830000  5.1830000  0.0000000  G(3)=  0.0964692  0.0964692 -0.0964692
 Unit cell volume ucvol=  2.7846693E+02 bohr^3
 Angles (23,13,12)=  6.00000000E+01  6.00000000E+01  6.00000000E+01 degrees

 getcut: wavevector=  0.0000  0.0000  0.0000  ngfft=  16  16  16
         ecut(hartree)=      5.000   => boxcut(ratio)=   2.16857
--------------------------------------------------------------------------------

-inwffil : will read wavefunctions from disk file t49_MPI4o_DS1_WFK
_setup2: Arith. and geom. avg. npw (full set) are      41.000      41.000

================================================================================

     iter   Etot(hartree)      deltaE(h)  residm     vres2
 ETOT  1  -7.2314485531405    -7.231E+00 1.312E-16 1.920E-07
 ETOT  2  -7.2314485534431    -3.026E-10 2.330E-19 3.222E-09
 ETOT  3  -7.2314485534471    -4.000E-12 3.649E-18 3.964E-11
 ETOT  4  -7.2314485534471    -2.487E-14 2.525E-19 1.159E-12

 At SCF step    4, etot is converged : 
  for the second time, diff in etot=  2.487E-14 < toldfe=  1.000E-10

 Cartesian components of stress tensor (hartree/bohr^3)
  sigma(1 1)= -1.22097052E-03  sigma(3 2)= -2.82072438E-04
  sigma(2 2)= -1.22097052E-03  sigma(3 1)= -2.82072438E-04
  sigma(3 3)= -1.22097052E-03  sigma(2 1)= -2.82072438E-04

 Integrated electronic density in atomic spheres:
 ------------------------------------------------
 Atom  Sphere_radius  Integrated_density
    1        2.00000          2.01602627
    2        2.00000          1.84473417
================================================================================

 ----iterations are completed or convergence reached----

 Mean square residual over all n,k,spin=   7.7265E-20; max=  2.5254E-19
 reduced coordinates (array xred) for    2 atoms
       0.000000000000      0.000000000000      0.000000000000
       0.220000000000      0.220000000000      0.220000000000
 rms dE/dt=  1.1373E+00; max dE/dt=  1.1373E+00; dE/dt below (all hartree)
    1       1.137342984352      1.137342984352      1.137342984352
    2      -1.137342984352     -1.137342984352     -1.137342984352

 cartesian coordinates (angstrom) at end:
    1      0.00000000000000     0.00000000000000     0.00000000000000
    2      1.20679920773367     1.20679920773367     1.20679920773367

 cartesian forces (hartree/bohr) at end:
    1     -0.10971859775730    -0.10971859775730    -0.10971859775730
    2      0.10971859775730     0.10971859775730     0.10971859775730
 frms,max,avg= 1.0971860E-01 1.0971860E-01   0.000E+00  0.000E+00  0.000E+00 h/b

 cartesian forces (eV/Angstrom) at end:
    1     -5.64195666723794    -5.64195666723794    -5.64195666723795
    2      5.64195666723794     5.64195666723794     5.64195666723795
 frms,max,avg= 5.6419567E+00 5.6419567E+00   0.000E+00  0.000E+00  0.000E+00 e/A
 length scales= 10.366000000000 10.366000000000 10.366000000000 bohr
              =  5.485450944244  5.485450944244  5.485450944244 angstroms
 prteigrs : about to open file t49_MPI4o_DS2_EIG
 Fermi (or HOMO) energy (hartree) =   0.30177   Average Vxc (hartree)=  -0.32155
 Eigenvalues (hartree) for nkpt=   1  k points:
 kpt#   1, nband=  8, wtk=  1.00000, kpt=  0.0000  0.0000  0.0000 (reduced coord)
  -0.18473    0.20120    0.29404    0.29404    0.30862    0.30862    0.37028    0.38698
      occupation numbers for kpt#   1
   2.00000    2.00000    2.00000    2.00000    0.00000    0.00000    0.00000    0.00000
 Fermi (or HOMO) energy (eV) =   8.21163   Average Vxc (eV)=  -8.74991
 Eigenvalues (   eV  ) for nkpt=   1  k points:
 kpt#   1, nband=  8, wtk=  1.00000, kpt=  0.0000  0.0000  0.0000 (reduced coord)
  -5.02680    5.47505    8.00111    8.00111    8.39793    8.39793   10.07573   10.53013

--------------------------------------------------------------------------------
 Components of total free energy (in Hartree) :

    Kinetic energy  =  4.03411800858590E+00
    Hartree energy  =  8.29612028052355E-01
    XC energy       = -2.49479441393236E+00
    Ewald energy    = -8.26608138368135E+00
    PspCore energy  = -1.04593088893961E-01
    Loc. psp. energy= -2.88887546942864E+00
    NL   psp  energy=  1.65916576585094E+00
    >>>>> Internal E= -7.23144855344712E+00

    -kT*entropy     = -7.55261880796144E-19
    >>>>>>>>> Etotal= -7.23144855344712E+00

 Other information on the energy :
    Total energy(eV)= -1.96777722451691E+02 ; Band energy (Ha)=   1.2090867029E+00
--------------------------------------------------------------------------------

 Cartesian components of stress tensor (hartree/bohr^3)
  sigma(1 1)= -1.22097052E-03  sigma(3 2)= -2.82072438E-04
  sigma(2 2)= -1.22097052E-03  sigma(3 1)= -2.82072438E-04
  sigma(3 3)= -1.22097052E-03  sigma(2 1)= -2.82072438E-04

-Cartesian components of stress tensor (GPa)         [Pressure=  3.5922E+01 GPa]
- sigma(1 1)= -3.59221870E+01  sigma(3 2)= -8.29885624E+00
- sigma(2 2)= -3.59221870E+01  sigma(3 1)= -8.29885624E+00
- sigma(3 3)= -3.59221870E+01  sigma(2 1)= -8.29885624E+00

== END DATASET(S) ==============================================================
================================================================================
  
 -outvars: echo values of variables after computation  --------
-          iomode           1
            acell      1.0366000000E+01  1.0366000000E+01  1.0366000000E+01 Bohr
              amu      2.80855000E+01
     densfor_pred           6
           diemac      1.20000000E+01
             ecut      5.00000000E+00 Hartree
           enunit           2
           etotal1    -7.2314485409E+00
           etotal2    -7.2314485534E+00
            fcart1    -1.0972091652E-01 -1.0972091652E-01 -1.0972091652E-01
                       1.0972091652E-01  1.0972091652E-01  1.0972091652E-01
            fcart2    -1.0971859776E-01 -1.0971859776E-01 -1.0971859776E-01
                       1.0971859776E-01  1.0971859776E-01  1.0971859776E-01
-          fftalg         312
           getden1          0
           getden2         -1
           getwfk1          0
           getwfk2         -1
           istwfk        1
              ixc           3
           jdtset        1    2
         kptrlatt        1    0    0      0    1    0      0    0    1
          kptrlen      7.32986889E+00
P           mkmem           1
            natom           2
            nband           8
           ndtset           2
            ngfft          16      16      16
             nkpt           1
-          npband           2
-           npfft           2
            nstep           4
             nsym          12
           ntypat           1
              occ      2.000000  2.000000  2.000000  2.000000  0.000000  0.000000
                       0.000000  0.000000
           occopt           7
           ortalg          -2
        paral_kgb           1
            rprim      0.0000000000E+00  5.0000000000E-01  5.0000000000E-01
                       5.0000000000E-01  0.0000000000E+00  5.0000000000E-01
                       5.0000000000E-01  5.0000000000E-01  0.0000000000E+00
          spgroup         166
           strten1    -1.2210462091E-03 -1.2210462091E-03 -1.2210462091E-03
                      -2.8207990648E-04 -2.8207990648E-04 -2.8207990648E-04
           strten2    -1.2209705248E-03 -1.2209705248E-03 -1.2209705248E-03
                      -2.8207243768E-04 -2.8207243768E-04 -2.8207243768E-04
           symrel      1  0  0   0  1  0   0  0  1      -1  0  0   0 -1  0   0  0 -1
                       1  0  0   0  0  1   0  1  0      -1  0  0   0  0 -1   0 -1  0
                       0  1  0   0  0  1   1  0  0       0 -1  0   0  0 -1  -1  0  0
                       0  1  0   1  0  0   0  0  1       0 -1  0  -1  0  0   0  0 -1
                       0  0  1   1  0  0   0  1  0       0  0 -1  -1  0  0   0 -1  0
                       0  0  1   0  1  0   1  0  0       0  0 -1   0 -1  0  -1  0  0
           timopt          -1
            tnons      0.0000000  0.0000000  0.0000000     0.2200000  0.2200000  0.2200000
                       0.0000000  0.0000000  0.0000000     0.2200000  0.2200000  0.2200000
                       0.0000000  0.0000000  0.0000000     0.2200000  0.2200000  0.2200000
                       0.0000000  0.0000000  0.0000000     0.2200000  0.2200000  0.2200000
                       0.0000000  0.0000000  0.0000000     0.2200000  0.2200000  0.2200000
                       0.0000000  0.0000000  0.0000000     0.2200000  0.2200000  0.2200000
           toldfe      1.00000000E-10 Hartree
           tsmear      1.00000000E-03 Hartree
            typat      1  1
         wfoptalg         114
           xangst      0.0000000000E+00  0.0000000000E+00  0.0000000000E+00
                       1.2067992077E+00  1.2067992077E+00  1.2067992077E+00
            xcart      0.0000000000E+00  0.0000000000E+00  0.0000000000E+00
                       2.2805200000E+00  2.2805200000E+00  2.2805200000E+00
             xred      0.0000000000E+00  0.0000000000E+00  0.0000000000E+00
                       2.2000000000E-01  2.2000000000E-01  2.2000000000E-01
            znucl       14.00000

================================================================================

 Test the timer : 
  a combined call timab(*,1,tsec) + timab(*,2,tsec) is 
- CPU time =    6.9083E-07 sec,    Wall time =    6.9242E-07 sec

- Total cpu        time (s,m,h):          2.6        0.04      0.001
- Total wall clock time (s,m,h):          3.2        0.05      0.001
-
- For major independent code sections, cpu and wall times (sec),
-  as well as % of the time and number of calls for node 0-
-<BEGIN_TIMER mpi_nprocs = 4, omp_nthreads = 1, mpi_rank = 0>
- cpu_time =            0.6, wall_time =            0.8
-
- routine                        cpu     %       wall     %      number of calls  Gflops    Speedup Efficacity
-                                                                  (-1=no count)
- pspini                         0.266  10.4      0.267   8.5              2      -1.00        1.00       1.00
- timing timab                   0.134   5.2      0.135   4.3             14      -1.00        1.00       1.00
- vtowfk(ssdiag)                 0.075   2.9      0.075   2.4             -1      -1.00        0.99       0.99
- lobpcgwf2                      0.075   2.9      0.075   2.4             12      -1.00        0.99       0.99
- invars2                        0.040   1.5      0.040   1.3              2      -1.00        1.00       1.00
- fourwf%(pot)                   0.030   1.2      0.034   1.1            240      -1.00        0.88       0.88
- abinit(2)                      0.010   0.4      0.010   0.3              1      -1.00        1.00       1.00
- nonlop(apply)                  0.008   0.3      0.008   0.2            240      -1.00        0.99       0.99
- fourdp                         0.007   0.3      0.006   0.2             46      -1.00        1.03       1.03
- mkrho/=                        0.004   0.1      0.004   0.1             16      -1.00        0.95       0.95
- xc:pot/=fourdp                 0.002   0.1      0.002   0.1             10      -1.00        1.02       1.02
- symrhg(no FFT)                 0.002   0.1      0.002   0.0              8      -1.00        1.02       1.02
- ewald                          0.001   0.1      0.001   0.0              2      -1.00        1.02       1.02
- stress                         0.001   0.1      0.001   0.0              2      -1.00        0.96       0.96
- inwffil(excl. calls)           0.001   0.1      0.039   1.2              2      -1.00        0.03       0.03
- nonlop(forces)                 0.001   0.0      0.001   0.0             48      -1.00        1.02       1.02
- ewald2 (+vdw_dftd)             0.001   0.0      0.001   0.0              2      -1.00        1.01       1.01
- setsym                         0.001   0.0      0.001   0.0              2      -1.00        1.06       1.06
- forces                         0.001   0.0      0.001   0.0              2      -1.00        1.04       1.04
- getghc-other                   0.000   0.0      0.001   0.0             -1      -1.00        0.62       0.62
- scfcv-scprqt                   0.000   0.0      0.000   0.0              8      -1.00        0.77       0.77
- vtowfk(contrib)                0.000   0.0      0.000   0.0              8      -1.00        1.16       1.16
- newkpt(excl. rwwf   )          0.000   0.0      0.000   0.0             -1      -1.00        1.02       1.02
- prep_bandfft_tabs              0.000   0.0      0.000   0.0              4      -1.00        0.90       0.90
- kpgsph                         0.000   0.0      0.000   0.0              4      -1.00        0.16       0.16
- initwf(after rwwf)             0.000   0.0      0.000   0.0              1      -1.00        0.68       0.68
- wfsinp(excl. calls)            0.000   0.0      0.000   0.0              1      -1.00        1.46       1.46
- status                         0.000   0.0      0.000   0.0              1      -1.00        1.09       1.09
- others (85)                    0.000   0.0      0.000   0.0             -1      -1.00        0.15       0.15
-<END_TIMER>
-
- subtotal                       0.660  25.7      0.704  22.3                                  0.94       0.94

- For major independent code sections, cpu and wall times (sec),
- as well as % of the total time and number of calls 

-<BEGIN_TIMER mpi_nprocs = 4, omp_nthreads = 1, mpi_rank = world>
- cpu_time =           2.6, wall_time =           3.2
-
- routine                         cpu     %       wall     %      number of calls Gflops    Speedup Efficacity
-                                                                  (-1=no count)
- pspini                         1.100  42.8      1.103  34.9              8      -1.00        1.00       1.00
- timing timab                   0.547  21.3      0.550  17.4             56      -1.00        0.99       0.99
- vtowfk(ssdiag)                 0.302  11.8      0.302   9.6             -4      -1.00        1.00       1.00
- lobpcgwf2                      0.302  11.8      0.302   9.6             48      -1.00        1.00       1.00
- invars2                        0.160   6.2      0.162   5.1              8      -1.00        0.99       0.99
- fourwf%(pot)                   0.120   4.7      0.137   4.3            960      -1.00        0.88       0.88
- abinit(2)                      0.039   1.5      0.039   1.2              4      -1.00        1.01       1.01
- nonlop(apply)                  0.031   1.2      0.030   1.0            960      -1.00        1.04       1.04
- fourdp                         0.026   1.0      0.025   0.8            184      -1.00        1.03       1.03
- mkrho/=                        0.012   0.5      0.012   0.4             64      -1.00        0.96       0.96
- ewald                          0.007   0.3      0.007   0.2              8      -1.00        1.01       1.01
- xc:pot/=fourdp                 0.006   0.2      0.006   0.2             40      -1.00        1.03       1.03
- symrhg(no FFT)                 0.006   0.2      0.006   0.2             32      -1.00        1.02       1.02
- stress                         0.006   0.2      0.006   0.2              8      -1.00        0.98       0.98
- nonlop(forces)                 0.005   0.2      0.005   0.1            192      -1.00        1.00       1.00
- inwffil(excl. calls)           0.004   0.2      0.153   4.8              8      -1.00        0.03       0.03
- ewald2 (+vdw_dftd)             0.004   0.2      0.004   0.1              8      -1.00        1.01       1.01
- setsym                         0.004   0.2      0.004   0.1              8      -1.00        1.04       1.04
- getghc-other                   0.003   0.1      0.004   0.1             -4      -1.00        0.88       0.88
- scfcv-scprqt                   0.002   0.1      0.003   0.1             32      -1.00        0.94       0.94
- forces                         0.002   0.1      0.002   0.1              8      -1.00        1.05       1.05
- kpgsph                         0.001   0.0      0.001   0.0             16      -1.00        0.72       0.72
- vtowfk(contrib)                0.001   0.0      0.001   0.0             32      -1.00        1.14       1.14
- prep_bandfft_tabs              0.000   0.0      0.000   0.0             16      -1.00        0.91       0.91
- newkpt(excl. rwwf   )          0.000   0.0      0.000   0.0             -4      -1.00        0.97       0.97
- wfsinp(excl. calls)            0.000   0.0      0.000   0.0              4      -1.00        0.90       0.90
- vtowfk  (1)                    0.000   0.0      0.000   0.0             32      -1.00        1.14       1.14
- initwf(after rwwf)             0.000   0.0      0.000   0.0              4      -1.00        0.71       0.71
- initwf(before rwwf)            0.000   0.0      0.000   0.0              4      -1.00        2.10       2.10
- status                         0.000   0.0      0.000   0.0              1      -1.00        1.09       1.09
- others (83)                    0.000   0.0      0.000   0.0             -1      -1.00        0.00       0.00
-<END_TIMER>

- subtotal                       2.692 104.9      2.863  90.7                                  0.94       0.94

 Partitioning of abinit
- abinit                         2.567 100.0      3.157 100.0              4                   0.81       0.81
 
- abinit(1)                      0.030   1.2      0.030   1.0              4                   0.98       0.98
- abinit(2)                      0.039   1.5      0.039   1.2              4                   1.01       1.01
- indefo+macroin+invars2m        0.161   6.3      0.162   5.1              4                   0.99       0.99
- abinit(4)                      0.037   1.4      0.050   1.6              4                   0.74       0.74
- abinit(5)                      0.073   2.8      0.075   2.4              4                   0.97       0.97
- driver                         1.676  65.3      2.228  70.6              4                   0.75       0.75
- abinit(6)                      0.004   0.1      0.022   0.7              4                   0.16       0.16
- timing timab                   0.547  21.3      0.550  17.4             56                   0.99       0.99

- subtotal                       2.567 100.0      3.157 100.0                                  0.81       0.81

 Partitioning of driver
- driver                         1.676  65.3      2.228  70.6              4                   0.75       0.75
 
- driver(bef. loop dtset)        0.002   0.1      0.002   0.1              4                   1.42       1.42
- driver(bef. select case)       0.001   0.0      0.002   0.0              8                   0.69       0.69
- gstateimg                      1.647  64.2      2.199  69.7              8                   0.75       0.75
- driver(aft. select case)       0.024   0.9      0.025   0.8              8                   0.95       0.95

- subtotal                       1.676  65.3      2.228  70.6                                  0.75       0.75

 Partitioning of gstateimg+gstate
- gstateimg                      1.647  64.2      2.199  69.7              8                   0.75       0.75
 
- gstate->kpgsph                 0.056   2.2      0.204   6.5             16                   0.27       0.27
- gstate(pspini)                 1.100  42.8      1.103  34.9              8                   1.00       1.00
- gstate  (2)                    0.014   0.6      0.015   0.5              8                   0.98       0.98
- gstate(...scfcv)               0.422  16.4      0.424  13.4              8                   1.00       1.00
- gstate  (3)                    0.054   2.1      0.453  14.4              8                   0.12       0.12

- subtotal                       1.647  64.2      2.199  69.7                                  0.75       0.75

 Partitioning of scfcv
- scfcv                          0.421  16.4      0.424  13.4              8                   0.99       0.99
 
- scfcv(iniloop, setvtr  )       0.014   0.5      0.014   0.4             32                   0.99       0.99
- scfcv(vtorho(f))               0.358  14.0      0.361  11.4             32                   0.99       0.99
- scfcv-scprqt                   0.002   0.1      0.003   0.1             32                   0.94       0.94
- scfcv(rhotov)                  0.011   0.4      0.010   0.3             32                   1.04       1.04
- scfcv(mix pot)                 0.010   0.4      0.010   0.3             28                   0.98       0.98
- scfcv(afterscfloop)            0.010   0.4      0.010   0.3              8                   1.00       1.00
- scfcv(outscfcv)                0.015   0.6      0.015   0.5              8                   0.99       0.99

- subtotal                       0.421  16.4      0.424  13.4                                  0.99       0.99

 Partitioning of rhotov
- rhotov                         0.011   0.4      0.010   0.3             32                   1.05       1.05
 
- rhotov(rhohxc)                 0.009   0.3      0.009   0.3             32                   1.04       1.04
- rhotov(other)                  0.002   0.1      0.001   0.0             32                   1.26       1.26

- subtotal                       0.011   0.4      0.010   0.3                                  1.05       1.05

 Partitioning of vtorho
- vtorho                         0.358  14.0      0.361  11.4             32                   0.99       0.99
 
- vtorho(bef. vtowfk)            0.001   0.0      0.001   0.0             32                   1.01       1.01
- vtowfk                         0.303  11.8      0.302   9.6             32                   1.00       1.00
- vtorho(newocc)                 0.028   1.1      0.029   0.9             32                   0.95       0.95
- vtorho(mkrho 1)                0.025   1.0      0.025   0.8             32                   0.97       0.97
- vtorho(mkrho 2)                0.001   0.1      0.001   0.0             32                   0.94       0.94

- subtotal                       0.358  14.0      0.361  11.4                                  0.99       0.99

 Partitioning of vtowfk
- vtowfk                         0.303  11.8      0.302   9.6             32                   1.00       1.00
 
- vtowfk(2)                      0.302  11.8      0.302   9.6             -4                   1.00       1.00

- subtotal                       0.303  11.8      0.302   9.6                                  1.00       1.00

 Partitioning of getghc
- getghc                         0.155   6.0      0.171   5.4            960                   0.90       0.90
 
- fourwf%getghc                  0.120   4.7      0.137   4.3            960                   0.88       0.88
- nonlop%getghc                  0.031   1.2      0.030   1.0            960                   1.04       1.04
- getghc-other                   0.003   0.1      0.004   0.1             -4                   0.88       0.88

- subtotal                       0.155   6.0      0.171   5.4                                  0.90       0.90

 Partitioning of fourwf (upwards partitioning)
- fourwf                         0.127   4.9      0.144   4.6           1024                   0.88       0.88
 
- fourwf%getghc                  0.120   4.7      0.137   4.3            960                   0.88       0.88
- fourwf%prep_four               0.007   0.3      0.007   0.2             64                   0.99       0.99

- subtotal                       0.127   4.9      0.144   4.6                                  0.88       0.88

 Partitioning of prep_getghc
- prep_getghc                    0.164   6.4      0.183   5.8            960                   0.90       0.90
 
- prep_getghc(before if)         0.002   0.1      0.002   0.1            960                   0.80       0.80
- prep_getghc(alltoall)          0.006   0.2      0.007   0.2           1920                   0.83       0.83
- prep_getghc(getghc - 1 )       0.156   6.1      0.173   5.5            960                   0.90       0.90
- (other)                        0.000   0.0      0.001   0.0             -1                   0.40       0.40

- subtotal                       0.164   6.4      0.183   5.8                                  0.90       0.90

 Partitioning of prep_fourwf
- prep_fourwf                    0.007   0.3      0.008   0.2            128                   0.96       0.96
 
- fourwf%prep_four               0.007   0.3      0.007   0.2             64                   0.99       0.99
- alltoall%prep_fo               0.001   0.0      0.001   0.0            128                   0.92       0.92

- subtotal                       0.007   0.3      0.007   0.2                                  0.99       0.99

 Partitioning of prep_nonlop
- prep_nonlop                    0.008   0.3      0.007   0.2            208                   1.21       1.21
 
- nonlop%prep_nonl%forstrn       0.001   0.0      0.001   0.0             16                   1.24       1.24
- (other)                        0.005   0.2      0.005   0.2             -1                   0.89       0.89

- subtotal                       0.008   0.3      0.007   0.2                                  1.21       1.21

 Partitioning of mkrho (upwards partitioning)
- mkrho                          0.025   1.0      0.025   0.8             32                   0.97       0.97
 
- mkrho%vtorho                   0.025   1.0      0.025   0.8             32                   0.97       0.97

- subtotal                       0.025   1.0      0.025   0.8                                  0.97       0.97

 Partitioning of inwffil
- inwffil                        0.009   0.3      0.158   5.0              8                   0.06       0.06
 
- inwffil(read header)           0.004   0.2      0.152   4.8              8                   0.03       0.03
- inwffil(call wfsinp)           0.004   0.2      0.005   0.1              4                   0.84       0.84

- subtotal                       0.009   0.3      0.158   5.0                                  0.06       0.06

 Partitioning of wfsinp
- wfsinp                         0.004   0.2      0.005   0.1              4                   0.85       0.85
 
- wfsinp(call  initwf)           0.004   0.2      0.005   0.1              4                   0.84       0.84

- subtotal                       0.004   0.2      0.005   0.1                                  0.85       0.85

 Partitioning of initwf
- initwf                         0.004   0.2      0.005   0.1              4                   0.84       0.84
 
- rwwf%initwf(GS)                0.004   0.1      0.005   0.1              4                   0.84       0.84

- subtotal                       0.004   0.2      0.005   0.1                                  0.84       0.84

 Partitioning of newkpt
- newkpt                         0.000   0.0      0.000   0.0              8                   0.96       0.96
 

- subtotal                       0.000   0.0      0.000   0.0                                  0.97       0.97

 Partitioning of newvtr
- newvtr                         0.010   0.4      0.010   0.3             28                   0.99       0.99
 
- newvtr(call prcref_PMA)        0.007   0.3      0.007   0.2             28                   1.02       1.02
- newvtr(aft. prcref_PMA)        0.002   0.1      0.002   0.1             28                   0.95       0.95

- subtotal                       0.010   0.4      0.010   0.3                                  0.99       0.99

 Partitioning of  fourdp (upwards partitioning)
- fourdp                         0.026   1.0      0.025   0.8            184                   1.03       1.03
 
- fourdp%(other)                 0.026   1.0      0.025   0.8            184                   1.03       1.03

- subtotal                       0.026   1.0      0.025   0.8                                  1.03       1.03

 Partitioning of afterscfloop
- afterscfloop                   0.010   0.4      0.010   0.3              8                   1.00       1.00
 
- afterscfloop(forstr)           0.010   0.4      0.010   0.3              8                   1.00       1.00

- subtotal                       0.010   0.4      0.010   0.3                                  1.00       1.00

 Partitioning of forstr
- forstr                         0.010   0.4      0.010   0.3              8                   1.00       1.00
 
- forstr(forstrnps)              0.002   0.1      0.002   0.1              8                   1.00       1.00
- forstr(forces)                 0.002   0.1      0.002   0.1              8                   1.04       1.04
- forstr(stress)                 0.006   0.2      0.006   0.2              8                   0.98       0.98

- subtotal                       0.010   0.4      0.010   0.3                                  1.00       1.00

 Partitioning of forstrnps
- forstrnps                      0.002   0.1      0.002   0.1              8                   1.01       1.01
 
- forstrnps(nonlop+prep_ba       0.001   0.0      0.001   0.0             16                   1.08       1.08

- subtotal                       0.002   0.1      0.002   0.1                                  1.01       1.01

 Partitioning of outscfcv
- outscfcv                       0.015   0.6      0.015   0.5              8                   0.99       0.99
 
- outscfcv([PAW]prtden)          0.001   0.1      0.001   0.0              8                   0.97       0.97
- outscfcv(prtelf)               0.006   0.2      0.006   0.2              4                   1.00       1.00
- outscfcv(calcdensph)           0.007   0.3      0.007   0.2              8                   1.00       1.00

- subtotal                       0.014   0.6      0.014   0.5                                  1.00       1.00

 Partitioning of lobpcgwf2 core engine
- lobpcgwf2                      0.302  11.8      0.302   9.6             48                   1.00       1.00
 
- lobpcg_init                    0.001   0.0      0.001   0.0             48                   1.19       1.19
- lobpcg_run                     0.293  11.4      0.295   9.3             48                   1.00       1.00
- lobpcg_orthoWrtPrev            0.005   0.2      0.005   0.2            720                   0.95       0.95
- lobpcg_Bortho                  0.026   1.0      0.024   0.8           1008                   1.09       1.09
- lobpcg_RayleighRitz            0.077   3.0      0.065   2.0           1008                   1.19       1.19
- lobpcg_maxResidu               0.010   0.4      0.008   0.3           1728                   1.24       1.24
- lobpcg_run@getAX_BX            0.165   6.4      0.185   5.9            960                   0.89       0.89
- lobpcg_RayleighRitz@hegv       0.031   1.2      0.023   0.7           1008                   1.35       1.35

- subtotal                       0.610  23.7      0.607  19.2                                  1.00       1.00

 Partitioning of low-level xgBlock type
- xgBlock_potrf                  0.002   0.1      0.001   0.0           1008                   1.25       1.25
 
- xgBlock_trsm                   0.009   0.3      0.009   0.3           3024                   1.00       1.00
- xgBlock_gemm                   0.037   1.5      0.040   1.3          12240                   0.93       0.93
- xgBlock_heev                   0.003   0.1      0.002   0.1            240                   1.38       1.38
- xgBlock_hegvx                  0.028   1.1      0.020   0.6            768                   1.40       1.40
- xgBlock_copy                   0.004   0.2      0.005   0.1           7248                   0.89       0.89
- xgBlock_cshift                 0.000   0.0      0.001   0.0            768                   0.55       0.55

- subtotal                       0.082   3.2      0.076   2.4                                  1.07       1.07
-
-Synchronisation (=leave_test) and MPI calls 
- communic.MPI                   0.008   0.3      0.008   0.3            212                   0.97       0.97
-
- forstrnps:synchr               0.000   0.0      0.000   0.0             16                   0.35       0.35
- wfsinp:synchro                 0.000   0.0      0.000   0.0              4                   0.76       0.76
- mkrho :MPIrhor                 0.000   0.0      0.000   0.0             32                   0.00       0.00
- alltoall%back_wf               0.015   0.6      0.021   0.7           1024                   0.74       0.74
- alltoall%forw_wf               0.008   0.3      0.010   0.3            960                   0.80       0.80
- subtotal                       0.023   0.9      0.030   1.0                                  0.76       0.76

 Additional information
- timana(1)                      0.000   0.0      0.000   0.0              4                   0.60       0.60
- total timab                    0.579  22.6      0.582  18.4         824429                   0.99       0.99
- fourwf                         0.127   4.9      0.144   4.6           1024                   0.88       0.88
- mklocl(2)                      0.001   0.0      0.001   0.0              8                   1.12       1.12
- status                         0.000   0.0      0.000   0.0              1                   1.09       1.09
- newocc                         0.031   1.2      0.033   1.0             36                   0.95       0.95
- nonlop(total)                  0.037   1.4      0.036   1.1           1168                   1.04       1.04

 timana : in multi dataset mode, the more detailed analysis is not done.

================================================================================

 Suggested references for the acknowledgment of ABINIT usage.

 The users of ABINIT have little formal obligations with respect to the ABINIT group
 (those specified in the GNU General Public License, http://www.gnu.org/copyleft/gpl.txt).
 However, it is common practice in the scientific literature,
 to acknowledge the efforts of people that have made the research possible.
 In this spirit, please find below suggested citations of work written by ABINIT developers,
 corresponding to implementations inside of ABINIT that you have used in the present run.
 Note also that it will be of great value to readers of publications presenting these results,
 to read papers enabling them to understand the theoretical formalism and details
 of the ABINIT implementation.
 For information on why they are suggested, see also https://www.abinit.org/about/?text=acknowledgments.
-
- [1] Large scale ab initio calculations based on three levels of parallelization
- F. Bottin, S. Leroux, A. Knyazev, G. Zerah, Comput. Mat. Science 42, 329, (2008).
- Comment : in case LOBPCG algorithm is used (wfoptalg=4/14).
- Strong suggestion to cite this paper in your publications.
- This paper is also available at http://www.arxiv.org/abs/0707.3405
-
- [2] Recent developments in the ABINIT software package.
- Computer Phys. Comm. 205, 106 (2016).
- X.Gonze, F.Jollet, F.Abreu Araujo, D.Adams, B.Amadon, T.Applencourt,
- C.Audouze, J.-M.Beuken, J.Bieder, A.Bokhanchuk, E.Bousquet, F.Bruneval
- D.Caliste, M.Cote, F.Dahm, F.Da Pieve, M.Delaveau, M.Di Gennaro,
- B.Dorado, C.Espejo, G.Geneste, L.Genovese, A.Gerossier, M.Giantomassi,
- Y.Gillet, D.R.Hamann, L.He, G.Jomard, J.Laflamme Janssen, S.Le Roux,
- A.Levitt, A.Lherbier, F.Liu, I.Lukacevic, A.Martin, C.Martins,
- M.J.T.Oliveira, S.Ponce, Y.Pouillon, T.Rangel, G.-M.Rignanese,
- A.H.Romero, B.Rousseau, O.Rubel, A.A.Shukri, M.Stankovski, M.Torrent,
- M.J.Van Setten, B.Van Troeye, M.J.Verstraete, D.Waroquier, J.Wiktor,
- B.Xue, A.Zhou, J.W.Zwanziger.
- Comment : the fourth generic paper describing the ABINIT project.
- Note that a version of this paper, that is not formatted for Computer Phys. Comm. 
- is available at https://www.abinit.org/about/ABINIT16.pdf .
- The licence allows the authors to put it on the Web.
-
- [3] ABINIT : First-principles approach of materials and nanosystem properties.
- Computer Phys. Comm. 180, 2582-2615 (2009).
- X. Gonze, B. Amadon, P.-M. Anglade, J.-M. Beuken, F. Bottin, P. Boulanger, F. Bruneval,
- D. Caliste, R. Caracas, M. Cote, T. Deutsch, L. Genovese, Ph. Ghosez, M. Giantomassi
- S. Goedecker, D.R. Hamann, P. Hermet, F. Jollet, G. Jomard, S. Leroux, M. Mancini, S. Mazevet,
- M.J.T. Oliveira, G. Onida, Y. Pouillon, T. Rangel, G.-M. Rignanese, D. Sangalli, R. Shaltaf,
- M. Torrent, M.J. Verstraete, G. Zerah, J.W. Zwanziger
- Comment : the third generic paper describing the ABINIT project.
- Note that a version of this paper, that is not formatted for Computer Phys. Comm. 
- is available at https://www.abinit.org/about/ABINIT_CPC_v10.pdf .
- The licence allows the authors to put it on the Web.
-
- [4] A brief introduction to the ABINIT software package.
- Z. Kristallogr. 220, 558-562 (2005).
- X. Gonze, G.-M. Rignanese, M. Verstraete, J.-M. Beuken, Y. Pouillon, R. Caracas, F. Jollet,
- M. Torrent, G. Zerah, M. Mikami, Ph. Ghosez, M. Veithen, J.-Y. Raty, V. Olevano, F. Bruneval,
- L. Reining, R. Godby, G. Onida, D.R. Hamann, and D.C. Allan.
- Comment : the second generic paper describing the ABINIT project. Note that this paper
- should be cited especially if you are using the GW part of ABINIT, as several authors
- of this part are not in the list of authors of the first or third paper.
- The .pdf of the latter paper is available at https://www.abinit.org/about/zfk_0505-06_558-562.pdf.
- Note that it should not redistributed (Copyright by Oldenburg Wissenshaftverlag,
- the licence allows the authors to put it on the Web).
-
- And optionally:
-
- [5] First-principles computation of material properties : the ABINIT software project. 
- X. Gonze, J.-M. Beuken, R. Caracas, F. Detraux, M. Fuchs, G.-M. Rignanese, L. Sindic,
- M. Verstraete, G. Zerah, F. Jollet, M. Torrent, A. Roy, M. Mikami, Ph. Ghosez, J.-Y. Raty, D.C. Allan.
- Computational Materials Science 25, 478-492 (2002). http://dx.doi.org/10.1016/S0927-0256(02)00325-7
- Comment : the original paper describing the ABINIT project.
-
- Proc.   0 individual time (sec): cpu=          0.6  wall=          0.8

================================================================================

 Calculation completed.
.Delivered  37 WARNINGs and   0 COMMENTs to log file.
+Overall time at end (sec) : cpu=          2.6  wall=          3.2
