
.Version 10.3.4.3 of ABINIT, released Nov 2024.
.(MPI version, prepared for a x86_64_linux_gnu13.2 computer) 

.Copyright (C) 1998-2025 ABINIT group .
 ABINIT comes with ABSOLUTELY NO WARRANTY.
 It is free software, and you are welcome to redistribute it
 under certain conditions (GNU General Public License,
 see ~abinit/COPYING or http://www.gnu.org/copyleft/gpl.txt).

 ABINIT is a project of the Universite Catholique de Louvain,
 Corning Inc. and other collaborators, see ~abinit/doc/developers/contributors.txt .
 Please read https://docs.abinit.org/theory/acknowledgments for suggested
 acknowledgments of the ABINIT effort.
 For more information, see https://www.abinit.org .

.Starting date : Tue 17 Dec 2024.
- ( at 14h41 )
  
- input  file    -> /home/buildbot/ABINIT3/eos_gnu_13.2_mpich/baguetl_chebfi-oracle/tests/TestBot_MPI4/mpiio_t49_MPI4/t49.abi
- output file    -> t49_MPI4.abo
- root for input  files -> t49_MPI4i
- root for output files -> t49_MPI4o

 DATASET    1 : space group R-3 m (#166); Bravais hR (rhombohedral)
================================================================================
 Values of the parameters that define the memory need for DATASET  1.
     intxc =       0    ionmov =       0      iscf =       7    lmnmax =       4
     lnmax =       4     mgfft =      16  mpssoang =       3    mqgrid =    3001
     natom =       2  nloc_mem =       1    nspden =       1   nspinor =       1
    nsppol =       1      nsym =      12    n1xccc =       0    ntypat =       1
    occopt =       7   xclevel =       1
-    mband =           8        mffmem =           1         mkmem =           1
       mpw =          41          nfft =        2048          nkpt =           1
================================================================================
P This job should need less than                       2.015 Mbytes of memory.
  Rough estimation (10% accuracy) of disk space for files :
_ WF disk file :      0.012 Mbytes ; DEN or POT disk file :      0.018 Mbytes.
================================================================================

 DATASET    2 : space group R-3 m (#166); Bravais hR (rhombohedral)
================================================================================
 Values of the parameters that define the memory need for DATASET  2.
     intxc =       0    ionmov =       0      iscf =       7    lmnmax =       4
     lnmax =       4     mgfft =      16  mpssoang =       3    mqgrid =    3001
     natom =       2  nloc_mem =       1    nspden =       1   nspinor =       1
    nsppol =       1      nsym =      12    n1xccc =       0    ntypat =       1
    occopt =       7   xclevel =       1
-    mband =           8        mffmem =           1         mkmem =           1
       mpw =          41          nfft =        2048          nkpt =           1
================================================================================
P This job should need less than                       2.015 Mbytes of memory.
  Rough estimation (10% accuracy) of disk space for files :
_ WF disk file :      0.012 Mbytes ; DEN or POT disk file :      0.018 Mbytes.
================================================================================

--------------------------------------------------------------------------------
------------- Echo of variables that govern the present computation ------------
--------------------------------------------------------------------------------
-
- outvars: echo of selected default values
-   iomode0 =  0 , fftalg0 =512 , wfoptalg0 =  0
-
- outvars: echo of global parameters not present in the input file
-  max_nthreads =    0
-
 -outvars: echo values of preprocessed input variables --------
-          iomode           1
            acell      1.0366000000E+01  1.0366000000E+01  1.0366000000E+01 Bohr
              amu      2.80855000E+01
      chksymtnons           0
     densfor_pred           6
           diemac      1.20000000E+01
             ecut      5.00000000E+00 Hartree
           enunit           2
-          fftalg         401
           getden1          0
           getden2         -1
           getwfk1          0
           getwfk2         -1
           istwfk        1
              ixc           3
           jdtset        1    2
         kptrlatt        1    0    0      0    1    0      0    0    1
          kptrlen      7.32986889E+00
P           mkmem           1
            natom           2
            nband           8
           ndtset           2
            ngfft          16      16      16
             nkpt           1
    nblock_lobpcg           4
-          npband           2
-           npfft           2
            nstep           4
             nsym          12
           ntypat           1
              occ      2.000000  2.000000  2.000000  2.000000  0.000000  0.000000
                       0.000000  0.000000
           occopt           7
           ortalg          -2
        paral_kgb           1
            rprim      0.0000000000E+00  5.0000000000E-01  5.0000000000E-01
                       5.0000000000E-01  0.0000000000E+00  5.0000000000E-01
                       5.0000000000E-01  5.0000000000E-01  0.0000000000E+00
          spgroup         166
           symrel      1  0  0   0  1  0   0  0  1      -1  0  0   0 -1  0   0  0 -1
                       1  0  0   0  0  1   0  1  0      -1  0  0   0  0 -1   0 -1  0
                       0  1  0   0  0  1   1  0  0       0 -1  0   0  0 -1  -1  0  0
                       0  1  0   1  0  0   0  0  1       0 -1  0  -1  0  0   0  0 -1
                       0  0  1   1  0  0   0  1  0       0  0 -1  -1  0  0   0 -1  0
                       0  0  1   0  1  0   1  0  0       0  0 -1   0 -1  0  -1  0  0
           timopt          -1
            tnons      0.0000000  0.0000000  0.0000000     0.2200000  0.2200000  0.2200000
                       0.0000000  0.0000000  0.0000000     0.2200000  0.2200000  0.2200000
                       0.0000000  0.0000000  0.0000000     0.2200000  0.2200000  0.2200000
                       0.0000000  0.0000000  0.0000000     0.2200000  0.2200000  0.2200000
                       0.0000000  0.0000000  0.0000000     0.2200000  0.2200000  0.2200000
                       0.0000000  0.0000000  0.0000000     0.2200000  0.2200000  0.2200000
           toldfe      1.00000000E-10 Hartree
           tsmear      1.00000000E-03 Hartree
            typat      1  1
         wfoptalg         114
           xangst      0.0000000000E+00  0.0000000000E+00  0.0000000000E+00
                       1.2067992077E+00  1.2067992077E+00  1.2067992077E+00
            xcart      0.0000000000E+00  0.0000000000E+00  0.0000000000E+00
                       2.2805200000E+00  2.2805200000E+00  2.2805200000E+00
             xred      0.0000000000E+00  0.0000000000E+00  0.0000000000E+00
                       2.2000000000E-01  2.2000000000E-01  2.2000000000E-01
            znucl       14.00000

================================================================================

 chkinp: Checking input parameters for consistency, jdtset=   1.

 chkinp: Checking input parameters for consistency, jdtset=   2.

================================================================================
== DATASET  1 ==================================================================
-   mpi_nproc: 4, omp_nthreads: -1 (-1 if OMP is not activated)


--- !DatasetInfo
iteration_state: {dtset: 1, }
dimensions: {natom: 2, nkpt: 1, mband: 8, nsppol: 1, nspinor: 1, nspden: 1, mpw: 41, }
cutoff_energies: {ecut:   5.0, pawecutdg:  -1.0, }
electrons: {nelect:   8.00000000E+00, charge:   0.00000000E+00, occopt:   7.00000000E+00, tsmear:   1.00000000E-03, }
meta: {optdriver: 0, ionmov: 0, optcell: 0, iscf: 7, paral_kgb: 1, }
...

 Exchange-correlation functional for the present dataset will be:
  LDA: old Teter (4/91) fit to Ceperley-Alder data - ixc=3

 Real(R)+Recip(G) space primitive vectors, cartesian coordinates (Bohr,Bohr^-1):
 R(1)=  0.0000000  5.1830000  5.1830000  G(1)= -0.0964692  0.0964692  0.0964692
 R(2)=  5.1830000  0.0000000  5.1830000  G(2)=  0.0964692 -0.0964692  0.0964692
 R(3)=  5.1830000  5.1830000  0.0000000  G(3)=  0.0964692  0.0964692 -0.0964692
 Unit cell volume ucvol=  2.7846693E+02 bohr^3
 Angles (23,13,12)=  6.00000000E+01  6.00000000E+01  6.00000000E+01 degrees

 getcut: wavevector=  0.0000  0.0000  0.0000  ngfft=  16  16  16
         ecut(hartree)=      5.000   => boxcut(ratio)=   2.16857

--- Pseudopotential description ------------------------------------------------
- pspini: atom type   1  psp file is /home/buildbot/ABINIT3/eos_gnu_13.2_mpich/baguetl_chebfi-oracle/tests/Pspdir/14si.phoney_mod
- pspatm: opening atomic psp file    /home/buildbot/ABINIT3/eos_gnu_13.2_mpich/baguetl_chebfi-oracle/tests/Pspdir/14si.phoney_mod
- 2 bohr rc 15 hartree ec psp for silicon 8 November 1991 (new)
- 14.00000   4.00000    980710                znucl, zion, pspdat
    5    3    2    2       600   0.00000      pspcod,pspxc,lmax,lloc,mmax,r2well
    1.000000E-06    3.075239E-02              r1 and al (Hamman grid)
    0   0.000   0.000    2   2.0042666        l,e99.0,e99.9,nproj,rcpsp
   0.00000000   0.00000000   0.00000000   0.00000000     rms, ekb1, ekb2, epsatm
    1   0.000   0.000    2   2.0042666        l,e99.0,e99.9,nproj,rcpsp
   0.00000000   0.00000000   0.00000000   0.00000000     rms, ekb1, ekb2, epsatm
    2   0.000   0.000    0   2.0042666        l,e99.0,e99.9,nproj,rcpsp
   0.00000000   0.00000000   0.00000000   0.00000000     rms, ekb1, ekb2, epsatm
    0.00000000000000    0.00000000000000    0.00000000000000   rchrg,fchrg,qchrg
  pspatm : epsatm=   -1.82035725
         --- l  ekb(1:nproj) -->
             0    3.773677   10.247662
             1    2.166328    2.055393
 pspatm: atomic psp has been read  and splines computed

  -2.91257160E+01                                ecore*ucvol(ha*bohr**3)
--------------------------------------------------------------------------------

_setup2: Arith. and geom. avg. npw (full set) are      41.000      41.000

================================================================================

--- !BeginCycle
iteration_state: {dtset: 1, }
solver: {iscf: 7, nstep: 4, nline: 4, wfoptalg: 114, }
tolerances: {toldfe: 1.00E-10, }
...

     iter   Etot(hartree)      deltaE(h)  residm     vres2
 ETOT  1  -7.2166368737463    -7.217E+00 1.795E-04 1.234E+01
 ETOT  2  -7.2307483280158    -1.411E-02 1.926E-09 7.797E-01
 ETOT  3  -7.2314428020765    -6.945E-04 5.263E-09 1.024E-02
 ETOT  4  -7.2314485394489    -5.737E-06 8.560E-10 3.360E-05

 Cartesian components of stress tensor (hartree/bohr^3)
  sigma(1 1)= -1.22108050E-03  sigma(3 2)= -2.82055666E-04
  sigma(2 2)= -1.22108050E-03  sigma(3 1)= -2.82055666E-04
  sigma(3 3)= -1.22108050E-03  sigma(2 1)= -2.82055666E-04


 scprqt:  WARNING -
  nstep=    4 was not enough SCF cycles to converge;
  maximum energy difference=  5.737E-06 exceeds toldfe=  1.000E-10


--- !ResultsGS
iteration_state: {dtset: 1, }
comment   : Summary of ground state results
lattice_vectors:
- [  0.0000000,   5.1830000,   5.1830000, ]
- [  5.1830000,   0.0000000,   5.1830000, ]
- [  5.1830000,   5.1830000,   0.0000000, ]
lattice_lengths: [   7.32987,    7.32987,    7.32987, ]
lattice_angles: [ 60.000,  60.000,  60.000, ] # degrees, (23, 13, 12)
lattice_volume:   2.7846693E+02
convergence: {deltae: -5.737E-06, res2:  3.360E-05, residm:  8.560E-10, diffor: null, }
etotal    :  -7.23144854E+00
entropy   :   0.00000000E+00
fermie    :   3.01851154E-01
cartesian_stress_tensor: # hartree/bohr^3
- [ -1.22108050E-03,  -2.82055666E-04,  -2.82055666E-04, ]
- [ -2.82055666E-04,  -1.22108050E-03,  -2.82055666E-04, ]
- [ -2.82055666E-04,  -2.82055666E-04,  -1.22108050E-03, ]
pressure_GPa:   3.5925E+01
xred      :
- [  0.0000E+00,   0.0000E+00,   0.0000E+00, Si]
- [  2.2000E-01,   2.2000E-01,   2.2000E-01, Si]
cartesian_forces: # hartree/bohr
- [ -1.09721126E-01,  -1.09721126E-01,  -1.09721126E-01, ]
- [  1.09721126E-01,   1.09721126E-01,   1.09721126E-01, ]
force_length_stats: {min:   1.90042565E-01, max:   1.90042565E-01, mean:   1.90042565E-01, }
...

 Integrated electronic density in atomic spheres:
 ------------------------------------------------
 Atom  Sphere_radius  Integrated_density
    1        2.00000          2.01606251
    2        2.00000          1.84476348
================================================================================

 ----iterations are completed or convergence reached----

 Mean square residual over all n,k,spin=   26.820E-11; max=  85.603E-11
 reduced coordinates (array xred) for    2 atoms
       0.000000000000      0.000000000000      0.000000000000
       0.220000000000      0.220000000000      0.220000000000
 rms dE/dt=  1.1374E+00; max dE/dt=  1.1374E+00; dE/dt below (all hartree)
    1       1.137369195474      1.137369195474      1.137369195474
    2      -1.137369195474     -1.137369195474     -1.137369195474

 cartesian coordinates (angstrom) at end:
    1      0.00000000000000     0.00000000000000     0.00000000000000
    2      1.20679920773367     1.20679920773367     1.20679920773367

 cartesian forces (hartree/bohr) at end:
    1     -0.10972112632396    -0.10972112632396    -0.10972112632396
    2      0.10972112632396     0.10972112632396     0.10972112632396
 frms,max,avg= 1.0972113E-01 1.0972113E-01   0.000E+00  0.000E+00  0.000E+00 h/b

 cartesian forces (eV/Angstrom) at end:
    1     -5.64208669135279    -5.64208669135278    -5.64208669135279
    2      5.64208669135279     5.64208669135278     5.64208669135279
 frms,max,avg= 5.6420867E+00 5.6420867E+00   0.000E+00  0.000E+00  0.000E+00 e/A
 length scales= 10.366000000000 10.366000000000 10.366000000000 bohr
              =  5.485450944244  5.485450944244  5.485450944244 angstroms
 prteigrs : about to open file t49_MPI4o_DS1_EIG
 Fermi (or HOMO) energy (hartree) =   0.30185   Average Vxc (hartree)=  -0.32155
 Eigenvalues (hartree) for nkpt=   1  k points:
 kpt#   1, nband=  8, wtk=  1.00000, kpt=  0.0000  0.0000  0.0000 (reduced coord)
  -0.18466    0.20126    0.29410    0.29410    0.30868    0.30868    0.37035    0.38706
      occupation numbers for kpt#   1
   2.00000    2.00000    2.00000    2.00000    0.00000    0.00000    0.00000    0.00000
 Fermi (or HOMO) energy (eV) =   8.21379   Average Vxc (eV)=  -8.74977
 Eigenvalues (   eV  ) for nkpt=   1  k points:
 kpt#   1, nband=  8, wtk=  1.00000, kpt=  0.0000  0.0000  0.0000 (reduced coord)
  -5.02486    5.47669    8.00275    8.00275    8.39971    8.39971   10.07766   10.53233

--- !EnergyTerms
iteration_state     : {dtset: 1, }
comment             : Components of total free energy in Hartree
kinetic             :  4.03418172744034E+00
hartree             :  8.29695829797467E-01
xc                  : -2.49482973112731E+00
Ewald energy        : -8.26608138368135E+00
psp_core            : -1.04593088893961E-01
local_psp           : -2.88896984760014E+00
non_local_psp       :  1.65914795461605E+00
internal            : -7.23144853944890E+00
'-kT*entropy'       : -7.55261880796144E-19
total_energy        : -7.23144853944890E+00
total_energy_eV     : -1.96777722070780E+02
band_energy         :  1.20959108881763E+00
...


 Cartesian components of stress tensor (hartree/bohr^3)
  sigma(1 1)= -1.22108050E-03  sigma(3 2)= -2.82055666E-04
  sigma(2 2)= -1.22108050E-03  sigma(3 1)= -2.82055666E-04
  sigma(3 3)= -1.22108050E-03  sigma(2 1)= -2.82055666E-04

-Cartesian components of stress tensor (GPa)         [Pressure=  3.5925E+01 GPa]
- sigma(1 1)= -3.59254226E+01  sigma(3 2)= -8.29836279E+00
- sigma(2 2)= -3.59254226E+01  sigma(3 1)= -8.29836279E+00
- sigma(3 3)= -3.59254226E+01  sigma(2 1)= -8.29836279E+00

================================================================================
== DATASET  2 ==================================================================
-   mpi_nproc: 4, omp_nthreads: -1 (-1 if OMP is not activated)


--- !DatasetInfo
iteration_state: {dtset: 2, }
dimensions: {natom: 2, nkpt: 1, mband: 8, nsppol: 1, nspinor: 1, nspden: 1, mpw: 41, }
cutoff_energies: {ecut:   5.0, pawecutdg:  -1.0, }
electrons: {nelect:   8.00000000E+00, charge:   0.00000000E+00, occopt:   7.00000000E+00, tsmear:   1.00000000E-03, }
meta: {optdriver: 0, ionmov: 0, optcell: 0, iscf: 7, paral_kgb: 1, }
...

 mkfilename : getwfk/=0, take file _WFK from output of DATASET   1.

 mkfilename : getden/=0, take file _DEN from output of DATASET   1.

 Exchange-correlation functional for the present dataset will be:
  LDA: old Teter (4/91) fit to Ceperley-Alder data - ixc=3

 Real(R)+Recip(G) space primitive vectors, cartesian coordinates (Bohr,Bohr^-1):
 R(1)=  0.0000000  5.1830000  5.1830000  G(1)= -0.0964692  0.0964692  0.0964692
 R(2)=  5.1830000  0.0000000  5.1830000  G(2)=  0.0964692 -0.0964692  0.0964692
 R(3)=  5.1830000  5.1830000  0.0000000  G(3)=  0.0964692  0.0964692 -0.0964692
 Unit cell volume ucvol=  2.7846693E+02 bohr^3
 Angles (23,13,12)=  6.00000000E+01  6.00000000E+01  6.00000000E+01 degrees

 getcut: wavevector=  0.0000  0.0000  0.0000  ngfft=  16  16  16
         ecut(hartree)=      5.000   => boxcut(ratio)=   2.16857
--------------------------------------------------------------------------------

-inwffil : will read wavefunctions from disk file t49_MPI4o_DS1_WFK
_setup2: Arith. and geom. avg. npw (full set) are      41.000      41.000

================================================================================

--- !BeginCycle
iteration_state: {dtset: 2, }
solver: {iscf: 7, nstep: 4, nline: 4, wfoptalg: 114, }
tolerances: {toldfe: 1.00E-10, }
...

     iter   Etot(hartree)      deltaE(h)  residm     vres2
 ETOT  1  -7.2314485530969    -7.231E+00 4.955E-16 2.223E-07
 ETOT  2  -7.2314485534417    -3.449E-10 2.226E-18 4.299E-09
 ETOT  3  -7.2314485534471    -5.346E-12 5.167E-17 5.110E-11
 ETOT  4  -7.2314485534471    -3.197E-14 4.746E-18 1.127E-12

 At SCF step    4, etot is converged :
  for the second time, diff in etot=  3.197E-14 < toldfe=  1.000E-10

 Cartesian components of stress tensor (hartree/bohr^3)
  sigma(1 1)= -1.22097052E-03  sigma(3 2)= -2.82072429E-04
  sigma(2 2)= -1.22097052E-03  sigma(3 1)= -2.82072429E-04
  sigma(3 3)= -1.22097052E-03  sigma(2 1)= -2.82072429E-04


--- !ResultsGS
iteration_state: {dtset: 2, }
comment   : Summary of ground state results
lattice_vectors:
- [  0.0000000,   5.1830000,   5.1830000, ]
- [  5.1830000,   0.0000000,   5.1830000, ]
- [  5.1830000,   5.1830000,   0.0000000, ]
lattice_lengths: [   7.32987,    7.32987,    7.32987, ]
lattice_angles: [ 60.000,  60.000,  60.000, ] # degrees, (23, 13, 12)
lattice_volume:   2.7846693E+02
convergence: {deltae: -3.197E-14, res2:  1.127E-12, residm:  4.746E-18, diffor: null, }
etotal    :  -7.23144855E+00
entropy   :   0.00000000E+00
fermie    :   3.01771727E-01
cartesian_stress_tensor: # hartree/bohr^3
- [ -1.22097052E-03,  -2.82072429E-04,  -2.82072429E-04, ]
- [ -2.82072429E-04,  -1.22097052E-03,  -2.82072429E-04, ]
- [ -2.82072429E-04,  -2.82072429E-04,  -1.22097052E-03, ]
pressure_GPa:   3.5922E+01
xred      :
- [  0.0000E+00,   0.0000E+00,   0.0000E+00, Si]
- [  2.2000E-01,   2.2000E-01,   2.2000E-01, Si]
cartesian_forces: # hartree/bohr
- [ -1.09718598E-01,  -1.09718598E-01,  -1.09718598E-01, ]
- [  1.09718598E-01,   1.09718598E-01,   1.09718598E-01, ]
force_length_stats: {min:   1.90038186E-01, max:   1.90038186E-01, mean:   1.90038186E-01, }
...

 Integrated electronic density in atomic spheres:
 ------------------------------------------------
 Atom  Sphere_radius  Integrated_density
    1        2.00000          2.01602627
    2        2.00000          1.84473417
================================================================================

 ----iterations are completed or convergence reached----

 Mean square residual over all n,k,spin=   14.016E-19; max=  47.464E-19
 reduced coordinates (array xred) for    2 atoms
       0.000000000000      0.000000000000      0.000000000000
       0.220000000000      0.220000000000      0.220000000000
 rms dE/dt=  1.1373E+00; max dE/dt=  1.1373E+00; dE/dt below (all hartree)
    1       1.137342984263      1.137342984263      1.137342984263
    2      -1.137342984263     -1.137342984263     -1.137342984263

 cartesian coordinates (angstrom) at end:
    1      0.00000000000000     0.00000000000000     0.00000000000000
    2      1.20679920773367     1.20679920773367     1.20679920773367

 cartesian forces (hartree/bohr) at end:
    1     -0.10971859774870    -0.10971859774870    -0.10971859774870
    2      0.10971859774870     0.10971859774870     0.10971859774870
 frms,max,avg= 1.0971860E-01 1.0971860E-01   0.000E+00  0.000E+00  0.000E+00 h/b

 cartesian forces (eV/Angstrom) at end:
    1     -5.64195666679586    -5.64195666679586    -5.64195666679586
    2      5.64195666679586     5.64195666679586     5.64195666679586
 frms,max,avg= 5.6419567E+00 5.6419567E+00   0.000E+00  0.000E+00  0.000E+00 e/A
 length scales= 10.366000000000 10.366000000000 10.366000000000 bohr
              =  5.485450944244  5.485450944244  5.485450944244 angstroms
 prteigrs : about to open file t49_MPI4o_DS2_EIG
 Fermi (or HOMO) energy (hartree) =   0.30177   Average Vxc (hartree)=  -0.32155
 Eigenvalues (hartree) for nkpt=   1  k points:
 kpt#   1, nband=  8, wtk=  1.00000, kpt=  0.0000  0.0000  0.0000 (reduced coord)
  -0.18473    0.20120    0.29404    0.29404    0.30862    0.30862    0.37028    0.38698
      occupation numbers for kpt#   1
   2.00000    2.00000    2.00000    2.00000    0.00000    0.00000    0.00000    0.00000
 Fermi (or HOMO) energy (eV) =   8.21163   Average Vxc (eV)=  -8.74991
 Eigenvalues (   eV  ) for nkpt=   1  k points:
 kpt#   1, nband=  8, wtk=  1.00000, kpt=  0.0000  0.0000  0.0000 (reduced coord)
  -5.02680    5.47505    8.00111    8.00111    8.39793    8.39793   10.07573   10.53013

--- !EnergyTerms
iteration_state     : {dtset: 2, }
comment             : Components of total free energy in Hartree
kinetic             :  4.03411800546425E+00
hartree             :  8.29612023925055E-01
xc                  : -2.49479441214657E+00
Ewald energy        : -8.26608138368135E+00
psp_core            : -1.04593088893961E-01
local_psp           : -2.88887546431336E+00
non_local_psp       :  1.65916576619883E+00
internal            : -7.23144855344711E+00
'-kT*entropy'       : -7.55261880796144E-19
total_energy        : -7.23144855344711E+00
total_energy_eV     : -1.96777722451691E+02
band_energy         :  1.20908670621386E+00
...


 Cartesian components of stress tensor (hartree/bohr^3)
  sigma(1 1)= -1.22097052E-03  sigma(3 2)= -2.82072429E-04
  sigma(2 2)= -1.22097052E-03  sigma(3 1)= -2.82072429E-04
  sigma(3 3)= -1.22097052E-03  sigma(2 1)= -2.82072429E-04

-Cartesian components of stress tensor (GPa)         [Pressure=  3.5922E+01 GPa]
- sigma(1 1)= -3.59221869E+01  sigma(3 2)= -8.29885597E+00
- sigma(2 2)= -3.59221869E+01  sigma(3 1)= -8.29885597E+00
- sigma(3 3)= -3.59221869E+01  sigma(2 1)= -8.29885597E+00

== END DATASET(S) ==============================================================
================================================================================

 -outvars: echo values of variables after computation  --------
-          iomode           1
            acell      1.0366000000E+01  1.0366000000E+01  1.0366000000E+01 Bohr
              amu      2.80855000E+01
      chksymtnons           0
     densfor_pred           6
           diemac      1.20000000E+01
             ecut      5.00000000E+00 Hartree
           enunit           2
           etotal1    -7.2314485394E+00
           etotal2    -7.2314485534E+00
            fcart1    -1.0972112632E-01 -1.0972112632E-01 -1.0972112632E-01
                       1.0972112632E-01  1.0972112632E-01  1.0972112632E-01
            fcart2    -1.0971859775E-01 -1.0971859775E-01 -1.0971859775E-01
                       1.0971859775E-01  1.0971859775E-01  1.0971859775E-01
-          fftalg         401
           getden1          0
           getden2         -1
           getwfk1          0
           getwfk2         -1
           istwfk        1
              ixc           3
           jdtset        1    2
         kptrlatt        1    0    0      0    1    0      0    0    1
          kptrlen      7.32986889E+00
P           mkmem           1
            natom           2
            nband           8
           ndtset           2
            ngfft          16      16      16
             nkpt           1
    nblock_lobpcg           4
-          npband           2
-           npfft           2
            nstep           4
             nsym          12
           ntypat           1
              occ      2.000000  2.000000  2.000000  2.000000  0.000000  0.000000
                       0.000000  0.000000
           occopt           7
           ortalg          -2
        paral_kgb           1
            rprim      0.0000000000E+00  5.0000000000E-01  5.0000000000E-01
                       5.0000000000E-01  0.0000000000E+00  5.0000000000E-01
                       5.0000000000E-01  5.0000000000E-01  0.0000000000E+00
          spgroup         166
           strten1    -1.2210805014E-03 -1.2210805014E-03 -1.2210805014E-03
                      -2.8205566580E-04 -2.8205566580E-04 -2.8205566580E-04
           strten2    -1.2209705199E-03 -1.2209705199E-03 -1.2209705199E-03
                      -2.8207242856E-04 -2.8207242856E-04 -2.8207242856E-04
           symrel      1  0  0   0  1  0   0  0  1      -1  0  0   0 -1  0   0  0 -1
                       1  0  0   0  0  1   0  1  0      -1  0  0   0  0 -1   0 -1  0
                       0  1  0   0  0  1   1  0  0       0 -1  0   0  0 -1  -1  0  0
                       0  1  0   1  0  0   0  0  1       0 -1  0  -1  0  0   0  0 -1
                       0  0  1   1  0  0   0  1  0       0  0 -1  -1  0  0   0 -1  0
                       0  0  1   0  1  0   1  0  0       0  0 -1   0 -1  0  -1  0  0
           timopt          -1
            tnons      0.0000000  0.0000000  0.0000000     0.2200000  0.2200000  0.2200000
                       0.0000000  0.0000000  0.0000000     0.2200000  0.2200000  0.2200000
                       0.0000000  0.0000000  0.0000000     0.2200000  0.2200000  0.2200000
                       0.0000000  0.0000000  0.0000000     0.2200000  0.2200000  0.2200000
                       0.0000000  0.0000000  0.0000000     0.2200000  0.2200000  0.2200000
                       0.0000000  0.0000000  0.0000000     0.2200000  0.2200000  0.2200000
           toldfe      1.00000000E-10 Hartree
           tsmear      1.00000000E-03 Hartree
            typat      1  1
         wfoptalg         114
           xangst      0.0000000000E+00  0.0000000000E+00  0.0000000000E+00
                       1.2067992077E+00  1.2067992077E+00  1.2067992077E+00
            xcart      0.0000000000E+00  0.0000000000E+00  0.0000000000E+00
                       2.2805200000E+00  2.2805200000E+00  2.2805200000E+00
             xred      0.0000000000E+00  0.0000000000E+00  0.0000000000E+00
                       2.2000000000E-01  2.2000000000E-01  2.2000000000E-01
            znucl       14.00000

================================================================================

 Test the timer : 
  a combined call timab(*,1,tsec) + timab(*,2,tsec) is 
- CPU time =    1.7290E-06 sec,    Wall time =    1.7290E-06 sec

- Total cpu        time (s,m,h):          3.2        0.05      0.001
- Total wall clock time (s,m,h):          3.2        0.05      0.001
-
- For major independent code sections, cpu and wall times (sec),
-  as well as % of the time and number of calls for node 0
-
-<BEGIN_TIMER mpi_nprocs = 4, omp_nthreads = 1, mpi_rank = 0>
- cpu_time =            0.8, wall_time =            0.8
-
- routine                                    cpu     %          wall   %        number of calls Gflops    Speedup Efficacity
-                                                                                (-1=no count)
- pspini                                    0.178   5.6         0.178   5.6              2      -1.00        1.00       1.00
- timing timab                              0.150   4.7         0.150   4.7             12      -1.00        1.00       1.00
- get_dtsets_pspheads                       0.138   4.4         0.138   4.4              1      -1.00        1.00       1.00
- abinit(chkinp,chkvars)                    0.041   1.3         0.041   1.3              1      -1.00        1.00       1.00
- abinit(outvars)                           0.035   1.1         0.035   1.1              1      -1.00        1.00       1.00
- ewald                                     0.032   1.0         0.032   1.0              2      -1.00        1.00       1.00
- stress                                    0.024   0.8         0.024   0.8              2      -1.00        1.00       1.00
- ewald2 (+vdw_dftd)                        0.024   0.8         0.024   0.7              2      -1.00        1.00       1.00
- abinit(after driver)                      0.023   0.7         0.023   0.7              1      -1.00        1.00       1.00
- fourwf%(pot)                              0.017   0.6         0.017   0.6            240      -1.00        1.00       1.00
- abinit(init,iofn1,herald)                 0.009   0.3         0.009   0.3              1      -1.00        0.96       0.96
- nonlop(apply)                             0.005   0.2         0.005   0.2            240      -1.00        0.99       0.99
- mkrho/=                                   0.003   0.1         0.003   0.1             16      -1.00        1.00       1.00
- fourdp                                    0.003   0.1         0.003   0.1             46      -1.00        1.00       1.00
- getghc(/=fourXX,nonlop,fock_XX)           0.001   0.0         0.001   0.0             -1      -1.00        1.06       1.06
- xc:pot/=fourdp                            0.001   0.0         0.001   0.0             10      -1.00        1.00       1.00
- symrhg(no FFT)                            0.001   0.0         0.001   0.0              8      -1.00        1.00       1.00
- nonlop(forces)                            0.001   0.0         0.001   0.0             48      -1.00        0.98       0.98
- setsym                                    0.001   0.0         0.001   0.0              2      -1.00        1.00       1.00
- inwffil(excl. calls)                      0.001   0.0         0.001   0.0              2      -1.00        1.00       1.00
- forces                                    0.000   0.0         0.000   0.0              2      -1.00        1.00       1.00
- scfcv-scprqt                              0.000   0.0         0.000   0.0              8      -1.00        0.99       0.99
- vtowfk(contrib)                           0.000   0.0         0.000   0.0              8      -1.00        0.98       0.98
- vtowfk(ssdiag)                            0.000   0.0         0.000   0.0             -1      -1.00        0.97       0.97
- mkffnl                                    0.000   0.0         0.000   0.0              4      -1.00        1.02       1.02
- prep_bandfft_tabs                         0.000   0.0         0.000   0.0              4      -1.00        1.02       1.02
- kpgsph                                    0.000   0.0         0.000   0.0              4      -1.00        1.01       1.01
- newkpt(excl. rwwf   )                     0.000   0.0         0.000   0.0             -1      -1.00        0.98       0.98
- vtowfk  (1)                               0.000   0.0         0.000   0.0              8      -1.00        1.22       1.22
- initwf(after rwwf)                        0.000   0.0         0.000   0.0              1      -1.00        1.02       1.02
- wfsinp(excl. calls)                       0.000   0.0         0.000   0.0              1      -1.00        1.00       1.00
- others (128)                              0.000   0.0         0.000   0.0             -1      -1.00        1.10       1.10
-<END_TIMER>
-
- subtotal                                  0.687  21.8         0.687  21.8                                  1.00       1.00

- For major independent code sections, cpu and wall times (sec),
- as well as % of the total time and number of calls

-<BEGIN_TIMER mpi_nprocs = 4, omp_nthreads = 1, mpi_rank = world>
- cpu_time =           3.2, wall_time =           3.2
-
- routine                                    cpu     %          wall   %        number of calls Gflops    Speedup Efficacity
-                                                                                (-1=no count)
- pspini                                    0.579  18.4         0.579  18.3              8      -1.00        1.00       1.00
- timing timab                              0.487  15.5         0.487  15.4             47      -1.00        1.00       1.00
- get_dtsets_pspheads                       0.390  12.4         0.390  12.4              4      -1.00        1.00       1.00
- abinit(outvars)                           0.228   7.2         0.228   7.2              4      -1.00        1.00       1.00
- abinit(chkinp,chkvars)                    0.183   5.8         0.183   5.8              4      -1.00        1.00       1.00
- ewald                                     0.101   3.2         0.101   3.2              8      -1.00        1.00       1.00
- stress                                    0.078   2.5         0.078   2.5              8      -1.00        1.00       1.00
- ewald2 (+vdw_dftd)                        0.076   2.4         0.076   2.4              8      -1.00        1.00       1.00
- fourwf%(pot)                              0.070   2.2         0.070   2.2            960      -1.00        1.00       1.00
- fourdp                                    0.038   1.2         0.038   1.2            184      -1.00        1.00       1.00
- abinit(init,iofn1,herald)                 0.035   1.1         0.036   1.1              4      -1.00        0.99       0.99
- abinit(after driver)                      0.023   0.7         0.023   0.7              4      -1.00        1.00       1.00
- nonlop(apply)                             0.021   0.7         0.021   0.7            960      -1.00        0.99       0.99
- mkrho/=                                   0.011   0.3         0.011   0.3             64      -1.00        1.00       1.00
- xc:pot/=fourdp                            0.005   0.1         0.005   0.1             40      -1.00        1.00       1.00
- getghc(/=fourXX,nonlop,fock_XX)           0.005   0.1         0.004   0.1             -4      -1.00        1.05       1.05
- symrhg(no FFT)                            0.003   0.1         0.003   0.1             32      -1.00        1.00       1.00
- nonlop(forces)                            0.003   0.1         0.003   0.1            192      -1.00        0.99       0.99
- setsym                                    0.003   0.1         0.003   0.1              8      -1.00        1.00       1.00
- scfcv-scprqt                              0.002   0.1         0.002   0.1             32      -1.00        0.99       0.99
- inwffil(excl. calls)                      0.002   0.1         0.002   0.1              8      -1.00        1.00       1.00
- forces                                    0.002   0.1         0.002   0.1              8      -1.00        1.00       1.00
- kpgsph                                    0.001   0.0         0.001   0.0             16      -1.00        1.00       1.00
- vtowfk(contrib)                           0.000   0.0         0.001   0.0             32      -1.00        1.00       1.00
- newkpt(excl. rwwf   )                     0.000   0.0         0.000   0.0             -4      -1.00        1.01       1.01
- prep_bandfft_tabs                         0.000   0.0         0.000   0.0             16      -1.00        1.00       1.00
- mkffnl                                    0.000   0.0         0.000   0.0             16      -1.00        1.01       1.01
- vtowfk(ssdiag)                            0.000   0.0         0.000   0.0             -4      -1.00        0.98       0.98
- vtowfk  (1)                               0.000   0.0         0.000   0.0             32      -1.00        1.07       1.07
- wfsinp(excl. calls)                       0.000   0.0         0.000   0.0              4      -1.00        0.96       0.96
- initwf(after rwwf)                        0.000   0.0         0.000   0.0              4      -1.00        0.97       0.97
- others (128)                              0.000   0.0         0.000   0.0             -1      -1.00        0.86       0.86
-<END_TIMER>

- subtotal                                  2.348  74.5         2.349  74.4                                  1.00       1.00

 Partitioning of abinit
- abinit                                    3.150 100.0         3.157 100.0              4                   1.00       1.00
 
- abinit(init,iofn1,herald)                 0.035   1.1         0.036   1.1              4                   0.99       0.99
- get_dtsets_pspheads                       0.390  12.4         0.390  12.4              4                   1.00       1.00
- abinit(outvars)                           0.228   7.2         0.228   7.2              4                   1.00       1.00
- abinit(chkinp,chkvars)                    0.183   5.8         0.183   5.8              4                   1.00       1.00
- driver                                    1.766  56.1         1.773  56.1              4                   1.00       1.00
- abinit(after driver)                      0.023   0.7         0.023   0.7              4                   1.00       1.00
- timing timab                              0.487  15.5         0.487  15.4             47                   1.00       1.00
- (other)                                   0.037   1.2         0.037   1.2             -1                   1.00       1.00

- subtotal                                  3.150 100.0         3.157 100.0                                  1.00       1.00

 Partitioning of driver
- driver                                    1.766  56.1         1.773  56.1              4                   1.00       1.00
 
- driver(bef. select case)                  0.045   1.4         0.045   1.4              8                   1.00       1.00
- (other)                                   1.720  54.6         1.727  54.7             -1                   1.00       1.00

- subtotal                                  1.766  56.1         1.773  56.1                                  1.00       1.00

 Partitioning of gstateimg+gstate
- gstateimg                                 1.712  54.3         1.718  54.4              8                   1.00       1.00
 
- gstate(1)                                 0.142   4.5         0.142   4.5             16                   1.00       1.00
- gstate(pspini)                            0.579  18.4         0.579  18.4              8                   1.00       1.00
- gstate(2)                                 0.002   0.1         0.002   0.1              8                   1.00       1.00
- gstate(init rhor rhog)                    0.003   0.1         0.003   0.1              8                   1.00       1.00
- gstate(...scfcv)                          0.712  22.6         0.718  22.8              8                   0.99       0.99
- gstate(prtwf)                             0.264   8.4         0.264   8.4              8                   1.00       1.00
- gstate(clnup1)                            0.007   0.2         0.007   0.2              8                   1.00       1.00
- gstate(DDB)                               0.001   0.0         0.001   0.0              8                   1.00       1.00

- subtotal                                  1.712  54.3         1.718  54.4                                  1.00       1.00

 Partitioning of scfcv_core
- scfcv_core                                0.712  22.6         0.718  22.7              8                   0.99       0.99
 
- scfcv_core(setvtr)                        0.131   4.2         0.131   4.1             32                   1.00       1.00
- scfcv_core(vtorho(f))                     0.380  12.1         0.381  12.1             32                   1.00       1.00
- scfcv-scprqt                              0.002   0.1         0.002   0.1             32                   0.99       0.99
- scfcv_core(rhotov)                        0.008   0.3         0.008   0.2             32                   1.00       1.00
- scfcv_core(mix pot)                       0.007   0.2         0.007   0.2             28                   0.99       0.99
- scfcv_core(afterscfloop)                  0.100   3.2         0.100   3.2              8                   1.00       1.00
- scfcv_core(outscfcv)                      0.081   2.6         0.087   2.8              8                   0.93       0.93

- subtotal                                  0.712  22.6         0.718  22.7                                  0.99       0.99

 Partitioning of rhotov
- rhotov                                    0.008   0.2         0.008   0.2             32                   1.00       1.00
 
- rhotov(rhotoxc)                           0.004   0.1         0.004   0.1             32                   1.00       1.00
- rhotov(other)                             0.001   0.0         0.001   0.0             32                   0.99       0.99
- (other)                                   0.003   0.1         0.003   0.1             -1                   1.00       1.00

- subtotal                                  0.008   0.2         0.008   0.2                                  1.00       1.00

 Partitioning of vtorho
- vtorho                                    0.380  12.1         0.380  12.1             32                   1.00       1.00
 
- vtowfk                                    0.332  10.5         0.332  10.5             32                   1.00       1.00
- vtorho(newocc)                            0.026   0.8         0.026   0.8             32                   1.00       1.00
- vtorho(mkrho 1)                           0.019   0.6         0.019   0.6             32                   1.00       1.00
- vtorho(mkrho 2)                           0.001   0.0         0.001   0.0             32                   0.99       0.99

- subtotal                                  0.380  12.1         0.380  12.1                                  1.00       1.00

 Partitioning of vtowfk
- vtowfk                                    0.332  10.5         0.332  10.5             32                   1.00       1.00
 
- vtowfk(2)                                 0.331  10.5         0.331  10.5             -4                   1.00       1.00

- subtotal                                  0.332  10.5         0.332  10.5                                  1.00       1.00

 Partitioning of getghc
- getghc                                    0.095   3.0         0.095   3.0            960                   1.00       1.00
 
- fourwf%getghc                             0.070   2.2         0.070   2.2            960                   1.00       1.00
- nonlop%getghc                             0.021   0.7         0.021   0.7            960                   0.99       0.99
- getghc(/=fourXX,nonlop,fock_XX)           0.005   0.1         0.004   0.1             -4                   1.05       1.05

- subtotal                                  0.095   3.0         0.095   3.0                                  1.00       1.00

 Partitioning of fourwf (upwards partitioning)
- fourwf                                    0.073   2.3         0.073   2.3           1024                   1.00       1.00
 
- fourwf%getghc                             0.070   2.2         0.070   2.2            960                   1.00       1.00
- fourwf%prep_four                          0.003   0.1         0.003   0.1             64                   1.00       1.00

- subtotal                                  0.073   2.3         0.073   2.3                                  1.00       1.00

 Partitioning of prep_fourwf
- prep_fourwf                               0.008   0.3         0.008   0.3            128                   1.00       1.00
 
- fourwf%prep_four                          0.003   0.1         0.003   0.1             64                   1.00       1.00
- alltoall%prep_fo                          0.004   0.1         0.004   0.1            128                   1.00       1.00

- subtotal                                  0.008   0.2         0.008   0.2                                  1.00       1.00

 Partitioning of prep_nonlop
- prep_nonlop                               0.006   0.2         0.006   0.2            208                   1.00       1.00
 
- nonlop%prep_nonl%forstrn                  0.001   0.0         0.001   0.0             16                   0.99       0.99
- prep_nonlop(alltoall)                     0.001   0.0         0.001   0.0            208                   0.99       0.99
- (other)                                   0.004   0.1         0.004   0.1             -1                   1.00       1.00

- subtotal                                  0.006   0.2         0.006   0.2                                  1.00       1.00

 Partitioning of mkrho (upwards partitioning)
- mkrho                                     0.019   0.6         0.019   0.6             32                   1.00       1.00
 
- mkrho%vtorho                              0.019   0.6         0.019   0.6             32                   1.00       1.00

- subtotal                                  0.019   0.6         0.019   0.6                                  1.00       1.00

 Partitioning of inwffil
- inwffil                                   0.005   0.1         0.005   0.1              8                   1.00       1.00
 
- inwffil(read header)                      0.002   0.1         0.002   0.1              8                   1.00       1.00
- inwffil(call wfsinp)                      0.002   0.1         0.002   0.1              4                   1.00       1.00

- subtotal                                  0.004   0.1         0.004   0.1                                  1.00       1.00

 Partitioning of wfsinp
- wfsinp                                    0.002   0.1         0.002   0.1              4                   1.00       1.00
 
- wfsinp(call  initwf)                      0.002   0.1         0.002   0.1              4                   1.00       1.00

- subtotal                                  0.002   0.1         0.002   0.1                                  1.00       1.00

 Partitioning of initwf
- initwf                                    0.002   0.1         0.002   0.1              4                   1.00       1.00
 
- rwwf%initwf(GS)                           0.002   0.1         0.002   0.1              4                   1.00       1.00

- subtotal                                  0.002   0.1         0.002   0.1                                  1.00       1.00

 Partitioning of newkpt
- newkpt                                    0.000   0.0         0.000   0.0              8                   1.00       1.00
 

- subtotal                                  0.000   0.0         0.000   0.0                                  1.01       1.01

 Partitioning of newvtr
- newvtr                                    0.007   0.2         0.007   0.2             28                   1.00       1.00
 
- newvtr(call prcref_PMA)                   0.004   0.1         0.004   0.1             28                   1.00       1.00
- newvtr(aft. prcref_PMA)                   0.002   0.1         0.002   0.1             28                   0.98       0.98

- subtotal                                  0.007   0.2         0.007   0.2                                  1.00       1.00

 Partitioning of fourdp (upwards partitioning)
- fourdp                                    0.038   1.2         0.038   1.2            184                   1.00       1.00
 
- fourdp%(other)                            0.038   1.2         0.038   1.2            184                   1.00       1.00

- subtotal                                  0.038   1.2         0.038   1.2                                  1.00       1.00

 Partitioning of afterscfloop
- afterscfloop                              0.100   3.2         0.100   3.2              8                   1.00       1.00
 
- afterscfloop(forstr)                      0.082   2.6         0.082   2.6              8                   1.00       1.00
- afterscfloop(final)                       0.019   0.6         0.019   0.6              8                   1.00       1.00

- subtotal                                  0.100   3.2         0.100   3.2                                  1.00       1.00

 Partitioning of forstr
- forstr                                    0.082   2.6         0.082   2.6              8                   1.00       1.00
 
- forstr(forstrnps)                         0.002   0.1         0.002   0.1              8                   1.00       1.00
- forstr(forces)                            0.002   0.1         0.002   0.1              8                   1.00       1.00
- forstr(stress)                            0.078   2.5         0.078   2.5              8                   1.00       1.00

- subtotal                                  0.081   2.6         0.081   2.6                                  1.00       1.00

 Partitioning of forstrnps
- forstrnps                                 0.002   0.1         0.002   0.1              8                   1.00       1.00
 
- forstrnps(nonlop+prep_ba                  0.001   0.0         0.001   0.0             16                   1.00       1.00

- subtotal                                  0.002   0.1         0.002   0.1                                  1.00       1.00

 Partitioning of outscfcv
- outscfcv                                  0.081   2.6         0.087   2.8              8                   0.93       0.93
 
- outscfcv([PAW]prtden)                     0.002   0.1         0.002   0.1              8                   1.00       1.00
- outscfcv(output GSR)                      0.078   2.5         0.084   2.7              8                   0.93       0.93

- subtotal                                  0.081   2.6         0.087   2.7                                  0.93       0.93

 Partitioning of lobpcgwf2 core engine
- lobpcgwf2                                 0.331  10.5         0.331  10.5             48                   1.00       1.00
 
- lobpcg_Bortho(X)                          0.006   0.2         0.006   0.2            192                   1.00       1.00
- lobpcg_Bortho(XW)                         0.005   0.2         0.005   0.2            192                   1.00       1.00
- lobpcg_Bortho(XWP)                        0.019   0.6         0.019   0.6            576                   1.00       1.00
- lobpcg_Bortho(Xall)                       0.002   0.1         0.002   0.1             48                   1.00       1.00
- lobpcg_RR(X)                              0.010   0.3         0.010   0.3            192                   1.00       1.00
- lobpcg_RR(XW)                             0.019   0.6         0.019   0.6            192                   1.00       1.00
- lobpcg_RR(XWP)                            0.069   2.2         0.069   2.2            576                   1.00       1.00
- lobpcg_RR(Xall)                           0.003   0.1         0.003   0.1             48                   1.00       1.00
- lobpcg_transpose                          0.043   1.4         0.043   1.4           1968                   1.00       1.00
- lobpcg_copy                               0.002   0.1         0.002   0.1            768                   0.99       0.99
- lobpcg_orthoWrtPrev                       0.011   0.3         0.011   0.3            720                   1.00       1.00
- lobpcg_nbdbuf                             0.004   0.1         0.004   0.1            960                   1.00       1.00
- lobpcg_enl                                0.005   0.2         0.005   0.2             48                   1.00       1.00
- lobpcg_maxResidu                          0.016   0.5         0.016   0.5           1920                   1.00       1.00
- lobpcg_run@getAX_BX                       0.102   3.2         0.102   3.2            960                   1.00       1.00
- lobpcg_pcond                              0.004   0.1         0.004   0.1            960                   0.99       0.99
- lobpcg(other)                             0.010   0.3         0.010   0.3             48                   1.00       1.00

- subtotal                                  0.331  10.5         0.331  10.5                                  1.00       1.00

 Partitioning of low-level xgTransposer type
- xgTransposer_transpose@ColsRows           0.008   0.2         0.008   0.2            960                   1.00       1.00
 
- xgTransposer_transpose@Linalg             0.023   0.7         0.023   0.7           2880                   1.00       1.00
- xgTransposer_*@all2all                    0.015   0.5         0.015   0.5           3840                   0.98       0.98
- xgTransposer_@reorganize                  0.004   0.1         0.004   0.1           3840                   1.00       1.00
- xgTransposer_init                         0.002   0.1         0.002   0.1            288                   0.98       0.98
- xgTransposer_transpose                    0.036   1.2         0.036   1.2           3840                   1.00       1.00

- subtotal                                  0.080   2.5         0.080   2.5                                  0.99       0.99

 Partitioning of low-level xgBlock type
- xgBlock_gemm(blas)                        0.020   0.6         0.021   0.7          12240                   0.99       0.99
 
- xgBlock_trsm                              0.007   0.2         0.007   0.2           3024                   0.99       0.99
- xgBlock_potrf                             0.002   0.1         0.002   0.1           1008                   0.99       0.99
- xgBlock_zero                              0.005   0.1         0.005   0.1           5424                   1.02       1.02
- xgBlock_zero_im_g0                        0.008   0.3         0.008   0.3          10656                   1.01       1.01
- xgBlock_heevd                             0.003   0.1         0.003   0.1            240                   0.98       0.98
- xgBlock_hegvd                             0.009   0.3         0.009   0.3            768                   0.98       0.98
- xgBlock_copy                              0.008   0.2         0.008   0.2           8208                   1.00       1.00
- xgBlock_cshift                            0.001   0.0         0.001   0.0            768                   0.99       0.99
- xgBlock_gemm(mpi)                         0.035   1.1         0.036   1.1           6192                   0.98       0.98
- xgBlock_apply_diag                        0.003   0.1         0.003   0.1            960                   1.00       1.00
- xgBlock_colwiseMul                        0.001   0.0         0.001   0.0            960                   1.02       1.02
- xgBlock_colwiseCymax                      0.001   0.0         0.001   0.0            960                   0.99       0.99
- xgBlock_colwiseNorm2                      0.011   0.4         0.012   0.4            960                   0.99       0.99
- xgBlock_minmax                            0.001   0.0         0.001   0.0            960                   1.00       1.00
- xgBlock_add                               0.003   0.1         0.003   0.1           2304                   1.01       1.01

- subtotal                                  0.098   3.1         0.099   3.1                                  0.99       0.99
-
-Synchronisation (=leave_test) and MPI calls 
- communic.MPI                              0.002   0.1         0.002   0.1            220                   0.99       0.99
-
- forstrnps:synchr                          0.000   0.0         0.000   0.0             16                   1.04       1.04
- wfsinp:synchro                            0.000   0.0         0.000   0.0              4                   1.00       1.00
- mkrho :MPIrhor                            0.000   0.0         0.000   0.0             32                   0.92       0.92
- alltoall%back_wf                          0.037   1.2         0.037   1.2           1136                   1.00       1.00
- alltoall%forw_wf                          0.015   0.5         0.015   0.5           1032                   1.00       1.00
- subtotal                                  0.052   1.7         0.052   1.6                                  1.00       1.00

 Additional information
- timana(1)                                 0.000   0.0         0.000   0.0              4                   1.00       1.00
- total timab                               0.633  20.1         0.633  20.1         411138                   1.00       1.00
- fourwf                                    0.073   2.3         0.073   2.3           1024                   1.00       1.00
- mklocl(2)                                 0.001   0.0         0.001   0.0              8                   1.00       1.00
- newocc                                    0.029   0.9         0.029   0.9             36                   1.00       1.00
- nonlop(total)                             0.024   0.8         0.025   0.8           1168                   0.99       0.99
- read_rho                                  0.002   0.1         0.002   0.1              4                   1.00       1.00

 Additional information about diagonalization algorithm segments
- RayleighRitz@diago                        0.014   0.4         0.014   0.4           1008                   1.00       1.00
- RayleighRitz@gemm_1                       0.049   1.5         0.049   1.5           1008                   1.00       1.00
- RayleighRitz@gemm_2                       0.030   0.9         0.030   0.9           1008                   1.00       1.00

 timana : in multi dataset mode, the more detailed analysis is not done.

================================================================================

 Suggested references for the acknowledgment of ABINIT usage.

 The users of ABINIT have little formal obligations with respect to the ABINIT group
 (those specified in the GNU General Public License, http://www.gnu.org/copyleft/gpl.txt).
 However, it is common practice in the scientific literature,
 to acknowledge the efforts of people that have made the research possible.
 In this spirit, please find below suggested citations of work written by ABINIT developers,
 corresponding to implementations inside of ABINIT that you have used in the present run.
 Note also that it will be of great value to readers of publications presenting these results,
 to read papers enabling them to understand the theoretical formalism and details
 of the ABINIT implementation.
 For information on why they are suggested, see also https://docs.abinit.org/theory/acknowledgments.
-
- [1] Large scale ab initio calculations based on three levels of parallelization
- F. Bottin, S. Leroux, A. Knyazev, G. Zerah, Comput. Mat. Science 42, 329, (2008).
- Comment: in case LOBPCG algorithm is used (wfoptalg=4/14/114).
- Strong suggestion to cite this paper in your publications.
- This paper is also available at http://www.arxiv.org/abs/0707.3405
- DOI and bibtex: see https://docs.abinit.org/theory/bibliography/#bottin2008
-
- [2] The Abinit project: Impact, environment and recent developments.
- Computer Phys. Comm. 248, 107042 (2020).
- X.Gonze, B. Amadon, G. Antonius, F.Arnardi, L.Baguet, J.-M.Beuken,
- J.Bieder, F.Bottin, J.Bouchet, E.Bousquet, N.Brouwer, F.Bruneval,
- G.Brunin, T.Cavignac, J.-B. Charraud, Wei Chen, M.Cote, S.Cottenier,
- J.Denier, G.Geneste, Ph.Ghosez, M.Giantomassi, Y.Gillet, O.Gingras,
- D.R.Hamann, G.Hautier, Xu He, N.Helbig, N.Holzwarth, Y.Jia, F.Jollet,
- W.Lafargue-Dit-Hauret, K.Lejaeghere, M.A.L.Marques, A.Martin, C.Martins,
- H.P.C. Miranda, F.Naccarato, K. Persson, G.Petretto, V.Planes, Y.Pouillon,
- S.Prokhorenko, F.Ricci, G.-M.Rignanese, A.H.Romero, M.M.Schmitt, M.Torrent,
- M.J.van Setten, B.Van Troeye, M.J.Verstraete, G.Zerah and J.W.Zwanzig
- Comment: the fifth generic paper describing the ABINIT project.
- Note that a version of this paper, that is not formatted for Computer Phys. Comm.
- is available at https://www.abinit.org/sites/default/files/ABINIT20.pdf .
- The licence allows the authors to put it on the Web.
- DOI and bibtex: see https://docs.abinit.org/theory/bibliography/#gonze2020
-
- [3] ABINIT: Overview, and focus on selected capabilities
- J. Chem. Phys. 152, 124102 (2020).
- A. Romero, D.C. Allan, B. Amadon, G. Antonius, T. Applencourt, L.Baguet,
- J.Bieder, F.Bottin, J.Bouchet, E.Bousquet, F.Bruneval,
- G.Brunin, D.Caliste, M.Cote,
- J.Denier, C. Dreyer, Ph.Ghosez, M.Giantomassi, Y.Gillet, O.Gingras,
- D.R.Hamann, G.Hautier, F.Jollet, G. Jomard,
- A.Martin,
- H.P.C. Miranda, F.Naccarato, G.Petretto, N.A. Pike, V.Planes,
- S.Prokhorenko, T. Rangel, F.Ricci, G.-M.Rignanese, M.Royo, M.Stengel, M.Torrent,
- M.J.van Setten, B.Van Troeye, M.J.Verstraete, J.Wiktor, J.W.Zwanziger, and X.Gonze.
- Comment: a global overview of ABINIT, with focus on selected capabilities .
- Note that a version of this paper, that is not formatted for J. Chem. Phys
- is available at https://www.abinit.org/sites/default/files/ABINIT20_JPC.pdf .
- The licence allows the authors to put it on the Web.
- DOI and bibtex: see https://docs.abinit.org/theory/bibliography/#romero2020
-
- [4] Recent developments in the ABINIT software package.
- Computer Phys. Comm. 205, 106 (2016).
- X.Gonze, F.Jollet, F.Abreu Araujo, D.Adams, B.Amadon, T.Applencourt,
- C.Audouze, J.-M.Beuken, J.Bieder, A.Bokhanchuk, E.Bousquet, F.Bruneval
- D.Caliste, M.Cote, F.Dahm, F.Da Pieve, M.Delaveau, M.Di Gennaro,
- B.Dorado, C.Espejo, G.Geneste, L.Genovese, A.Gerossier, M.Giantomassi,
- Y.Gillet, D.R.Hamann, L.He, G.Jomard, J.Laflamme Janssen, S.Le Roux,
- A.Levitt, A.Lherbier, F.Liu, I.Lukacevic, A.Martin, C.Martins,
- M.J.T.Oliveira, S.Ponce, Y.Pouillon, T.Rangel, G.-M.Rignanese,
- A.H.Romero, B.Rousseau, O.Rubel, A.A.Shukri, M.Stankovski, M.Torrent,
- M.J.Van Setten, B.Van Troeye, M.J.Verstraete, D.Waroquier, J.Wiktor,
- B.Xu, A.Zhou, J.W.Zwanziger.
- Comment: the fourth generic paper describing the ABINIT project.
- Note that a version of this paper, that is not formatted for Computer Phys. Comm.
- is available at https://www.abinit.org/sites/default/files/ABINIT16.pdf .
- The licence allows the authors to put it on the Web.
- DOI and bibtex: see https://docs.abinit.org/theory/bibliography/#gonze2016
-
- And optionally:
-
- [5] ABINIT: First-principles approach of materials and nanosystem properties.
- Computer Phys. Comm. 180, 2582-2615 (2009).
- X. Gonze, B. Amadon, P.-M. Anglade, J.-M. Beuken, F. Bottin, P. Boulanger, F. Bruneval,
- D. Caliste, R. Caracas, M. Cote, T. Deutsch, L. Genovese, Ph. Ghosez, M. Giantomassi
- S. Goedecker, D.R. Hamann, P. Hermet, F. Jollet, G. Jomard, S. Leroux, M. Mancini, S. Mazevet,
- M.J.T. Oliveira, G. Onida, Y. Pouillon, T. Rangel, G.-M. Rignanese, D. Sangalli, R. Shaltaf,
- M. Torrent, M.J. Verstraete, G. Zerah, J.W. Zwanziger
- Comment: the third generic paper describing the ABINIT project.
- Note that a version of this paper, that is not formatted for Computer Phys. Comm.
- is available at https://www.abinit.org/sites/default/files/ABINIT_CPC_v10.pdf .
- The licence allows the authors to put it on the Web.
- DOI and bibtex: see https://docs.abinit.org/theory/bibliography/#gonze2009
-
- Proc.   0 individual time (sec): cpu=          0.8  wall=          0.8

================================================================================

 Calculation completed.
.Delivered   1 WARNINGs and   0 COMMENTs to log file.
+Overall time at end (sec) : cpu=          3.3  wall=          3.3
