
.Version 8.5.3 of ABINIT 
.(MPI version, prepared for a x86_64_linux_gnu5.3 computer) 

.Copyright (C) 1998-2017 ABINIT group . 
 ABINIT comes with ABSOLUTELY NO WARRANTY.
 It is free software, and you are welcome to redistribute it
 under certain conditions (GNU General Public License,
 see ~abinit/COPYING or http://www.gnu.org/copyleft/gpl.txt).

 ABINIT is a project of the Universite Catholique de Louvain,
 Corning Inc. and other collaborators, see ~abinit/doc/developers/contributors.txt .
 Please read ~abinit/doc/users/acknowledgments.html for suggested
 acknowledgments of the ABINIT effort.
 For more information, see http://www.abinit.org .

.Starting date : Sun 17 Sep 2017.
- ( at 06h07 )
  
- input  file    -> t12.in
- output file    -> t12.out
- root for input  files -> t12i
- root for output files -> t12o

- inpspheads : Reading pseudopotential header in XML form from /home/buildbot/bb/ABINIT/abiref_gnu_5.3_openmpi/pouillon_psml-new/tests/Psps_for_tests/13_Al_atom.psml
- psxml2ab: ps_Number_of_Projectors not relativistic     4
- psxml2ab: ps_Number_of_Projectors scalar relativistic     0
- psxml2ab: ps_Projector_L     0
- psxml2ab: ps_Projector_Ekb     0.1556932920E+01
- psxml2ab: ps_Projector_L     1
- psxml2ab: ps_Projector_Ekb     0.4394082275E+00
- psxml2ab: ps_Projector_L     2
- psxml2ab: ps_Projector_Ekb    -0.8914633227E+00
- psxml2ab: ps_Projector_L     3
- psxml2ab: ps_Projector_Ekb    -0.3082874930E+00
- psxml2ab: ps_Number_of_Projectors SOC     0
- psxml2ab: Atomic Label:                      Al
- psxml2ab: Atomic Number:                         13.00000
- psxml2ab: Valence charge:                         3.00000
- psxml2ab: Pseudopotential generator code :    psop-1.1
- psxml2ab: Date of pseudopotential generation: 2017-07-31
- psxml2ab: Pseudopotential flavor:             Troullier-Martins
- psxml2ab: Exchange-correlation functional    1 :    XC_LDA_X
- psxml2ab: Exchange-correlation functional    2 :    XC_LDA_C_PZ
- psxml2ab: Relativistically generated pseudopotential (not necessarily SOC!):   no
- psxml2ab: Spin-polarized pseudopotential:     no
- psxml2ab: No core corrections.

 DATASET    1 : space group Fm -3 m (#225); Bravais cF (face-center cubic)
================================================================================
 Values of the parameters that define the memory need for DATASET  1.
     intxc =       0    ionmov =       0      iscf =       5    lmnmax =       4
     lnmax =       4     mgfft =      16  mpssoang =       4    mqgrid =    3001
     natom =       1  nloc_mem =       1    nspden =       1   nspinor =       1
    nsppol =       1      nsym =      48    n1xccc =       0    ntypat =       1
    occopt =       3   xclevel =       2
-    mband =          10        mffmem =           1         mkmem =         110
       mpw =         178          nfft =        4096          nkpt =         110
================================================================================
P This job should need less than                       5.562 Mbytes of memory.
  Rough estimation (10% accuracy) of disk space for files :
_ WF disk file :      2.990 Mbytes ; DEN or POT disk file :      0.033 Mbytes.
================================================================================


 DATASET    2 : space group Fm -3 m (#225); Bravais cF (face-center cubic)
================================================================================
 Values of the parameters that define the memory need for DATASET  2.
     intxc =       0    ionmov =       0      iscf =       5    lmnmax =       4
     lnmax =       4     mgfft =      16  mpssoang =       4    mqgrid =    3001
     natom =       1  nloc_mem =       1    nspden =       1   nspinor =       1
    nsppol =       1      nsym =      48    n1xccc =       0    ntypat =       1
    occopt =       3   xclevel =       2
-    mband =          10        mffmem =           1         mkmem =         110
       mpw =         188          nfft =        4096          nkpt =         110
================================================================================
P This job should need less than                       5.745 Mbytes of memory.
  Rough estimation (10% accuracy) of disk space for files :
_ WF disk file :      3.158 Mbytes ; DEN or POT disk file :      0.033 Mbytes.
================================================================================


 DATASET    3 : space group Fm -3 m (#225); Bravais cF (face-center cubic)
================================================================================
 Values of the parameters that define the memory need for DATASET  3.
     intxc =       0    ionmov =       0      iscf =       5    lmnmax =       4
     lnmax =       4     mgfft =      16  mpssoang =       4    mqgrid =    3001
     natom =       1  nloc_mem =       1    nspden =       1   nspinor =       1
    nsppol =       1      nsym =      48    n1xccc =       0    ntypat =       1
    occopt =       3   xclevel =       2
-    mband =          10        mffmem =           1         mkmem =         110
       mpw =         193          nfft =        4096          nkpt =         110
================================================================================
P This job should need less than                       5.836 Mbytes of memory.
  Rough estimation (10% accuracy) of disk space for files :
_ WF disk file :      3.241 Mbytes ; DEN or POT disk file :      0.033 Mbytes.
================================================================================


 DATASET    4 : space group Fm -3 m (#225); Bravais cF (face-center cubic)
================================================================================
 Values of the parameters that define the memory need for DATASET  4.
     intxc =       0    ionmov =       0      iscf =       5    lmnmax =       4
     lnmax =       4     mgfft =      18  mpssoang =       4    mqgrid =    3001
     natom =       1  nloc_mem =       1    nspden =       1   nspinor =       1
    nsppol =       1      nsym =      48    n1xccc =       0    ntypat =       1
    occopt =       3   xclevel =       2
-    mband =          10        mffmem =           1         mkmem =         110
       mpw =         201          nfft =        5832          nkpt =         110
================================================================================
P This job should need less than                       6.421 Mbytes of memory.
  Rough estimation (10% accuracy) of disk space for files :
_ WF disk file :      3.376 Mbytes ; DEN or POT disk file :      0.046 Mbytes.
================================================================================

--------------------------------------------------------------------------------
------------- Echo of variables that govern the present computation ------------
--------------------------------------------------------------------------------
-
- outvars: echo of selected default values                                      
-   iomode0 =  0 , fftalg0 =312 , wfoptalg0 =  0
-
- outvars: echo of global parameters not present in the input file              
-  max_nthreads =    0
-
 -outvars: echo values of preprocessed input variables --------
            acell1     7.3510346569E+00  7.3510346569E+00  7.3510346569E+00 Bohr
            acell2     7.4644182249E+00  7.4644182249E+00  7.4644182249E+00 Bohr
            acell3     7.5778017929E+00  7.5778017929E+00  7.5778017929E+00 Bohr
            acell4     7.6911853608E+00  7.6911853608E+00  7.6911853608E+00 Bohr
              amu      2.69815390E+01
          dilatmx      1.10000000E+00
             ecut      8.97000000E+00 Hartree
           ecutsm      5.00000000E-01 Hartree
-          fftalg         312
           iatfix        1
             iscf           5
              ixc     -101130
           jdtset        1    2    3    4
              kpt     -5.00000000E-02 -1.00000000E-01  0.00000000E+00
                      -5.00000000E-02 -2.00000000E-01  0.00000000E+00
                      -1.00000000E-01 -1.50000000E-01  0.00000000E+00
                      -5.00000000E-02 -1.50000000E-01  5.00000000E-02
                      -5.00000000E-02 -3.00000000E-01  0.00000000E+00
                      -1.00000000E-01 -2.50000000E-01  0.00000000E+00
                      -5.00000000E-02 -2.50000000E-01  5.00000000E-02
                      -1.50000000E-01 -2.00000000E-01  0.00000000E+00
                      -1.00000000E-01 -2.00000000E-01  5.00000000E-02
                      -5.00000000E-02 -2.00000000E-01  1.00000000E-01
                      -5.00000000E-02 -4.00000000E-01  0.00000000E+00
                      -1.00000000E-01 -3.50000000E-01  0.00000000E+00
                      -5.00000000E-02 -3.50000000E-01  5.00000000E-02
                      -1.50000000E-01 -3.00000000E-01  0.00000000E+00
                      -1.00000000E-01 -3.00000000E-01  5.00000000E-02
                      -5.00000000E-02 -3.00000000E-01  1.00000000E-01
                      -2.00000000E-01 -2.50000000E-01  0.00000000E+00
                      -1.50000000E-01 -2.50000000E-01  5.00000000E-02
                      -1.00000000E-01 -2.50000000E-01  1.00000000E-01
                      -5.00000000E-02 -2.50000000E-01  1.50000000E-01
                      -5.00000000E-02  5.00000000E-01  0.00000000E+00
                      -1.00000000E-01 -4.50000000E-01  0.00000000E+00
                      -5.00000000E-02 -4.50000000E-01  5.00000000E-02
                      -1.50000000E-01 -4.00000000E-01  0.00000000E+00
                      -1.00000000E-01 -4.00000000E-01  5.00000000E-02
                      -5.00000000E-02 -4.00000000E-01  1.00000000E-01
                      -2.00000000E-01 -3.50000000E-01  0.00000000E+00
                      -1.50000000E-01 -3.50000000E-01  5.00000000E-02
                      -1.00000000E-01 -3.50000000E-01  1.00000000E-01
                      -5.00000000E-02 -3.50000000E-01  1.50000000E-01
                      -2.50000000E-01 -3.00000000E-01  0.00000000E+00
                      -2.00000000E-01 -3.00000000E-01  5.00000000E-02
                      -1.50000000E-01 -3.00000000E-01  1.00000000E-01
                      -1.00000000E-01 -3.00000000E-01  1.50000000E-01
                      -5.00000000E-02 -3.00000000E-01  2.00000000E-01
                      -5.00000000E-02  4.00000000E-01  0.00000000E+00
                      -1.00000000E-01  4.50000000E-01  0.00000000E+00
                      -1.50000000E-01  5.00000000E-01  0.00000000E+00
                      -1.00000000E-01  5.00000000E-01  5.00000000E-02
                      -2.00000000E-01 -4.50000000E-01  0.00000000E+00
                      -1.50000000E-01 -4.50000000E-01  5.00000000E-02
                      -1.00000000E-01 -4.50000000E-01  1.00000000E-01
                      -5.00000000E-02 -4.50000000E-01  1.50000000E-01
                      -2.50000000E-01 -4.00000000E-01  0.00000000E+00
                      -2.00000000E-01 -4.00000000E-01  5.00000000E-02
                      -1.50000000E-01 -4.00000000E-01  1.00000000E-01
                      -1.00000000E-01 -4.00000000E-01  1.50000000E-01
                      -5.00000000E-02 -4.00000000E-01  2.00000000E-01
                      -3.00000000E-01 -3.50000000E-01  0.00000000E+00
                      -2.50000000E-01 -3.50000000E-01  5.00000000E-02
                       outvar_i_n : Printing only first  50 k-points.
         kptrlatt       10  -10   10    -10   10   10    -10  -10   10
          kptrlen1     7.35103466E+01
          kptrlen2     7.46441822E+01
          kptrlen3     7.57780179E+01
          kptrlen4     7.69118536E+01
P           mkmem         110
           natfix           1
            natom           1
            nband          10
           ndtset           4
            ngfft1         16      16      16
            ngfft2         16      16      16
            ngfft3         16      16      16
            ngfft4         18      18      18
             nkpt         110
             nsym          48
            ntime           0
           ntypat           1
              occ      2.000000  1.000000  0.000000  0.000000  0.000000  0.000000
                       0.000000  0.000000  0.000000  0.000000
                       2.000000  1.000000  0.000000  0.000000  0.000000  0.000000
                       0.000000  0.000000  0.000000  0.000000
                       2.000000  1.000000  0.000000  0.000000  0.000000  0.000000
                       0.000000  0.000000  0.000000  0.000000
                       2.000000  1.000000  0.000000  0.000000  0.000000  0.000000
                       0.000000  0.000000  0.000000  0.000000
                       2.000000  1.000000  0.000000  0.000000  0.000000  0.000000
                       0.000000  0.000000  0.000000  0.000000
                       2.000000  1.000000  0.000000  0.000000  0.000000  0.000000
                       0.000000  0.000000  0.000000  0.000000
                       2.000000  1.000000  0.000000  0.000000  0.000000  0.000000
                       0.000000  0.000000  0.000000  0.000000
                       2.000000  1.000000  0.000000  0.000000  0.000000  0.000000
                       0.000000  0.000000  0.000000  0.000000
                       2.000000  1.000000  0.000000  0.000000  0.000000  0.000000
                       0.000000  0.000000  0.000000  0.000000
                       2.000000  1.000000  0.000000  0.000000  0.000000  0.000000
                       0.000000  0.000000  0.000000  0.000000
                       2.000000  1.000000  0.000000  0.000000  0.000000  0.000000
                       0.000000  0.000000  0.000000  0.000000
                       2.000000  1.000000  0.000000  0.000000  0.000000  0.000000
                       0.000000  0.000000  0.000000  0.000000
                       2.000000  1.000000  0.000000  0.000000  0.000000  0.000000
                       0.000000  0.000000  0.000000  0.000000
                       2.000000  1.000000  0.000000  0.000000  0.000000  0.000000
                       0.000000  0.000000  0.000000  0.000000
                       2.000000  1.000000  0.000000  0.000000  0.000000  0.000000
                       0.000000  0.000000  0.000000  0.000000
                       2.000000  1.000000  0.000000  0.000000  0.000000  0.000000
                       0.000000  0.000000  0.000000  0.000000
                       2.000000  1.000000  0.000000  0.000000  0.000000  0.000000
                       0.000000  0.000000  0.000000  0.000000
                       2.000000  1.000000  0.000000  0.000000  0.000000  0.000000
                       0.000000  0.000000  0.000000  0.000000
                       2.000000  1.000000  0.000000  0.000000  0.000000  0.000000
                       0.000000  0.000000  0.000000  0.000000
                       2.000000  1.000000  0.000000  0.000000  0.000000  0.000000
                       0.000000  0.000000  0.000000  0.000000
                       2.000000  1.000000  0.000000  0.000000  0.000000  0.000000
                       0.000000  0.000000  0.000000  0.000000
                       2.000000  1.000000  0.000000  0.000000  0.000000  0.000000
                       0.000000  0.000000  0.000000  0.000000
                       2.000000  1.000000  0.000000  0.000000  0.000000  0.000000
                       0.000000  0.000000  0.000000  0.000000
                       2.000000  1.000000  0.000000  0.000000  0.000000  0.000000
                       0.000000  0.000000  0.000000  0.000000
                       2.000000  1.000000  0.000000  0.000000  0.000000  0.000000
                       0.000000  0.000000  0.000000  0.000000
                       2.000000  1.000000  0.000000  0.000000  0.000000  0.000000
                       0.000000  0.000000  0.000000  0.000000
                       2.000000  1.000000  0.000000  0.000000  0.000000  0.000000
                       0.000000  0.000000  0.000000  0.000000
                       2.000000  1.000000  0.000000  0.000000  0.000000  0.000000
                       0.000000  0.000000  0.000000  0.000000
                       2.000000  1.000000  0.000000  0.000000  0.000000  0.000000
                       0.000000  0.000000  0.000000  0.000000
                       2.000000  1.000000  0.000000  0.000000  0.000000  0.000000
                       0.000000  0.000000  0.000000  0.000000
                       2.000000  1.000000  0.000000  0.000000  0.000000  0.000000
                       0.000000  0.000000  0.000000  0.000000
                       2.000000  1.000000  0.000000  0.000000  0.000000  0.000000
                       0.000000  0.000000  0.000000  0.000000
                       2.000000  1.000000  0.000000  0.000000  0.000000  0.000000
                       0.000000  0.000000  0.000000  0.000000
                       2.000000  1.000000  0.000000  0.000000  0.000000  0.000000
                       0.000000  0.000000  0.000000  0.000000
                       2.000000  1.000000  0.000000  0.000000  0.000000  0.000000
                       0.000000  0.000000  0.000000  0.000000
                       2.000000  1.000000  0.000000  0.000000  0.000000  0.000000
                       0.000000  0.000000  0.000000  0.000000
                       2.000000  1.000000  0.000000  0.000000  0.000000  0.000000
                       0.000000  0.000000  0.000000  0.000000
                       2.000000  1.000000  0.000000  0.000000  0.000000  0.000000
                       0.000000  0.000000  0.000000  0.000000
                       2.000000  1.000000  0.000000  0.000000  0.000000  0.000000
                       0.000000  0.000000  0.000000  0.000000
                       2.000000  1.000000  0.000000  0.000000  0.000000  0.000000
                       0.000000  0.000000  0.000000  0.000000
                       2.000000  1.000000  0.000000  0.000000  0.000000  0.000000
                       0.000000  0.000000  0.000000  0.000000
                       2.000000  1.000000  0.000000  0.000000  0.000000  0.000000
                       0.000000  0.000000  0.000000  0.000000
                       2.000000  1.000000  0.000000  0.000000  0.000000  0.000000
                       0.000000  0.000000  0.000000  0.000000
                       2.000000  1.000000  0.000000  0.000000  0.000000  0.000000
                       0.000000  0.000000  0.000000  0.000000
                       2.000000  1.000000  0.000000  0.000000  0.000000  0.000000
                       0.000000  0.000000  0.000000  0.000000
                       2.000000  1.000000  0.000000  0.000000  0.000000  0.000000
                       0.000000  0.000000  0.000000  0.000000
                       2.000000  1.000000  0.000000  0.000000  0.000000  0.000000
                       0.000000  0.000000  0.000000  0.000000
                       2.000000  1.000000  0.000000  0.000000  0.000000  0.000000
                       0.000000  0.000000  0.000000  0.000000
                       2.000000  1.000000  0.000000  0.000000  0.000000  0.000000
                       0.000000  0.000000  0.000000  0.000000
                       2.000000  1.000000  0.000000  0.000000  0.000000  0.000000
                       0.000000  0.000000  0.000000  0.000000
                       prtocc : prtvol=0, do not print more k-points.
           occopt           3
           prtden           0
            rprim      0.0000000000E+00  5.0000000000E-01  5.0000000000E-01
                       5.0000000000E-01  0.0000000000E+00  5.0000000000E-01
                       5.0000000000E-01  5.0000000000E-01  0.0000000000E+00
           shiftk      5.00000000E-01  5.00000000E-01  5.00000000E-01
          spgroup         225
           symrel      1  0  0   0  1  0   0  0  1      -1  0  0   0 -1  0   0  0 -1
                       0 -1  1   0 -1  0   1 -1  0       0  1 -1   0  1  0  -1  1  0
                      -1  0  0  -1  0  1  -1  1  0       1  0  0   1  0 -1   1 -1  0
                       0  1 -1   1  0 -1   0  0 -1       0 -1  1  -1  0  1   0  0  1
                      -1  0  0  -1  1  0  -1  0  1       1  0  0   1 -1  0   1  0 -1
                       0 -1  1   1 -1  0   0 -1  0       0  1 -1  -1  1  0   0  1  0
                       1  0  0   0  0  1   0  1  0      -1  0  0   0  0 -1   0 -1  0
                       0  1 -1   0  0 -1   1  0 -1       0 -1  1   0  0  1  -1  0  1
                      -1  0  1  -1  1  0  -1  0  0       1  0 -1   1 -1  0   1  0  0
                       0 -1  0   1 -1  0   0 -1  1       0  1  0  -1  1  0   0  1 -1
                       1  0 -1   0  0 -1   0  1 -1      -1  0  1   0  0  1   0 -1  1
                       0  1  0   0  0  1   1  0  0       0 -1  0   0  0 -1  -1  0  0
                       1  0 -1   0  1 -1   0  0 -1      -1  0  1   0 -1  1   0  0  1
                       0 -1  0   0 -1  1   1 -1  0       0  1  0   0  1 -1  -1  1  0
                      -1  0  1  -1  0  0  -1  1  0       1  0 -1   1  0  0   1 -1  0
                       0  1  0   1  0  0   0  0  1       0 -1  0  -1  0  0   0  0 -1
                       0  0 -1   0  1 -1   1  0 -1       0  0  1   0 -1  1  -1  0  1
                       1 -1  0   0 -1  1   0 -1  0      -1  1  0   0  1 -1   0  1  0
                       0  0  1   1  0  0   0  1  0       0  0 -1  -1  0  0   0 -1  0
                      -1  1  0  -1  0  0  -1  0  1       1 -1  0   1  0  0   1  0 -1
                       0  0  1   0  1  0   1  0  0       0  0 -1   0 -1  0  -1  0  0
                       1 -1  0   0 -1  0   0 -1  1      -1  1  0   0  1  0   0  1 -1
                       0  0 -1   1  0 -1   0  1 -1       0  0  1  -1  0  1   0 -1  1
                      -1  1  0  -1  0  1  -1  0  0       1 -1  0   1  0 -1   1  0  0
           toldfe      1.00000000E-08 Hartree
           tolmxf      1.00000000E-05
            typat      1
              wtk        0.00600    0.00600    0.00600    0.01200    0.00600    0.00600
                         0.01200    0.00600    0.01200    0.01200    0.00600    0.00600
                         0.01200    0.00600    0.01200    0.01200    0.00600    0.01200
                         0.01200    0.01200    0.00600    0.00600    0.01200    0.00600
                         0.01200    0.01200    0.00600    0.01200    0.01200    0.01200
                         0.00600    0.01200    0.01200    0.01200    0.01200    0.00600
                         0.00600    0.00600    0.01200    0.00600    0.01200    0.01200
                         0.01200    0.00600    0.01200    0.01200    0.01200    0.01200
                         0.00600    0.01200
                       outvars : Printing only first  50 k-points.
            znucl       13.00000

================================================================================

 chkinp: Checking input parameters for consistency, jdtset=   1.

 chkinp: Checking input parameters for consistency, jdtset=   2.

 chkinp: Checking input parameters for consistency, jdtset=   3.

 chkinp: Checking input parameters for consistency, jdtset=   4.

================================================================================
== DATASET  1 ==================================================================
-   nproc =    1

 Real(R)+Recip(G) space primitive vectors, cartesian coordinates (Bohr,Bohr^-1):
 R(1)=  0.0000000  3.6755173  3.6755173  G(1)= -0.1360353  0.1360353  0.1360353
 R(2)=  3.6755173  0.0000000  3.6755173  G(2)=  0.1360353 -0.1360353  0.1360353
 R(3)=  3.6755173  3.6755173  0.0000000  G(3)=  0.1360353  0.1360353 -0.1360353
 Unit cell volume ucvol=  9.9308271E+01 bohr^3
 Angles (23,13,12)=  6.00000000E+01  6.00000000E+01  6.00000000E+01 degrees

 getcut: wavevector=  0.0000  0.0000  0.0000  ngfft=  16  16  16
         ecut(hartree)=     10.854   => boxcut(ratio)=   2.07555

--- Pseudopotential description ------------------------------------------------
- pspini: atom type   1  psp file is /home/buildbot/bb/ABINIT/abiref_gnu_5.3_openmpi/pouillon_psml-new/tests/Psps_for_tests/13_Al_atom.psml
- pspatm: opening atomic psp file    /home/buildbot/bb/ABINIT/abiref_gnu_5.3_openmpi/pouillon_psml-new/tests/Psps_for_tests/13_Al_atom.psml
- Al    psop-1.1
- 13.00000   3.00000    170731                znucl, zion, pspdat
    9   -1009    3   -1        -1   0.00000   pspcod,pspxc,lmax,lloc,mmax,r2well
    0.00000000000000    0.00000000000000    0.00000000000000   rchrg,fchrg,qchrg
     nproj     1     1     1     1
  psp9in : mmax, amesh, rad(mmax) =   600    1.000000E-02    5.990000E+00
  pspatm : epsatm=   10.72055779
         --- l  ekb(1:nproj) -->
             0    1.556933
             1    0.439408
             2   -0.891463
             3   -0.308287
 pspatm: atomic psp has been read  and splines computed

   3.21616734E+01                                ecore*ucvol(ha*bohr**3)
--------------------------------------------------------------------------------

_setup2: Arith. and geom. avg. npw (full set) are     169.478     169.451

================================================================================

     iter   Etot(hartree)      deltaE(h)  residm     vres2
 ETOT  1  -2.1001784606106    -2.100E+00 2.411E-02 9.513E-01
 ETOT  2  -2.1005055066860    -3.270E-04 1.039E-03 1.291E-02
 ETOT  3  -2.1005065136350    -1.007E-06 7.146E-04 5.543E-04
 ETOT  4  -2.1005061520837     3.616E-07 1.278E-04 6.392E-03
 ETOT  5  -2.1005063493620    -1.973E-07 8.780E-05 5.684E-03
 ETOT  6  -2.1005065921172    -2.428E-07 1.401E-05 2.238E-04
 ETOT  7  -2.1005066006892    -8.572E-09 1.140E-05 1.184E-05
 ETOT  8  -2.1005066007502    -6.109E-11 2.034E-06 4.145E-07

 At SCF step    8, etot is converged : 
  for the second time, diff in etot=  6.109E-11 < toldfe=  1.000E-08

 Cartesian components of stress tensor (hartree/bohr^3)
  sigma(1 1)= -1.80243208E-04  sigma(3 2)=  0.00000000E+00
  sigma(2 2)= -1.80243208E-04  sigma(3 1)=  0.00000000E+00
  sigma(3 3)= -1.80243208E-04  sigma(2 1)=  0.00000000E+00

 Integrated electronic density in atomic spheres:
 ------------------------------------------------
 Atom  Sphere_radius  Integrated_density
    1        2.00000          0.98266818
================================================================================

 ----iterations are completed or convergence reached----

 Mean square residual over all n,k,spin=   1.8599E-09; max=  2.0340E-06
 reduced coordinates (array xred) for    1 atoms
       0.000000000000      0.000000000000      0.000000000000
 rms dE/dt=  0.0000E+00; max dE/dt=  0.0000E+00; dE/dt below (all hartree)
    1       0.000000000000      0.000000000000      0.000000000000

 cartesian coordinates (angstrom) at end:
    1      0.00000000000000     0.00000000000000     0.00000000000000

 cartesian forces (hartree/bohr) at end:
    1     -0.00000000000000    -0.00000000000000    -0.00000000000000
 frms,max,avg= 0.0000000E+00 0.0000000E+00   0.000E+00  0.000E+00  0.000E+00 h/b

 cartesian forces (eV/Angstrom) at end:
    1     -0.00000000000000    -0.00000000000000    -0.00000000000000
 frms,max,avg= 0.0000000E+00 0.0000000E+00   0.000E+00  0.000E+00  0.000E+00 e/A
 length scales=  7.351034656925  7.351034656925  7.351034656925 bohr
              =  3.890000000000  3.890000000000  3.890000000000 angstroms
 prteigrs : about to open file t12o_DS1_EIG
 Fermi (or HOMO) energy (hartree) =   0.21979   Average Vxc (hartree)=  -0.35531
 Eigenvalues (hartree) for nkpt= 110  k points:
 kpt#   1, nband= 10, wtk=  0.00600, kpt= -0.0500 -0.1000  0.0000 (reduced coord)
  -0.20817    0.60820    0.65404    0.68510    0.77554    0.82924    0.84523    0.88804
   0.94691    0.96598
      occupation numbers for kpt#   1
   2.00000    0.00000    0.00000    0.00000    0.00000    0.00000    0.00000    0.00000
   0.00000    0.00000
 prteigrs : prtvol=0 or 1, do not print more k-points.


--------------------------------------------------------------------------------
 Components of total free energy (in Hartree) :

    Kinetic energy  =  9.09639596179245E-01
    Hartree energy  =  4.52494985132993E-03
    XC energy       = -8.31049847835259E-01
    Ewald energy    = -2.80666331971047E+00
    PspCore energy  =  3.23856946964483E-01
    Loc. psp. energy=  7.80948646916509E-02
    NL   psp  energy=  2.24314391843556E-01
    >>>>> Internal E= -2.09728241801546E+00

    -kT*entropy     = -3.22418273478231E-03
    >>>>>>>>> Etotal= -2.10050660075024E+00

 Other information on the energy :
    Total energy(eV)= -5.71576914134786E+01 ; Band energy (Ha)=   1.3847332487E-01
--------------------------------------------------------------------------------

 Cartesian components of stress tensor (hartree/bohr^3)
  sigma(1 1)= -1.80243208E-04  sigma(3 2)=  0.00000000E+00
  sigma(2 2)= -1.80243208E-04  sigma(3 1)=  0.00000000E+00
  sigma(3 3)= -1.80243208E-04  sigma(2 1)=  0.00000000E+00

-Cartesian components of stress tensor (GPa)         [Pressure=  5.3029E+00 GPa]
- sigma(1 1)= -5.30293738E+00  sigma(3 2)=  0.00000000E+00
- sigma(2 2)= -5.30293738E+00  sigma(3 1)=  0.00000000E+00
- sigma(3 3)= -5.30293738E+00  sigma(2 1)=  0.00000000E+00

================================================================================
== DATASET  2 ==================================================================
-   nproc =    1

 Real(R)+Recip(G) space primitive vectors, cartesian coordinates (Bohr,Bohr^-1):
 R(1)=  0.0000000  3.7322091  3.7322091  G(1)= -0.1339689  0.1339689  0.1339689
 R(2)=  3.7322091  0.0000000  3.7322091  G(2)=  0.1339689 -0.1339689  0.1339689
 R(3)=  3.7322091  3.7322091  0.0000000  G(3)=  0.1339689  0.1339689 -0.1339689
 Unit cell volume ucvol=  1.0397475E+02 bohr^3
 Angles (23,13,12)=  6.00000000E+01  6.00000000E+01  6.00000000E+01 degrees

 getcut: wavevector=  0.0000  0.0000  0.0000  ngfft=  16  16  16
         ecut(hartree)=     10.854   => boxcut(ratio)=   2.04402
--------------------------------------------------------------------------------

_setup2: Arith. and geom. avg. npw (full set) are     177.640     177.609

================================================================================

     iter   Etot(hartree)      deltaE(h)  residm     vres2
 ETOT  1  -2.1007090569221    -2.101E+00 2.345E-02 8.633E-01
 ETOT  2  -2.1009955666309    -2.865E-04 1.488E-03 1.125E-02
 ETOT  3  -2.1009964678755    -9.012E-07 1.507E-03 4.644E-04
 ETOT  4  -2.1009962552235     2.127E-07 9.644E-04 4.000E-03
 ETOT  5  -2.1009963660963    -1.109E-07 3.532E-04 3.802E-03
 ETOT  6  -2.1009965348975    -1.688E-07 1.567E-04 1.986E-04
 ETOT  7  -2.1009965415592    -6.662E-09 4.502E-05 1.081E-05
 ETOT  8  -2.1009965416323    -7.311E-11 2.106E-05 4.635E-07

 At SCF step    8, etot is converged : 
  for the second time, diff in etot=  7.311E-11 < toldfe=  1.000E-08

 Cartesian components of stress tensor (hartree/bohr^3)
  sigma(1 1)= -3.47081233E-05  sigma(3 2)=  0.00000000E+00
  sigma(2 2)= -3.47081233E-05  sigma(3 1)=  0.00000000E+00
  sigma(3 3)= -3.47081233E-05  sigma(2 1)=  0.00000000E+00

 Integrated electronic density in atomic spheres:
 ------------------------------------------------
 Atom  Sphere_radius  Integrated_density
    1        2.00000          0.90606555
================================================================================

 ----iterations are completed or convergence reached----

 Mean square residual over all n,k,spin=   1.9152E-08; max=  2.1062E-05
 reduced coordinates (array xred) for    1 atoms
       0.000000000000      0.000000000000      0.000000000000
 rms dE/dt=  0.0000E+00; max dE/dt=  0.0000E+00; dE/dt below (all hartree)
    1       0.000000000000      0.000000000000      0.000000000000

 cartesian coordinates (angstrom) at end:
    1      0.00000000000000     0.00000000000000     0.00000000000000

 cartesian forces (hartree/bohr) at end:
    1     -0.00000000000000    -0.00000000000000    -0.00000000000000
 frms,max,avg= 0.0000000E+00 0.0000000E+00   0.000E+00  0.000E+00  0.000E+00 h/b

 cartesian forces (eV/Angstrom) at end:
    1     -0.00000000000000    -0.00000000000000    -0.00000000000000
 frms,max,avg= 0.0000000E+00 0.0000000E+00   0.000E+00  0.000E+00  0.000E+00 e/A
 length scales=  7.464418224898  7.464418224898  7.464418224898 bohr
              =  3.950000000000  3.950000000000  3.950000000000 angstroms
 prteigrs : about to open file t12o_DS2_EIG
 Fermi (or HOMO) energy (hartree) =   0.20645   Average Vxc (hartree)=  -0.35051
 Eigenvalues (hartree) for nkpt= 110  k points:
 kpt#   1, nband= 10, wtk=  0.00600, kpt= -0.0500 -0.1000  0.0000 (reduced coord)
  -0.20967    0.58535    0.62877    0.66106    0.74003    0.79603    0.81061    0.85833
   0.91666    0.93422
      occupation numbers for kpt#   1
   2.00000    0.00000    0.00000    0.00000    0.00000    0.00000    0.00000    0.00000
   0.00000    0.00000
 prteigrs : prtvol=0 or 1, do not print more k-points.


--------------------------------------------------------------------------------
 Components of total free energy (in Hartree) :

    Kinetic energy  =  8.82547660123494E-01
    Hartree energy  =  4.10387473916392E-03
    XC energy       = -8.19303802111046E-01
    Ewald energy    = -2.76403045915788E+00
    PspCore energy  =  3.09321946553636E-01
    Loc. psp. energy=  6.65007302147872E-02
    NL   psp  energy=  2.23223835512628E-01
    >>>>> Internal E= -2.09763621412522E+00

    -kT*entropy     = -3.36032750707656E-03
    >>>>>>>>> Etotal= -2.10099654163229E+00

 Other information on the energy :
    Total energy(eV)= -5.71710233828888E+01 ; Band energy (Ha)=   1.1323528262E-01
--------------------------------------------------------------------------------

 Cartesian components of stress tensor (hartree/bohr^3)
  sigma(1 1)= -3.47081233E-05  sigma(3 2)=  0.00000000E+00
  sigma(2 2)= -3.47081233E-05  sigma(3 1)=  0.00000000E+00
  sigma(3 3)= -3.47081233E-05  sigma(2 1)=  0.00000000E+00

-Cartesian components of stress tensor (GPa)         [Pressure=  1.0211E+00 GPa]
- sigma(1 1)= -1.02114807E+00  sigma(3 2)=  0.00000000E+00
- sigma(2 2)= -1.02114807E+00  sigma(3 1)=  0.00000000E+00
- sigma(3 3)= -1.02114807E+00  sigma(2 1)=  0.00000000E+00

================================================================================
== DATASET  3 ==================================================================
-   nproc =    1

 Real(R)+Recip(G) space primitive vectors, cartesian coordinates (Bohr,Bohr^-1):
 R(1)=  0.0000000  3.7889009  3.7889009  G(1)= -0.1319644  0.1319644  0.1319644
 R(2)=  3.7889009  0.0000000  3.7889009  G(2)=  0.1319644 -0.1319644  0.1319644
 R(3)=  3.7889009  3.7889009  0.0000000  G(3)=  0.1319644  0.1319644 -0.1319644
 Unit cell volume ucvol=  1.0878518E+02 bohr^3
 Angles (23,13,12)=  6.00000000E+01  6.00000000E+01  6.00000000E+01 degrees

 getcut: wavevector=  0.0000  0.0000  0.0000  ngfft=  16  16  16
         ecut(hartree)=     10.854   => boxcut(ratio)=   2.01344
--------------------------------------------------------------------------------

_setup2: Arith. and geom. avg. npw (full set) are     185.890     185.849

================================================================================

     iter   Etot(hartree)      deltaE(h)  residm     vres2
 ETOT  1  -2.1005484449559    -2.101E+00 3.005E-02 7.838E-01
 ETOT  2  -2.1008614689389    -3.130E-04 6.964E-05 9.856E-03
 ETOT  3  -2.1008623092554    -8.403E-07 2.313E-05 3.873E-04
 ETOT  4  -2.1008621392698     1.700E-07 4.892E-06 3.281E-03
 ETOT  5  -2.1008622240652    -8.480E-08 2.082E-06 3.110E-03
 ETOT  6  -2.1008623652946    -1.412E-07 4.801E-07 2.016E-04
 ETOT  7  -2.1008623716074    -6.313E-09 2.019E-07 1.058E-05
 ETOT  8  -2.1008623716974    -8.999E-11 5.070E-08 5.347E-07

 At SCF step    8, etot is converged : 
  for the second time, diff in etot=  8.999E-11 < toldfe=  1.000E-08

 Cartesian components of stress tensor (hartree/bohr^3)
  sigma(1 1)=  8.53914694E-05  sigma(3 2)=  0.00000000E+00
  sigma(2 2)=  8.53914694E-05  sigma(3 1)=  0.00000000E+00
  sigma(3 3)=  8.53914694E-05  sigma(2 1)=  0.00000000E+00

 Integrated electronic density in atomic spheres:
 ------------------------------------------------
 Atom  Sphere_radius  Integrated_density
    1        2.00000          0.89940694
================================================================================

 ----iterations are completed or convergence reached----

 Mean square residual over all n,k,spin=   4.9330E-11; max=  5.0702E-08
 reduced coordinates (array xred) for    1 atoms
       0.000000000000      0.000000000000      0.000000000000
 rms dE/dt=  0.0000E+00; max dE/dt=  0.0000E+00; dE/dt below (all hartree)
    1       0.000000000000      0.000000000000      0.000000000000

 cartesian coordinates (angstrom) at end:
    1      0.00000000000000     0.00000000000000     0.00000000000000

 cartesian forces (hartree/bohr) at end:
    1     -0.00000000000000    -0.00000000000000    -0.00000000000000
 frms,max,avg= 0.0000000E+00 0.0000000E+00   0.000E+00  0.000E+00  0.000E+00 h/b

 cartesian forces (eV/Angstrom) at end:
    1     -0.00000000000000    -0.00000000000000    -0.00000000000000
 frms,max,avg= 0.0000000E+00 0.0000000E+00   0.000E+00  0.000E+00  0.000E+00 e/A
 length scales=  7.577801792871  7.577801792871  7.577801792871 bohr
              =  4.010000000000  4.010000000000  4.010000000000 angstroms
 prteigrs : about to open file t12o_DS3_EIG
 Fermi (or HOMO) energy (hartree) =   0.19359   Average Vxc (hartree)=  -0.34582
 Eigenvalues (hartree) for nkpt= 110  k points:
 kpt#   1, nband= 10, wtk=  0.00600, kpt= -0.0500 -0.1000  0.0000 (reduced coord)
  -0.21105    0.56301    0.60422    0.63812    0.70615    0.76443    0.77767    0.82963
   0.88764    0.90395
      occupation numbers for kpt#   1
   2.00000    0.00000    0.00000    0.00000    0.00000    0.00000    0.00000    0.00000
   0.00000    0.00000
 prteigrs : prtvol=0 or 1, do not print more k-points.


--------------------------------------------------------------------------------
 Components of total free energy (in Hartree) :

    Kinetic energy  =  8.57113612303478E-01
    Hartree energy  =  3.79936483320887E-03
    XC energy       = -8.07980173217645E-01
    Ewald energy    = -2.72267339493109E+00
    PspCore energy  =  2.95643886981219E-01
    Loc. psp. energy=  5.41067319074999E-02
    NL   psp  energy=  2.22620143419068E-01
    >>>>> Internal E= -2.09736982870426E+00

    -kT*entropy     = -3.49254299309416E-03
    >>>>>>>>> Etotal= -2.10086237169736E+00

 Other information on the energy :
    Total energy(eV)= -5.71673724332868E+01 ; Band energy (Ha)=   8.9022212168E-02
--------------------------------------------------------------------------------

 Cartesian components of stress tensor (hartree/bohr^3)
  sigma(1 1)=  8.53914694E-05  sigma(3 2)=  0.00000000E+00
  sigma(2 2)=  8.53914694E-05  sigma(3 1)=  0.00000000E+00
  sigma(3 3)=  8.53914694E-05  sigma(2 1)=  0.00000000E+00

-Cartesian components of stress tensor (GPa)         [Pressure= -2.5123E+00 GPa]
- sigma(1 1)=  2.51230334E+00  sigma(3 2)=  0.00000000E+00
- sigma(2 2)=  2.51230334E+00  sigma(3 1)=  0.00000000E+00
- sigma(3 3)=  2.51230334E+00  sigma(2 1)=  0.00000000E+00

================================================================================
== DATASET  4 ==================================================================
-   nproc =    1

 Real(R)+Recip(G) space primitive vectors, cartesian coordinates (Bohr,Bohr^-1):
 R(1)=  0.0000000  3.8455927  3.8455927  G(1)= -0.1300190  0.1300190  0.1300190
 R(2)=  3.8455927  0.0000000  3.8455927  G(2)=  0.1300190 -0.1300190  0.1300190
 R(3)=  3.8455927  3.8455927  0.0000000  G(3)=  0.1300190  0.1300190 -0.1300190
 Unit cell volume ucvol=  1.1374173E+02 bohr^3
 Angles (23,13,12)=  6.00000000E+01  6.00000000E+01  6.00000000E+01 degrees

 getcut: wavevector=  0.0000  0.0000  0.0000  ngfft=  18  18  18
         ecut(hartree)=     10.854   => boxcut(ratio)=   2.23860

 getcut : COMMENT -
  Note that boxcut > 2.2 ; recall that boxcut=Gcut(box)/Gcut(sphere) = 2
  is sufficient for exact treatment of convolution.
  Such a large boxcut is a waste : you could raise ecut
  e.g. ecut=   13.597867 Hartrees makes boxcut=2

--------------------------------------------------------------------------------

_setup2: Arith. and geom. avg. npw (full set) are     194.196     194.153

================================================================================

     iter   Etot(hartree)      deltaE(h)  residm     vres2
 ETOT  1  -2.0996815857628    -2.100E+00 1.871E-02 1.034E+00
 ETOT  2  -2.1001879646177    -5.064E-04 2.335E-04 1.186E-02
 ETOT  3  -2.1001887074978    -7.429E-07 6.304E-05 4.429E-04
 ETOT  4  -2.1001886535189     5.398E-08 5.624E-06 1.916E-03
 ETOT  5  -2.1001886842993    -3.078E-08 4.518E-06 2.060E-03
 ETOT  6  -2.1001887566342    -7.233E-08 4.565E-07 1.472E-04
 ETOT  7  -2.1001887596123    -2.978E-09 3.318E-07 1.081E-05
 ETOT  8  -2.1001887597017    -8.947E-11 3.451E-08 6.034E-07

 At SCF step    8, etot is converged : 
  for the second time, diff in etot=  8.947E-11 < toldfe=  1.000E-08

 Cartesian components of stress tensor (hartree/bohr^3)
  sigma(1 1)=  1.82599756E-04  sigma(3 2)=  0.00000000E+00
  sigma(2 2)=  1.82599756E-04  sigma(3 1)=  0.00000000E+00
  sigma(3 3)=  1.82599756E-04  sigma(2 1)=  0.00000000E+00

 Integrated electronic density in atomic spheres:
 ------------------------------------------------
 Atom  Sphere_radius  Integrated_density
    1        2.00000          0.88456596
================================================================================

 ----iterations are completed or convergence reached----

 Mean square residual over all n,k,spin=   3.4655E-11; max=  3.4508E-08
 reduced coordinates (array xred) for    1 atoms
       0.000000000000      0.000000000000      0.000000000000
 rms dE/dt=  0.0000E+00; max dE/dt=  0.0000E+00; dE/dt below (all hartree)
    1       0.000000000000      0.000000000000      0.000000000000

 cartesian coordinates (angstrom) at end:
    1      0.00000000000000     0.00000000000000     0.00000000000000

 cartesian forces (hartree/bohr) at end:
    1     -0.00000000000000    -0.00000000000000    -0.00000000000000
 frms,max,avg= 0.0000000E+00 0.0000000E+00   0.000E+00  0.000E+00  0.000E+00 h/b

 cartesian forces (eV/Angstrom) at end:
    1     -0.00000000000000    -0.00000000000000    -0.00000000000000
 frms,max,avg= 0.0000000E+00 0.0000000E+00   0.000E+00  0.000E+00  0.000E+00 e/A
 length scales=  7.691185360845  7.691185360845  7.691185360845 bohr
              =  4.070000000000  4.070000000000  4.070000000000 angstroms
 prteigrs : about to open file t12o_DS4_EIG
 Fermi (or HOMO) energy (hartree) =   0.18120   Average Vxc (hartree)=  -0.34124
 Eigenvalues (hartree) for nkpt= 110  k points:
 kpt#   1, nband= 10, wtk=  0.00600, kpt= -0.0500 -0.1000  0.0000 (reduced coord)
  -0.21233    0.54132    0.58051    0.61598    0.67389    0.73437    0.74646    0.80198
   0.86000    0.87479
      occupation numbers for kpt#   1
   2.00000    0.00000    0.00000    0.00000    0.00000    0.00000    0.00000    0.00000
   0.00000    0.00000
 prteigrs : prtvol=0 or 1, do not print more k-points.


--------------------------------------------------------------------------------
 Components of total free energy (in Hartree) :

    Kinetic energy  =  8.33245028979105E-01
    Hartree energy  =  3.62252309531575E-03
    XC energy       = -7.97072237310668E-01
    Ewald energy    = -2.68253570360532E+00
    PspCore energy  =  2.82760534361246E-01
    Loc. psp. energy=  4.09194383334262E-02
    NL   psp  energy=  2.22492145083510E-01
    >>>>> Internal E= -2.09656827106339E+00

    -kT*entropy     = -3.62048863833601E-03
    >>>>>>>>> Etotal= -2.10018875970172E+00

 Other information on the energy :
    Total energy(eV)= -5.71490425187009E+01 ; Band energy (Ha)=   6.5768184489E-02
--------------------------------------------------------------------------------

 Cartesian components of stress tensor (hartree/bohr^3)
  sigma(1 1)=  1.82599756E-04  sigma(3 2)=  0.00000000E+00
  sigma(2 2)=  1.82599756E-04  sigma(3 1)=  0.00000000E+00
  sigma(3 3)=  1.82599756E-04  sigma(2 1)=  0.00000000E+00

-Cartesian components of stress tensor (GPa)         [Pressure= -5.3723E+00 GPa]
- sigma(1 1)=  5.37226939E+00  sigma(3 2)=  0.00000000E+00
- sigma(2 2)=  5.37226939E+00  sigma(3 1)=  0.00000000E+00
- sigma(3 3)=  5.37226939E+00  sigma(2 1)=  0.00000000E+00

== END DATASET(S) ==============================================================
================================================================================
  
 -outvars: echo values of variables after computation  --------
            acell1     7.3510346569E+00  7.3510346569E+00  7.3510346569E+00 Bohr
            acell2     7.4644182249E+00  7.4644182249E+00  7.4644182249E+00 Bohr
            acell3     7.5778017929E+00  7.5778017929E+00  7.5778017929E+00 Bohr
            acell4     7.6911853608E+00  7.6911853608E+00  7.6911853608E+00 Bohr
              amu      2.69815390E+01
          dilatmx      1.10000000E+00
             ecut      8.97000000E+00 Hartree
           ecutsm      5.00000000E-01 Hartree
           etotal1    -2.1005066008E+00
           etotal2    -2.1009965416E+00
           etotal3    -2.1008623717E+00
           etotal4    -2.1001887597E+00
            fcart1    -0.0000000000E+00 -0.0000000000E+00 -0.0000000000E+00
            fcart2    -0.0000000000E+00 -0.0000000000E+00 -0.0000000000E+00
            fcart3    -0.0000000000E+00 -0.0000000000E+00 -0.0000000000E+00
            fcart4    -0.0000000000E+00 -0.0000000000E+00 -0.0000000000E+00
-          fftalg         312
           iatfix        1
             iscf           5
              ixc     -101130
           jdtset        1    2    3    4
              kpt     -5.00000000E-02 -1.00000000E-01  0.00000000E+00
                      -5.00000000E-02 -2.00000000E-01  0.00000000E+00
                      -1.00000000E-01 -1.50000000E-01  0.00000000E+00
                      -5.00000000E-02 -1.50000000E-01  5.00000000E-02
                      -5.00000000E-02 -3.00000000E-01  0.00000000E+00
                      -1.00000000E-01 -2.50000000E-01  0.00000000E+00
                      -5.00000000E-02 -2.50000000E-01  5.00000000E-02
                      -1.50000000E-01 -2.00000000E-01  0.00000000E+00
                      -1.00000000E-01 -2.00000000E-01  5.00000000E-02
                      -5.00000000E-02 -2.00000000E-01  1.00000000E-01
                      -5.00000000E-02 -4.00000000E-01  0.00000000E+00
                      -1.00000000E-01 -3.50000000E-01  0.00000000E+00
                      -5.00000000E-02 -3.50000000E-01  5.00000000E-02
                      -1.50000000E-01 -3.00000000E-01  0.00000000E+00
                      -1.00000000E-01 -3.00000000E-01  5.00000000E-02
                      -5.00000000E-02 -3.00000000E-01  1.00000000E-01
                      -2.00000000E-01 -2.50000000E-01  0.00000000E+00
                      -1.50000000E-01 -2.50000000E-01  5.00000000E-02
                      -1.00000000E-01 -2.50000000E-01  1.00000000E-01
                      -5.00000000E-02 -2.50000000E-01  1.50000000E-01
                      -5.00000000E-02  5.00000000E-01  0.00000000E+00
                      -1.00000000E-01 -4.50000000E-01  0.00000000E+00
                      -5.00000000E-02 -4.50000000E-01  5.00000000E-02
                      -1.50000000E-01 -4.00000000E-01  0.00000000E+00
                      -1.00000000E-01 -4.00000000E-01  5.00000000E-02
                      -5.00000000E-02 -4.00000000E-01  1.00000000E-01
                      -2.00000000E-01 -3.50000000E-01  0.00000000E+00
                      -1.50000000E-01 -3.50000000E-01  5.00000000E-02
                      -1.00000000E-01 -3.50000000E-01  1.00000000E-01
                      -5.00000000E-02 -3.50000000E-01  1.50000000E-01
                      -2.50000000E-01 -3.00000000E-01  0.00000000E+00
                      -2.00000000E-01 -3.00000000E-01  5.00000000E-02
                      -1.50000000E-01 -3.00000000E-01  1.00000000E-01
                      -1.00000000E-01 -3.00000000E-01  1.50000000E-01
                      -5.00000000E-02 -3.00000000E-01  2.00000000E-01
                      -5.00000000E-02  4.00000000E-01  0.00000000E+00
                      -1.00000000E-01  4.50000000E-01  0.00000000E+00
                      -1.50000000E-01  5.00000000E-01  0.00000000E+00
                      -1.00000000E-01  5.00000000E-01  5.00000000E-02
                      -2.00000000E-01 -4.50000000E-01  0.00000000E+00
                      -1.50000000E-01 -4.50000000E-01  5.00000000E-02
                      -1.00000000E-01 -4.50000000E-01  1.00000000E-01
                      -5.00000000E-02 -4.50000000E-01  1.50000000E-01
                      -2.50000000E-01 -4.00000000E-01  0.00000000E+00
                      -2.00000000E-01 -4.00000000E-01  5.00000000E-02
                      -1.50000000E-01 -4.00000000E-01  1.00000000E-01
                      -1.00000000E-01 -4.00000000E-01  1.50000000E-01
                      -5.00000000E-02 -4.00000000E-01  2.00000000E-01
                      -3.00000000E-01 -3.50000000E-01  0.00000000E+00
                      -2.50000000E-01 -3.50000000E-01  5.00000000E-02
                       outvar_i_n : Printing only first  50 k-points.
         kptrlatt       10  -10   10    -10   10   10    -10  -10   10
          kptrlen1     7.35103466E+01
          kptrlen2     7.46441822E+01
          kptrlen3     7.57780179E+01
          kptrlen4     7.69118536E+01
P           mkmem         110
           natfix           1
            natom           1
            nband          10
           ndtset           4
            ngfft1         16      16      16
            ngfft2         16      16      16
            ngfft3         16      16      16
            ngfft4         18      18      18
             nkpt         110
             nsym          48
            ntime           0
           ntypat           1
              occ1     2.000000  0.000000  0.000000  0.000000  0.000000  0.000000
                       0.000000  0.000000  0.000000  0.000000
                       2.000000  0.000000  0.000000  0.000000  0.000000  0.000000
                       0.000000  0.000000  0.000000  0.000000
                       2.000000  0.000000  0.000000  0.000000  0.000000  0.000000
                       0.000000  0.000000  0.000000  0.000000
                       2.000000  0.000000  0.000000  0.000000  0.000000  0.000000
                       0.000000  0.000000  0.000000  0.000000
                       2.000000  0.000278  0.000000  0.000000  0.000000  0.000000
                       0.000000  0.000000  0.000000  0.000000
                       2.000000  0.000000  0.000000  0.000000  0.000000  0.000000
                       0.000000  0.000000  0.000000  0.000000
                       2.000000  0.000002  0.000000  0.000000  0.000000  0.000000
                       0.000000  0.000000  0.000000  0.000000
                       2.000000  0.000000  0.000000  0.000000  0.000000  0.000000
                       0.000000  0.000000  0.000000  0.000000
                       2.000000  0.000000  0.000000  0.000000  0.000000  0.000000
                       0.000000  0.000000  0.000000  0.000000
                       2.000000  0.000000  0.000000  0.000000  0.000000  0.000000
                       0.000000  0.000000  0.000000  0.000000
                       2.000000  1.969670  0.000000  0.000000  0.000000  0.000000
                       0.000000  0.000000  0.000000  0.000000
                       2.000000  0.013845  0.000000  0.000000  0.000000  0.000000
                       0.000000  0.000000  0.000000  0.000000
                       2.000000  0.796563  0.000000  0.000000  0.000000  0.000000
                       0.000000  0.000000  0.000000  0.000000
                       2.000000  0.000001  0.000000  0.000000  0.000000  0.000000
                       0.000000  0.000000  0.000000  0.000000
                       2.000000  0.000088  0.000000  0.000000  0.000000  0.000000
                       0.000000  0.000000  0.000000  0.000000
                       2.000000  0.008126  0.000000  0.000000  0.000000  0.000000
                       0.000000  0.000000  0.000000  0.000000
                       2.000000  0.000000  0.000000  0.000000  0.000000  0.000000
                       0.000000  0.000000  0.000000  0.000000
                       2.000000  0.000000  0.000000  0.000000  0.000000  0.000000
                       0.000000  0.000000  0.000000  0.000000
                       2.000000  0.000001  0.000000  0.000000  0.000000  0.000000
                       0.000000  0.000000  0.000000  0.000000
                       2.000000  0.000052  0.000000  0.000000  0.000000  0.000000
                       0.000000  0.000000  0.000000  0.000000
                       2.000000  2.000000  0.000000  0.000000  0.000000  0.000000
                       0.000000  0.000000  0.000000  0.000000
                       2.000000  1.998894  0.000000  0.000000  0.000000  0.000000
                       0.000000  0.000000  0.000000  0.000000
                       2.000000  1.999979  0.000000  0.000000  0.000000  0.000000
                       0.000000  0.000000  0.000000  0.000000
                       2.000000  0.316335  0.000000  0.000000  0.000000  0.000000
                       0.000000  0.000000  0.000000  0.000000
                       2.000000  1.895390  0.000000  0.000000  0.000000  0.000000
                       0.000000  0.000000  0.000000  0.000000
                       2.000000  1.997914  0.000000  0.000000  0.000000  0.000000
                       0.000000  0.000000  0.000000  0.000000
                       2.000000  0.000015  0.000000  0.000000  0.000000  0.000000
                       0.000000  0.000000  0.000000  0.000000
                       2.000000  0.002320  0.000000  0.000000  0.000000  0.000000
                       0.000000  0.000000  0.000000  0.000000
                       2.000000  0.196847  0.000000  0.000000  0.000000  0.000000
                       0.000000  0.000000  0.000000  0.000000
                       2.000000  1.696573  0.000000  0.000000  0.000000  0.000000
                       0.000000  0.000000  0.000000  0.000000
                       2.000000  0.000000  0.000000  0.000000  0.000000  0.000000
                       0.000000  0.000000  0.000000  0.000000
                       2.000000  0.000000  0.000000  0.000000  0.000000  0.000000
                       0.000000  0.000000  0.000000  0.000000
                       2.000000  0.000014  0.000000  0.000000  0.000000  0.000000
                       0.000000  0.000000  0.000000  0.000000
                       2.000000  0.001354  0.000000  0.000000  0.000000  0.000000
                       0.000000  0.000000  0.000000  0.000000
                       2.000000  0.065502  0.000005  0.000000  0.000000  0.000000
                       0.000000  0.000000  0.000000  0.000000
                       2.000000  1.999426  0.000000  0.000000  0.000000  0.000000
                       0.000000  0.000000  0.000000  0.000000
                       2.000000  1.999999  0.000000  0.000000  0.000000  0.000000
                       0.000000  0.000000  0.000000  0.000000
                       2.000000  1.999922  0.000000  0.000000  0.000000  0.000000
                       0.000000  0.000000  0.000000  0.000000
                       2.000000  1.999998  0.000000  0.000000  0.000000  0.000000
                       0.000000  0.000000  0.000000  0.000000
                       2.000000  1.455205  0.000000  0.000000  0.000000  0.000000
                       0.000000  0.000000  0.000000  0.000000
                       2.000000  1.992296  0.000000  0.000000  0.000000  0.000000
                       0.000000  0.000000  0.000000  0.000000
                       2.000000  1.999852  0.000000  0.000000  0.000000  0.000000
                       0.000000  0.000000  0.000000  0.000000
                       2.000000  1.999994  0.000000  0.000000  0.000000  0.000000
                       0.000000  0.000000  0.000000  0.000000
                       2.000000  0.000209  0.000000  0.000000  0.000000  0.000000
                       0.000000  0.000000  0.000000  0.000000
                       2.000000  0.032328  0.000000  0.000000  0.000000  0.000000
                       0.000000  0.000000  0.000000  0.000000
                       2.000000  1.212683  0.000000  0.000000  0.000000  0.000000
                       0.000000  0.000000  0.000000  0.000000
                       2.000000  1.974974  0.000000  0.000000  0.000000  0.000000
                       0.000000  0.000000  0.000000  0.000000
                       2.000000  1.999052  0.000003  0.000000  0.000000  0.000000
                       0.000000  0.000000  0.000000  0.000000
                       2.000000  0.000000  0.000000  0.000000  0.000000  0.000000
                       0.000000  0.000000  0.000000  0.000000
                       2.000000  0.000001  0.000000  0.000000  0.000000  0.000000
                       0.000000  0.000000  0.000000  0.000000
                       prtocc : prtvol=0, do not print more k-points.
              occ2     2.000000  0.000000  0.000000  0.000000  0.000000  0.000000
                       0.000000  0.000000  0.000000  0.000000
                       2.000000  0.000000  0.000000  0.000000  0.000000  0.000000
                       0.000000  0.000000  0.000000  0.000000
                       2.000000  0.000000  0.000000  0.000000  0.000000  0.000000
                       0.000000  0.000000  0.000000  0.000000
                       2.000000  0.000000  0.000000  0.000000  0.000000  0.000000
                       0.000000  0.000000  0.000000  0.000000
                       2.000000  0.000353  0.000000  0.000000  0.000000  0.000000
                       0.000000  0.000000  0.000000  0.000000
                       2.000000  0.000000  0.000000  0.000000  0.000000  0.000000
                       0.000000  0.000000  0.000000  0.000000
                       2.000000  0.000003  0.000000  0.000000  0.000000  0.000000
                       0.000000  0.000000  0.000000  0.000000
                       2.000000  0.000000  0.000000  0.000000  0.000000  0.000000
                       0.000000  0.000000  0.000000  0.000000
                       2.000000  0.000000  0.000000  0.000000  0.000000  0.000000
                       0.000000  0.000000  0.000000  0.000000
                       2.000000  0.000000  0.000000  0.000000  0.000000  0.000000
                       0.000000  0.000000  0.000000  0.000000
                       2.000000  1.966894  0.000000  0.000000  0.000000  0.000000
                       0.000000  0.000000  0.000000  0.000000
                       2.000000  0.015896  0.000000  0.000000  0.000000  0.000000
                       0.000000  0.000000  0.000000  0.000000
                       2.000000  0.810818  0.000000  0.000000  0.000000  0.000000
                       0.000000  0.000000  0.000000  0.000000
                       2.000000  0.000001  0.000000  0.000000  0.000000  0.000000
                       0.000000  0.000000  0.000000  0.000000
                       2.000000  0.000113  0.000000  0.000000  0.000000  0.000000
                       0.000000  0.000000  0.000000  0.000000
                       2.000000  0.009329  0.000000  0.000000  0.000000  0.000000
                       0.000000  0.000000  0.000000  0.000000
                       2.000000  0.000000  0.000000  0.000000  0.000000  0.000000
                       0.000000  0.000000  0.000000  0.000000
                       2.000000  0.000000  0.000000  0.000000  0.000000  0.000000
                       0.000000  0.000000  0.000000  0.000000
                       2.000000  0.000001  0.000000  0.000000  0.000000  0.000000
                       0.000000  0.000000  0.000000  0.000000
                       2.000000  0.000063  0.000000  0.000000  0.000000  0.000000
                       0.000000  0.000000  0.000000  0.000000
                       2.000000  1.999999  0.000000  0.000000  0.000000  0.000000
                       0.000000  0.000000  0.000000  0.000000
                       2.000000  1.998683  0.000000  0.000000  0.000000  0.000000
                       0.000000  0.000000  0.000000  0.000000
                       2.000000  1.999973  0.000000  0.000000  0.000000  0.000000
                       0.000000  0.000000  0.000000  0.000000
                       2.000000  0.329332  0.000000  0.000000  0.000000  0.000000
                       0.000000  0.000000  0.000000  0.000000
                       2.000000  1.889318  0.000000  0.000000  0.000000  0.000000
                       0.000000  0.000000  0.000000  0.000000
                       2.000000  1.997549  0.000000  0.000000  0.000000  0.000000
                       0.000000  0.000000  0.000000  0.000000
                       2.000000  0.000019  0.000000  0.000000  0.000000  0.000000
                       0.000000  0.000000  0.000000  0.000000
                       2.000000  0.002736  0.000000  0.000000  0.000000  0.000000
                       0.000000  0.000000  0.000000  0.000000
                       2.000000  0.206324  0.000000  0.000000  0.000000  0.000000
                       0.000000  0.000000  0.000000  0.000000
                       2.000000  1.685007  0.000000  0.000000  0.000000  0.000000
                       0.000000  0.000000  0.000000  0.000000
                       2.000000  0.000000  0.000000  0.000000  0.000000  0.000000
                       0.000000  0.000000  0.000000  0.000000
                       2.000000  0.000000  0.000000  0.000000  0.000000  0.000000
                       0.000000  0.000000  0.000000  0.000000
                       2.000000  0.000018  0.000000  0.000000  0.000000  0.000000
                       0.000000  0.000000  0.000000  0.000000
                       2.000000  0.001517  0.000000  0.000000  0.000000  0.000000
                       0.000000  0.000000  0.000000  0.000000
                       2.000000  0.066665  0.000009  0.000000  0.000000  0.000000
                       0.000000  0.000000  0.000000  0.000000
                       2.000000  1.999304  0.000000  0.000000  0.000000  0.000000
                       0.000000  0.000000  0.000000  0.000000
                       2.000000  1.999999  0.000000  0.000000  0.000000  0.000000
                       0.000000  0.000000  0.000000  0.000000
                       2.000000  1.999901  0.000000  0.000000  0.000000  0.000000
                       0.000000  0.000000  0.000000  0.000000
                       2.000000  1.999998  0.000000  0.000000  0.000000  0.000000
                       0.000000  0.000000  0.000000  0.000000
                       2.000000  1.444795  0.000000  0.000000  0.000000  0.000000
                       0.000000  0.000000  0.000000  0.000000
                       2.000000  1.991241  0.000000  0.000000  0.000000  0.000000
                       0.000000  0.000000  0.000000  0.000000
                       2.000000  1.999816  0.000000  0.000000  0.000000  0.000000
                       0.000000  0.000000  0.000000  0.000000
                       2.000000  1.999992  0.000000  0.000000  0.000000  0.000000
                       0.000000  0.000000  0.000000  0.000000
                       2.000000  0.000254  0.000000  0.000000  0.000000  0.000000
                       0.000000  0.000000  0.000000  0.000000
                       2.000000  0.035182  0.000000  0.000000  0.000000  0.000000
                       0.000000  0.000000  0.000000  0.000000
                       2.000000  1.203830  0.000000  0.000000  0.000000  0.000000
                       0.000000  0.000000  0.000000  0.000000
                       2.000000  1.972017  0.000000  0.000000  0.000000  0.000000
                       0.000000  0.000000  0.000000  0.000000
                       2.000000  1.998858  0.000005  0.000000  0.000000  0.000000
                       0.000000  0.000000  0.000000  0.000000
                       2.000000  0.000000  0.000000  0.000000  0.000000  0.000000
                       0.000000  0.000000  0.000000  0.000000
                       2.000000  0.000002  0.000000  0.000000  0.000000  0.000000
                       0.000000  0.000000  0.000000  0.000000
                       prtocc : prtvol=0, do not print more k-points.
              occ3     2.000000  0.000000  0.000000  0.000000  0.000000  0.000000
                       0.000000  0.000000  0.000000  0.000000
                       2.000000  0.000000  0.000000  0.000000  0.000000  0.000000
                       0.000000  0.000000  0.000000  0.000000
                       2.000000  0.000000  0.000000  0.000000  0.000000  0.000000
                       0.000000  0.000000  0.000000  0.000000
                       2.000000  0.000000  0.000000  0.000000  0.000000  0.000000
                       0.000000  0.000000  0.000000  0.000000
                       2.000000  0.000440  0.000000  0.000000  0.000000  0.000000
                       0.000000  0.000000  0.000000  0.000000
                       2.000000  0.000000  0.000000  0.000000  0.000000  0.000000
                       0.000000  0.000000  0.000000  0.000000
                       2.000000  0.000004  0.000000  0.000000  0.000000  0.000000
                       0.000000  0.000000  0.000000  0.000000
                       2.000000  0.000000  0.000000  0.000000  0.000000  0.000000
                       0.000000  0.000000  0.000000  0.000000
                       2.000000  0.000000  0.000000  0.000000  0.000000  0.000000
                       0.000000  0.000000  0.000000  0.000000
                       2.000000  0.000000  0.000000  0.000000  0.000000  0.000000
                       0.000000  0.000000  0.000000  0.000000
                       2.000000  1.963868  0.000000  0.000000  0.000000  0.000000
                       0.000000  0.000000  0.000000  0.000000
                       2.000000  0.017961  0.000000  0.000000  0.000000  0.000000
                       0.000000  0.000000  0.000000  0.000000
                       2.000000  0.817868  0.000000  0.000000  0.000000  0.000000
                       0.000000  0.000000  0.000000  0.000000
                       2.000000  0.000001  0.000000  0.000000  0.000000  0.000000
                       0.000000  0.000000  0.000000  0.000000
                       2.000000  0.000143  0.000000  0.000000  0.000000  0.000000
                       0.000000  0.000000  0.000000  0.000000
                       2.000000  0.010578  0.000000  0.000000  0.000000  0.000000
                       0.000000  0.000000  0.000000  0.000000
                       2.000000  0.000000  0.000000  0.000000  0.000000  0.000000
                       0.000000  0.000000  0.000000  0.000000
                       2.000000  0.000000  0.000000  0.000000  0.000000  0.000000
                       0.000000  0.000000  0.000000  0.000000
                       2.000000  0.000001  0.000000  0.000000  0.000000  0.000000
                       0.000000  0.000000  0.000000  0.000000
                       2.000000  0.000076  0.000000  0.000000  0.000000  0.000000
                       0.000000  0.000000  0.000000  0.000000
                       2.000000  1.999999  0.000000  0.000000  0.000000  0.000000
                       0.000000  0.000000  0.000000  0.000000
                       2.000000  1.998431  0.000000  0.000000  0.000000  0.000000
                       0.000000  0.000000  0.000000  0.000000
                       2.000000  1.999965  0.000000  0.000000  0.000000  0.000000
                       0.000000  0.000000  0.000000  0.000000
                       2.000000  0.340862  0.000000  0.000000  0.000000  0.000000
                       0.000000  0.000000  0.000000  0.000000
                       2.000000  1.881944  0.000000  0.000000  0.000000  0.000000
                       0.000000  0.000000  0.000000  0.000000
                       2.000000  1.997119  0.000000  0.000000  0.000000  0.000000
                       0.000000  0.000000  0.000000  0.000000
                       2.000000  0.000025  0.000000  0.000000  0.000000  0.000000
                       0.000000  0.000000  0.000000  0.000000
                       2.000000  0.003181  0.000000  0.000000  0.000000  0.000000
                       0.000000  0.000000  0.000000  0.000000
                       2.000000  0.214332  0.000000  0.000000  0.000000  0.000000
                       0.000000  0.000000  0.000000  0.000000
                       2.000000  1.670445  0.000000  0.000000  0.000000  0.000000
                       0.000000  0.000000  0.000000  0.000000
                       2.000000  0.000000  0.000000  0.000000  0.000000  0.000000
                       0.000000  0.000000  0.000000  0.000000
                       2.000000  0.000000  0.000000  0.000000  0.000000  0.000000
                       0.000000  0.000000  0.000000  0.000000
                       2.000000  0.000023  0.000000  0.000000  0.000000  0.000000
                       0.000000  0.000000  0.000000  0.000000
                       2.000000  0.001688  0.000000  0.000000  0.000000  0.000000
                       0.000000  0.000000  0.000000  0.000000
                       2.000000  0.067256  0.000014  0.000000  0.000000  0.000000
                       0.000000  0.000000  0.000000  0.000000
                       2.000000  1.999160  0.000000  0.000000  0.000000  0.000000
                       0.000000  0.000000  0.000000  0.000000
                       2.000000  1.999998  0.000000  0.000000  0.000000  0.000000
                       0.000000  0.000000  0.000000  0.000000
                       2.000000  1.999875  0.000000  0.000000  0.000000  0.000000
                       0.000000  0.000000  0.000000  0.000000
                       2.000000  1.999997  0.000000  0.000000  0.000000  0.000000
                       0.000000  0.000000  0.000000  0.000000
                       2.000000  1.433388  0.000000  0.000000  0.000000  0.000000
                       0.000000  0.000000  0.000000  0.000000
                       2.000000  1.989972  0.000000  0.000000  0.000000  0.000000
                       0.000000  0.000000  0.000000  0.000000
                       2.000000  1.999770  0.000000  0.000000  0.000000  0.000000
                       0.000000  0.000000  0.000000  0.000000
                       2.000000  1.999990  0.000000  0.000000  0.000000  0.000000
                       0.000000  0.000000  0.000000  0.000000
                       2.000000  0.000306  0.000000  0.000000  0.000000  0.000000
                       0.000000  0.000000  0.000000  0.000000
                       2.000000  0.038013  0.000000  0.000000  0.000000  0.000000
                       0.000000  0.000000  0.000000  0.000000
                       2.000000  1.190799  0.000000  0.000000  0.000000  0.000000
                       0.000000  0.000000  0.000000  0.000000
                       2.000000  1.968579  0.000000  0.000000  0.000000  0.000000
                       0.000000  0.000000  0.000000  0.000000
                       2.000000  1.998616  0.000008  0.000000  0.000000  0.000000
                       0.000000  0.000000  0.000000  0.000000
                       2.000000  0.000000  0.000000  0.000000  0.000000  0.000000
                       0.000000  0.000000  0.000000  0.000000
                       2.000000  0.000002  0.000000  0.000000  0.000000  0.000000
                       0.000000  0.000000  0.000000  0.000000
                       prtocc : prtvol=0, do not print more k-points.
              occ4     2.000000  0.000000  0.000000  0.000000  0.000000  0.000000
                       0.000000  0.000000  0.000000  0.000000
                       2.000000  0.000000  0.000000  0.000000  0.000000  0.000000
                       0.000000  0.000000  0.000000  0.000000
                       2.000000  0.000000  0.000000  0.000000  0.000000  0.000000
                       0.000000  0.000000  0.000000  0.000000
                       2.000000  0.000000  0.000000  0.000000  0.000000  0.000000
                       0.000000  0.000000  0.000000  0.000000
                       2.000000  0.000542  0.000000  0.000000  0.000000  0.000000
                       0.000000  0.000000  0.000000  0.000000
                       2.000000  0.000000  0.000000  0.000000  0.000000  0.000000
                       0.000000  0.000000  0.000000  0.000000
                       2.000000  0.000005  0.000000  0.000000  0.000000  0.000000
                       0.000000  0.000000  0.000000  0.000000
                       2.000000  0.000000  0.000000  0.000000  0.000000  0.000000
                       0.000000  0.000000  0.000000  0.000000
                       2.000000  0.000000  0.000000  0.000000  0.000000  0.000000
                       0.000000  0.000000  0.000000  0.000000
                       2.000000  0.000000  0.000000  0.000000  0.000000  0.000000
                       0.000000  0.000000  0.000000  0.000000
                       2.000000  1.959991  0.000000  0.000000  0.000000  0.000000
                       0.000000  0.000000  0.000000  0.000000
                       2.000000  0.020060  0.000000  0.000000  0.000000  0.000000
                       0.000000  0.000000  0.000000  0.000000
                       2.000000  0.819629  0.000000  0.000000  0.000000  0.000000
                       0.000000  0.000000  0.000000  0.000000
                       2.000000  0.000002  0.000000  0.000000  0.000000  0.000000
                       0.000000  0.000000  0.000000  0.000000
                       2.000000  0.000179  0.000000  0.000000  0.000000  0.000000
                       0.000000  0.000000  0.000000  0.000000
                       2.000000  0.011865  0.000000  0.000000  0.000000  0.000000
                       0.000000  0.000000  0.000000  0.000000
                       2.000000  0.000000  0.000000  0.000000  0.000000  0.000000
                       0.000000  0.000000  0.000000  0.000000
                       2.000000  0.000000  0.000000  0.000000  0.000000  0.000000
                       0.000000  0.000000  0.000000  0.000000
                       2.000000  0.000001  0.000000  0.000000  0.000000  0.000000
                       0.000000  0.000000  0.000000  0.000000
                       2.000000  0.000091  0.000000  0.000000  0.000000  0.000000
                       0.000000  0.000000  0.000000  0.000000
                       2.000000  1.999999  0.000000  0.000000  0.000000  0.000000
                       0.000000  0.000000  0.000000  0.000000
                       2.000000  1.998120  0.000000  0.000000  0.000000  0.000000
                       0.000000  0.000000  0.000000  0.000000
                       2.000000  1.999954  0.000000  0.000000  0.000000  0.000000
                       0.000000  0.000000  0.000000  0.000000
                       2.000000  0.349512  0.000000  0.000000  0.000000  0.000000
                       0.000000  0.000000  0.000000  0.000000
                       2.000000  1.873317  0.000000  0.000000  0.000000  0.000000
                       0.000000  0.000000  0.000000  0.000000
                       2.000000  1.996586  0.000000  0.000000  0.000000  0.000000
                       0.000000  0.000000  0.000000  0.000000
                       2.000000  0.000033  0.000000  0.000000  0.000000  0.000000
                       0.000000  0.000000  0.000000  0.000000
                       2.000000  0.003660  0.000000  0.000000  0.000000  0.000000
                       0.000000  0.000000  0.000000  0.000000
                       2.000000  0.220919  0.000000  0.000000  0.000000  0.000000
                       0.000000  0.000000  0.000000  0.000000
                       2.000000  1.653621  0.000000  0.000000  0.000000  0.000000
                       0.000000  0.000000  0.000000  0.000000
                       2.000000  0.000000  0.000000  0.000000  0.000000  0.000000
                       0.000000  0.000000  0.000000  0.000000
                       2.000000  0.000000  0.000000  0.000000  0.000000  0.000000
                       0.000000  0.000000  0.000000  0.000000
                       2.000000  0.000028  0.000000  0.000000  0.000000  0.000000
                       0.000000  0.000000  0.000000  0.000000
                       2.000000  0.001861  0.000001  0.000000  0.000000  0.000000
                       0.000000  0.000000  0.000000  0.000000
                       2.000000  0.067464  0.000023  0.000000  0.000000  0.000000
                       0.000000  0.000000  0.000000  0.000000
                       2.000000  1.998980  0.000000  0.000000  0.000000  0.000000
                       0.000000  0.000000  0.000000  0.000000
                       2.000000  1.999998  0.000000  0.000000  0.000000  0.000000
                       0.000000  0.000000  0.000000  0.000000
                       2.000000  1.999841  0.000000  0.000000  0.000000  0.000000
                       0.000000  0.000000  0.000000  0.000000
                       2.000000  1.999996  0.000000  0.000000  0.000000  0.000000
                       0.000000  0.000000  0.000000  0.000000
                       2.000000  1.418365  0.000000  0.000000  0.000000  0.000000
                       0.000000  0.000000  0.000000  0.000000
                       2.000000  1.988481  0.000000  0.000000  0.000000  0.000000
                       0.000000  0.000000  0.000000  0.000000
                       2.000000  1.999710  0.000000  0.000000  0.000000  0.000000
                       0.000000  0.000000  0.000000  0.000000
                       1.999999  1.999987  0.000000  0.000000  0.000000  0.000000
                       0.000000  0.000000  0.000000  0.000000
                       2.000000  0.000366  0.000000  0.000000  0.000000  0.000000
                       0.000000  0.000000  0.000000  0.000000
                       2.000000  0.040756  0.000000  0.000000  0.000000  0.000000
                       0.000000  0.000000  0.000000  0.000000
                       2.000000  1.175119  0.000000  0.000000  0.000000  0.000000
                       0.000000  0.000000  0.000000  0.000000
                       2.000000  1.964474  0.000001  0.000000  0.000000  0.000000
                       0.000000  0.000000  0.000000  0.000000
                       2.000000  1.998318  0.000012  0.000000  0.000000  0.000000
                       0.000000  0.000000  0.000000  0.000000
                       2.000000  0.000000  0.000000  0.000000  0.000000  0.000000
                       0.000000  0.000000  0.000000  0.000000
                       2.000000  0.000003  0.000000  0.000000  0.000000  0.000000
                       0.000000  0.000000  0.000000  0.000000
                       prtocc : prtvol=0, do not print more k-points.
           occopt           3
           prtden           0
            rprim      0.0000000000E+00  5.0000000000E-01  5.0000000000E-01
                       5.0000000000E-01  0.0000000000E+00  5.0000000000E-01
                       5.0000000000E-01  5.0000000000E-01  0.0000000000E+00
           shiftk      5.00000000E-01  5.00000000E-01  5.00000000E-01
          spgroup         225
           strten1    -1.8024320837E-04 -1.8024320837E-04 -1.8024320837E-04
                       0.0000000000E+00  0.0000000000E+00  0.0000000000E+00
           strten2    -3.4708123315E-05 -3.4708123315E-05 -3.4708123315E-05
                       0.0000000000E+00  0.0000000000E+00  0.0000000000E+00
           strten3     8.5391469438E-05  8.5391469438E-05  8.5391469438E-05
                       0.0000000000E+00  0.0000000000E+00  0.0000000000E+00
           strten4     1.8259975587E-04  1.8259975587E-04  1.8259975587E-04
                       0.0000000000E+00  0.0000000000E+00  0.0000000000E+00
           symrel      1  0  0   0  1  0   0  0  1      -1  0  0   0 -1  0   0  0 -1
                       0 -1  1   0 -1  0   1 -1  0       0  1 -1   0  1  0  -1  1  0
                      -1  0  0  -1  0  1  -1  1  0       1  0  0   1  0 -1   1 -1  0
                       0  1 -1   1  0 -1   0  0 -1       0 -1  1  -1  0  1   0  0  1
                      -1  0  0  -1  1  0  -1  0  1       1  0  0   1 -1  0   1  0 -1
                       0 -1  1   1 -1  0   0 -1  0       0  1 -1  -1  1  0   0  1  0
                       1  0  0   0  0  1   0  1  0      -1  0  0   0  0 -1   0 -1  0
                       0  1 -1   0  0 -1   1  0 -1       0 -1  1   0  0  1  -1  0  1
                      -1  0  1  -1  1  0  -1  0  0       1  0 -1   1 -1  0   1  0  0
                       0 -1  0   1 -1  0   0 -1  1       0  1  0  -1  1  0   0  1 -1
                       1  0 -1   0  0 -1   0  1 -1      -1  0  1   0  0  1   0 -1  1
                       0  1  0   0  0  1   1  0  0       0 -1  0   0  0 -1  -1  0  0
                       1  0 -1   0  1 -1   0  0 -1      -1  0  1   0 -1  1   0  0  1
                       0 -1  0   0 -1  1   1 -1  0       0  1  0   0  1 -1  -1  1  0
                      -1  0  1  -1  0  0  -1  1  0       1  0 -1   1  0  0   1 -1  0
                       0  1  0   1  0  0   0  0  1       0 -1  0  -1  0  0   0  0 -1
                       0  0 -1   0  1 -1   1  0 -1       0  0  1   0 -1  1  -1  0  1
                       1 -1  0   0 -1  1   0 -1  0      -1  1  0   0  1 -1   0  1  0
                       0  0  1   1  0  0   0  1  0       0  0 -1  -1  0  0   0 -1  0
                      -1  1  0  -1  0  0  -1  0  1       1 -1  0   1  0  0   1  0 -1
                       0  0  1   0  1  0   1  0  0       0  0 -1   0 -1  0  -1  0  0
                       1 -1  0   0 -1  0   0 -1  1      -1  1  0   0  1  0   0  1 -1
                       0  0 -1   1  0 -1   0  1 -1       0  0  1  -1  0  1   0 -1  1
                      -1  1  0  -1  0  1  -1  0  0       1 -1  0   1  0 -1   1  0  0
           toldfe      1.00000000E-08 Hartree
           tolmxf      1.00000000E-05
            typat      1
              wtk        0.00600    0.00600    0.00600    0.01200    0.00600    0.00600
                         0.01200    0.00600    0.01200    0.01200    0.00600    0.00600
                         0.01200    0.00600    0.01200    0.01200    0.00600    0.01200
                         0.01200    0.01200    0.00600    0.00600    0.01200    0.00600
                         0.01200    0.01200    0.00600    0.01200    0.01200    0.01200
                         0.00600    0.01200    0.01200    0.01200    0.01200    0.00600
                         0.00600    0.00600    0.01200    0.00600    0.01200    0.01200
                         0.01200    0.00600    0.01200    0.01200    0.01200    0.01200
                         0.00600    0.01200
                       outvars : Printing only first  50 k-points.
            znucl       13.00000

================================================================================


- Timing analysis has been suppressed with timopt=0



================================================================================

 Suggested references for the acknowledgment of ABINIT usage.

 The users of ABINIT have little formal obligations with respect to the ABINIT group
 (those specified in the GNU General Public License, http://www.gnu.org/copyleft/gpl.txt).
 However, it is common practice in the scientific literature,
 to acknowledge the efforts of people that have made the research possible.
 In this spirit, please find below suggested citations of work written by ABINIT developers,
 corresponding to implementations inside of ABINIT that you have used in the present run.
 Note also that it will be of great value to readers of publications presenting these results,
 to read papers enabling them to understand the theoretical formalism and details
 of the ABINIT implementation.
 For information on why they are suggested, see also http://www.abinit.org/about/?text=acknowledgments.
-
- [1] Libxc: A library of exchange and correlation functionals for density functional theory.
- M.A.L. Marques, M.J.T. Oliveira, T. Burnus, Computer Physics Communications 183, 2227 (2012).
- Comment : to be cited when LibXC is used (negative value of ixc)
- Strong suggestion to cite this paper.
-
- [2] Recent developments in the ABINIT software package.
- Computer Phys. Comm. 205, 106 (2016).
- X.Gonze, F.Jollet, F.Abreu Araujo, D.Adams, B.Amadon, T.Applencourt,
- C.Audouze, J.-M.Beuken, J.Bieder, A.Bokhanchuk, E.Bousquet, F.Bruneval
- D.Caliste, M.Cote, F.Dahm, F.Da Pieve, M.Delaveau, M.Di Gennaro,
- B.Dorado, C.Espejo, G.Geneste, L.Genovese, A.Gerossier, M.Giantomassi,
- Y.Gillet, D.R.Hamann, L.He, G.Jomard, J.Laflamme Janssen, S.Le Roux,
- A.Levitt, A.Lherbier, F.Liu, I.Lukacevic, A.Martin, C.Martins,
- M.J.T.Oliveira, S.Ponce, Y.Pouillon, T.Rangel, G.-M.Rignanese,
- A.H.Romero, B.Rousseau, O.Rubel, A.A.Shukri, M.Stankovski, M.Torrent,
- M.J.Van Setten, B.Van Troeye, M.J.Verstraete, D.Waroquier, J.Wiktor,
- B.Xue, A.Zhou, J.W.Zwanziger.
- Comment : the fourth generic paper describing the ABINIT project.
- Note that a version of this paper, that is not formatted for Computer Phys. Comm. 
- is available at http://www.abinit.org/about/ABINIT16.pdf .
- The licence allows the authors to put it on the Web.
-
- [3] ABINIT : First-principles approach of materials and nanosystem properties.
- Computer Phys. Comm. 180, 2582-2615 (2009).
- X. Gonze, B. Amadon, P.-M. Anglade, J.-M. Beuken, F. Bottin, P. Boulanger, F. Bruneval,
- D. Caliste, R. Caracas, M. Cote, T. Deutsch, L. Genovese, Ph. Ghosez, M. Giantomassi
- S. Goedecker, D.R. Hamann, P. Hermet, F. Jollet, G. Jomard, S. Leroux, M. Mancini, S. Mazevet,
- M.J.T. Oliveira, G. Onida, Y. Pouillon, T. Rangel, G.-M. Rignanese, D. Sangalli, R. Shaltaf,
- M. Torrent, M.J. Verstraete, G. Zerah, J.W. Zwanziger
- Comment : the third generic paper describing the ABINIT project.
- Note that a version of this paper, that is not formatted for Computer Phys. Comm. 
- is available at http://www.abinit.org/about/ABINIT_CPC_v10.pdf .
- The licence allows the authors to put it on the Web.
-
- [4] A brief introduction to the ABINIT software package.
- Z. Kristallogr. 220, 558-562 (2005).
- X. Gonze, G.-M. Rignanese, M. Verstraete, J.-M. Beuken, Y. Pouillon, R. Caracas, F. Jollet,
- M. Torrent, G. Zerah, M. Mikami, Ph. Ghosez, M. Veithen, J.-Y. Raty, V. Olevano, F. Bruneval,
- L. Reining, R. Godby, G. Onida, D.R. Hamann, and D.C. Allan.
- Comment : the second generic paper describing the ABINIT project. Note that this paper
- should be cited especially if you are using the GW part of ABINIT, as several authors
- of this part are not in the list of authors of the first or third paper.
- The .pdf of the latter paper is available at http://www.abinit.org/about/zfk_0505-06_558-562.pdf.
- Note that it should not redistributed (Copyright by Oldenburg Wissenshaftverlag,
- the licence allows the authors to put it on the Web).
-
- And optionally:
-
- [5] First-principles computation of material properties : the ABINIT software project. 
- X. Gonze, J.-M. Beuken, R. Caracas, F. Detraux, M. Fuchs, G.-M. Rignanese, L. Sindic,
- M. Verstraete, G. Zerah, F. Jollet, M. Torrent, A. Roy, M. Mikami, Ph. Ghosez, J.-Y. Raty, D.C. Allan.
- Computational Materials Science 25, 478-492 (2002). http://dx.doi.org/10.1016/S0927-0256(02)00325-7
- Comment : the original paper describing the ABINIT project.
-
- Proc.   0 individual time (sec): cpu=         42.8  wall=         43.2

================================================================================

 Calculation completed.
.Delivered   1 WARNINGs and   5 COMMENTs to log file.
+Overall time at end (sec) : cpu=         42.8  wall=         43.2
