
.Version 9.6.3 of ABINIT 
.(MPI version, prepared for a x86_64_linux_gnu10.2 computer) 

.Copyright (C) 1998-2021 ABINIT group . 
 ABINIT comes with ABSOLUTELY NO WARRANTY.
 It is free software, and you are welcome to redistribute it
 under certain conditions (GNU General Public License,
 see ~abinit/COPYING or http://www.gnu.org/copyleft/gpl.txt).

 ABINIT is a project of the Universite Catholique de Louvain,
 Corning Inc. and other collaborators, see ~abinit/doc/developers/contributors.txt .
 Please read https://docs.abinit.org/theory/acknowledgments for suggested
 acknowledgments of the ABINIT effort.
 For more information, see https://www.abinit.org .

.Starting date : Tue 23 Nov 2021.
- ( at 15h38 )
  
- input  file    -> /home/mroyo/Flexoelectrics/Src/abinit/tests/Test_suite/v9_t100/t100.abi
- output file    -> t100.abo
- root for input  files -> t100i
- root for output files -> t100o


 DATASET    1 : space group F-4 3 m (#216); Bravais cF (face-center cubic)
================================================================================
 Values of the parameters that define the memory need for DATASET  1.
     intxc =       0    ionmov =       0      iscf =       7    lmnmax =       9
     lnmax =       3     mgfft =      16  mpssoang =       3    mqgrid =    3001
     natom =       2  nloc_mem =       1    nspden =       1   nspinor =       1
    nsppol =       1      nsym =      24    n1xccc =       0    ntypat =       2
    occopt =       1   xclevel =       1
-    mband =           4        mffmem =           1         mkmem =           2
       mpw =         158          nfft =        4096          nkpt =           2
================================================================================
P This job should need less than                       2.004 Mbytes of memory.
  Rough estimation (10% accuracy) of disk space for files :
_ WF disk file :      0.021 Mbytes ; DEN or POT disk file :      0.033 Mbytes.
================================================================================


 DATASET    2 : space group F-4 3 m (#216); Bravais cF (face-center cubic)
================================================================================
 Values of the parameters that define the memory need for DATASET  2 (RF).
     intxc =       0      iscf =      -3    lmnmax =       9     lnmax =       3
     mgfft =      16  mpssoang =       3    mqgrid =    3001     natom =       2
  nloc_mem =       1    nspden =       1   nspinor =       1    nsppol =       1
      nsym =      24    n1xccc =       0    ntypat =       2    occopt =       1
   xclevel =       1
-    mband =           4        mffmem =           1         mkmem =          16
-   mkqmem =          16        mk1mem =          16           mpw =         158
      nfft =        4096          nkpt =          16
================================================================================
P This job should need less than                       2.295 Mbytes of memory.
  Rough estimation (10% accuracy) of disk space for files :
_ WF disk file :      0.156 Mbytes ; DEN or POT disk file :      0.033 Mbytes.
================================================================================


 DATASET    3 : space group F-4 3 m (#216); Bravais cF (face-center cubic)
================================================================================
 Values of the parameters that define the memory need for DATASET  3 (RF).
     intxc =       0      iscf =      -3    lmnmax =       9     lnmax =       3
     mgfft =      16  mpssoang =       3    mqgrid =    3001     natom =       2
  nloc_mem =       1    nspden =       1   nspinor =       1    nsppol =       1
      nsym =      24    n1xccc =       0    ntypat =       2    occopt =       1
   xclevel =       1
-    mband =           4        mffmem =           1         mkmem =          16
-   mkqmem =          16        mk1mem =          16           mpw =         158
      nfft =        4096          nkpt =          16
================================================================================
P This job should need less than                       2.295 Mbytes of memory.
  Rough estimation (10% accuracy) of disk space for files :
_ WF disk file :      0.156 Mbytes ; DEN or POT disk file :      0.033 Mbytes.
================================================================================


 DATASET    4 : space group F-4 3 m (#216); Bravais cF (face-center cubic)
================================================================================
 Values of the parameters that define the memory need for DATASET  4 (RF).
     intxc =       0      iscf =       7    lmnmax =       9     lnmax =       3
     mgfft =      16  mpssoang =       3    mqgrid =    3001     natom =       2
  nloc_mem =       1    nspden =       1   nspinor =       1    nsppol =       1
      nsym =      24    n1xccc =       0    ntypat =       2    occopt =       1
   xclevel =       1
-    mband =           4        mffmem =           1         mkmem =          16
-   mkqmem =          16        mk1mem =          16           mpw =         158
      nfft =        4096          nkpt =          16
================================================================================
P This job should need less than                       2.548 Mbytes of memory.
  Rough estimation (10% accuracy) of disk space for files :
_ WF disk file :      0.156 Mbytes ; DEN or POT disk file :      0.033 Mbytes.
================================================================================


 DATASET    5 : space group F-4 3 m (#216); Bravais cF (face-center cubic)
================================================================================
 Values of the parameters that define the memory need for DATASET  5.
     intxc =       0    ionmov =       0      iscf =       7    lmnmax =       9
     lnmax =       3     mgfft =      16  mpssoang =       3    mqgrid =    3001
     natom =       2  nloc_mem =       1    nspden =       1   nspinor =       1
    nsppol =       1      nsym =      24    n1xccc =       0    ntypat =       2
    occopt =       1   xclevel =       1
-    mband =           4        mffmem =           1         mkmem =          16
       mpw =         158          nfft =        4096          nkpt =          16
================================================================================
P This job should need less than                       2.325 Mbytes of memory.
  Rough estimation (10% accuracy) of disk space for files :
_ WF disk file :      0.156 Mbytes ; DEN or POT disk file :      0.033 Mbytes.
================================================================================

--------------------------------------------------------------------------------
------------- Echo of variables that govern the present computation ------------
--------------------------------------------------------------------------------
-
- outvars: echo of selected default values                                      
-   iomode0 =  0 , fftalg0 =512 , wfoptalg0 =  0
-
- outvars: echo of global parameters not present in the input file              
-  max_nthreads =    0
-
 -outvars: echo values of preprocessed input variables --------
            acell      1.0610000000E+01  1.0610000000E+01  1.0610000000E+01 Bohr
              amu      2.69815390E+01  7.49215900E+01
           diemac      9.00000000E+00
             ecut      5.00000000E+00 Hartree
-          fftalg         512
           getddk1          0
           getddk2          0
           getddk3          2
           getddk4          2
           getddk5          2
          getdkdk1          0
          getdkdk2          0
          getdkdk3          0
          getdkdk4          0
          getdkdk5          3
           getwfk1          0
           getwfk2          1
           getwfk3          1
           getwfk4          1
           getwfk5          1
          get1den1          0
          get1den2          0
          get1den3          0
          get1den4          0
          get1den5          4
           get1wf1          0
           get1wf2          0
           get1wf3          0
           get1wf4          0
           get1wf5          4
             iscf1          7
             iscf2         -3
             iscf3         -3
             iscf4          7
             iscf5          7
              ixc           7
           jdtset        1    2    3    4    5
              kpt1    -2.50000000E-01  5.00000000E-01  0.00000000E+00
                      -2.50000000E-01  0.00000000E+00  0.00000000E+00
              kpt2    -2.50000000E-01  5.00000000E-01  0.00000000E+00
                       5.00000000E-01 -2.50000000E-01  0.00000000E+00
                      -2.50000000E-01 -2.50000000E-01  2.50000000E-01
                      -2.50000000E-01  0.00000000E+00  0.00000000E+00
                      -2.50000000E-01  2.50000000E-01  2.50000000E-01
                       5.00000000E-01  5.00000000E-01  2.50000000E-01
                      -2.50000000E-01  5.00000000E-01  5.00000000E-01
                       0.00000000E+00 -2.50000000E-01  0.00000000E+00
                       2.50000000E-01 -2.50000000E-01  2.50000000E-01
                       5.00000000E-01 -2.50000000E-01  5.00000000E-01
                      -2.50000000E-01 -2.50000000E-01 -2.50000000E-01
                       5.00000000E-01  0.00000000E+00  2.50000000E-01
                      -2.50000000E-01  0.00000000E+00  5.00000000E-01
                       0.00000000E+00  5.00000000E-01  2.50000000E-01
                       0.00000000E+00 -2.50000000E-01  5.00000000E-01
                       0.00000000E+00  0.00000000E+00  2.50000000E-01
              kpt3    -2.50000000E-01  5.00000000E-01  0.00000000E+00
                       5.00000000E-01 -2.50000000E-01  0.00000000E+00
                      -2.50000000E-01 -2.50000000E-01  2.50000000E-01
                      -2.50000000E-01  0.00000000E+00  0.00000000E+00
                      -2.50000000E-01  2.50000000E-01  2.50000000E-01
                       5.00000000E-01  5.00000000E-01  2.50000000E-01
                      -2.50000000E-01  5.00000000E-01  5.00000000E-01
                       0.00000000E+00 -2.50000000E-01  0.00000000E+00
                       2.50000000E-01 -2.50000000E-01  2.50000000E-01
                       5.00000000E-01 -2.50000000E-01  5.00000000E-01
                      -2.50000000E-01 -2.50000000E-01 -2.50000000E-01
                       5.00000000E-01  0.00000000E+00  2.50000000E-01
                      -2.50000000E-01  0.00000000E+00  5.00000000E-01
                       0.00000000E+00  5.00000000E-01  2.50000000E-01
                       0.00000000E+00 -2.50000000E-01  5.00000000E-01
                       0.00000000E+00  0.00000000E+00  2.50000000E-01
              kpt4    -2.50000000E-01  5.00000000E-01  0.00000000E+00
                       5.00000000E-01 -2.50000000E-01  0.00000000E+00
                      -2.50000000E-01 -2.50000000E-01  2.50000000E-01
                      -2.50000000E-01  0.00000000E+00  0.00000000E+00
                      -2.50000000E-01  2.50000000E-01  2.50000000E-01
                       5.00000000E-01  5.00000000E-01  2.50000000E-01
                      -2.50000000E-01  5.00000000E-01  5.00000000E-01
                       0.00000000E+00 -2.50000000E-01  0.00000000E+00
                       2.50000000E-01 -2.50000000E-01  2.50000000E-01
                       5.00000000E-01 -2.50000000E-01  5.00000000E-01
                      -2.50000000E-01 -2.50000000E-01 -2.50000000E-01
                       5.00000000E-01  0.00000000E+00  2.50000000E-01
                      -2.50000000E-01  0.00000000E+00  5.00000000E-01
                       0.00000000E+00  5.00000000E-01  2.50000000E-01
                       0.00000000E+00 -2.50000000E-01  5.00000000E-01
                       0.00000000E+00  0.00000000E+00  2.50000000E-01
              kpt5    -2.50000000E-01  5.00000000E-01  0.00000000E+00
                       5.00000000E-01 -2.50000000E-01  0.00000000E+00
                      -2.50000000E-01 -2.50000000E-01  2.50000000E-01
                      -2.50000000E-01  0.00000000E+00  0.00000000E+00
                      -2.50000000E-01  2.50000000E-01  2.50000000E-01
                       5.00000000E-01  5.00000000E-01  2.50000000E-01
                      -2.50000000E-01  5.00000000E-01  5.00000000E-01
                       0.00000000E+00 -2.50000000E-01  0.00000000E+00
                       2.50000000E-01 -2.50000000E-01  2.50000000E-01
                       5.00000000E-01 -2.50000000E-01  5.00000000E-01
                      -2.50000000E-01 -2.50000000E-01 -2.50000000E-01
                       5.00000000E-01  0.00000000E+00  2.50000000E-01
                      -2.50000000E-01  0.00000000E+00  5.00000000E-01
                       0.00000000E+00  5.00000000E-01  2.50000000E-01
                       0.00000000E+00 -2.50000000E-01  5.00000000E-01
                       0.00000000E+00  0.00000000E+00  2.50000000E-01
           kptopt1          1
           kptopt2          2
           kptopt3          2
           kptopt4          2
           kptopt5          2
         kptrlatt        2   -2    2     -2    2    2     -2   -2    2
          kptrlen      2.12200000E+01
         lw_qdrpl1          0
         lw_qdrpl2          0
         lw_qdrpl3          0
         lw_qdrpl4          0
         lw_qdrpl5          1
P           mkmem1          2
P           mkmem2         16
P           mkmem3         16
P           mkmem4         16
P           mkmem5         16
P          mkqmem1          2
P          mkqmem2         16
P          mkqmem3         16
P          mkqmem4         16
P          mkqmem5         16
P          mk1mem1          2
P          mk1mem2         16
P          mk1mem3         16
P          mk1mem4         16
P          mk1mem5         16
            natom           2
            nband1          4
            nband2          4
            nband3          4
            nband4          4
            nband5          4
           ndtset           5
            ngfft          16      16      16
             nkpt1          2
             nkpt2         16
             nkpt3         16
             nkpt4         16
             nkpt5         16
             nsym          24
           ntypat           2
              occ1     2.000000  2.000000  2.000000  2.000000
              occ2     2.000000  2.000000  2.000000  2.000000
              occ3     2.000000  2.000000  2.000000  2.000000
              occ4     2.000000  2.000000  2.000000  2.000000
              occ5     2.000000  2.000000  2.000000  2.000000
        optdriver1          0
        optdriver2          1
        optdriver3          1
        optdriver4          1
        optdriver5         10
          prepalw1          0
          prepalw2          0
          prepalw3          0
          prepalw4          1
          prepalw5          0
          rfatpol1          1       1
          rfatpol2          1       1
          rfatpol3          1       1
          rfatpol4          1       2
          rfatpol5          1       1
            rfdir1          0       0       0
            rfdir2          1       1       1
            rfdir3          1       1       1
            rfdir4          1       1       1
            rfdir5          0       0       0
           rfelfd1          0
           rfelfd2          2
           rfelfd3          0
           rfelfd4          3
           rfelfd5          0
           rfphon1          0
           rfphon2          0
           rfphon3          0
           rfphon4          1
           rfphon5          0
         rf2_dkdk1          0
         rf2_dkdk2          0
         rf2_dkdk3          1
         rf2_dkdk4          0
         rf2_dkdk5          0
    rf2_pert1_dir1          0       0       0
    rf2_pert1_dir2          0       0       0
    rf2_pert1_dir3          1       1       1
    rf2_pert1_dir4          0       0       0
    rf2_pert1_dir5          0       0       0
    rf2_pert2_dir1          0       0       0
    rf2_pert2_dir2          0       0       0
    rf2_pert2_dir3          1       1       1
    rf2_pert2_dir4          0       0       0
    rf2_pert2_dir5          0       0       0
            rprim      0.0000000000E+00  5.0000000000E-01  5.0000000000E-01
                       5.0000000000E-01  0.0000000000E+00  5.0000000000E-01
                       5.0000000000E-01  5.0000000000E-01  0.0000000000E+00
           shiftk      5.00000000E-01  5.00000000E-01  5.00000000E-01
          spgroup         216
           symrel      1  0  0   0  1  0   0  0  1       0 -1  1   0 -1  0   1 -1  0
                      -1  0  0  -1  0  1  -1  1  0       0  1 -1   1  0 -1   0  0 -1
                      -1  0  0  -1  1  0  -1  0  1       0 -1  1   1 -1  0   0 -1  0
                       1  0  0   0  0  1   0  1  0       0  1 -1   0  0 -1   1  0 -1
                      -1  0  1  -1  1  0  -1  0  0       0 -1  0   1 -1  0   0 -1  1
                       1  0 -1   0  0 -1   0  1 -1       0  1  0   0  0  1   1  0  0
                       1  0 -1   0  1 -1   0  0 -1       0 -1  0   0 -1  1   1 -1  0
                      -1  0  1  -1  0  0  -1  1  0       0  1  0   1  0  0   0  0  1
                       0  0 -1   0  1 -1   1  0 -1       1 -1  0   0 -1  1   0 -1  0
                       0  0  1   1  0  0   0  1  0      -1  1  0  -1  0  0  -1  0  1
                       0  0  1   0  1  0   1  0  0       1 -1  0   0 -1  0   0 -1  1
                       0  0 -1   1  0 -1   0  1 -1      -1  1  0  -1  0  1  -1  0  0
           tolvrs1     1.00000000E-04
           tolvrs2     0.00000000E+00
           tolvrs3     0.00000000E+00
           tolvrs4     1.00000000E-03
           tolvrs5     0.00000000E+00
           tolwfr1     0.00000000E+00
           tolwfr2     1.00000000E-04
           tolwfr3     1.00000000E-04
           tolwfr4     0.00000000E+00
           tolwfr5     0.00000000E+00
            typat      1  2
           useylm           1
              wtk1       0.75000    0.25000
              wtk2       0.06250    0.06250    0.06250    0.06250    0.06250    0.06250
                         0.06250    0.06250    0.06250    0.06250    0.06250    0.06250
                         0.06250    0.06250    0.06250    0.06250
              wtk3       0.06250    0.06250    0.06250    0.06250    0.06250    0.06250
                         0.06250    0.06250    0.06250    0.06250    0.06250    0.06250
                         0.06250    0.06250    0.06250    0.06250
              wtk4       0.06250    0.06250    0.06250    0.06250    0.06250    0.06250
                         0.06250    0.06250    0.06250    0.06250    0.06250    0.06250
                         0.06250    0.06250    0.06250    0.06250
              wtk5       0.06250    0.06250    0.06250    0.06250    0.06250    0.06250
                         0.06250    0.06250    0.06250    0.06250    0.06250    0.06250
                         0.06250    0.06250    0.06250    0.06250
           xangst      0.0000000000E+00  0.0000000000E+00  0.0000000000E+00
                       1.4036425458E+00  1.4036425458E+00  1.4036425458E+00
            xcart      0.0000000000E+00  0.0000000000E+00  0.0000000000E+00
                       2.6525000000E+00  2.6525000000E+00  2.6525000000E+00
             xred      0.0000000000E+00  0.0000000000E+00  0.0000000000E+00
                       2.5000000000E-01  2.5000000000E-01  2.5000000000E-01
            znucl       13.00000   33.00000

================================================================================

 chkinp: Checking input parameters for consistency, jdtset=   1.

 chkinp: Checking input parameters for consistency, jdtset=   2.

 chkinp: Checking input parameters for consistency, jdtset=   3.

 chkinp: Checking input parameters for consistency, jdtset=   4.

 chkinp: Checking input parameters for consistency, jdtset=   5.

================================================================================
== DATASET  1 ==================================================================
-   mpi_nproc: 1, omp_nthreads: -1 (-1 if OMP is not activated)


--- !DatasetInfo
iteration_state: {dtset: 1, }
dimensions: {natom: 2, nkpt: 2, mband: 4, nsppol: 1, nspinor: 1, nspden: 1, mpw: 158, }
cutoff_energies: {ecut:   5.0, pawecutdg:  -1.0, }
electrons: {nelect:   8.00000000E+00, charge:   0.00000000E+00, occopt:   1.00000000E+00, tsmear:   1.00000000E-02, }
meta: {optdriver: 0, ionmov: 0, optcell: 0, iscf: 7, paral_kgb: 0, }
...

 Exchange-correlation functional for the present dataset will be:
  LDA: Perdew-Wang 92 LSD fit to Ceperley-Alder data - ixc=7
 Citation for XC functional:
  J.P.Perdew and Y.Wang, PRB 45, 13244 (1992)

 Real(R)+Recip(G) space primitive vectors, cartesian coordinates (Bohr,Bohr^-1):
 R(1)=  0.0000000  5.3050000  5.3050000  G(1)= -0.0942507  0.0942507  0.0942507
 R(2)=  5.3050000  0.0000000  5.3050000  G(2)=  0.0942507 -0.0942507  0.0942507
 R(3)=  5.3050000  5.3050000  0.0000000  G(3)=  0.0942507  0.0942507 -0.0942507
 Unit cell volume ucvol=  2.9859750E+02 bohr^3
 Angles (23,13,12)=  6.00000000E+01  6.00000000E+01  6.00000000E+01 degrees

 getcut: wavevector=  0.0000  0.0000  0.0000  ngfft=  16  16  16
         ecut(hartree)=      5.000   => boxcut(ratio)=   2.11870

--- Pseudopotential description ------------------------------------------------
- pspini: atom type   1  psp file is /home/mroyo/Flexoelectrics/Src/abinit/tests/Psps_for_tests/13al.981214.fhi
- pspatm: opening atomic psp file    /home/mroyo/Flexoelectrics/Src/abinit/tests/Psps_for_tests/13al.981214.fhi
- Aluminum, fhi98PP : Hamann-type, LDA CA PerdewWang, l=2 local
- 13.00000   3.00000    981214                znucl, zion, pspdat
    6    7    2    2       493   0.00000      pspcod,pspxc,lmax,lloc,mmax,r2well
  No XC core correction.
  1.024700          amesh (Hamman grid)
  pspatm : epsatm=    1.36305739
         --- l  ekb(1:nproj) -->
             0    1.768744
             1    0.900554
 pspatm: atomic psp has been read  and splines computed

- pspini: atom type   2  psp file is /home/mroyo/Flexoelectrics/Src/abinit/tests/Psps_for_tests/As.fhi
- pspatm: opening atomic psp file    /home/mroyo/Flexoelectrics/Src/abinit/tests/Psps_for_tests/As.fhi
- As, fhi98PP : H, LDA CA PerdewWang, l=2 local
- 33.00000   5.00000    170607                znucl, zion, pspdat
    6    7    2    2       531   0.00000      pspcod,pspxc,lmax,lloc,mmax,r2well
    0.00000000000000    0.00000000000000    0.00000000000000   rchrg,fchrg,qchrg
  1.024700          amesh (Hamman grid)
  pspatm : epsatm=   31.20273109
         --- l  ekb(1:nproj) -->
             0   -0.982329
             1   -0.411427
 pspatm: atomic psp has been read  and splines computed

   2.60526308E+02                                ecore*ucvol(ha*bohr**3)
--------------------------------------------------------------------------------

_setup2: Arith. and geom. avg. npw (full set) are     157.500     157.498

================================================================================

--- !BeginCycle
iteration_state: {dtset: 1, }
solver: {iscf: 7, nstep: 30, nline: 4, wfoptalg: 0, }
tolerances: {tolvrs: 1.00E-04, }
...

     iter   Etot(hartree)      deltaE(h)  residm     vres2
 ETOT  1  -8.4943847220150    -8.494E+00 8.714E-04 2.180E+00
 ETOT  2  -8.4984363904810    -4.052E-03 6.302E-10 9.823E-02
 ETOT  3  -8.4986094407917    -1.731E-04 1.304E-06 8.089E-03
 ETOT  4  -8.4986199699525    -1.053E-05 7.416E-08 8.582E-05

 At SCF step    4       vres2   =  8.58E-05 < tolvrs=  1.00E-04 =>converged.

 Cartesian components of stress tensor (hartree/bohr^3)
  sigma(1 1)=  1.44057831E-04  sigma(3 2)=  0.00000000E+00
  sigma(2 2)=  1.44057831E-04  sigma(3 1)=  0.00000000E+00
  sigma(3 3)=  1.44057831E-04  sigma(2 1)=  0.00000000E+00


--- !ResultsGS
iteration_state: {dtset: 1, }
comment   : Summary of ground state results
lattice_vectors:
- [  0.0000000,   5.3050000,   5.3050000, ]
- [  5.3050000,   0.0000000,   5.3050000, ]
- [  5.3050000,   5.3050000,   0.0000000, ]
lattice_lengths: [   7.50240,    7.50240,    7.50240, ]
lattice_angles: [ 60.000,  60.000,  60.000, ] # degrees, (23, 13, 12)
lattice_volume:   2.9859750E+02
convergence: {deltae: -1.053E-05, res2:  8.582E-05, residm:  7.416E-08, diffor: null, }
etotal    :  -8.49861997E+00
entropy   :   0.00000000E+00
fermie    :   5.32033722E-02
cartesian_stress_tensor: # hartree/bohr^3
- [  1.44057831E-04,   0.00000000E+00,   0.00000000E+00, ]
- [  0.00000000E+00,   1.44057831E-04,   0.00000000E+00, ]
- [  0.00000000E+00,   0.00000000E+00,   1.44057831E-04, ]
pressure_GPa:  -4.2383E+00
xred      :
- [  0.0000E+00,   0.0000E+00,   0.0000E+00, Al]
- [  2.5000E-01,   2.5000E-01,   2.5000E-01, As]
cartesian_forces: # hartree/bohr
- [ -0.00000000E+00,  -0.00000000E+00,  -0.00000000E+00, ]
- [ -0.00000000E+00,  -0.00000000E+00,  -0.00000000E+00, ]
force_length_stats: {min:   0.00000000E+00, max:   0.00000000E+00, mean:   0.00000000E+00, }
...

 Integrated electronic density in atomic spheres:
 ------------------------------------------------
 Atom  Sphere_radius  Integrated_density
    1        2.00000          0.91322580
    2        2.00000          2.46704051
================================================================================

 ----iterations are completed or convergence reached----

 Mean square residual over all n,k,spin=   29.632E-09; max=  74.156E-09
 reduced coordinates (array xred) for    2 atoms
       0.000000000000      0.000000000000      0.000000000000
       0.250000000000      0.250000000000      0.250000000000
 rms dE/dt=  0.0000E+00; max dE/dt=  0.0000E+00; dE/dt below (all hartree)
    1       0.000000000000      0.000000000000      0.000000000000
    2       0.000000000000      0.000000000000      0.000000000000

 cartesian coordinates (angstrom) at end:
    1      0.00000000000000     0.00000000000000     0.00000000000000
    2      1.40364254578497     1.40364254578497     1.40364254578497

 cartesian forces (hartree/bohr) at end:
    1     -0.00000000000000    -0.00000000000000    -0.00000000000000
    2     -0.00000000000000    -0.00000000000000    -0.00000000000000
 frms,max,avg= 0.0000000E+00 0.0000000E+00   0.000E+00  0.000E+00  0.000E+00 h/b

 cartesian forces (eV/Angstrom) at end:
    1     -0.00000000000000    -0.00000000000000    -0.00000000000000
    2     -0.00000000000000    -0.00000000000000    -0.00000000000000
 frms,max,avg= 0.0000000E+00 0.0000000E+00   0.000E+00  0.000E+00  0.000E+00 e/A
 length scales= 10.610000000000 10.610000000000 10.610000000000 bohr
              =  5.614570183140  5.614570183140  5.614570183140 angstroms
 prteigrs : about to open file t100o_DS1_EIG
 Fermi (or HOMO) energy (hartree) =   0.05320   Average Vxc (hartree)=  -0.32102
 Eigenvalues (hartree) for nkpt=   2  k points:
 kpt#   1, nband=  4, wtk=  0.75000, kpt= -0.2500  0.5000  0.0000 (reduced coord)
  -0.30660   -0.11805   -0.03275    0.00993
 prteigrs : prtvol=0 or 1, do not print more k-points.


--- !EnergyTerms
iteration_state     : {dtset: 1, }
comment             : Components of total free energy in Hartree
kinetic             :  2.99256865781388E+00
hartree             :  7.98786483047938E-01
xc                  : -2.39194626866640E+00
Ewald energy        : -8.47989583509473E+00
psp_core            :  8.72499977335088E-01
local_psp           : -2.26936734802062E+00
non_local_psp       : -2.12656363676511E-02
total_energy        : -8.49861996995250E+00
total_energy_eV     : -2.31259210282639E+02
band_energy         : -8.20277780883412E-01
...


 Cartesian components of stress tensor (hartree/bohr^3)
  sigma(1 1)=  1.44057831E-04  sigma(3 2)=  0.00000000E+00
  sigma(2 2)=  1.44057831E-04  sigma(3 1)=  0.00000000E+00
  sigma(3 3)=  1.44057831E-04  sigma(2 1)=  0.00000000E+00

-Cartesian components of stress tensor (GPa)         [Pressure= -4.2383E+00 GPa]
- sigma(1 1)=  4.23832701E+00  sigma(3 2)=  0.00000000E+00
- sigma(2 2)=  4.23832701E+00  sigma(3 1)=  0.00000000E+00
- sigma(3 3)=  4.23832701E+00  sigma(2 1)=  0.00000000E+00

================================================================================
== DATASET  2 ==================================================================
-   mpi_nproc: 1, omp_nthreads: -1 (-1 if OMP is not activated)


--- !DatasetInfo
iteration_state: {dtset: 2, }
dimensions: {natom: 2, nkpt: 16, mband: 4, nsppol: 1, nspinor: 1, nspden: 1, mpw: 158, }
cutoff_energies: {ecut:   5.0, pawecutdg:  -1.0, }
electrons: {nelect:   8.00000000E+00, charge:   0.00000000E+00, occopt:   1.00000000E+00, tsmear:   1.00000000E-02, }
meta: {optdriver: 1, rfelfd: 2, }
...

 mkfilename : getwfk/=0, take file _WFK from output of DATASET   1.

 Exchange-correlation functional for the present dataset will be:
  LDA: Perdew-Wang 92 LSD fit to Ceperley-Alder data - ixc=7
 Citation for XC functional:
  J.P.Perdew and Y.Wang, PRB 45, 13244 (1992)

 Real(R)+Recip(G) space primitive vectors, cartesian coordinates (Bohr,Bohr^-1):
 R(1)=  0.0000000  5.3050000  5.3050000  G(1)= -0.0942507  0.0942507  0.0942507
 R(2)=  5.3050000  0.0000000  5.3050000  G(2)=  0.0942507 -0.0942507  0.0942507
 R(3)=  5.3050000  5.3050000  0.0000000  G(3)=  0.0942507  0.0942507 -0.0942507
 Unit cell volume ucvol=  2.9859750E+02 bohr^3
 Angles (23,13,12)=  6.00000000E+01  6.00000000E+01  6.00000000E+01 degrees

 getcut: wavevector=  0.0000  0.0000  0.0000  ngfft=  16  16  16
         ecut(hartree)=      5.000   => boxcut(ratio)=   2.11870
--------------------------------------------------------------------------------


 ==>  initialize data related to q vector <== 

 The list of irreducible perturbations for this q vector is:
    1)    idir= 1    ipert=   3
    2)    idir= 2    ipert=   3
    3)    idir= 3    ipert=   3

================================================================================

--------------------------------------------------------------------------------
 Perturbation wavevector (in red.coord.)   0.000000  0.000000  0.000000
 Perturbation : derivative vs k along direction   1
 The set of symmetries contains only one element for this perturbation.
 symkpt : not enough symmetry to change the number of k points.

--------------------------------------------------------------------------------

--------------------------------------------------------------------------------

 Initialisation of the first-order wave-functions :
  ireadwf=   0

--- !BeginCycle
iteration_state: {dtset: 2, }
solver: {iscf: -3, nstep: 30, nline: 4, wfoptalg: 0, }
tolerances: {tolwfr: 1.00E-04, }
...

     iter   2DEtotal(Ha)        deltaE(Ha) residm    vres2
-ETOT  1  -10.028890952491     -1.003E+01 1.756E-02 0.000E+00
 ETOT  2  -10.032412450400     -3.521E-03 7.526E-05 0.000E+00

 At SCF step    2   max residual=  7.53E-05 < tolwfr=  1.00E-04 =>converged.
================================================================================

 ----iterations are completed or convergence reached----

 Mean square residual over all n,k,spin=   26.260E-06; max=  75.256E-06
 dfpt_looppert : ek2=    1.6833336546E+01
          f-sum rule ratio=    1.1842963842E+00
 prteigrs : about to open file t100t_1WF1_EIG
 Expectation of eigenvalue derivatives (hartree) for nkpt=  16  k points:
  (in case of degenerate eigenvalues, averaged derivative)
 kpt#   1, nband=  4, wtk=  0.06250, kpt= -0.2500  0.5000  0.0000 (reduced coord)
  -0.06466   -0.06425    0.17655    0.15329
 prteigrs : prtvol=0 or 1, do not print more k-points.


 Eight components of 2nd-order total energy (hartree) are
 1,2,3: 0th-order hamiltonian combined with 1st-order wavefunctions
     kin0=   2.89680576E+01 eigvalue=  -1.33913083E+00  local=  -2.24474454E+01
 4,5,6: 1st-order hamiltonian combined with 1st and 0th-order wfs
     kin1=  -1.99356596E+01  Hartree=   0.00000000E+00     xc=   0.00000000E+00
 7,8,9: eventually, occupation + non-local contributions
    edocc=   0.00000000E+00     enl0=   4.84388806E+00   enl1=  -1.22122299E-01
 1-9 gives the relaxation energy (to be shifted if some occ is /=2.0)
   erelax=  -1.00324125E+01
  No Ewald or frozen-wf contrib.: the relaxation energy is the total one
 2DEtotal=   -0.1003241245E+02 Ha. Also 2DEtotal=   -0.272995826230E+03 eV
    (  non-var. 2DEtotal :   -1.0028890952E+01 Ha)

--------------------------------------------------------------------------------
 Perturbation wavevector (in red.coord.)   0.000000  0.000000  0.000000
 Perturbation : derivative vs k along direction   2
 The set of symmetries contains only one element for this perturbation.
 symkpt : not enough symmetry to change the number of k points.

--------------------------------------------------------------------------------

--------------------------------------------------------------------------------

 Initialisation of the first-order wave-functions :
  ireadwf=   0

--- !BeginCycle
iteration_state: {dtset: 2, }
solver: {iscf: -3, nstep: 30, nline: 4, wfoptalg: 0, }
tolerances: {tolwfr: 1.00E-04, }
...

     iter   2DEtotal(Ha)        deltaE(Ha) residm    vres2
-ETOT  1  -10.028890952381     -1.003E+01 1.756E-02 0.000E+00
 ETOT  2  -10.032412450290     -3.521E-03 7.526E-05 0.000E+00

 At SCF step    2   max residual=  7.53E-05 < tolwfr=  1.00E-04 =>converged.
================================================================================

 ----iterations are completed or convergence reached----

 Mean square residual over all n,k,spin=   26.260E-06; max=  75.256E-06
 dfpt_looppert : ek2=    1.6833336546E+01
          f-sum rule ratio=    1.1842963842E+00
 prteigrs : about to open file t100t_1WF1_EIG
 Expectation of eigenvalue derivatives (hartree) for nkpt=  16  k points:
  (in case of degenerate eigenvalues, averaged derivative)
 kpt#   1, nband=  4, wtk=  0.06250, kpt= -0.2500  0.5000  0.0000 (reduced coord)
  -0.09581    0.15664    0.19608   -0.04235
 prteigrs : prtvol=0 or 1, do not print more k-points.


 Eight components of 2nd-order total energy (hartree) are
 1,2,3: 0th-order hamiltonian combined with 1st-order wavefunctions
     kin0=   2.89680576E+01 eigvalue=  -1.33913083E+00  local=  -2.24474454E+01
 4,5,6: 1st-order hamiltonian combined with 1st and 0th-order wfs
     kin1=  -1.99356596E+01  Hartree=   0.00000000E+00     xc=   0.00000000E+00
 7,8,9: eventually, occupation + non-local contributions
    edocc=   0.00000000E+00     enl0=   4.84388806E+00   enl1=  -1.22122299E-01
 1-9 gives the relaxation energy (to be shifted if some occ is /=2.0)
   erelax=  -1.00324125E+01
  No Ewald or frozen-wf contrib.: the relaxation energy is the total one
 2DEtotal=   -0.1003241245E+02 Ha. Also 2DEtotal=   -0.272995826227E+03 eV
    (  non-var. 2DEtotal :   -1.0028890952E+01 Ha)

--------------------------------------------------------------------------------
 Perturbation wavevector (in red.coord.)   0.000000  0.000000  0.000000
 Perturbation : derivative vs k along direction   3
 The set of symmetries contains only one element for this perturbation.
 symkpt : not enough symmetry to change the number of k points.

--------------------------------------------------------------------------------

--------------------------------------------------------------------------------

 Initialisation of the first-order wave-functions :
  ireadwf=   0

--- !BeginCycle
iteration_state: {dtset: 2, }
solver: {iscf: -3, nstep: 30, nline: 4, wfoptalg: 0, }
tolerances: {tolwfr: 1.00E-04, }
...

     iter   2DEtotal(Ha)        deltaE(Ha) residm    vres2
-ETOT  1  -10.028890952270     -1.003E+01 1.756E-02 0.000E+00
 ETOT  2  -10.032412450179     -3.521E-03 7.526E-05 0.000E+00

 At SCF step    2   max residual=  7.53E-05 < tolwfr=  1.00E-04 =>converged.
================================================================================

 ----iterations are completed or convergence reached----

 Mean square residual over all n,k,spin=   26.260E-06; max=  75.256E-06
 dfpt_looppert : ek2=    1.6833336546E+01
          f-sum rule ratio=    1.1842963842E+00
 prteigrs : about to open file t100t_1WF1_EIG
 Expectation of eigenvalue derivatives (hartree) for nkpt=  16  k points:
  (in case of degenerate eigenvalues, averaged derivative)
 kpt#   1, nband=  4, wtk=  0.06250, kpt= -0.2500  0.5000  0.0000 (reduced coord)
   0.08024   -0.04620   -0.18632   -0.05547
 prteigrs : prtvol=0 or 1, do not print more k-points.


 Eight components of 2nd-order total energy (hartree) are
 1,2,3: 0th-order hamiltonian combined with 1st-order wavefunctions
     kin0=   2.89680576E+01 eigvalue=  -1.33913083E+00  local=  -2.24474454E+01
 4,5,6: 1st-order hamiltonian combined with 1st and 0th-order wfs
     kin1=  -1.99356596E+01  Hartree=   0.00000000E+00     xc=   0.00000000E+00
 7,8,9: eventually, occupation + non-local contributions
    edocc=   0.00000000E+00     enl0=   4.84388806E+00   enl1=  -1.22122299E-01
 1-9 gives the relaxation energy (to be shifted if some occ is /=2.0)
   erelax=  -1.00324125E+01
  No Ewald or frozen-wf contrib.: the relaxation energy is the total one
 2DEtotal=   -0.1003241245E+02 Ha. Also 2DEtotal=   -0.272995826224E+03 eV
    (  non-var. 2DEtotal :   -1.0028890952E+01 Ha)
================================================================================

 ---- first-order wavefunction calculations are completed ----


 Total localisation tensor (bohr^2) in cartesian coordinates
  WARNING : still subject to testing - especially symmetries.
      direction              matrix element
   alpha     beta       real part   imaginary part
     1        1       5.0055580244    0.0000000000
     1        2       2.5027790122    0.0000000000
     1        3       2.5027790122    0.0000000000
     2        1       2.5027790122    0.0000000000
     2        2       5.0055580244    0.0000000000
     2        3       2.5027790122    0.0000000000
     3        1       2.5027790122    0.0000000000
     3        2       2.5027790122    0.0000000000
     3        3       5.0055580244    0.0000000000

 respfn : d/dk was computed, but no 2DTE, so no DDB output.

================================================================================
== DATASET  3 ==================================================================
-   mpi_nproc: 1, omp_nthreads: -1 (-1 if OMP is not activated)


--- !DatasetInfo
iteration_state: {dtset: 3, }
dimensions: {natom: 2, nkpt: 16, mband: 4, nsppol: 1, nspinor: 1, nspden: 1, mpw: 158, }
cutoff_energies: {ecut:   5.0, pawecutdg:  -1.0, }
electrons: {nelect:   8.00000000E+00, charge:   0.00000000E+00, occopt:   1.00000000E+00, tsmear:   1.00000000E-02, }
meta: {optdriver: 1, }
...

 mkfilename : getwfk/=0, take file _WFK from output of DATASET   1.

 mkfilename : getddk/=0, take file _1WF from output of DATASET   2.

 Exchange-correlation functional for the present dataset will be:
  LDA: Perdew-Wang 92 LSD fit to Ceperley-Alder data - ixc=7
 Citation for XC functional:
  J.P.Perdew and Y.Wang, PRB 45, 13244 (1992)

 Real(R)+Recip(G) space primitive vectors, cartesian coordinates (Bohr,Bohr^-1):
 R(1)=  0.0000000  5.3050000  5.3050000  G(1)= -0.0942507  0.0942507  0.0942507
 R(2)=  5.3050000  0.0000000  5.3050000  G(2)=  0.0942507 -0.0942507  0.0942507
 R(3)=  5.3050000  5.3050000  0.0000000  G(3)=  0.0942507  0.0942507 -0.0942507
 Unit cell volume ucvol=  2.9859750E+02 bohr^3
 Angles (23,13,12)=  6.00000000E+01  6.00000000E+01  6.00000000E+01 degrees

 getcut: wavevector=  0.0000  0.0000  0.0000  ngfft=  16  16  16
         ecut(hartree)=      5.000   => boxcut(ratio)=   2.11870
--------------------------------------------------------------------------------


 ==>  initialize data related to q vector <== 

 The list of irreducible perturbations for this q vector is:

================================================================================

--------------------------------------------------------------------------------
 Perturbation wavevector (in red.coord.)   0.000000  0.000000  0.000000
 Perturbation : 2nd derivative wrt k, idir1 = 1 idir2 = 1
 The set of symmetries contains only one element for this perturbation.
 symkpt : not enough symmetry to change the number of k points.

--------------------------------------------------------------------------------

--------------------------------------------------------------------------------

 Initialisation of the first-order wave-functions :
  ireadwf=   0
- dfpt_looppert: read the DDK wavefunctions from file: t100o_DS2_1WF7

--- !BeginCycle
iteration_state: {dtset: 3, }
solver: {iscf: -3, nstep: 30, nline: 4, wfoptalg: 0, }
tolerances: {tolwfr: 1.00E-04, }
...

     iter   2DEtotal(Ha)        deltaE(Ha) residm    vres2
-ETOT  1   932.64506739608      9.326E+02 7.750E-05 0.000E+00

 At SCF step    1   max residual=  7.75E-05 < tolwfr=  1.00E-04 =>converged.
================================================================================

 ----iterations are completed or convergence reached----

 Mean square residual over all n,k,spin=   36.368E-06; max=  77.496E-06

 One components of 2nd-order total energy (hartree) are
 1,2,3: 0th-order hamiltonian combined with 1st-order wavefunctions
     kin0=   2.77978027E+03 eigvalue=  -7.30085789E+01  local=  -2.29320621E+03
 4,5,6: 1st-order hamiltonian combined with 1st and 0th-order wfs
 loc psp =   0.00000000E+00  Hartree=   0.00000000E+00     xc=   0.00000000E+00
 note that "loc psp" includes a xc core correction that could be resolved
 7,8,9: eventually, occupation + non-local contributions
    edocc=   0.00000000E+00     enl0=   1.08246712E+02   enl1=   0.00000000E+00

--------------------------------------------------------------------------------
 Perturbation wavevector (in red.coord.)   0.000000  0.000000  0.000000
 Perturbation : 2nd derivative wrt k, idir1 = 2 idir2 = 2
 The set of symmetries contains only one element for this perturbation.
 symkpt : not enough symmetry to change the number of k points.

--------------------------------------------------------------------------------

--------------------------------------------------------------------------------

 Initialisation of the first-order wave-functions :
  ireadwf=   0
- dfpt_looppert: read the DDK wavefunctions from file: t100o_DS2_1WF8

--- !BeginCycle
iteration_state: {dtset: 3, }
solver: {iscf: -3, nstep: 30, nline: 4, wfoptalg: 0, }
tolerances: {tolwfr: 1.00E-04, }
...

     iter   2DEtotal(Ha)        deltaE(Ha) residm    vres2
-ETOT  1   932.64506739007      9.326E+02 7.750E-05 0.000E+00

 At SCF step    1   max residual=  7.75E-05 < tolwfr=  1.00E-04 =>converged.
================================================================================

 ----iterations are completed or convergence reached----

 Mean square residual over all n,k,spin=   36.368E-06; max=  77.496E-06

 One components of 2nd-order total energy (hartree) are
 1,2,3: 0th-order hamiltonian combined with 1st-order wavefunctions
     kin0=   2.77978027E+03 eigvalue=  -7.30085789E+01  local=  -2.29320621E+03
 4,5,6: 1st-order hamiltonian combined with 1st and 0th-order wfs
 loc psp =   0.00000000E+00  Hartree=   0.00000000E+00     xc=   0.00000000E+00
 note that "loc psp" includes a xc core correction that could be resolved
 7,8,9: eventually, occupation + non-local contributions
    edocc=   0.00000000E+00     enl0=   1.08246712E+02   enl1=   0.00000000E+00

--------------------------------------------------------------------------------
 Perturbation wavevector (in red.coord.)   0.000000  0.000000  0.000000
 Perturbation : 2nd derivative wrt k, idir1 = 3 idir2 = 3
 The set of symmetries contains only one element for this perturbation.
 symkpt : not enough symmetry to change the number of k points.

--------------------------------------------------------------------------------

--------------------------------------------------------------------------------

 Initialisation of the first-order wave-functions :
  ireadwf=   0
- dfpt_looppert: read the DDK wavefunctions from file: t100o_DS2_1WF9

--- !BeginCycle
iteration_state: {dtset: 3, }
solver: {iscf: -3, nstep: 30, nline: 4, wfoptalg: 0, }
tolerances: {tolwfr: 1.00E-04, }
...

     iter   2DEtotal(Ha)        deltaE(Ha) residm    vres2
-ETOT  1   932.64506738403      9.326E+02 7.750E-05 0.000E+00

 At SCF step    1   max residual=  7.75E-05 < tolwfr=  1.00E-04 =>converged.
================================================================================

 ----iterations are completed or convergence reached----

 Mean square residual over all n,k,spin=   36.368E-06; max=  77.496E-06

 One components of 2nd-order total energy (hartree) are
 1,2,3: 0th-order hamiltonian combined with 1st-order wavefunctions
     kin0=   2.77978027E+03 eigvalue=  -7.30085789E+01  local=  -2.29320621E+03
 4,5,6: 1st-order hamiltonian combined with 1st and 0th-order wfs
 loc psp =   0.00000000E+00  Hartree=   0.00000000E+00     xc=   0.00000000E+00
 note that "loc psp" includes a xc core correction that could be resolved
 7,8,9: eventually, occupation + non-local contributions
    edocc=   0.00000000E+00     enl0=   1.08246712E+02   enl1=   0.00000000E+00

--------------------------------------------------------------------------------
 Perturbation wavevector (in red.coord.)   0.000000  0.000000  0.000000
 Perturbation : 2nd derivative wrt k, idir1 = 2 idir2 = 3
 The set of symmetries contains only one element for this perturbation.
 symkpt : not enough symmetry to change the number of k points.

--------------------------------------------------------------------------------

--------------------------------------------------------------------------------

 Initialisation of the first-order wave-functions :
  ireadwf=   0
- dfpt_looppert: read the DDK wavefunctions from file: t100o_DS2_1WF8
- dfpt_looppert: read the DDK wavefunctions from file: t100o_DS2_1WF9

--- !BeginCycle
iteration_state: {dtset: 3, }
solver: {iscf: -3, nstep: 30, nline: 4, wfoptalg: 0, }
tolerances: {tolwfr: 1.00E-04, }
...

     iter   2DEtotal(Ha)        deltaE(Ha) residm    vres2
-ETOT  1   247.22072090920      2.472E+02 9.816E-05 0.000E+00

 At SCF step    1   max residual=  9.82E-05 < tolwfr=  1.00E-04 =>converged.
================================================================================

 ----iterations are completed or convergence reached----

 Mean square residual over all n,k,spin=   37.085E-06; max=  98.160E-06

 One components of 2nd-order total energy (hartree) are
 1,2,3: 0th-order hamiltonian combined with 1st-order wavefunctions
     kin0=   1.14394457E+03 eigvalue=  -3.38482888E+01  local=  -8.69186387E+02
 4,5,6: 1st-order hamiltonian combined with 1st and 0th-order wfs
 loc psp =   0.00000000E+00  Hartree=   0.00000000E+00     xc=   0.00000000E+00
 note that "loc psp" includes a xc core correction that could be resolved
 7,8,9: eventually, occupation + non-local contributions
    edocc=   0.00000000E+00     enl0=   3.09415540E+01   enl1=   0.00000000E+00

--------------------------------------------------------------------------------
 Perturbation wavevector (in red.coord.)   0.000000  0.000000  0.000000
 Perturbation : 2nd derivative wrt k, idir1 = 1 idir2 = 3
 The set of symmetries contains only one element for this perturbation.
 symkpt : not enough symmetry to change the number of k points.

--------------------------------------------------------------------------------

--------------------------------------------------------------------------------

 Initialisation of the first-order wave-functions :
  ireadwf=   0
- dfpt_looppert: read the DDK wavefunctions from file: t100o_DS2_1WF7
- dfpt_looppert: read the DDK wavefunctions from file: t100o_DS2_1WF9

--- !BeginCycle
iteration_state: {dtset: 3, }
solver: {iscf: -3, nstep: 30, nline: 4, wfoptalg: 0, }
tolerances: {tolwfr: 1.00E-04, }
...

     iter   2DEtotal(Ha)        deltaE(Ha) residm    vres2
-ETOT  1   249.76636999559      2.498E+02 9.130E-05 0.000E+00

 At SCF step    1   max residual=  9.13E-05 < tolwfr=  1.00E-04 =>converged.
================================================================================

 ----iterations are completed or convergence reached----

 Mean square residual over all n,k,spin=   35.644E-06; max=  91.303E-06

 One components of 2nd-order total energy (hartree) are
 1,2,3: 0th-order hamiltonian combined with 1st-order wavefunctions
     kin0=   1.14923917E+03 eigvalue=  -3.41529410E+01  local=  -8.73801677E+02
 4,5,6: 1st-order hamiltonian combined with 1st and 0th-order wfs
 loc psp =   0.00000000E+00  Hartree=   0.00000000E+00     xc=   0.00000000E+00
 note that "loc psp" includes a xc core correction that could be resolved
 7,8,9: eventually, occupation + non-local contributions
    edocc=   0.00000000E+00     enl0=   3.08366259E+01   enl1=   0.00000000E+00

--------------------------------------------------------------------------------
 Perturbation wavevector (in red.coord.)   0.000000  0.000000  0.000000
 Perturbation : 2nd derivative wrt k, idir1 = 1 idir2 = 2
 The set of symmetries contains only one element for this perturbation.
 symkpt : not enough symmetry to change the number of k points.

--------------------------------------------------------------------------------

--------------------------------------------------------------------------------

 Initialisation of the first-order wave-functions :
  ireadwf=   0
- dfpt_looppert: read the DDK wavefunctions from file: t100o_DS2_1WF7
- dfpt_looppert: read the DDK wavefunctions from file: t100o_DS2_1WF8

--- !BeginCycle
iteration_state: {dtset: 3, }
solver: {iscf: -3, nstep: 30, nline: 4, wfoptalg: 0, }
tolerances: {tolwfr: 1.00E-04, }
...

     iter   2DEtotal(Ha)        deltaE(Ha) residm    vres2
-ETOT  1   249.22189702706      2.492E+02 9.130E-05 0.000E+00

 At SCF step    1   max residual=  9.13E-05 < tolwfr=  1.00E-04 =>converged.
================================================================================

 ----iterations are completed or convergence reached----

 Mean square residual over all n,k,spin=   36.542E-06; max=  91.303E-06

 One components of 2nd-order total energy (hartree) are
 1,2,3: 0th-order hamiltonian combined with 1st-order wavefunctions
     kin0=   1.14794482E+03 eigvalue=  -3.40690169E+01  local=  -8.72638368E+02
 4,5,6: 1st-order hamiltonian combined with 1st and 0th-order wfs
 loc psp =   0.00000000E+00  Hartree=   0.00000000E+00     xc=   0.00000000E+00
 note that "loc psp" includes a xc core correction that could be resolved
 7,8,9: eventually, occupation + non-local contributions
    edocc=   0.00000000E+00     enl0=   3.08143249E+01   enl1=   0.00000000E+00
================================================================================

 ---- first-order wavefunction calculations are completed ----


 respfn : d/dk was computed, but no 2DTE, so no DDB output.

================================================================================
== DATASET  4 ==================================================================
-   mpi_nproc: 1, omp_nthreads: -1 (-1 if OMP is not activated)


--- !DatasetInfo
iteration_state: {dtset: 4, }
dimensions: {natom: 2, nkpt: 16, mband: 4, nsppol: 1, nspinor: 1, nspden: 1, mpw: 158, }
cutoff_energies: {ecut:   5.0, pawecutdg:  -1.0, }
electrons: {nelect:   8.00000000E+00, charge:   0.00000000E+00, occopt:   1.00000000E+00, tsmear:   1.00000000E-02, }
meta: {optdriver: 1, rfelfd: 3, rfphon: 1, }
...

 mkfilename : getwfk/=0, take file _WFK from output of DATASET   1.

 mkfilename : getddk/=0, take file _1WF from output of DATASET   2.

 Exchange-correlation functional for the present dataset will be:
  LDA: Perdew-Wang 92 LSD fit to Ceperley-Alder data - ixc=7
 Citation for XC functional:
  J.P.Perdew and Y.Wang, PRB 45, 13244 (1992)

 Real(R)+Recip(G) space primitive vectors, cartesian coordinates (Bohr,Bohr^-1):
 R(1)=  0.0000000  5.3050000  5.3050000  G(1)= -0.0942507  0.0942507  0.0942507
 R(2)=  5.3050000  0.0000000  5.3050000  G(2)=  0.0942507 -0.0942507  0.0942507
 R(3)=  5.3050000  5.3050000  0.0000000  G(3)=  0.0942507  0.0942507 -0.0942507
 Unit cell volume ucvol=  2.9859750E+02 bohr^3
 Angles (23,13,12)=  6.00000000E+01  6.00000000E+01  6.00000000E+01 degrees

 getcut: wavevector=  0.0000  0.0000  0.0000  ngfft=  16  16  16
         ecut(hartree)=      5.000   => boxcut(ratio)=   2.11870
--------------------------------------------------------------------------------


 ==>  initialize data related to q vector <== 

 The list of irreducible perturbations for this q vector is:
    1)    idir= 1    ipert=   1
    2)    idir= 2    ipert=   1
    3)    idir= 3    ipert=   1
    4)    idir= 1    ipert=   2
    5)    idir= 2    ipert=   2
    6)    idir= 3    ipert=   2
    7)    idir= 1    ipert=   4
    8)    idir= 2    ipert=   4
    9)    idir= 3    ipert=   4

================================================================================

--------------------------------------------------------------------------------
 Perturbation wavevector (in red.coord.)   0.000000  0.000000  0.000000
 Perturbation : displacement of atom   1   along direction   1
 Found     2 symmetries that leave the perturbation invariant.
 symkpt : not enough symmetry to change the number of k points.

--------------------------------------------------------------------------------

--------------------------------------------------------------------------------

 Initialisation of the first-order wave-functions :
  ireadwf=   0

--- !BeginCycle
iteration_state: {dtset: 4, }
solver: {iscf: 7, nstep: 30, nline: 4, wfoptalg: 0, }
tolerances: {tolvrs: 1.00E-03, }
...

     iter   2DEtotal(Ha)        deltaE(Ha) residm    vres2
-ETOT  1   6.7405044341259     -1.873E+01 1.674E-02 4.534E+02
 ETOT  2   5.3097174779784     -1.431E+00 8.719E-04 5.118E+00
 ETOT  3   5.2960480236450     -1.367E-02 7.582E-06 1.047E-01
 ETOT  4   5.2958316339344     -2.164E-04 1.518E-07 3.463E-03
 ETOT  5   5.2958249848645     -6.649E-06 3.606E-09 5.412E-05

 At SCF step    5       vres2   =  5.41E-05 < tolvrs=  1.00E-03 =>converged.
-open ddk wf file :t100o_DS2_1WF7
-open ddk wf file :t100o_DS2_1WF8
-open ddk wf file :t100o_DS2_1WF9
================================================================================

 ----iterations are completed or convergence reached----

 Mean square residual over all n,k,spin=   17.770E-10; max=  36.058E-10

 Thirteen components of 2nd-order total energy (hartree) are
 1,2,3: 0th-order hamiltonian combined with 1st-order wavefunctions
     kin0=   2.38926510E+01 eigvalue=   9.84748130E-01  local=  -1.33238203E+01
 4,5,6: 1st-order hamiltonian combined with 1st and 0th-order wfs
 loc psp =  -1.55843010E+01  Hartree=   3.76088649E+00     xc=  -2.03141439E+00
 note that "loc psp" includes a xc core correction that could be resolved
 7,8,9: eventually, occupation + non-local contributions
    edocc=   0.00000000E+00     enl0=   6.89238055E+00   enl1=  -2.47659233E+01
 1-9 gives the relaxation energy (to be shifted if some occ is /=2.0)
   erelax=  -2.01747929E+01
 10,11,12 Non-relaxation  contributions : frozen-wavefunctions and Ewald
 fr.local=  -5.94834392E+00 fr.nonlo=   1.95750687E+01  Ewald=   1.18438931E+01
 13,14 Frozen wf xc core corrections (1) and (2)
 frxc 1  =   0.00000000E+00  frxc 2 =   0.00000000E+00
 Resulting in :
 2DEtotal=    0.5295824985E+01 Ha. Also 2DEtotal=    0.144106726519E+03 eV
    (2DErelax=   -2.0174792949E+01 Ha. 2DEnonrelax=    2.5470617934E+01 Ha)
    (  non-var. 2DEtotal :    5.2955057656E+00 Ha)


--------------------------------------------------------------------------------
 Perturbation wavevector (in red.coord.)   0.000000  0.000000  0.000000
 Perturbation : displacement of atom   1   along direction   2
 Found     2 symmetries that leave the perturbation invariant.
 symkpt : not enough symmetry to change the number of k points.

--------------------------------------------------------------------------------

--------------------------------------------------------------------------------

 Initialisation of the first-order wave-functions :
  ireadwf=   0

--- !BeginCycle
iteration_state: {dtset: 4, }
solver: {iscf: 7, nstep: 30, nline: 4, wfoptalg: 0, }
tolerances: {tolvrs: 1.00E-03, }
...

     iter   2DEtotal(Ha)        deltaE(Ha) residm    vres2
-ETOT  1   6.7407494955653     -1.873E+01 1.674E-02 4.534E+02
 ETOT  2   5.3096764798306     -1.431E+00 8.720E-04 5.115E+00
 ETOT  3   5.2960481733134     -1.363E-02 7.573E-06 1.049E-01
 ETOT  4   5.2958316229087     -2.166E-04 1.520E-07 3.452E-03
 ETOT  5   5.2958250061650     -6.617E-06 3.591E-09 5.392E-05

 At SCF step    5       vres2   =  5.39E-05 < tolvrs=  1.00E-03 =>converged.
-open ddk wf file :t100o_DS2_1WF7
-open ddk wf file :t100o_DS2_1WF8
-open ddk wf file :t100o_DS2_1WF9
================================================================================

 ----iterations are completed or convergence reached----

 Mean square residual over all n,k,spin=   18.191E-10; max=  35.907E-10

 Thirteen components of 2nd-order total energy (hartree) are
 1,2,3: 0th-order hamiltonian combined with 1st-order wavefunctions
     kin0=   2.38926418E+01 eigvalue=   9.84748289E-01  local=  -1.33238123E+01
 4,5,6: 1st-order hamiltonian combined with 1st and 0th-order wfs
 loc psp =  -1.55842957E+01  Hartree=   3.76088509E+00     xc=  -2.03141354E+00
 note that "loc psp" includes a xc core correction that could be resolved
 7,8,9: eventually, occupation + non-local contributions
    edocc=   0.00000000E+00     enl0=   6.89237555E+00   enl1=  -2.47659221E+01
 1-9 gives the relaxation energy (to be shifted if some occ is /=2.0)
   erelax=  -2.01747929E+01
 10,11,12 Non-relaxation  contributions : frozen-wavefunctions and Ewald
 fr.local=  -5.94834392E+00 fr.nonlo=   1.95750687E+01  Ewald=   1.18438931E+01
 13,14 Frozen wf xc core corrections (1) and (2)
 frxc 1  =   0.00000000E+00  frxc 2 =   0.00000000E+00
 Resulting in :
 2DEtotal=    0.5295825006E+01 Ha. Also 2DEtotal=    0.144106727098E+03 eV
    (2DErelax=   -2.0174792928E+01 Ha. 2DEnonrelax=    2.5470617934E+01 Ha)
    (  non-var. 2DEtotal :    5.2955090325E+00 Ha)


--------------------------------------------------------------------------------
 Perturbation wavevector (in red.coord.)   0.000000  0.000000  0.000000
 Perturbation : displacement of atom   1   along direction   3
 Found     2 symmetries that leave the perturbation invariant.
 symkpt : not enough symmetry to change the number of k points.

--------------------------------------------------------------------------------

--------------------------------------------------------------------------------

 Initialisation of the first-order wave-functions :
  ireadwf=   0

--- !BeginCycle
iteration_state: {dtset: 4, }
solver: {iscf: 7, nstep: 30, nline: 4, wfoptalg: 0, }
tolerances: {tolvrs: 1.00E-03, }
...

     iter   2DEtotal(Ha)        deltaE(Ha) residm    vres2
-ETOT  1   6.7396786162505     -1.873E+01 1.674E-02 4.532E+02
 ETOT  2   5.3095716705282     -1.430E+00 8.713E-04 5.107E+00
 ETOT  3   5.2960463026490     -1.353E-02 7.563E-06 1.044E-01
 ETOT  4   5.2958314154039     -2.149E-04 1.512E-07 3.372E-03
 ETOT  5   5.2958249842349     -6.431E-06 3.533E-09 5.330E-05

 At SCF step    5       vres2   =  5.33E-05 < tolvrs=  1.00E-03 =>converged.
-open ddk wf file :t100o_DS2_1WF7
-open ddk wf file :t100o_DS2_1WF8
-open ddk wf file :t100o_DS2_1WF9
================================================================================

 ----iterations are completed or convergence reached----

 Mean square residual over all n,k,spin=   17.597E-10; max=  35.333E-10

 Thirteen components of 2nd-order total energy (hartree) are
 1,2,3: 0th-order hamiltonian combined with 1st-order wavefunctions
     kin0=   2.38926413E+01 eigvalue=   9.84747302E-01  local=  -1.33238176E+01
 4,5,6: 1st-order hamiltonian combined with 1st and 0th-order wfs
 loc psp =  -1.55842901E+01  Hartree=   3.76088462E+00     xc=  -2.03141313E+00
 note that "loc psp" includes a xc core correction that could be resolved
 7,8,9: eventually, occupation + non-local contributions
    edocc=   0.00000000E+00     enl0=   6.89237863E+00   enl1=  -2.47659240E+01
 1-9 gives the relaxation energy (to be shifted if some occ is /=2.0)
   erelax=  -2.01747929E+01
 10,11,12 Non-relaxation  contributions : frozen-wavefunctions and Ewald
 fr.local=  -5.94834392E+00 fr.nonlo=   1.95750687E+01  Ewald=   1.18438931E+01
 13,14 Frozen wf xc core corrections (1) and (2)
 frxc 1  =   0.00000000E+00  frxc 2 =   0.00000000E+00
 Resulting in :
 2DEtotal=    0.5295824984E+01 Ha. Also 2DEtotal=    0.144106726501E+03 eV
    (2DErelax=   -2.0174792950E+01 Ha. 2DEnonrelax=    2.5470617934E+01 Ha)
    (  non-var. 2DEtotal :    5.2955108619E+00 Ha)


--------------------------------------------------------------------------------
 Perturbation wavevector (in red.coord.)   0.000000  0.000000  0.000000
 Perturbation : displacement of atom   2   along direction   1
 Found     2 symmetries that leave the perturbation invariant.
 symkpt : not enough symmetry to change the number of k points.

--------------------------------------------------------------------------------

--------------------------------------------------------------------------------

 Initialisation of the first-order wave-functions :
  ireadwf=   0

--- !BeginCycle
iteration_state: {dtset: 4, }
solver: {iscf: 7, nstep: 30, nline: 4, wfoptalg: 0, }
tolerances: {tolvrs: 1.00E-03, }
...

     iter   2DEtotal(Ha)        deltaE(Ha) residm    vres2
-ETOT  1   33.858587740036     -6.189E+01 1.059E-01 7.436E+03
 ETOT  2   5.5593317275293     -2.830E+01 2.347E-02 5.350E+01
 ETOT  3   5.2893893591127     -2.699E-01 2.785E-04 1.688E+00
 ETOT  4   5.2851259059608     -4.263E-03 2.816E-06 1.081E-02
 ETOT  5   5.2851069645395     -1.894E-05 2.028E-08 1.039E-04

 At SCF step    5       vres2   =  1.04E-04 < tolvrs=  1.00E-03 =>converged.
-open ddk wf file :t100o_DS2_1WF7
-open ddk wf file :t100o_DS2_1WF8
-open ddk wf file :t100o_DS2_1WF9
================================================================================

 ----iterations are completed or convergence reached----

 Mean square residual over all n,k,spin=   62.406E-10; max=  20.284E-09

 Thirteen components of 2nd-order total energy (hartree) are
 1,2,3: 0th-order hamiltonian combined with 1st-order wavefunctions
     kin0=   1.12597880E+02 eigvalue=   2.13693122E+00  local=  -4.95100969E+01
 4,5,6: 1st-order hamiltonian combined with 1st and 0th-order wfs
 loc psp =  -1.18685693E+02  Hartree=   3.65986270E+01     xc=  -1.30111408E+01
 note that "loc psp" includes a xc core correction that could be resolved
 7,8,9: eventually, occupation + non-local contributions
    edocc=   0.00000000E+00     enl0=   1.65452690E+00   enl1=  -6.22457629E+01
 1-9 gives the relaxation energy (to be shifted if some occ is /=2.0)
   erelax=  -9.04647282E+01
 10,11,12 Non-relaxation  contributions : frozen-wavefunctions and Ewald
 fr.local=   5.42469637E+01 fr.nonlo=   2.96589784E+01  Ewald=   1.18438931E+01
 13,14 Frozen wf xc core corrections (1) and (2)
 frxc 1  =   0.00000000E+00  frxc 2 =   0.00000000E+00
 Resulting in :
 2DEtotal=    0.5285106965E+01 Ha. Also 2DEtotal=    0.143815074353E+03 eV
    (2DErelax=   -9.0464728198E+01 Ha. 2DEnonrelax=    9.5749835162E+01 Ha)
    (  non-var. 2DEtotal :    5.2841074155E+00 Ha)


--------------------------------------------------------------------------------
 Perturbation wavevector (in red.coord.)   0.000000  0.000000  0.000000
 Perturbation : displacement of atom   2   along direction   2
 Found     2 symmetries that leave the perturbation invariant.
 symkpt : not enough symmetry to change the number of k points.

--------------------------------------------------------------------------------

--------------------------------------------------------------------------------

 Initialisation of the first-order wave-functions :
  ireadwf=   0

--- !BeginCycle
iteration_state: {dtset: 4, }
solver: {iscf: 7, nstep: 30, nline: 4, wfoptalg: 0, }
tolerances: {tolvrs: 1.00E-03, }
...

     iter   2DEtotal(Ha)        deltaE(Ha) residm    vres2
-ETOT  1   33.858910416065     -6.189E+01 1.566E-01 7.436E+03
 ETOT  2   5.5601258051973     -2.830E+01 1.629E-02 5.351E+01
 ETOT  3   5.2893782974413     -2.707E-01 2.784E-04 1.687E+00
 ETOT  4   5.2851256682377     -4.253E-03 3.182E-06 1.084E-02
 ETOT  5   5.2851069436739     -1.872E-05 2.006E-08 1.060E-04

 At SCF step    5       vres2   =  1.06E-04 < tolvrs=  1.00E-03 =>converged.
-open ddk wf file :t100o_DS2_1WF7
-open ddk wf file :t100o_DS2_1WF8
-open ddk wf file :t100o_DS2_1WF9
================================================================================

 ----iterations are completed or convergence reached----

 Mean square residual over all n,k,spin=   61.249E-10; max=  20.059E-09

 Thirteen components of 2nd-order total energy (hartree) are
 1,2,3: 0th-order hamiltonian combined with 1st-order wavefunctions
     kin0=   1.12597837E+02 eigvalue=   2.13693348E+00  local=  -4.95100633E+01
 4,5,6: 1st-order hamiltonian combined with 1st and 0th-order wfs
 loc psp =  -1.18685756E+02  Hartree=   3.65986855E+01     xc=  -1.30111429E+01
 note that "loc psp" includes a xc core correction that could be resolved
 7,8,9: eventually, occupation + non-local contributions
    edocc=   0.00000000E+00     enl0=   1.65451887E+00   enl1=  -6.22457414E+01
 1-9 gives the relaxation energy (to be shifted if some occ is /=2.0)
   erelax=  -9.04647282E+01
 10,11,12 Non-relaxation  contributions : frozen-wavefunctions and Ewald
 fr.local=   5.42469637E+01 fr.nonlo=   2.96589784E+01  Ewald=   1.18438931E+01
 13,14 Frozen wf xc core corrections (1) and (2)
 frxc 1  =   0.00000000E+00  frxc 2 =   0.00000000E+00
 Resulting in :
 2DEtotal=    0.5285106944E+01 Ha. Also 2DEtotal=    0.143815073785E+03 eV
    (2DErelax=   -9.0464728219E+01 Ha. 2DEnonrelax=    9.5749835162E+01 Ha)
    (  non-var. 2DEtotal :    5.2840865822E+00 Ha)


--------------------------------------------------------------------------------
 Perturbation wavevector (in red.coord.)   0.000000  0.000000  0.000000
 Perturbation : displacement of atom   2   along direction   3
 Found     2 symmetries that leave the perturbation invariant.
 symkpt : not enough symmetry to change the number of k points.

--------------------------------------------------------------------------------

--------------------------------------------------------------------------------

 Initialisation of the first-order wave-functions :
  ireadwf=   0

--- !BeginCycle
iteration_state: {dtset: 4, }
solver: {iscf: 7, nstep: 30, nline: 4, wfoptalg: 0, }
tolerances: {tolvrs: 1.00E-03, }
...

     iter   2DEtotal(Ha)        deltaE(Ha) residm    vres2
-ETOT  1   33.836158244703     -6.191E+01 1.188E-01 7.433E+03
 ETOT  2   5.5595737287454     -2.828E+01 1.923E-02 5.328E+01
 ETOT  3   5.2893335156729     -2.702E-01 2.775E-04 1.680E+00
 ETOT  4   5.2851253867614     -4.208E-03 3.415E-06 1.087E-02
 ETOT  5   5.2851068800392     -1.851E-05 1.976E-08 1.056E-04

 At SCF step    5       vres2   =  1.06E-04 < tolvrs=  1.00E-03 =>converged.
-open ddk wf file :t100o_DS2_1WF7
-open ddk wf file :t100o_DS2_1WF8
-open ddk wf file :t100o_DS2_1WF9
================================================================================

 ----iterations are completed or convergence reached----

 Mean square residual over all n,k,spin=   60.170E-10; max=  19.765E-09

 Thirteen components of 2nd-order total energy (hartree) are
 1,2,3: 0th-order hamiltonian combined with 1st-order wavefunctions
     kin0=   1.12597384E+02 eigvalue=   2.13693272E+00  local=  -4.95098018E+01
 4,5,6: 1st-order hamiltonian combined with 1st and 0th-order wfs
 loc psp =  -1.18685523E+02  Hartree=   3.65985379E+01     xc=  -1.30110860E+01
 note that "loc psp" includes a xc core correction that could be resolved
 7,8,9: eventually, occupation + non-local contributions
    edocc=   0.00000000E+00     enl0=   1.65448852E+00   enl1=  -6.22456609E+01
 1-9 gives the relaxation energy (to be shifted if some occ is /=2.0)
   erelax=  -9.04647283E+01
 10,11,12 Non-relaxation  contributions : frozen-wavefunctions and Ewald
 fr.local=   5.42469637E+01 fr.nonlo=   2.96589784E+01  Ewald=   1.18438931E+01
 13,14 Frozen wf xc core corrections (1) and (2)
 frxc 1  =   0.00000000E+00  frxc 2 =   0.00000000E+00
 Resulting in :
 2DEtotal=    0.5285106880E+01 Ha. Also 2DEtotal=    0.143815072054E+03 eV
    (2DErelax=   -9.0464728282E+01 Ha. 2DEnonrelax=    9.5749835162E+01 Ha)
    (  non-var. 2DEtotal :    5.2842434007E+00 Ha)


--------------------------------------------------------------------------------
 Perturbation wavevector (in red.coord.)   0.000000  0.000000  0.000000
 Perturbation : homogeneous electric field along direction   1
 The set of symmetries contains only one element for this perturbation.
 symkpt : not enough symmetry to change the number of k points.

--------------------------------------------------------------------------------

--------------------------------------------------------------------------------

 Initialisation of the first-order wave-functions :
  ireadwf=   0
- dfpt_looppert: read the DDK wavefunctions from file: t100o_DS2_1WF7

--- !BeginCycle
iteration_state: {dtset: 4, }
solver: {iscf: 7, nstep: 30, nline: 4, wfoptalg: 0, }
tolerances: {tolvrs: 1.00E-03, }
...

     iter   2DEtotal(Ha)        deltaE(Ha) residm    vres2
-ETOT  1  -343.85282237294     -3.439E+02 1.329E+00 3.180E+03
 ETOT  2  -356.25486654311     -1.240E+01 7.216E-03 2.574E+01
 ETOT  3  -356.38494518251     -1.301E-01 1.309E-04 7.371E-01
 ETOT  4  -356.38703880804     -2.094E-03 1.630E-06 1.541E-02
 ETOT  5  -356.38706581310     -2.701E-05 2.016E-08 3.918E-04

 At SCF step    5       vres2   =  3.92E-04 < tolvrs=  1.00E-03 =>converged.
-open ddk wf file :t100o_DS2_1WF7
-open ddk wf file :t100o_DS2_1WF8
-open ddk wf file :t100o_DS2_1WF9
================================================================================

 ----iterations are completed or convergence reached----

 Mean square residual over all n,k,spin=   78.648E-10; max=  20.156E-09

 Seven components of 2nd-order total energy (hartree) are
 1,2,3: 0th-order hamiltonian combined with 1st-order wavefunctions
     kin0=   1.25477559E+03 eigvalue=  -9.63448499E+01  local=  -1.10453937E+03
 4,5,6: 1st-order hamiltonian combined with 1st and 0th-order wfs
    dotwf=  -7.12775340E+02  Hartree=   4.67523926E+01     xc=  -3.17870340E+01
 7,8,9: eventually, occupation + non-local contributions
    edocc=   0.00000000E+00     enl0=   2.87531545E+02   enl1=   0.00000000E+00
 1-9 gives the relaxation energy (to be shifted if some occ is /=2.0)
   erelax=  -3.56387066E+02
  No Ewald or frozen-wf contrib.: the relaxation energy is the total one
 2DEtotal=   -0.3563870658E+03 Ha. Also 2DEtotal=   -0.969778525058E+04 eV
    (  non-var. 2DEtotal :   -3.5638767001E+02 Ha)

--------------------------------------------------------------------------------
 Perturbation wavevector (in red.coord.)   0.000000  0.000000  0.000000
 Perturbation : homogeneous electric field along direction   2
 The set of symmetries contains only one element for this perturbation.
 symkpt : not enough symmetry to change the number of k points.

--------------------------------------------------------------------------------

--------------------------------------------------------------------------------

 Initialisation of the first-order wave-functions :
  ireadwf=   0
- dfpt_looppert: read the DDK wavefunctions from file: t100o_DS2_1WF8

--- !BeginCycle
iteration_state: {dtset: 4, }
solver: {iscf: 7, nstep: 30, nline: 4, wfoptalg: 0, }
tolerances: {tolvrs: 1.00E-03, }
...

     iter   2DEtotal(Ha)        deltaE(Ha) residm    vres2
-ETOT  1  -343.85282237518     -3.439E+02 1.329E+00 3.180E+03
 ETOT  2  -356.25486654565     -1.240E+01 7.216E-03 2.574E+01
 ETOT  3  -356.38494518484     -1.301E-01 1.309E-04 7.371E-01
 ETOT  4  -356.38703881054     -2.094E-03 1.630E-06 1.541E-02
 ETOT  5  -356.38706581565     -2.701E-05 2.016E-08 3.918E-04

 At SCF step    5       vres2   =  3.92E-04 < tolvrs=  1.00E-03 =>converged.
-open ddk wf file :t100o_DS2_1WF7
-open ddk wf file :t100o_DS2_1WF8
-open ddk wf file :t100o_DS2_1WF9
================================================================================

 ----iterations are completed or convergence reached----

 Mean square residual over all n,k,spin=   78.648E-10; max=  20.156E-09

 Seven components of 2nd-order total energy (hartree) are
 1,2,3: 0th-order hamiltonian combined with 1st-order wavefunctions
     kin0=   1.25477559E+03 eigvalue=  -9.63448499E+01  local=  -1.10453937E+03
 4,5,6: 1st-order hamiltonian combined with 1st and 0th-order wfs
    dotwf=  -7.12775340E+02  Hartree=   4.67523926E+01     xc=  -3.17870339E+01
 7,8,9: eventually, occupation + non-local contributions
    edocc=   0.00000000E+00     enl0=   2.87531545E+02   enl1=   0.00000000E+00
 1-9 gives the relaxation energy (to be shifted if some occ is /=2.0)
   erelax=  -3.56387066E+02
  No Ewald or frozen-wf contrib.: the relaxation energy is the total one
 2DEtotal=   -0.3563870658E+03 Ha. Also 2DEtotal=   -0.969778525065E+04 eV
    (  non-var. 2DEtotal :   -3.5638767000E+02 Ha)

--------------------------------------------------------------------------------
 Perturbation wavevector (in red.coord.)   0.000000  0.000000  0.000000
 Perturbation : homogeneous electric field along direction   3
 The set of symmetries contains only one element for this perturbation.
 symkpt : not enough symmetry to change the number of k points.

--------------------------------------------------------------------------------

--------------------------------------------------------------------------------

 Initialisation of the first-order wave-functions :
  ireadwf=   0
- dfpt_looppert: read the DDK wavefunctions from file: t100o_DS2_1WF9

--- !BeginCycle
iteration_state: {dtset: 4, }
solver: {iscf: 7, nstep: 30, nline: 4, wfoptalg: 0, }
tolerances: {tolvrs: 1.00E-03, }
...

     iter   2DEtotal(Ha)        deltaE(Ha) residm    vres2
-ETOT  1  -343.85282237743     -3.439E+02 1.329E+00 3.180E+03
 ETOT  2  -356.25486654820     -1.240E+01 7.216E-03 2.574E+01
 ETOT  3  -356.38494518739     -1.301E-01 1.309E-04 7.371E-01
 ETOT  4  -356.38703881310     -2.094E-03 1.630E-06 1.541E-02
 ETOT  5  -356.38706581821     -2.701E-05 2.016E-08 3.918E-04

 At SCF step    5       vres2   =  3.92E-04 < tolvrs=  1.00E-03 =>converged.
-open ddk wf file :t100o_DS2_1WF7
-open ddk wf file :t100o_DS2_1WF8
-open ddk wf file :t100o_DS2_1WF9
================================================================================

 ----iterations are completed or convergence reached----

 Mean square residual over all n,k,spin=   78.648E-10; max=  20.156E-09

 Seven components of 2nd-order total energy (hartree) are
 1,2,3: 0th-order hamiltonian combined with 1st-order wavefunctions
     kin0=   1.25477559E+03 eigvalue=  -9.63448499E+01  local=  -1.10453937E+03
 4,5,6: 1st-order hamiltonian combined with 1st and 0th-order wfs
    dotwf=  -7.12775340E+02  Hartree=   4.67523926E+01     xc=  -3.17870339E+01
 7,8,9: eventually, occupation + non-local contributions
    edocc=   0.00000000E+00     enl0=   2.87531545E+02   enl1=   0.00000000E+00
 1-9 gives the relaxation energy (to be shifted if some occ is /=2.0)
   erelax=  -3.56387066E+02
  No Ewald or frozen-wf contrib.: the relaxation energy is the total one
 2DEtotal=   -0.3563870658E+03 Ha. Also 2DEtotal=   -0.969778525072E+04 eV
    (  non-var. 2DEtotal :   -3.5638767000E+02 Ha)
================================================================================

 ---- first-order wavefunction calculations are completed ----


 ==> Compute Derivative Database <==
  
  2nd-order matrix (non-cartesian coordinates, masses not included,
   asr not included )
     j1       j2             matrix element
  dir pert dir pert     real part     imaginary part
  
   1    1   1    1         5.2955085533         0.0000000000
   1    1   2    1         2.6477542767         0.0000000000
   1    1   3    1         2.6477542767         0.0000000000
   1    1   1    2        -5.2926431048        -0.0000000000
   1    1   2    2        -2.6463215524         0.0000000000
   1    1   3    2        -2.6463215524         0.0000000000
   1    1   1    4        -6.8714280095         0.0000000000
   1    1   2    4         0.0000000000         0.0000000000
   1    1   3    4        -0.0000000000         0.0000000000
  
   2    1   1    1         2.6477542767         0.0000000000
   2    1   2    1         5.2955085533         0.0000000000
   2    1   3    1         2.6477542767         0.0000000000
   2    1   1    2        -2.6463215524         0.0000000000
   2    1   2    2        -5.2926431048        -0.0000000000
   2    1   3    2        -2.6463215524         0.0000000000
   2    1   1    4         0.0000000000         0.0000000000
   2    1   2    4        -6.8714280095         0.0000000000
   2    1   3    4         0.0000000000         0.0000000000
  
   3    1   1    1         2.6477542767         0.0000000000
   3    1   2    1         2.6477542767         0.0000000000
   3    1   3    1         5.2955085533         0.0000000000
   3    1   1    2        -2.6463215524         0.0000000000
   3    1   2    2        -2.6463215524         0.0000000000
   3    1   3    2        -5.2926431048         0.0000000000
   3    1   1    4         0.0000000000         0.0000000000
   3    1   2    4        -0.0000000000         0.0000000000
   3    1   3    4        -6.8714280095         0.0000000000
  
   1    2   1    1        -5.2924604443         0.0000000000
   1    2   2    1        -2.6462302221        -0.0000000000
   1    2   3    1        -2.6462302221        -0.0000000000
   1    2   1    2         5.2841457995         0.0000000000
   1    2   2    2         2.6420728997         0.0000000000
   1    2   3    2         2.6420728997         0.0000000000
   1    2   1    4       -52.6818467719         0.0000000000
   1    2   2    4         0.0000000000         0.0000000000
   1    2   3    4         0.0000000000         0.0000000000
  
   2    2   1    1        -2.6462302221        -0.0000000000
   2    2   2    1        -5.2924604443         0.0000000000
   2    2   3    1        -2.6462302221        -0.0000000000
   2    2   1    2         2.6420728997         0.0000000000
   2    2   2    2         5.2841457995         0.0000000000
   2    2   3    2         2.6420728997         0.0000000000
   2    2   1    4        -0.0000000000         0.0000000000
   2    2   2    4       -52.6818467719         0.0000000000
   2    2   3    4         0.0000000000         0.0000000000
  
   3    2   1    1        -2.6462302221        -0.0000000000
   3    2   2    1        -2.6462302221        -0.0000000000
   3    2   3    1        -5.2924604443        -0.0000000000
   3    2   1    2         2.6420728997         0.0000000000
   3    2   2    2         2.6420728997         0.0000000000
   3    2   3    2         5.2841457995         0.0000000000
   3    2   1    4         0.0000000000         0.0000000000
   3    2   2    4        -0.0000000000         0.0000000000
   3    2   3    4       -52.6818467719         0.0000000000
  
   1    4   1    1        -6.8715643572         0.0000000000
   1    4   2    1         0.0000000000         0.0000000000
   1    4   3    1         0.0000000000         0.0000000000
   1    4   1    2       -52.6818691972         0.0000000000
   1    4   2    2         0.0000000000         0.0000000000
   1    4   3    2         0.0000000000         0.0000000000
   1    4   1    4      -356.3899905974         0.0000000000
   1    4   2    4       118.7966635325         0.0000000000
   1    4   3    4       118.7966635325         0.0000000000
  
[...]
    3       3       3            0.0000050392        -0.0000000000
 
================================================================================

== END DATASET(S) ==============================================================
================================================================================
  
 -outvars: echo values of variables after computation  --------
            acell      1.0610000000E+01  1.0610000000E+01  1.0610000000E+01 Bohr
              amu      2.69815390E+01  7.49215900E+01
           diemac      9.00000000E+00
             ecut      5.00000000E+00 Hartree
           etotal1    -8.4986199700E+00
           etotal2    -1.0032412450E+01
           etotal3     2.4922189703E+02
           etotal4    -3.5638706582E+02
           etotal5     0.0000000000E+00
            fcart1    -0.0000000000E+00 -0.0000000000E+00 -0.0000000000E+00
                      -0.0000000000E+00 -0.0000000000E+00 -0.0000000000E+00
            fcart4     0.0000000000E+00  0.0000000000E+00  0.0000000000E+00
                       0.0000000000E+00  0.0000000000E+00  0.0000000000E+00
            fcart5     0.0000000000E+00  0.0000000000E+00  0.0000000000E+00
                       0.0000000000E+00  0.0000000000E+00  0.0000000000E+00
-          fftalg         512
           getddk1          0
           getddk2          0
           getddk3          2
           getddk4          2
           getddk5          2
          getdkdk1          0
          getdkdk2          0
          getdkdk3          0
          getdkdk4          0
          getdkdk5          3
           getwfk1          0
           getwfk2          1
           getwfk3          1
           getwfk4          1
           getwfk5          1
          get1den1          0
          get1den2          0
          get1den3          0
          get1den4          0
          get1den5          4
           get1wf1          0
           get1wf2          0
           get1wf3          0
           get1wf4          0
           get1wf5          4
             iscf1          7
             iscf2         -3
             iscf3         -3
             iscf4          7
             iscf5          7
              ixc           7
           jdtset        1    2    3    4    5
              kpt1    -2.50000000E-01  5.00000000E-01  0.00000000E+00
                      -2.50000000E-01  0.00000000E+00  0.00000000E+00
              kpt2    -2.50000000E-01  5.00000000E-01  0.00000000E+00
                       5.00000000E-01 -2.50000000E-01  0.00000000E+00
                      -2.50000000E-01 -2.50000000E-01  2.50000000E-01
                      -2.50000000E-01  0.00000000E+00  0.00000000E+00
                      -2.50000000E-01  2.50000000E-01  2.50000000E-01
                       5.00000000E-01  5.00000000E-01  2.50000000E-01
                      -2.50000000E-01  5.00000000E-01  5.00000000E-01
                       0.00000000E+00 -2.50000000E-01  0.00000000E+00
                       2.50000000E-01 -2.50000000E-01  2.50000000E-01
                       5.00000000E-01 -2.50000000E-01  5.00000000E-01
                      -2.50000000E-01 -2.50000000E-01 -2.50000000E-01
                       5.00000000E-01  0.00000000E+00  2.50000000E-01
                      -2.50000000E-01  0.00000000E+00  5.00000000E-01
                       0.00000000E+00  5.00000000E-01  2.50000000E-01
                       0.00000000E+00 -2.50000000E-01  5.00000000E-01
                       0.00000000E+00  0.00000000E+00  2.50000000E-01
              kpt3    -2.50000000E-01  5.00000000E-01  0.00000000E+00
                       5.00000000E-01 -2.50000000E-01  0.00000000E+00
                      -2.50000000E-01 -2.50000000E-01  2.50000000E-01
                      -2.50000000E-01  0.00000000E+00  0.00000000E+00
                      -2.50000000E-01  2.50000000E-01  2.50000000E-01
                       5.00000000E-01  5.00000000E-01  2.50000000E-01
                      -2.50000000E-01  5.00000000E-01  5.00000000E-01
                       0.00000000E+00 -2.50000000E-01  0.00000000E+00
                       2.50000000E-01 -2.50000000E-01  2.50000000E-01
                       5.00000000E-01 -2.50000000E-01  5.00000000E-01
                      -2.50000000E-01 -2.50000000E-01 -2.50000000E-01
                       5.00000000E-01  0.00000000E+00  2.50000000E-01
                      -2.50000000E-01  0.00000000E+00  5.00000000E-01
                       0.00000000E+00  5.00000000E-01  2.50000000E-01
                       0.00000000E+00 -2.50000000E-01  5.00000000E-01
                       0.00000000E+00  0.00000000E+00  2.50000000E-01
              kpt4    -2.50000000E-01  5.00000000E-01  0.00000000E+00
                       5.00000000E-01 -2.50000000E-01  0.00000000E+00
                      -2.50000000E-01 -2.50000000E-01  2.50000000E-01
                      -2.50000000E-01  0.00000000E+00  0.00000000E+00
                      -2.50000000E-01  2.50000000E-01  2.50000000E-01
                       5.00000000E-01  5.00000000E-01  2.50000000E-01
                      -2.50000000E-01  5.00000000E-01  5.00000000E-01
                       0.00000000E+00 -2.50000000E-01  0.00000000E+00
                       2.50000000E-01 -2.50000000E-01  2.50000000E-01
                       5.00000000E-01 -2.50000000E-01  5.00000000E-01
                      -2.50000000E-01 -2.50000000E-01 -2.50000000E-01
                       5.00000000E-01  0.00000000E+00  2.50000000E-01
                      -2.50000000E-01  0.00000000E+00  5.00000000E-01
                       0.00000000E+00  5.00000000E-01  2.50000000E-01
                       0.00000000E+00 -2.50000000E-01  5.00000000E-01
                       0.00000000E+00  0.00000000E+00  2.50000000E-01
              kpt5    -2.50000000E-01  5.00000000E-01  0.00000000E+00
                       5.00000000E-01 -2.50000000E-01  0.00000000E+00
                      -2.50000000E-01 -2.50000000E-01  2.50000000E-01
                      -2.50000000E-01  0.00000000E+00  0.00000000E+00
                      -2.50000000E-01  2.50000000E-01  2.50000000E-01
                       5.00000000E-01  5.00000000E-01  2.50000000E-01
                      -2.50000000E-01  5.00000000E-01  5.00000000E-01
                       0.00000000E+00 -2.50000000E-01  0.00000000E+00
                       2.50000000E-01 -2.50000000E-01  2.50000000E-01
                       5.00000000E-01 -2.50000000E-01  5.00000000E-01
                      -2.50000000E-01 -2.50000000E-01 -2.50000000E-01
                       5.00000000E-01  0.00000000E+00  2.50000000E-01
                      -2.50000000E-01  0.00000000E+00  5.00000000E-01
                       0.00000000E+00  5.00000000E-01  2.50000000E-01
                       0.00000000E+00 -2.50000000E-01  5.00000000E-01
                       0.00000000E+00  0.00000000E+00  2.50000000E-01
           kptopt1          1
           kptopt2          2
           kptopt3          2
           kptopt4          2
           kptopt5          2
         kptrlatt        2   -2    2     -2    2    2     -2   -2    2
          kptrlen      2.12200000E+01
         lw_qdrpl1          0
         lw_qdrpl2          0
         lw_qdrpl3          0
         lw_qdrpl4          0
         lw_qdrpl5          1
P           mkmem1          2
P           mkmem2         16
P           mkmem3         16
P           mkmem4         16
P           mkmem5         16
P          mkqmem1          2
P          mkqmem2         16
P          mkqmem3         16
P          mkqmem4         16
P          mkqmem5         16
P          mk1mem1          2
P          mk1mem2         16
P          mk1mem3         16
P          mk1mem4         16
P          mk1mem5         16
            natom           2
            nband1          4
            nband2          4
            nband3          4
            nband4          4
            nband5          4
           ndtset           5
            ngfft          16      16      16
             nkpt1          2
             nkpt2         16
             nkpt3         16
             nkpt4         16
             nkpt5         16
             nsym          24
           ntypat           2
              occ1     2.000000  2.000000  2.000000  2.000000
              occ2     2.000000  2.000000  2.000000  2.000000
              occ3     2.000000  2.000000  2.000000  2.000000
              occ4     2.000000  2.000000  2.000000  2.000000
              occ5     2.000000  2.000000  2.000000  2.000000
        optdriver1          0
        optdriver2          1
        optdriver3          1
        optdriver4          1
        optdriver5         10
          prepalw1          0
          prepalw2          0
          prepalw3          0
          prepalw4          1
          prepalw5          0
          rfatpol1          1       1
          rfatpol2          1       1
          rfatpol3          1       1
          rfatpol4          1       2
          rfatpol5          1       1
            rfdir1          0       0       0
            rfdir2          1       1       1
            rfdir3          1       1       1
            rfdir4          1       1       1
            rfdir5          0       0       0
           rfelfd1          0
           rfelfd2          2
           rfelfd3          0
           rfelfd4          3
           rfelfd5          0
           rfphon1          0
           rfphon2          0
           rfphon3          0
           rfphon4          1
           rfphon5          0
         rf2_dkdk1          0
         rf2_dkdk2          0
         rf2_dkdk3          1
         rf2_dkdk4          0
         rf2_dkdk5          0
    rf2_pert1_dir1          0       0       0
    rf2_pert1_dir2          0       0       0
    rf2_pert1_dir3          1       1       1
    rf2_pert1_dir4          0       0       0
    rf2_pert1_dir5          0       0       0
    rf2_pert2_dir1          0       0       0
    rf2_pert2_dir2          0       0       0
    rf2_pert2_dir3          1       1       1
    rf2_pert2_dir4          0       0       0
    rf2_pert2_dir5          0       0       0
            rprim      0.0000000000E+00  5.0000000000E-01  5.0000000000E-01
                       5.0000000000E-01  0.0000000000E+00  5.0000000000E-01
                       5.0000000000E-01  5.0000000000E-01  0.0000000000E+00
           shiftk      5.00000000E-01  5.00000000E-01  5.00000000E-01
          spgroup         216
           strten1     1.4405783120E-04  1.4405783120E-04  1.4405783120E-04
                       0.0000000000E+00  0.0000000000E+00  0.0000000000E+00
           strten4     0.0000000000E+00  0.0000000000E+00  0.0000000000E+00
                       0.0000000000E+00  0.0000000000E+00  0.0000000000E+00
           strten5     0.0000000000E+00  0.0000000000E+00  0.0000000000E+00
                       0.0000000000E+00  0.0000000000E+00  0.0000000000E+00
           symrel      1  0  0   0  1  0   0  0  1       0 -1  1   0 -1  0   1 -1  0
                      -1  0  0  -1  0  1  -1  1  0       0  1 -1   1  0 -1   0  0 -1
                      -1  0  0  -1  1  0  -1  0  1       0 -1  1   1 -1  0   0 -1  0
                       1  0  0   0  0  1   0  1  0       0  1 -1   0  0 -1   1  0 -1
                      -1  0  1  -1  1  0  -1  0  0       0 -1  0   1 -1  0   0 -1  1
                       1  0 -1   0  0 -1   0  1 -1       0  1  0   0  0  1   1  0  0
                       1  0 -1   0  1 -1   0  0 -1       0 -1  0   0 -1  1   1 -1  0
                      -1  0  1  -1  0  0  -1  1  0       0  1  0   1  0  0   0  0  1
                       0  0 -1   0  1 -1   1  0 -1       1 -1  0   0 -1  1   0 -1  0
                       0  0  1   1  0  0   0  1  0      -1  1  0  -1  0  0  -1  0  1
                       0  0  1   0  1  0   1  0  0       1 -1  0   0 -1  0   0 -1  1
                       0  0 -1   1  0 -1   0  1 -1      -1  1  0  -1  0  1  -1  0  0
           tolvrs1     1.00000000E-04
           tolvrs2     0.00000000E+00
           tolvrs3     0.00000000E+00
           tolvrs4     1.00000000E-03
           tolvrs5     0.00000000E+00
           tolwfr1     0.00000000E+00
           tolwfr2     1.00000000E-04
           tolwfr3     1.00000000E-04
           tolwfr4     0.00000000E+00
           tolwfr5     0.00000000E+00
            typat      1  2
           useylm           1
              wtk1       0.75000    0.25000
              wtk2       0.06250    0.06250    0.06250    0.06250    0.06250    0.06250
                         0.06250    0.06250    0.06250    0.06250    0.06250    0.06250
                         0.06250    0.06250    0.06250    0.06250
              wtk3       0.06250    0.06250    0.06250    0.06250    0.06250    0.06250
                         0.06250    0.06250    0.06250    0.06250    0.06250    0.06250
                         0.06250    0.06250    0.06250    0.06250
              wtk4       0.06250    0.06250    0.06250    0.06250    0.06250    0.06250
                         0.06250    0.06250    0.06250    0.06250    0.06250    0.06250
                         0.06250    0.06250    0.06250    0.06250
              wtk5       0.06250    0.06250    0.06250    0.06250    0.06250    0.06250
                         0.06250    0.06250    0.06250    0.06250    0.06250    0.06250
                         0.06250    0.06250    0.06250    0.06250
           xangst      0.0000000000E+00  0.0000000000E+00  0.0000000000E+00
                       1.4036425458E+00  1.4036425458E+00  1.4036425458E+00
            xcart      0.0000000000E+00  0.0000000000E+00  0.0000000000E+00
                       2.6525000000E+00  2.6525000000E+00  2.6525000000E+00
             xred      0.0000000000E+00  0.0000000000E+00  0.0000000000E+00
                       2.5000000000E-01  2.5000000000E-01  2.5000000000E-01
            znucl       13.00000   33.00000

================================================================================


- Timing analysis has been suppressed with timopt=0



================================================================================

 Suggested references for the acknowledgment of ABINIT usage.

 The users of ABINIT have little formal obligations with respect to the ABINIT group
 (those specified in the GNU General Public License, http://www.gnu.org/copyleft/gpl.txt).
 However, it is common practice in the scientific literature,
 to acknowledge the efforts of people that have made the research possible.
 In this spirit, please find below suggested citations of work written by ABINIT developers,
 corresponding to implementations inside of ABINIT that you have used in the present run.
 Note also that it will be of great value to readers of publications presenting these results,
 to read papers enabling them to understand the theoretical formalism and details
 of the ABINIT implementation.
 For information on why they are suggested, see also https://docs.abinit.org/theory/acknowledgments.
-
- [1] First-Principles Theory of Spatial Dispersion: Dynamical Quadrupoles and Flexoelectricity, 
- M. Royo and M. Stengel, Phys. Rev. X 9, 021050 (2019).
- Comment : Flexoelectricity (see lw_flexo) or dynamical quadrupoles (see lw_qdrpl) have been computed.
- DOI and bibtex: see https://docs.abinit.org/theory/bibliography/#royo2019
-
- [2] The Abinit project: Impact, environment and recent developments.
- Computer Phys. Comm. 248, 107042 (2020).
- X.Gonze, B. Amadon, G. Antonius, F.Arnardi, L.Baguet, J.-M.Beuken,
- J.Bieder, F.Bottin, J.Bouchet, E.Bousquet, N.Brouwer, F.Bruneval,
- G.Brunin, T.Cavignac, J.-B. Charraud, Wei Chen, M.Cote, S.Cottenier,
- J.Denier, G.Geneste, Ph.Ghosez, M.Giantomassi, Y.Gillet, O.Gingras,
- D.R.Hamann, G.Hautier, Xu He, N.Helbig, N.Holzwarth, Y.Jia, F.Jollet,
- W.Lafargue-Dit-Hauret, K.Lejaeghere, M.A.L.Marques, A.Martin, C.Martins,
- H.P.C. Miranda, F.Naccarato, K. Persson, G.Petretto, V.Planes, Y.Pouillon,
- S.Prokhorenko, F.Ricci, G.-M.Rignanese, A.H.Romero, M.M.Schmitt, M.Torrent,
- M.J.van Setten, B.Van Troeye, M.J.Verstraete, G.Zerah and J.W.Zwanzig
- Comment: the fifth generic paper describing the ABINIT project.
- Note that a version of this paper, that is not formatted for Computer Phys. Comm. 
- is available at https://www.abinit.org/sites/default/files/ABINIT20.pdf .
- The licence allows the authors to put it on the Web.
- DOI and bibtex: see https://docs.abinit.org/theory/bibliography/#gonze2020
-
- [3] First-principles responses of solids to atomic displacements and homogeneous electric fields:,
- implementation of a conjugate-gradient algorithm. X. Gonze, Phys. Rev. B55, 10337 (1997).
- Comment: Non-vanishing rfphon and/or rfelfd, in the norm-conserving case.
- DOI and bibtex: see https://docs.abinit.org/theory/bibliography/#gonze1997
-
- [4] Dynamical matrices, Born effective charges, dielectric permittivity tensors, and ,
- interatomic force constants from density-functional perturbation theory,
- X. Gonze and C. Lee, Phys. Rev. B55, 10355 (1997).
- Comment: Non-vanishing rfphon and/or rfelfd, in the norm-conserving case.
- DOI and bibtex: see https://docs.abinit.org/theory/bibliography/#gonze1997a
-
- [5] Ab initio pseudopotentials for electronic structure calculations of poly-atomic systems, 
- using density-functional theory.
- M. Fuchs and, M. Scheffler, Comput. Phys. Commun. 119, 67 (1999).
- Comment: Some pseudopotential generated using the FHI code were used.
- DOI and bibtex: see https://docs.abinit.org/theory/bibliography/#fuchs1999
-
- [6] ABINIT: Overview, and focus on selected capabilities
- J. Chem. Phys. 152, 124102 (2020).
- A. Romero, D.C. Allan, B. Amadon, G. Antonius, T. Applencourt, L.Baguet,
- J.Bieder, F.Bottin, J.Bouchet, E.Bousquet, F.Bruneval,
- G.Brunin, D.Caliste, M.Cote,
- J.Denier, C. Dreyer, Ph.Ghosez, M.Giantomassi, Y.Gillet, O.Gingras,
- D.R.Hamann, G.Hautier, F.Jollet, G. Jomard,
- A.Martin, 
- H.P.C. Miranda, F.Naccarato, G.Petretto, N.A. Pike, V.Planes,
- S.Prokhorenko, T. Rangel, F.Ricci, G.-M.Rignanese, M.Royo, M.Stengel, M.Torrent,
- M.J.van Setten, B.Van Troeye, M.J.Verstraete, J.Wiktor, J.W.Zwanziger, and X.Gonze.
- Comment: a global overview of ABINIT, with focus on selected capabilities .
- Note that a version of this paper, that is not formatted for J. Chem. Phys 
- is available at https://www.abinit.org/sites/default/files/ABINIT20_JPC.pdf .
- The licence allows the authors to put it on the Web.
- DOI and bibtex: see https://docs.abinit.org/theory/bibliography/#romero2020
-
- [7] Recent developments in the ABINIT software package.
- Computer Phys. Comm. 205, 106 (2016).
- X.Gonze, F.Jollet, F.Abreu Araujo, D.Adams, B.Amadon, T.Applencourt,
- C.Audouze, J.-M.Beuken, J.Bieder, A.Bokhanchuk, E.Bousquet, F.Bruneval
- D.Caliste, M.Cote, F.Dahm, F.Da Pieve, M.Delaveau, M.Di Gennaro,
- B.Dorado, C.Espejo, G.Geneste, L.Genovese, A.Gerossier, M.Giantomassi,
- Y.Gillet, D.R.Hamann, L.He, G.Jomard, J.Laflamme Janssen, S.Le Roux,
- A.Levitt, A.Lherbier, F.Liu, I.Lukacevic, A.Martin, C.Martins,
- M.J.T.Oliveira, S.Ponce, Y.Pouillon, T.Rangel, G.-M.Rignanese,
- A.H.Romero, B.Rousseau, O.Rubel, A.A.Shukri, M.Stankovski, M.Torrent,
- M.J.Van Setten, B.Van Troeye, M.J.Verstraete, D.Waroquier, J.Wiktor,
- B.Xu, A.Zhou, J.W.Zwanziger.
- Comment: the fourth generic paper describing the ABINIT project.
- Note that a version of this paper, that is not formatted for Computer Phys. Comm. 
- is available at https://www.abinit.org/sites/default/files/ABINIT16.pdf .
- The licence allows the authors to put it on the Web.
- DOI and bibtex: see https://docs.abinit.org/theory/bibliography/#gonze2016
-
- Proc.   0 individual time (sec): cpu=          5.1  wall=         10.1

================================================================================

 Calculation completed.
.Delivered   7 WARNINGs and  12 COMMENTs to log file.
+Overall time at end (sec) : cpu=          5.1  wall=         10.1
