
.Version 9.1.3 of ABINIT 
.(sequential version, prepared for a x86_64_linux_gnu9.2 computer) 

.Copyright (C) 1998-2020 ABINIT group . 
 ABINIT comes with ABSOLUTELY NO WARRANTY.
 It is free software, and you are welcome to redistribute it
 under certain conditions (GNU General Public License,
 see ~abinit/COPYING or http://www.gnu.org/copyleft/gpl.txt).

 ABINIT is a project of the Universite Catholique de Louvain,
 Corning Inc. and other collaborators, see ~abinit/doc/developers/contributors.txt .
 Please read https://docs.abinit.org/theory/acknowledgments for suggested
 acknowledgments of the ABINIT effort.
 For more information, see https://www.abinit.org .

.Starting date : Thu  7 May 2020.
- ( at 21h07 )
  
- input  file    -> /home/buildbot/bb/ABINIT/abiref_gnu_9.2_serial/trunk__gonze/tests/Test_suite/v9_t11-t12/t11.in
- output file    -> t11.out
- root for input  files -> t11i
- root for output files -> t11o

- inpspheads : Reading pseudopotential header in XML form from /home/buildbot/bb/ABINIT/abiref_gnu_9.2_serial/trunk__gonze/tests/Psps_for_tests/Pseudodojo_PAW_GGA_standard/Ga.xml
- inpspheads : Reading pseudopotential header in XML form from /home/buildbot/bb/ABINIT/abiref_gnu_9.2_serial/trunk__gonze/tests/Psps_for_tests/Pseudodojo_PAW_GGA_standard/As.xml

 DATASET    1 : space group F-4 3 m (#216); Bravais cF (face-center cubic)
================================================================================
 Values of the parameters that define the memory need for DATASET  1.
     intxc =       0    ionmov =       0      iscf =      17    lmnmax =      18
     lnmax =       6     mgfft =      18  mpssoang =       3    mqgrid =    3001
     natom =       2  nloc_mem =       2    nspden =       2   nspinor =       1
    nsppol =       2      nsym =      24    n1xccc =       1    ntypat =       2
    occopt =       1   xclevel =       2
-    mband =          14        mffmem =           1         mkmem =           2
       mpw =         211          nfft =        5832          nkpt =           2
 PAW method is used; the additional fine FFT grid is defined by:
   mgfftf=        36    nfftf =     46656
================================================================================
P This job should need less than                      24.059 Mbytes of memory.
  Rough estimation (10% accuracy) of disk space for files :
_ WF disk file :      0.182 Mbytes ; DEN or POT disk file :      0.714 Mbytes.
================================================================================


 DATASET    2 : space group F-4 3 m (#216); Bravais cF (face-center cubic)
================================================================================
 Values of the parameters that define the memory need for DATASET  2.
     intxc =       0    ionmov =       0      iscf =      -2    lmnmax =      18
     lnmax =       6     mgfft =      18  mpssoang =       3    mqgrid =    3001
     natom =       2  nloc_mem =       2    nspden =       2   nspinor =       1
    nsppol =       2      nsym =      24    n1xccc =       1    ntypat =       2
    occopt =       1   xclevel =       2
-    mband =          30        mffmem =           1         mkmem =           2
       mpw =         211          nfft =        5832          nkpt =           2
 PAW method is used; the additional fine FFT grid is defined by:
   mgfftf=        36    nfftf =     46656
================================================================================
P This job should need less than                      19.907 Mbytes of memory.
  Rough estimation (10% accuracy) of disk space for files :
_ WF disk file :      0.388 Mbytes ; DEN or POT disk file :      0.714 Mbytes.
================================================================================


 DATASET    3 : space group F-4 3 m (#216); Bravais cF (face-center cubic)
================================================================================
 Values of the parameters that define the memory need for DATASET  3.
     intxc =       0    ionmov =       0      iscf =      -2    lmnmax =      18
     lnmax =       6     mgfft =      18  mpssoang =       3    mqgrid =    3001
     natom =       2  nloc_mem =       2    nspden =       2   nspinor =       1
    nsppol =       2      nsym =      24    n1xccc =       1    ntypat =       2
    occopt =       1   xclevel =       2
-    mband =          30        mffmem =           1         mkmem =          32
       mpw =         211          nfft =        5832          nkpt =          32
 PAW method is used; the additional fine FFT grid is defined by:
   mgfftf=        36    nfftf =     46656
================================================================================
P This job should need less than                      26.250 Mbytes of memory.
  Rough estimation (10% accuracy) of disk space for files :
_ WF disk file :      6.184 Mbytes ; DEN or POT disk file :      0.714 Mbytes.
================================================================================


 DATASET    4 : space group F-4 3 m (#216); Bravais cF (face-center cubic)
================================================================================
 Values of the parameters that define the memory need for DATASET  4 (RF).
     intxc =       0      iscf =      -3    lmnmax =      18     lnmax =       6
     mgfft =      18  mpssoang =       3    mqgrid =    3001     natom =       2
  nloc_mem =       2    nspden =       2   nspinor =       1    nsppol =       2
      nsym =      24    n1xccc =       1    ntypat =       2    occopt =       1
   xclevel =       2
-    mband =          30        mffmem =           1         mkmem =          32
-   mkqmem =          32        mk1mem =          32           mpw =         211
      nfft =        5832          nkpt =          32
================================================================================
P This job should need less than                      22.872 Mbytes of memory.
  Rough estimation (10% accuracy) of disk space for files :
_ WF disk file :      6.184 Mbytes ; DEN or POT disk file :      0.091 Mbytes.
================================================================================


 DATASET    5 : space group F-4 3 m (#216); Bravais cF (face-center cubic)
================================================================================
 Values of the parameters that define the memory need for DATASET  5 (RF).
     intxc =       0      iscf =      -3    lmnmax =      18     lnmax =       6
     mgfft =      18  mpssoang =       3    mqgrid =    3001     natom =       2
  nloc_mem =       2    nspden =       2   nspinor =       1    nsppol =       2
      nsym =      24    n1xccc =       1    ntypat =       2    occopt =       1
   xclevel =       2
-    mband =          30        mffmem =           1         mkmem =          32
-   mkqmem =          32        mk1mem =          32           mpw =         211
      nfft =        5832          nkpt =          32
================================================================================
P This job should need less than                      22.872 Mbytes of memory.
  Rough estimation (10% accuracy) of disk space for files :
_ WF disk file :      6.184 Mbytes ; DEN or POT disk file :      0.091 Mbytes.
================================================================================


 DATASET    6 : space group F-4 3 m (#216); Bravais cF (face-center cubic)
================================================================================
 Values of the parameters that define the memory need for DATASET  6 (RF).
     intxc =       0      iscf =      -3    lmnmax =      18     lnmax =       6
     mgfft =      18  mpssoang =       3    mqgrid =    3001     natom =       2
  nloc_mem =       2    nspden =       2   nspinor =       1    nsppol =       2
      nsym =      24    n1xccc =       1    ntypat =       2    occopt =       1
   xclevel =       2
-    mband =          30        mffmem =           1         mkmem =          32
-   mkqmem =          32        mk1mem =          32           mpw =         211
      nfft =        5832          nkpt =          32
================================================================================
P This job should need less than                      22.872 Mbytes of memory.
  Rough estimation (10% accuracy) of disk space for files :
_ WF disk file :      6.184 Mbytes ; DEN or POT disk file :      0.091 Mbytes.
================================================================================

--------------------------------------------------------------------------------
------------- Echo of variables that govern the present computation ------------
--------------------------------------------------------------------------------
-
- outvars: echo of selected default values                                      
-   iomode0 =  0 , fftalg0 =312 , wfoptalg0 = 10
-
- outvars: echo of global parameters not present in the input file              
-  max_nthreads =    0
-
 -outvars: echo values of preprocessed input variables --------
            acell      1.0600000000E+01  1.0600000000E+01  1.0600000000E+01 Bohr
              amu      6.97230000E+01  7.49215900E+01
           diemac      1.00000000E+01
             ecut      6.00000000E+00 Hartree
-          fftalg         312
           getden1          0
           getden2          1
           getden3          1
           getden4          0
           getden5          0
           getden6          0
           getwfk1          0
           getwfk2          1
           getwfk3          2
           getwfk4          3
           getwfk5          3
           getwfk6          3
             iscf1         17
             iscf2         -2
             iscf3         -2
             iscf4         -3
             iscf5         -3
             iscf6         -3
              ixc     -101130
           jdtset        1    2    3    4    5    6
              kpt1    -2.50000000E-01  5.00000000E-01  0.00000000E+00
                      -2.50000000E-01  0.00000000E+00  0.00000000E+00
              kpt2    -2.50000000E-01  5.00000000E-01  0.00000000E+00
                      -2.50000000E-01  0.00000000E+00  0.00000000E+00
              kpt3    -2.50000000E-01  5.00000000E-01  0.00000000E+00
                       5.00000000E-01 -2.50000000E-01  0.00000000E+00
                      -2.50000000E-01 -2.50000000E-01  2.50000000E-01
                      -2.50000000E-01  0.00000000E+00  0.00000000E+00
                       5.00000000E-01  2.50000000E-01  0.00000000E+00
                      -2.50000000E-01  2.50000000E-01  2.50000000E-01
                       2.50000000E-01  5.00000000E-01  0.00000000E+00
                       5.00000000E-01  5.00000000E-01  2.50000000E-01
                      -2.50000000E-01  5.00000000E-01  5.00000000E-01
                       0.00000000E+00 -2.50000000E-01  0.00000000E+00
                       2.50000000E-01 -2.50000000E-01  2.50000000E-01
                       5.00000000E-01 -2.50000000E-01  5.00000000E-01
                      -2.50000000E-01 -2.50000000E-01 -2.50000000E-01
                       2.50000000E-01  0.00000000E+00  0.00000000E+00
                       5.00000000E-01  0.00000000E+00  2.50000000E-01
                      -2.50000000E-01  0.00000000E+00  5.00000000E-01
                       0.00000000E+00  2.50000000E-01  0.00000000E+00
                       2.50000000E-01  2.50000000E-01  2.50000000E-01
                       5.00000000E-01  2.50000000E-01  5.00000000E-01
                      -2.50000000E-01  2.50000000E-01 -2.50000000E-01
                       0.00000000E+00  5.00000000E-01  2.50000000E-01
                       2.50000000E-01  5.00000000E-01  5.00000000E-01
                       5.00000000E-01  5.00000000E-01 -2.50000000E-01
                       0.00000000E+00 -2.50000000E-01  5.00000000E-01
                       2.50000000E-01 -2.50000000E-01 -2.50000000E-01
                       0.00000000E+00  0.00000000E+00  2.50000000E-01
                       2.50000000E-01  0.00000000E+00  5.00000000E-01
                       5.00000000E-01  0.00000000E+00 -2.50000000E-01
                       0.00000000E+00  2.50000000E-01  5.00000000E-01
                       2.50000000E-01  2.50000000E-01 -2.50000000E-01
                       0.00000000E+00  5.00000000E-01 -2.50000000E-01
                       0.00000000E+00  0.00000000E+00 -2.50000000E-01
              kpt4    -2.50000000E-01  5.00000000E-01  0.00000000E+00
                       5.00000000E-01 -2.50000000E-01  0.00000000E+00
                      -2.50000000E-01 -2.50000000E-01  2.50000000E-01
                      -2.50000000E-01  0.00000000E+00  0.00000000E+00
                       5.00000000E-01  2.50000000E-01  0.00000000E+00
                      -2.50000000E-01  2.50000000E-01  2.50000000E-01
                       2.50000000E-01  5.00000000E-01  0.00000000E+00
                       5.00000000E-01  5.00000000E-01  2.50000000E-01
                      -2.50000000E-01  5.00000000E-01  5.00000000E-01
                       0.00000000E+00 -2.50000000E-01  0.00000000E+00
                       2.50000000E-01 -2.50000000E-01  2.50000000E-01
                       5.00000000E-01 -2.50000000E-01  5.00000000E-01
                      -2.50000000E-01 -2.50000000E-01 -2.50000000E-01
                       2.50000000E-01  0.00000000E+00  0.00000000E+00
                       5.00000000E-01  0.00000000E+00  2.50000000E-01
                      -2.50000000E-01  0.00000000E+00  5.00000000E-01
                       0.00000000E+00  2.50000000E-01  0.00000000E+00
                       2.50000000E-01  2.50000000E-01  2.50000000E-01
                       5.00000000E-01  2.50000000E-01  5.00000000E-01
                      -2.50000000E-01  2.50000000E-01 -2.50000000E-01
                       0.00000000E+00  5.00000000E-01  2.50000000E-01
                       2.50000000E-01  5.00000000E-01  5.00000000E-01
                       5.00000000E-01  5.00000000E-01 -2.50000000E-01
                       0.00000000E+00 -2.50000000E-01  5.00000000E-01
                       2.50000000E-01 -2.50000000E-01 -2.50000000E-01
                       0.00000000E+00  0.00000000E+00  2.50000000E-01
                       2.50000000E-01  0.00000000E+00  5.00000000E-01
                       5.00000000E-01  0.00000000E+00 -2.50000000E-01
                       0.00000000E+00  2.50000000E-01  5.00000000E-01
                       2.50000000E-01  2.50000000E-01 -2.50000000E-01
                       0.00000000E+00  5.00000000E-01 -2.50000000E-01
                       0.00000000E+00  0.00000000E+00 -2.50000000E-01
              kpt5    -2.50000000E-01  5.00000000E-01  0.00000000E+00
                       5.00000000E-01 -2.50000000E-01  0.00000000E+00
                      -2.50000000E-01 -2.50000000E-01  2.50000000E-01
                      -2.50000000E-01  0.00000000E+00  0.00000000E+00
                       5.00000000E-01  2.50000000E-01  0.00000000E+00
                      -2.50000000E-01  2.50000000E-01  2.50000000E-01
                       2.50000000E-01  5.00000000E-01  0.00000000E+00
                       5.00000000E-01  5.00000000E-01  2.50000000E-01
                      -2.50000000E-01  5.00000000E-01  5.00000000E-01
                       0.00000000E+00 -2.50000000E-01  0.00000000E+00
                       2.50000000E-01 -2.50000000E-01  2.50000000E-01
                       5.00000000E-01 -2.50000000E-01  5.00000000E-01
                      -2.50000000E-01 -2.50000000E-01 -2.50000000E-01
                       2.50000000E-01  0.00000000E+00  0.00000000E+00
                       5.00000000E-01  0.00000000E+00  2.50000000E-01
                      -2.50000000E-01  0.00000000E+00  5.00000000E-01
                       0.00000000E+00  2.50000000E-01  0.00000000E+00
                       2.50000000E-01  2.50000000E-01  2.50000000E-01
                       5.00000000E-01  2.50000000E-01  5.00000000E-01
                      -2.50000000E-01  2.50000000E-01 -2.50000000E-01
                       0.00000000E+00  5.00000000E-01  2.50000000E-01
                       2.50000000E-01  5.00000000E-01  5.00000000E-01
                       5.00000000E-01  5.00000000E-01 -2.50000000E-01
                       0.00000000E+00 -2.50000000E-01  5.00000000E-01
                       2.50000000E-01 -2.50000000E-01 -2.50000000E-01
                       0.00000000E+00  0.00000000E+00  2.50000000E-01
                       2.50000000E-01  0.00000000E+00  5.00000000E-01
                       5.00000000E-01  0.00000000E+00 -2.50000000E-01
                       0.00000000E+00  2.50000000E-01  5.00000000E-01
                       2.50000000E-01  2.50000000E-01 -2.50000000E-01
                       0.00000000E+00  5.00000000E-01 -2.50000000E-01
                       0.00000000E+00  0.00000000E+00 -2.50000000E-01
              kpt6    -2.50000000E-01  5.00000000E-01  0.00000000E+00
                       5.00000000E-01 -2.50000000E-01  0.00000000E+00
                      -2.50000000E-01 -2.50000000E-01  2.50000000E-01
                      -2.50000000E-01  0.00000000E+00  0.00000000E+00
                       5.00000000E-01  2.50000000E-01  0.00000000E+00
                      -2.50000000E-01  2.50000000E-01  2.50000000E-01
                       2.50000000E-01  5.00000000E-01  0.00000000E+00
                       5.00000000E-01  5.00000000E-01  2.50000000E-01
                      -2.50000000E-01  5.00000000E-01  5.00000000E-01
                       0.00000000E+00 -2.50000000E-01  0.00000000E+00
                       2.50000000E-01 -2.50000000E-01  2.50000000E-01
                       5.00000000E-01 -2.50000000E-01  5.00000000E-01
                      -2.50000000E-01 -2.50000000E-01 -2.50000000E-01
                       2.50000000E-01  0.00000000E+00  0.00000000E+00
                       5.00000000E-01  0.00000000E+00  2.50000000E-01
                      -2.50000000E-01  0.00000000E+00  5.00000000E-01
                       0.00000000E+00  2.50000000E-01  0.00000000E+00
                       2.50000000E-01  2.50000000E-01  2.50000000E-01
                       5.00000000E-01  2.50000000E-01  5.00000000E-01
                      -2.50000000E-01  2.50000000E-01 -2.50000000E-01
                       0.00000000E+00  5.00000000E-01  2.50000000E-01
                       2.50000000E-01  5.00000000E-01  5.00000000E-01
                       5.00000000E-01  5.00000000E-01 -2.50000000E-01
                       0.00000000E+00 -2.50000000E-01  5.00000000E-01
                       2.50000000E-01 -2.50000000E-01 -2.50000000E-01
                       0.00000000E+00  0.00000000E+00  2.50000000E-01
                       2.50000000E-01  0.00000000E+00  5.00000000E-01
                       5.00000000E-01  0.00000000E+00 -2.50000000E-01
                       0.00000000E+00  2.50000000E-01  5.00000000E-01
                       2.50000000E-01  2.50000000E-01 -2.50000000E-01
                       0.00000000E+00  5.00000000E-01 -2.50000000E-01
                       0.00000000E+00  0.00000000E+00 -2.50000000E-01
           kptopt1          1
           kptopt2          1
           kptopt3          3
           kptopt4          3
           kptopt5          3
           kptopt6          3
         kptrlatt        2   -2    2     -2    2    2     -2   -2    2
          kptrlen      2.12000000E+01
P           mkmem1          2
P           mkmem2          2
P           mkmem3         32
P           mkmem4         32
P           mkmem5         32
P           mkmem6         32
P          mkqmem1          2
P          mkqmem2          2
P          mkqmem3         32
P          mkqmem4         32
P          mkqmem5         32
P          mkqmem6         32
P          mk1mem1          2
P          mk1mem2          2
P          mk1mem3         32
P          mk1mem4         32
P          mk1mem5         32
P          mk1mem6         32
            natom           2
            nband1         14
            nband2         30
            nband3         30
            nband4         30
            nband5         30
            nband6         30
           nbdbuf           2
           ndtset           6
            ngfft          18      18      18
          ngfftdg          36      36      36
             nkpt1          2
             nkpt2          2
             nkpt3         32
             nkpt4         32
             nkpt5         32
             nkpt6         32
             nqpt1          0
             nqpt2          0
             nqpt3          0
             nqpt4          1
             nqpt5          1
             nqpt6          1
           nspden           2
           nsppol           2
            nstep         100
             nsym          24
           ntypat           2
              occ1     1.000000  1.000000  1.000000  1.000000  1.000000  1.000000
                       1.000000  1.000000  1.000000  1.000000  1.000000  1.000000
                       1.000000  1.000000
                       1.000000  1.000000  1.000000  1.000000  1.000000  1.000000
                       1.000000  1.000000  1.000000  1.000000  1.000000  1.000000
                       1.000000  1.000000
              occ4     1.000000  1.000000  1.000000  1.000000  1.000000  1.000000
                       1.000000  1.000000  1.000000  1.000000  1.000000  1.000000
                       1.000000  1.000000  0.000000  0.000000  0.000000  0.000000
                       0.000000  0.000000  0.000000  0.000000  0.000000  0.000000
                       0.000000  0.000000  0.000000  0.000000  0.000000  0.000000
                       1.000000  1.000000  1.000000  1.000000  1.000000  1.000000
                       1.000000  1.000000  1.000000  1.000000  1.000000  1.000000
                       1.000000  1.000000  0.000000  0.000000  0.000000  0.000000
                       0.000000  0.000000  0.000000  0.000000  0.000000  0.000000
                       0.000000  0.000000  0.000000  0.000000  0.000000  0.000000
              occ5     1.000000  1.000000  1.000000  1.000000  1.000000  1.000000
                       1.000000  1.000000  1.000000  1.000000  1.000000  1.000000
                       1.000000  1.000000  0.000000  0.000000  0.000000  0.000000
                       0.000000  0.000000  0.000000  0.000000  0.000000  0.000000
                       0.000000  0.000000  0.000000  0.000000  0.000000  0.000000
                       1.000000  1.000000  1.000000  1.000000  1.000000  1.000000
                       1.000000  1.000000  1.000000  1.000000  1.000000  1.000000
                       1.000000  1.000000  0.000000  0.000000  0.000000  0.000000
                       0.000000  0.000000  0.000000  0.000000  0.000000  0.000000
                       0.000000  0.000000  0.000000  0.000000  0.000000  0.000000
              occ6     1.000000  1.000000  1.000000  1.000000  1.000000  1.000000
                       1.000000  1.000000  1.000000  1.000000  1.000000  1.000000
                       1.000000  1.000000  0.000000  0.000000  0.000000  0.000000
                       0.000000  0.000000  0.000000  0.000000  0.000000  0.000000
                       0.000000  0.000000  0.000000  0.000000  0.000000  0.000000
                       1.000000  1.000000  1.000000  1.000000  1.000000  1.000000
                       1.000000  1.000000  1.000000  1.000000  1.000000  1.000000
                       1.000000  1.000000  0.000000  0.000000  0.000000  0.000000
                       0.000000  0.000000  0.000000  0.000000  0.000000  0.000000
                       0.000000  0.000000  0.000000  0.000000  0.000000  0.000000
        optdriver1          0
        optdriver2          0
        optdriver3          0
        optdriver4          1
        optdriver5          1
        optdriver6          1
        pawecutdg      2.40000000E+01 Hartree
            rfdir1          0       0       0
            rfdir2          0       0       0
            rfdir3          0       0       0
            rfdir4          1       0       0
            rfdir5          0       1       0
            rfdir6          0       0       1
           rfelfd1          0
           rfelfd2          0
           rfelfd3          0
           rfelfd4          2
           rfelfd5          2
           rfelfd6          2
            rprim      0.0000000000E+00  5.0000000000E-01  5.0000000000E-01
                       5.0000000000E-01  0.0000000000E+00  5.0000000000E-01
                       5.0000000000E-01  5.0000000000E-01  0.0000000000E+00
           shiftk      5.00000000E-01  5.00000000E-01  5.00000000E-01
          spgroup         216
   spinmagntarget      0.00000000E+00
           symrel      1  0  0   0  1  0   0  0  1       0 -1  1   0 -1  0   1 -1  0
                      -1  0  0  -1  0  1  -1  1  0       0  1 -1   1  0 -1   0  0 -1
                      -1  0  0  -1  1  0  -1  0  1       0 -1  1   1 -1  0   0 -1  0
                       1  0  0   0  0  1   0  1  0       0  1 -1   0  0 -1   1  0 -1
                      -1  0  1  -1  1  0  -1  0  0       0 -1  0   1 -1  0   0 -1  1
                       1  0 -1   0  0 -1   0  1 -1       0  1  0   0  0  1   1  0  0
                       1  0 -1   0  1 -1   0  0 -1       0 -1  0   0 -1  1   1 -1  0
                      -1  0  1  -1  0  0  -1  1  0       0  1  0   1  0  0   0  0  1
                       0  0 -1   0  1 -1   1  0 -1       1 -1  0   0 -1  1   0 -1  0
                       0  0  1   1  0  0   0  1  0      -1  1  0  -1  0  0  -1  0  1
                       0  0  1   0  1  0   1  0  0       1 -1  0   0 -1  0   0 -1  1
                       0  0 -1   1  0 -1   0  1 -1      -1  1  0  -1  0  1  -1  0  0
           tolwfr1     1.00000000E-12
           tolwfr2     1.00000000E-12
           tolwfr3     1.00000000E-12
           tolwfr4     1.00000000E-08
           tolwfr5     1.00000000E-08
           tolwfr6     1.00000000E-08
            typat      1  2
           useylm           1
              wtk1       0.75000    0.25000
              wtk2       0.75000    0.25000
              wtk3       0.03125    0.03125    0.03125    0.03125    0.03125    0.03125
                         0.03125    0.03125    0.03125    0.03125    0.03125    0.03125
                         0.03125    0.03125    0.03125    0.03125    0.03125    0.03125
                         0.03125    0.03125    0.03125    0.03125    0.03125    0.03125
                         0.03125    0.03125    0.03125    0.03125    0.03125    0.03125
                         0.03125    0.03125
              wtk4       0.03125    0.03125    0.03125    0.03125    0.03125    0.03125
                         0.03125    0.03125    0.03125    0.03125    0.03125    0.03125
                         0.03125    0.03125    0.03125    0.03125    0.03125    0.03125
                         0.03125    0.03125    0.03125    0.03125    0.03125    0.03125
                         0.03125    0.03125    0.03125    0.03125    0.03125    0.03125
                         0.03125    0.03125
              wtk5       0.03125    0.03125    0.03125    0.03125    0.03125    0.03125
                         0.03125    0.03125    0.03125    0.03125    0.03125    0.03125
                         0.03125    0.03125    0.03125    0.03125    0.03125    0.03125
                         0.03125    0.03125    0.03125    0.03125    0.03125    0.03125
                         0.03125    0.03125    0.03125    0.03125    0.03125    0.03125
                         0.03125    0.03125
              wtk6       0.03125    0.03125    0.03125    0.03125    0.03125    0.03125
                         0.03125    0.03125    0.03125    0.03125    0.03125    0.03125
                         0.03125    0.03125    0.03125    0.03125    0.03125    0.03125
                         0.03125    0.03125    0.03125    0.03125    0.03125    0.03125
                         0.03125    0.03125    0.03125    0.03125    0.03125    0.03125
                         0.03125    0.03125
           xangst      0.0000000000E+00  0.0000000000E+00  0.0000000000E+00
                       1.4023196028E+00  1.4023196028E+00  1.4023196028E+00
            xcart      0.0000000000E+00  0.0000000000E+00  0.0000000000E+00
                       2.6500000000E+00  2.6500000000E+00  2.6500000000E+00
             xred      0.0000000000E+00  0.0000000000E+00  0.0000000000E+00
                       2.5000000000E-01  2.5000000000E-01  2.5000000000E-01
            znucl       31.00000   33.00000

================================================================================

 chkinp: Checking input parameters for consistency, jdtset=   1.
 This is a calculation with spin-up and spin-down wavefunctions,         ... nsppol=  2
 in which the target spin-polarization is zero.                  ... spinmagntarget=   0.00
 Tip ... It might be possible that the ground state is either non-spin-polarized, or antiferromagnetic.
 In the former case, it is advantageous to use nsppol=1 and nspden=1,
 while in the latter  case, it is advantageous to use nsppol=1 and nspden=2.

 chkinp: Checking input parameters for consistency, jdtset=   2.
 This is a calculation with spin-up and spin-down wavefunctions,         ... nsppol=  2
 in which the target spin-polarization is zero.                  ... spinmagntarget=   0.00
 Tip ... It might be possible that the ground state is either non-spin-polarized, or antiferromagnetic.
 In the former case, it is advantageous to use nsppol=1 and nspden=1,
 while in the latter  case, it is advantageous to use nsppol=1 and nspden=2.

 chkinp: Checking input parameters for consistency, jdtset=   3.
 This is a calculation with spin-up and spin-down wavefunctions,         ... nsppol=  2
 in which the target spin-polarization is zero.                  ... spinmagntarget=   0.00
 Tip ... It might be possible that the ground state is either non-spin-polarized, or antiferromagnetic.
 In the former case, it is advantageous to use nsppol=1 and nspden=1,
 while in the latter  case, it is advantageous to use nsppol=1 and nspden=2.

 chkinp: Checking input parameters for consistency, jdtset=   4.
 This is a calculation with spin-up and spin-down wavefunctions,         ... nsppol=  2
 in which the target spin-polarization is zero.                  ... spinmagntarget=   0.00
 Tip ... It might be possible that the ground state is either non-spin-polarized, or antiferromagnetic.
 In the former case, it is advantageous to use nsppol=1 and nspden=1,
 while in the latter  case, it is advantageous to use nsppol=1 and nspden=2.

 chkinp: Checking input parameters for consistency, jdtset=   5.
 This is a calculation with spin-up and spin-down wavefunctions,         ... nsppol=  2
 in which the target spin-polarization is zero.                  ... spinmagntarget=   0.00
 Tip ... It might be possible that the ground state is either non-spin-polarized, or antiferromagnetic.
 In the former case, it is advantageous to use nsppol=1 and nspden=1,
 while in the latter  case, it is advantageous to use nsppol=1 and nspden=2.

 chkinp: Checking input parameters for consistency, jdtset=   6.
 This is a calculation with spin-up and spin-down wavefunctions,         ... nsppol=  2
 in which the target spin-polarization is zero.                  ... spinmagntarget=   0.00
 Tip ... It might be possible that the ground state is either non-spin-polarized, or antiferromagnetic.
 In the former case, it is advantageous to use nsppol=1 and nspden=1,
 while in the latter  case, it is advantageous to use nsppol=1 and nspden=2.

================================================================================
== DATASET  1 ==================================================================
-   mpi_nproc: 1, omp_nthreads: -1 (-1 if OMP is not activated)


--- !DatasetInfo
iteration_state: {dtset: 1, }
dimensions: {natom: 2, nkpt: 2, mband: 14, nsppol: 2, nspinor: 1, nspden: 2, mpw: 211, }
cutoff_energies: {ecut:   6.0, pawecutdg:  24.0, }
electrons: {nelect:   2.80000000E+01, charge:   0.00000000E+00, occopt:   1.00000000E+00, tsmear:   1.00000000E-02, }
meta: {optdriver: 0, ionmov: 0, optcell: 0, iscf: 17, paral_kgb: 0, }
...

 Real(R)+Recip(G) space primitive vectors, cartesian coordinates (Bohr,Bohr^-1):
 R(1)=  0.0000000  5.3000000  5.3000000  G(1)= -0.0943396  0.0943396  0.0943396
 R(2)=  5.3000000  0.0000000  5.3000000  G(2)=  0.0943396 -0.0943396  0.0943396
 R(3)=  5.3000000  5.3000000  0.0000000  G(3)=  0.0943396  0.0943396 -0.0943396
 Unit cell volume ucvol=  2.9775400E+02 bohr^3
 Angles (23,13,12)=  6.00000000E+01  6.00000000E+01  6.00000000E+01 degrees

 Coarse grid specifications (used for wave-functions):

 getcut: wavevector=  0.0000  0.0000  0.0000  ngfft=  18  18  18
         ecut(hartree)=      6.000   => boxcut(ratio)=   2.18463

 Fine grid specifications (used for densities):

 getcut: wavevector=  0.0000  0.0000  0.0000  ngfft=  36  36  36
         ecut(hartree)=     24.000   => boxcut(ratio)=   2.17791

--- Pseudopotential description ------------------------------------------------
- pspini: atom type   1  psp file is /home/buildbot/bb/ABINIT/abiref_gnu_9.2_serial/trunk__gonze/tests/Psps_for_tests/Pseudodojo_PAW_GGA_standard/Ga.xml
- pspatm: opening atomic psp file    /home/buildbot/bb/ABINIT/abiref_gnu_9.2_serial/trunk__gonze/tests/Psps_for_tests/Pseudodojo_PAW_GGA_standard/Ga.xml
- pspatm : Reading pseudopotential header in XML form from /home/buildbot/bb/ABINIT/abiref_gnu_9.2_serial/trunk__gonze/tests/Psps_for_tests/Pseudodojo_PAW_GGA_standard/Ga.xml
 Pseudopotential format is: paw10
 basis_size (lnmax)=  6 (lmn_size= 18), orbitals=   0   0   1   1   2   2
 Spheres core radius: rc_sph= 2.10359248
 1 radial meshes are used:
  - mesh 1: r(i)=AA*[exp(BB*(i-1))-1], size=1500 , AA= 0.27105E-03 BB= 0.84024E-02
 Shapefunction is BESSEL type: shapef(r,l)=aa(1,l)*jl(q(1,l)*r)+aa(2,l)*jl(q(2,l)*r)
 Radius for shape functions =  1.80829011
 mmax= 1500
 Radial grid used for partial waves is grid 1
 Radial grid used for projectors is grid 1
 Radial grid used for (t)core density is grid 1
 Radial grid used for Vloc is grid 1
 Radial grid used for pseudo valence density is grid 1
 Mesh size for Vloc has been set to 1335 to avoid numerical noise.
 Compensation charge density is not taken into account in XC energy/potential
 pspatm: atomic psp has been read  and splines computed

- pspini: atom type   2  psp file is /home/buildbot/bb/ABINIT/abiref_gnu_9.2_serial/trunk__gonze/tests/Psps_for_tests/Pseudodojo_PAW_GGA_standard/As.xml
- pspatm: opening atomic psp file    /home/buildbot/bb/ABINIT/abiref_gnu_9.2_serial/trunk__gonze/tests/Psps_for_tests/Pseudodojo_PAW_GGA_standard/As.xml
- pspatm : Reading pseudopotential header in XML form from /home/buildbot/bb/ABINIT/abiref_gnu_9.2_serial/trunk__gonze/tests/Psps_for_tests/Pseudodojo_PAW_GGA_standard/As.xml
 Pseudopotential format is: paw10
 basis_size (lnmax)=  6 (lmn_size= 18), orbitals=   0   0   1   1   2   2
 Spheres core radius: rc_sph= 2.10391912
 1 radial meshes are used:
  - mesh 1: r(i)=AA*[exp(BB*(i-1))-1], size=1500 , AA= 0.25579E-03 BB= 0.84411E-02
 Shapefunction is BESSEL type: shapef(r,l)=aa(1,l)*jl(q(1,l)*r)+aa(2,l)*jl(q(2,l)*r)
 Radius for shape functions =  1.70360438
 mmax= 1500
 Radial grid used for partial waves is grid 1
 Radial grid used for projectors is grid 1
 Radial grid used for (t)core density is grid 1
 Radial grid used for Vloc is grid 1
 Radial grid used for pseudo valence density is grid 1
 Mesh size for Vloc has been set to 1335 to avoid numerical noise.
 Compensation charge density is not taken into account in XC energy/potential
 pspatm: atomic psp has been read  and splines computed

   1.31747076E+03                                ecore*ucvol(ha*bohr**3)
--------------------------------------------------------------------------------

_setup2: Arith. and geom. avg. npw (full set) are     209.500     209.484

================================================================================

--- !BeginCycle
iteration_state: {dtset: 1, }
solver: {iscf: 17, nstep: 100, nline: 4, wfoptalg: 10, }
tolerances: {tolwfr: 1.00E-12, }
...

     iter   Etot(hartree)      deltaE(h)  residm     nres2
 ETOT  1  -191.29622772688    -1.913E+02 2.168E-01 2.882E+01
 ETOT  2  -191.41504238913    -1.188E-01 5.334E-05 1.346E+00
 ETOT  3  -191.40324005523     1.180E-02 2.790E-04 1.899E-01
 ETOT  4  -191.40286574969     3.743E-04 1.265E-05 1.248E-02
 ETOT  5  -191.40293684377    -7.109E-05 1.628E-06 2.851E-03
 ETOT  6  -191.40298119128    -4.435E-05 8.236E-08 1.802E-04
 ETOT  7  -191.40298664216    -5.451E-06 1.303E-08 7.931E-06
 ETOT  8  -191.40298664979    -7.629E-09 8.051E-10 3.400E-07
 ETOT  9  -191.40298665613    -6.337E-09 3.143E-11 4.324E-08
 ETOT 10  -191.40298665634    -2.155E-10 3.643E-12 2.286E-09
 ETOT 11  -191.40298665640    -6.241E-11 9.410E-13 8.973E-11

 At SCF step   11   max residual=  9.41E-13 < tolwfr=  1.00E-12 =>converged.

 Cartesian components of stress tensor (hartree/bohr^3)
  sigma(1 1)=  2.24199380E-02  sigma(3 2)=  0.00000000E+00
  sigma(2 2)=  2.24199380E-02  sigma(3 1)=  0.00000000E+00
  sigma(3 3)=  2.24199380E-02  sigma(2 1)=  0.00000000E+00


--- !ResultsGS
iteration_state: {dtset: 1, }
comment   : Summary of ground state results
lattice_vectors:
- [  0.0000000,   5.3000000,   5.3000000, ]
- [  5.3000000,   0.0000000,   5.3000000, ]
- [  5.3000000,   5.3000000,   0.0000000, ]
lattice_lengths: [   7.49533,    7.49533,    7.49533, ]
lattice_angles: [ 60.000,  60.000,  60.000, ] # degrees, (23, 13, 12)
lattice_volume:   2.9775400E+02
convergence: {deltae: -6.241E-11, res2:  8.973E-11, residm:  9.410E-13, diffor: null, }
etotal    :  -1.91402987E+02
entropy   :   0.00000000E+00
fermie    :   1.34017190E-01
cartesian_stress_tensor: # hartree/bohr^3
- [  2.24199380E-02,   0.00000000E+00,   0.00000000E+00, ]
- [  0.00000000E+00,   2.24199380E-02,   0.00000000E+00, ]
- [  0.00000000E+00,   0.00000000E+00,   2.24199380E-02, ]
pressure_GPa:  -6.5962E+02
xred      :
- [  0.0000E+00,   0.0000E+00,   0.0000E+00, Ga]
- [  2.5000E-01,   2.5000E-01,   2.5000E-01, As]
cartesian_forces: # hartree/bohr
- [  1.01609254E-28,  -2.03218507E-28,   1.01609254E-28, ]
- [ -1.01609254E-28,   2.03218507E-28,  -1.01609254E-28, ]
force_length_stats: {min:   2.48890825E-28, max:   2.48890825E-28, mean:   2.48890825E-28, }
...

 Integrated electronic and magnetization densities in atomic spheres:
 ---------------------------------------------------------------------
 Radius=ratsph(iatom), smearing ratsm=  0.0000. Diff(up-dn)=approximate z local magnetic moment.
 Atom    Radius    up_density   dn_density  Total(up+dn)  Diff(up-dn)
    1   2.10359     5.609481     5.609481     11.218961     0.000000
    2   2.10392     6.399747     6.399747     12.799495    -0.000000
 ---------------------------------------------------------------------
  Sum:             12.009228    12.009228     24.018456     0.000000
 Total magnetization (from the atomic spheres):             0.000000
 Total magnetization (exact up - dn):                       0.000000

 PAW TEST:
 ==== Compensation charge inside spheres ============
 The following values must be close to each other ...
 Compensation charge over spherical meshes =     16.386022093179953
 Compensation charge over fine fft grid    =     16.386024367618809

 ==== Results concerning PAW augmentation regions ====

 Total pseudopotential strength Dij (hartree):
 Atom #  1 - Spin component 1
   0.43245  40.41405   0.00000   0.00000   0.00000   0.00000   0.00000   0.00000   0.00000   0.00000   0.00000   0.00000 ...
  40.41405 *********   0.00000   0.00000   0.00000   0.00000   0.00000   0.00000   0.00000   0.00000   0.00000   0.00000 ...
   0.00000   0.00000   0.07574   0.00000   0.00000   0.42302   0.00000   0.00000   0.00000   0.00000   0.00000  -0.00002 ...
   0.00000   0.00000   0.00000   0.07574   0.00000   0.00000   0.42302   0.00000  -0.00002   0.00000   0.00000   0.00000 ...
   0.00000   0.00000   0.00000   0.00000   0.07574   0.00000   0.00000   0.42302   0.00000  -0.00002   0.00000   0.00000 ...
   0.00000   0.00000   0.42302   0.00000   0.00000   2.23140   0.00000   0.00000   0.00000   0.00000   0.00000   0.00001 ...
   0.00000   0.00000   0.00000   0.42302   0.00000   0.00000   2.23140   0.00000   0.00001   0.00000   0.00000   0.00000 ...
   0.00000   0.00000   0.00000   0.00000   0.42302   0.00000   0.00000   2.23140   0.00000   0.00001   0.00000   0.00000 ...
   0.00000   0.00000   0.00000  -0.00002   0.00000   0.00000   0.00001   0.00000  -0.86875   0.00000   0.00000   0.00000 ...
   0.00000   0.00000   0.00000   0.00000  -0.00002   0.00000   0.00000   0.00001   0.00000  -0.86875   0.00000   0.00000 ...
   0.00000   0.00000   0.00000   0.00000   0.00000   0.00000   0.00000   0.00000   0.00000   0.00000  -0.86886   0.00000 ...
   0.00000   0.00000  -0.00002   0.00000   0.00000   0.00001   0.00000   0.00000   0.00000   0.00000   0.00000  -0.86875 ...
   ...  only 12  components have been written...
 pawio_print_ij: WARNING -
  The matrix seems to have high value(s) !
  (  1 components have a value greater than  100.0).
  It can cause instabilities during SCF convergence.
  Action: you should check your atomic dataset (psp file)
          and look for "high" projector functions...
 Atom #  1 - Spin component 2
   0.43245  40.41405   0.00000   0.00000   0.00000   0.00000   0.00000   0.00000   0.00000   0.00000   0.00000   0.00000 ...
  40.41405 *********   0.00000   0.00000   0.00000   0.00000   0.00000   0.00000   0.00000   0.00000   0.00000   0.00000 ...
   0.00000   0.00000   0.07574   0.00000   0.00000   0.42302   0.00000   0.00000   0.00000   0.00000   0.00000  -0.00002 ...
   0.00000   0.00000   0.00000   0.07574   0.00000   0.00000   0.42302   0.00000  -0.00002   0.00000   0.00000   0.00000 ...
   0.00000   0.00000   0.00000   0.00000   0.07574   0.00000   0.00000   0.42302   0.00000  -0.00002   0.00000   0.00000 ...
   0.00000   0.00000   0.42302   0.00000   0.00000   2.23140   0.00000   0.00000   0.00000   0.00000   0.00000   0.00001 ...
   0.00000   0.00000   0.00000   0.42302   0.00000   0.00000   2.23140   0.00000   0.00001   0.00000   0.00000   0.00000 ...
   0.00000   0.00000   0.00000   0.00000   0.42302   0.00000   0.00000   2.23140   0.00000   0.00001   0.00000   0.00000 ...
   0.00000   0.00000   0.00000  -0.00002   0.00000   0.00000   0.00001   0.00000  -0.86875   0.00000   0.00000   0.00000 ...
   0.00000   0.00000   0.00000   0.00000  -0.00002   0.00000   0.00000   0.00001   0.00000  -0.86875   0.00000   0.00000 ...
   0.00000   0.00000   0.00000   0.00000   0.00000   0.00000   0.00000   0.00000   0.00000   0.00000  -0.86886   0.00000 ...
   0.00000   0.00000  -0.00002   0.00000   0.00000   0.00001   0.00000   0.00000   0.00000   0.00000   0.00000  -0.86875 ...
   ...  only 12  components have been written...
 Atom #  2 - Spin component 1
   0.90921  -3.61306   0.00000   0.00000   0.00000   0.00000   0.00000   0.00000   0.00000   0.00000   0.00000   0.00000 ...
  -3.61306  13.95200   0.00000   0.00000   0.00000   0.00000   0.00000   0.00000   0.00000   0.00000   0.00000   0.00000 ...
   0.00000   0.00000   0.19934   0.00000   0.00000   2.65098   0.00000   0.00000   0.00000   0.00000   0.00000  -0.00007 ...
   0.00000   0.00000   0.00000   0.19934   0.00000   0.00000   2.65098   0.00000  -0.00007   0.00000   0.00000   0.00000 ...
   0.00000   0.00000   0.00000   0.00000   0.19934   0.00000   0.00000   2.65098   0.00000  -0.00007   0.00000   0.00000 ...
   0.00000   0.00000   2.65098   0.00000   0.00000  34.04692   0.00000   0.00000   0.00000   0.00000   0.00000  -0.00139 ...
   0.00000   0.00000   0.00000   2.65098   0.00000   0.00000  34.04692   0.00000  -0.00139   0.00000   0.00000   0.00000 ...
   0.00000   0.00000   0.00000   0.00000   2.65098   0.00000   0.00000  34.04692   0.00000  -0.00139   0.00000   0.00000 ...
   0.00000   0.00000   0.00000  -0.00007   0.00000   0.00000  -0.00139   0.00000  -1.37424   0.00000   0.00000   0.00000 ...
   0.00000   0.00000   0.00000   0.00000  -0.00007   0.00000   0.00000  -0.00139   0.00000  -1.37424   0.00000   0.00000 ...
   0.00000   0.00000   0.00000   0.00000   0.00000   0.00000   0.00000   0.00000   0.00000   0.00000  -1.37431   0.00000 ...
   0.00000   0.00000  -0.00007   0.00000   0.00000  -0.00139   0.00000   0.00000   0.00000   0.00000   0.00000  -1.37424 ...
   ...  only 12  components have been written...
 Atom #  2 - Spin component 2
   0.90921  -3.61306   0.00000   0.00000   0.00000   0.00000   0.00000   0.00000   0.00000   0.00000   0.00000   0.00000 ...
  -3.61306  13.95200   0.00000   0.00000   0.00000   0.00000   0.00000   0.00000   0.00000   0.00000   0.00000   0.00000 ...
   0.00000   0.00000   0.19934   0.00000   0.00000   2.65098   0.00000   0.00000   0.00000   0.00000   0.00000  -0.00007 ...
   0.00000   0.00000   0.00000   0.19934   0.00000   0.00000   2.65098   0.00000  -0.00007   0.00000   0.00000   0.00000 ...
   0.00000   0.00000   0.00000   0.00000   0.19934   0.00000   0.00000   2.65098   0.00000  -0.00007   0.00000   0.00000 ...
   0.00000   0.00000   2.65098   0.00000   0.00000  34.04692   0.00000   0.00000   0.00000   0.00000   0.00000  -0.00139 ...
   0.00000   0.00000   0.00000   2.65098   0.00000   0.00000  34.04692   0.00000  -0.00139   0.00000   0.00000   0.00000 ...
   0.00000   0.00000   0.00000   0.00000   2.65098   0.00000   0.00000  34.04692   0.00000  -0.00139   0.00000   0.00000 ...
   0.00000   0.00000   0.00000  -0.00007   0.00000   0.00000  -0.00139   0.00000  -1.37424   0.00000   0.00000   0.00000 ...
   0.00000   0.00000   0.00000   0.00000  -0.00007   0.00000   0.00000  -0.00139   0.00000  -1.37424   0.00000   0.00000 ...
   0.00000   0.00000   0.00000   0.00000   0.00000   0.00000   0.00000   0.00000   0.00000   0.00000  -1.37431   0.00000 ...
   0.00000   0.00000  -0.00007   0.00000   0.00000  -0.00139   0.00000   0.00000   0.00000   0.00000   0.00000  -1.37424 ...
   ...  only 12  components have been written...


 Augmentation waves occupancies Rhoij:
 Atom #  1 - Spin component 1
   0.71893   0.00041   0.00000   0.00000   0.00000   0.00000   0.00000   0.00000   0.00000   0.00000   0.00000   0.00000 ...
   0.00041   0.00001   0.00000   0.00000   0.00000   0.00000   0.00000   0.00000   0.00000   0.00000   0.00000   0.00000 ...
   0.00000   0.00000   0.51198   0.00000   0.00000  -0.00608   0.00000   0.00000   0.00000   0.00000   0.00000  -0.00311 ...
   0.00000   0.00000   0.00000   0.51198   0.00000   0.00000  -0.00608   0.00000  -0.00311   0.00000   0.00000   0.00000 ...
   0.00000   0.00000   0.00000   0.00000   0.51198   0.00000   0.00000  -0.00608   0.00000  -0.00311   0.00000   0.00000 ...
   0.00000   0.00000  -0.00608   0.00000   0.00000   0.00212   0.00000   0.00000   0.00000   0.00000   0.00000   0.00148 ...
   0.00000   0.00000   0.00000  -0.00608   0.00000   0.00000   0.00212   0.00000   0.00148   0.00000   0.00000   0.00000 ...
   0.00000   0.00000   0.00000   0.00000  -0.00608   0.00000   0.00000   0.00212   0.00000   0.00148   0.00000   0.00000 ...
   0.00000   0.00000   0.00000  -0.00311   0.00000   0.00000   0.00148   0.00000   1.11451   0.00000   0.00000   0.00000 ...
   0.00000   0.00000   0.00000   0.00000  -0.00311   0.00000   0.00000   0.00148   0.00000   1.11451   0.00000   0.00000 ...
   0.00000   0.00000   0.00000   0.00000   0.00000   0.00000   0.00000   0.00000   0.00000   0.00000   1.11579   0.00000 ...
   0.00000   0.00000  -0.00311   0.00000   0.00000   0.00148   0.00000   0.00000   0.00000   0.00000   0.00000   1.11451 ...
   ...  only 12  components have been written...
 Atom #  1 - Spin component 2
   0.71893   0.00041   0.00000   0.00000   0.00000   0.00000   0.00000   0.00000   0.00000   0.00000   0.00000   0.00000 ...
   0.00041   0.00001   0.00000   0.00000   0.00000   0.00000   0.00000   0.00000   0.00000   0.00000   0.00000   0.00000 ...
   0.00000   0.00000   0.51198   0.00000   0.00000  -0.00608   0.00000   0.00000   0.00000   0.00000   0.00000  -0.00311 ...
   0.00000   0.00000   0.00000   0.51198   0.00000   0.00000  -0.00608   0.00000  -0.00311   0.00000   0.00000   0.00000 ...
   0.00000   0.00000   0.00000   0.00000   0.51198   0.00000   0.00000  -0.00608   0.00000  -0.00311   0.00000   0.00000 ...
   0.00000   0.00000  -0.00608   0.00000   0.00000   0.00212   0.00000   0.00000   0.00000   0.00000   0.00000   0.00148 ...
   0.00000   0.00000   0.00000  -0.00608   0.00000   0.00000   0.00212   0.00000   0.00148   0.00000   0.00000   0.00000 ...
   0.00000   0.00000   0.00000   0.00000  -0.00608   0.00000   0.00000   0.00212   0.00000   0.00148   0.00000   0.00000 ...
   0.00000   0.00000   0.00000  -0.00311   0.00000   0.00000   0.00148   0.00000   1.11451   0.00000   0.00000   0.00000 ...
   0.00000   0.00000   0.00000   0.00000  -0.00311   0.00000   0.00000   0.00148   0.00000   1.11451   0.00000   0.00000 ...
   0.00000   0.00000   0.00000   0.00000   0.00000   0.00000   0.00000   0.00000   0.00000   0.00000   1.11579   0.00000 ...
   0.00000   0.00000  -0.00311   0.00000   0.00000   0.00148   0.00000   0.00000   0.00000   0.00000   0.00000   1.11451 ...
   ...  only 12  components have been written...
 Atom #  2 - Spin component 1
   0.88592  -0.00586   0.00000   0.00000   0.00000   0.00000   0.00000   0.00000   0.00000   0.00000   0.00000   0.00000 ...
  -0.00586   0.00171   0.00000   0.00000   0.00000   0.00000   0.00000   0.00000   0.00000   0.00000   0.00000   0.00000 ...
   0.00000   0.00000   0.72196   0.00000   0.00000  -0.00281   0.00000   0.00000   0.00000   0.00000   0.00000   0.00106 ...
   0.00000   0.00000   0.00000   0.72196   0.00000   0.00000  -0.00281   0.00000   0.00106   0.00000   0.00000   0.00000 ...
   0.00000   0.00000   0.00000   0.00000   0.72196   0.00000   0.00000  -0.00281   0.00000   0.00106   0.00000   0.00000 ...
   0.00000   0.00000  -0.00281   0.00000   0.00000   0.00010   0.00000   0.00000   0.00000   0.00000   0.00000  -0.00019 ...
   0.00000   0.00000   0.00000  -0.00281   0.00000   0.00000   0.00010   0.00000  -0.00019   0.00000   0.00000   0.00000 ...
   0.00000   0.00000   0.00000   0.00000  -0.00281   0.00000   0.00000   0.00010   0.00000  -0.00019   0.00000   0.00000 ...
   0.00000   0.00000   0.00000   0.00106   0.00000   0.00000  -0.00019   0.00000   1.01507   0.00000   0.00000   0.00000 ...
   0.00000   0.00000   0.00000   0.00000   0.00106   0.00000   0.00000  -0.00019   0.00000   1.01507   0.00000   0.00000 ...
   0.00000   0.00000   0.00000   0.00000   0.00000   0.00000   0.00000   0.00000   0.00000   0.00000   1.01530   0.00000 ...
   0.00000   0.00000   0.00106   0.00000   0.00000  -0.00019   0.00000   0.00000   0.00000   0.00000   0.00000   1.01507 ...
   ...  only 12  components have been written...
 Atom #  2 - Spin component 2
   0.88592  -0.00586   0.00000   0.00000   0.00000   0.00000   0.00000   0.00000   0.00000   0.00000   0.00000   0.00000 ...
  -0.00586   0.00171   0.00000   0.00000   0.00000   0.00000   0.00000   0.00000   0.00000   0.00000   0.00000   0.00000 ...
   0.00000   0.00000   0.72196   0.00000   0.00000  -0.00281   0.00000   0.00000   0.00000   0.00000   0.00000   0.00106 ...
   0.00000   0.00000   0.00000   0.72196   0.00000   0.00000  -0.00281   0.00000   0.00106   0.00000   0.00000   0.00000 ...
   0.00000   0.00000   0.00000   0.00000   0.72196   0.00000   0.00000  -0.00281   0.00000   0.00106   0.00000   0.00000 ...
   0.00000   0.00000  -0.00281   0.00000   0.00000   0.00010   0.00000   0.00000   0.00000   0.00000   0.00000  -0.00019 ...
   0.00000   0.00000   0.00000  -0.00281   0.00000   0.00000   0.00010   0.00000  -0.00019   0.00000   0.00000   0.00000 ...
   0.00000   0.00000   0.00000   0.00000  -0.00281   0.00000   0.00000   0.00010   0.00000  -0.00019   0.00000   0.00000 ...
   0.00000   0.00000   0.00000   0.00106   0.00000   0.00000  -0.00019   0.00000   1.01507   0.00000   0.00000   0.00000 ...
   0.00000   0.00000   0.00000   0.00000   0.00106   0.00000   0.00000  -0.00019   0.00000   1.01507   0.00000   0.00000 ...
   0.00000   0.00000   0.00000   0.00000   0.00000   0.00000   0.00000   0.00000   0.00000   0.00000   1.01530   0.00000 ...
   0.00000   0.00000   0.00106   0.00000   0.00000  -0.00019   0.00000   0.00000   0.00000   0.00000   0.00000   1.01507 ...
   ...  only 12  components have been written...


================================================================================

 ----iterations are completed or convergence reached----

 Mean square residual over all n,k,spin=   47.790E-14; max=  94.102E-14
 reduced coordinates (array xred) for    2 atoms
       0.000000000000      0.000000000000      0.000000000000
       0.250000000000      0.250000000000      0.250000000000
 rms dE/dt=  1.0771E-27; max dE/dt=  2.1541E-27; dE/dt below (all hartree)
    1       0.000000000000      0.000000000000      0.000000000000
    2      -0.000000000000      0.000000000000     -0.000000000000

 cartesian coordinates (angstrom) at end:
    1      0.00000000000000     0.00000000000000     0.00000000000000
    2      1.40231960276350     1.40231960276350     1.40231960276350

 cartesian forces (hartree/bohr) at end:
    1      0.00000000000000    -0.00000000000000     0.00000000000000
    2     -0.00000000000000     0.00000000000000    -0.00000000000000
 frms,max,avg= 1.4369718E-28 2.0321851E-28   0.000E+00  0.000E+00  0.000E+00 h/b

 cartesian forces (eV/Angstrom) at end:
    1      0.00000000000000    -0.00000000000000     0.00000000000000
    2     -0.00000000000000     0.00000000000000    -0.00000000000000
 frms,max,avg= 7.3892057E-27 1.0449915E-26   0.000E+00  0.000E+00  0.000E+00 e/A
 length scales= 10.600000000000 10.600000000000 10.600000000000 bohr
              =  5.609278411054  5.609278411054  5.609278411054 angstroms
 prteigrs : about to open file t11o_DS1_EIG
 Fermi (or HOMO) energy (hartree) =   0.13402   Average Vxc (hartree)=  -0.33636
 Eigenvalues (hartree) for nkpt=   2  k points, SPIN UP:
 kpt#   1, nband= 14, wtk=  0.75000, kpt= -0.2500  0.5000  0.0000 (reduced coord)
  -1.25912   -1.25636   -1.25477   -1.25178   -1.24682   -0.55632   -0.55029   -0.54797
  -0.54058   -0.53313   -0.24254   -0.07787    0.04119    0.08532
 prteigrs : prtvol=0 or 1, do not print more k-points.

 Eigenvalues (hartree) for nkpt=   2  k points, SPIN DOWN:
 kpt#   1, nband= 14, wtk=  0.75000, kpt= -0.2500  0.5000  0.0000 (reduced coord)
  -1.25912   -1.25636   -1.25477   -1.25178   -1.24682   -0.55632   -0.55029   -0.54797
  -0.54058   -0.53313   -0.24254   -0.07787    0.04119    0.08532
 prteigrs : prtvol=0 or 1, do not print more k-points.


--- !EnergyTerms
iteration_state     : {dtset: 1, }
comment             : Components of total free energy in Hartree
kinetic             :  1.19403757774587E+01
hartree             :  5.94173168263929E+01
xc                  : -4.24330487091932E+00
Ewald energy        : -9.99618247882910E+01
psp_core            :  4.42469542721763E+00
local_psp           : -1.59318243679578E+02
spherical_terms     : -3.66199938121389E+00
total_energy        : -1.91402984688933E+02
total_energy_eV     : -5.20834008832026E+03
...


--- !EnergyTermsDC
iteration_state     : {dtset: 1, }
comment             : '"Double-counting" decomposition of free energy'
band_energy         : -1.82333192370960E+01
Ewald energy        : -9.99618247882910E+01
psp_core            :  4.42469542721763E+00
xc_dc               : -5.82270621859770E+01
spherical_terms     : -1.94054758722585E+01
total_energy_dc     : -1.91402986656405E+02
total_energy_dc_eV  : -5.20834014185789E+03
...


 Cartesian components of stress tensor (hartree/bohr^3)
  sigma(1 1)=  2.24199380E-02  sigma(3 2)=  0.00000000E+00
  sigma(2 2)=  2.24199380E-02  sigma(3 1)=  0.00000000E+00
  sigma(3 3)=  2.24199380E-02  sigma(2 1)=  0.00000000E+00

-Cartesian components of stress tensor (GPa)         [Pressure= -6.5962E+02 GPa]
- sigma(1 1)=  6.59617237E+02  sigma(3 2)=  0.00000000E+00
- sigma(2 2)=  6.59617237E+02  sigma(3 1)=  0.00000000E+00
- sigma(3 3)=  6.59617237E+02  sigma(2 1)=  0.00000000E+00

================================================================================
== DATASET  2 ==================================================================
-   mpi_nproc: 1, omp_nthreads: -1 (-1 if OMP is not activated)


--- !DatasetInfo
iteration_state: {dtset: 2, }
dimensions: {natom: 2, nkpt: 2, mband: 30, nsppol: 2, nspinor: 1, nspden: 2, mpw: 211, }
cutoff_energies: {ecut:   6.0, pawecutdg:  24.0, }
electrons: {nelect:   2.80000000E+01, charge:   0.00000000E+00, occopt:   1.00000000E+00, tsmear:   1.00000000E-02, }
meta: {optdriver: 0, ionmov: 0, optcell: 0, iscf: -2, paral_kgb: 0, }
...

 mkfilename : getwfk/=0, take file _WFK from output of DATASET   1.

 mkfilename : getden/=0, take file _DEN from output of DATASET   1.

 Real(R)+Recip(G) space primitive vectors, cartesian coordinates (Bohr,Bohr^-1):
 R(1)=  0.0000000  5.3000000  5.3000000  G(1)= -0.0943396  0.0943396  0.0943396
 R(2)=  5.3000000  0.0000000  5.3000000  G(2)=  0.0943396 -0.0943396  0.0943396
 R(3)=  5.3000000  5.3000000  0.0000000  G(3)=  0.0943396  0.0943396 -0.0943396
 Unit cell volume ucvol=  2.9775400E+02 bohr^3
 Angles (23,13,12)=  6.00000000E+01  6.00000000E+01  6.00000000E+01 degrees

 Coarse grid specifications (used for wave-functions):

 getcut: wavevector=  0.0000  0.0000  0.0000  ngfft=  18  18  18
         ecut(hartree)=      6.000   => boxcut(ratio)=   2.18463

 Fine grid specifications (used for densities):

 getcut: wavevector=  0.0000  0.0000  0.0000  ngfft=  36  36  36
         ecut(hartree)=     24.000   => boxcut(ratio)=   2.17791
--------------------------------------------------------------------------------

-inwffil : will read wavefunctions from disk file t11o_DS1_WFK

================================================================================
 prteigrs : about to open file t11o_DS2_EIG

 SPIN UP channel
 Non-SCF case, kpt    1 ( -0.25000  0.50000  0.00000), residuals and eigenvalues=
  5.41E-13  2.70E-13  6.26E-13  8.80E-13  2.95E-13  3.34E-13  3.71E-13  3.44E-13
  3.53E-13  4.22E-13  5.49E-13  8.59E-13  6.10E-13  4.25E-13  8.09E-14  4.90E-13
  8.58E-14  1.36E-13  5.82E-13  1.97E-13  4.40E-13  1.29E-13  2.72E-13  2.38E-13
  2.23E-13  1.78E-13  5.08E-13  2.81E-13  2.94E-13  1.23E-09
 -1.2591E+00 -1.2564E+00 -1.2548E+00 -1.2518E+00 -1.2468E+00 -5.5632E-01
 -5.5029E-01 -5.4797E-01 -5.4058E-01 -5.3313E-01 -2.4254E-01 -7.7868E-02
  4.1191E-02  8.5322E-02  2.3942E-01  3.3175E-01  3.9095E-01  4.1775E-01
  5.4479E-01  6.1285E-01  6.2503E-01  6.5033E-01  6.9346E-01  8.2293E-01
  8.6472E-01  8.8488E-01  9.3600E-01  9.4209E-01  9.5728E-01  1.0214E+00
  prteigrs : nnsclo,ikpt=  100    1 max resid (incl. the buffer)=  1.22731E-09
 prteigrs : prtvol=0 or 1, do not print more k-points.

  prteigrs : nnsclo,ikpt=  100    2 max resid (incl. the buffer)=  2.59939E-05

 SPIN DOWN channel
 Non-SCF case, kpt    1 ( -0.25000  0.50000  0.00000), residuals and eigenvalues=
  5.41E-13  2.70E-13  6.26E-13  8.80E-13  2.95E-13  3.34E-13  3.71E-13  3.44E-13
  3.53E-13  4.22E-13  5.49E-13  8.59E-13  6.10E-13  4.25E-13  8.09E-14  4.90E-13
  8.58E-14  1.36E-13  5.82E-13  1.97E-13  4.40E-13  1.29E-13  2.72E-13  2.38E-13
  2.23E-13  1.78E-13  5.08E-13  2.81E-13  2.94E-13  1.23E-09
 -1.2591E+00 -1.2564E+00 -1.2548E+00 -1.2518E+00 -1.2468E+00 -5.5632E-01
 -5.5029E-01 -5.4797E-01 -5.4058E-01 -5.3313E-01 -2.4254E-01 -7.7868E-02
  4.1191E-02  8.5322E-02  2.3942E-01  3.3175E-01  3.9095E-01  4.1775E-01
  5.4479E-01  6.1285E-01  6.2503E-01  6.5033E-01  6.9346E-01  8.2293E-01
  8.6472E-01  8.8488E-01  9.3600E-01  9.4209E-01  9.5728E-01  1.0214E+00
  prteigrs : nnsclo,ikpt=  100    1 max resid (incl. the buffer)=  1.22731E-09
 prteigrs : prtvol=0 or 1, do not print more k-points.

  prteigrs : nnsclo,ikpt=  100    2 max resid (incl. the buffer)=  2.59925E-05


--- !ResultsGS
iteration_state: {dtset: 2, }
comment   : Summary of ground state results
lattice_vectors:
- [  0.0000000,   5.3000000,   5.3000000, ]
- [  5.3000000,   0.0000000,   5.3000000, ]
- [  5.3000000,   5.3000000,   0.0000000, ]
lattice_lengths: [   7.49533,    7.49533,    7.49533, ]
lattice_angles: [ 60.000,  60.000,  60.000, ] # degrees, (23, 13, 12)
lattice_volume:   2.9775400E+02
convergence: {deltae:  0.000E+00, res2:  0.000E+00, residm:  8.949E-13, diffor:  0.000E+00, }
etotal    :  -1.91402987E+02
entropy   :   0.00000000E+00
fermie    :   1.34017190E-01
cartesian_stress_tensor: null
pressure_GPa: null
xred      :
- [  0.0000E+00,   0.0000E+00,   0.0000E+00, Ga]
- [  2.5000E-01,   2.5000E-01,   2.5000E-01, As]
cartesian_forces: null
force_length_stats: {min: null, max: null, mean: null, }
...

 Integrated electronic and magnetization densities in atomic spheres:
 ---------------------------------------------------------------------
 Radius=ratsph(iatom), smearing ratsm=  0.0000. Diff(up-dn)=approximate z local magnetic moment.
 Atom    Radius    up_density   dn_density  Total(up+dn)  Diff(up-dn)
    1   2.10359     5.609481     5.609481     11.218961     0.000000
    2   2.10392     6.399747     6.399747     12.799495    -0.000000
 ---------------------------------------------------------------------
  Sum:             12.009228    12.009228     24.018456     0.000000
 Total magnetization (from the atomic spheres):             0.000000
 Total magnetization (exact up - dn):                       0.000000

 PAW TEST:
 ==== Compensation charge inside spheres ============
 Compensation charge over spherical meshes =     16.386021787850968

 ==== Results concerning PAW augmentation regions ====

 Total pseudopotential strength Dij (hartree):
 Atom #  1 - Spin component 1
   0.43245  40.41406   0.00000   0.00000   0.00000   0.00000   0.00000   0.00000   0.00000   0.00000   0.00000   0.00000 ...
  40.41406 *********   0.00000   0.00000   0.00000   0.00000   0.00000   0.00000   0.00000   0.00000   0.00000   0.00000 ...
   0.00000   0.00000   0.07574   0.00000   0.00000   0.42302   0.00000   0.00000   0.00000   0.00000   0.00000  -0.00002 ...
   0.00000   0.00000   0.00000   0.07574   0.00000   0.00000   0.42302   0.00000  -0.00002   0.00000   0.00000   0.00000 ...
   0.00000   0.00000   0.00000   0.00000   0.07574   0.00000   0.00000   0.42302   0.00000  -0.00002   0.00000   0.00000 ...
   0.00000   0.00000   0.42302   0.00000   0.00000   2.23141   0.00000   0.00000   0.00000   0.00000   0.00000   0.00001 ...
   0.00000   0.00000   0.00000   0.42302   0.00000   0.00000   2.23141   0.00000   0.00001   0.00000   0.00000   0.00000 ...
   0.00000   0.00000   0.00000   0.00000   0.42302   0.00000   0.00000   2.23141   0.00000   0.00001   0.00000   0.00000 ...
   0.00000   0.00000   0.00000  -0.00002   0.00000   0.00000   0.00001   0.00000  -0.86875   0.00000   0.00000   0.00000 ...
   0.00000   0.00000   0.00000   0.00000  -0.00002   0.00000   0.00000   0.00001   0.00000  -0.86875   0.00000   0.00000 ...
   0.00000   0.00000   0.00000   0.00000   0.00000   0.00000   0.00000   0.00000   0.00000   0.00000  -0.86886   0.00000 ...
   0.00000   0.00000  -0.00002   0.00000   0.00000   0.00001   0.00000   0.00000   0.00000   0.00000   0.00000  -0.86875 ...
   ...  only 12  components have been written...
 pawio_print_ij: WARNING -
  The matrix seems to have high value(s) !
  (  1 components have a value greater than  100.0).
  It can cause instabilities during SCF convergence.
  Action: you should check your atomic dataset (psp file)
          and look for "high" projector functions...
 Atom #  1 - Spin component 2
   0.43245  40.41406   0.00000   0.00000   0.00000   0.00000   0.00000   0.00000   0.00000   0.00000   0.00000   0.00000 ...
  40.41406 *********   0.00000   0.00000   0.00000   0.00000   0.00000   0.00000   0.00000   0.00000   0.00000   0.00000 ...
   0.00000   0.00000   0.07574   0.00000   0.00000   0.42302   0.00000   0.00000   0.00000   0.00000   0.00000  -0.00002 ...
   0.00000   0.00000   0.00000   0.07574   0.00000   0.00000   0.42302   0.00000  -0.00002   0.00000   0.00000   0.00000 ...
   0.00000   0.00000   0.00000   0.00000   0.07574   0.00000   0.00000   0.42302   0.00000  -0.00002   0.00000   0.00000 ...
   0.00000   0.00000   0.42302   0.00000   0.00000   2.23141   0.00000   0.00000   0.00000   0.00000   0.00000   0.00001 ...
   0.00000   0.00000   0.00000   0.42302   0.00000   0.00000   2.23141   0.00000   0.00001   0.00000   0.00000   0.00000 ...
   0.00000   0.00000   0.00000   0.00000   0.42302   0.00000   0.00000   2.23141   0.00000   0.00001   0.00000   0.00000 ...
   0.00000   0.00000   0.00000  -0.00002   0.00000   0.00000   0.00001   0.00000  -0.86875   0.00000   0.00000   0.00000 ...
   0.00000   0.00000   0.00000   0.00000  -0.00002   0.00000   0.00000   0.00001   0.00000  -0.86875   0.00000   0.00000 ...
   0.00000   0.00000   0.00000   0.00000   0.00000   0.00000   0.00000   0.00000   0.00000   0.00000  -0.86886   0.00000 ...
   0.00000   0.00000  -0.00002   0.00000   0.00000   0.00001   0.00000   0.00000   0.00000   0.00000   0.00000  -0.86875 ...
   ...  only 12  components have been written...
 Atom #  2 - Spin component 1
   0.90921  -3.61306   0.00000   0.00000   0.00000   0.00000   0.00000   0.00000   0.00000   0.00000   0.00000   0.00000 ...
  -3.61306  13.95200   0.00000   0.00000   0.00000   0.00000   0.00000   0.00000   0.00000   0.00000   0.00000   0.00000 ...
   0.00000   0.00000   0.19934   0.00000   0.00000   2.65098   0.00000   0.00000   0.00000   0.00000   0.00000  -0.00007 ...
   0.00000   0.00000   0.00000   0.19934   0.00000   0.00000   2.65098   0.00000  -0.00007   0.00000   0.00000   0.00000 ...
   0.00000   0.00000   0.00000   0.00000   0.19934   0.00000   0.00000   2.65098   0.00000  -0.00007   0.00000   0.00000 ...
   0.00000   0.00000   2.65098   0.00000   0.00000  34.04691   0.00000   0.00000   0.00000   0.00000   0.00000  -0.00139 ...
   0.00000   0.00000   0.00000   2.65098   0.00000   0.00000  34.04691   0.00000  -0.00139   0.00000   0.00000   0.00000 ...
   0.00000   0.00000   0.00000   0.00000   2.65098   0.00000   0.00000  34.04691   0.00000  -0.00139   0.00000   0.00000 ...
   0.00000   0.00000   0.00000  -0.00007   0.00000   0.00000  -0.00139   0.00000  -1.37425   0.00000   0.00000   0.00000 ...
   0.00000   0.00000   0.00000   0.00000  -0.00007   0.00000   0.00000  -0.00139   0.00000  -1.37425   0.00000   0.00000 ...
   0.00000   0.00000   0.00000   0.00000   0.00000   0.00000   0.00000   0.00000   0.00000   0.00000  -1.37431   0.00000 ...
   0.00000   0.00000  -0.00007   0.00000   0.00000  -0.00139   0.00000   0.00000   0.00000   0.00000   0.00000  -1.37425 ...
   ...  only 12  components have been written...
 Atom #  2 - Spin component 2
   0.90921  -3.61306   0.00000   0.00000   0.00000   0.00000   0.00000   0.00000   0.00000   0.00000   0.00000   0.00000 ...
  -3.61306  13.95200   0.00000   0.00000   0.00000   0.00000   0.00000   0.00000   0.00000   0.00000   0.00000   0.00000 ...
   0.00000   0.00000   0.19934   0.00000   0.00000   2.65098   0.00000   0.00000   0.00000   0.00000   0.00000  -0.00007 ...
   0.00000   0.00000   0.00000   0.19934   0.00000   0.00000   2.65098   0.00000  -0.00007   0.00000   0.00000   0.00000 ...
   0.00000   0.00000   0.00000   0.00000   0.19934   0.00000   0.00000   2.65098   0.00000  -0.00007   0.00000   0.00000 ...
   0.00000   0.00000   2.65098   0.00000   0.00000  34.04691   0.00000   0.00000   0.00000   0.00000   0.00000  -0.00139 ...
   0.00000   0.00000   0.00000   2.65098   0.00000   0.00000  34.04691   0.00000  -0.00139   0.00000   0.00000   0.00000 ...
   0.00000   0.00000   0.00000   0.00000   2.65098   0.00000   0.00000  34.04691   0.00000  -0.00139   0.00000   0.00000 ...
   0.00000   0.00000   0.00000  -0.00007   0.00000   0.00000  -0.00139   0.00000  -1.37425   0.00000   0.00000   0.00000 ...
   0.00000   0.00000   0.00000   0.00000  -0.00007   0.00000   0.00000  -0.00139   0.00000  -1.37425   0.00000   0.00000 ...
   0.00000   0.00000   0.00000   0.00000   0.00000   0.00000   0.00000   0.00000   0.00000   0.00000  -1.37431   0.00000 ...
   0.00000   0.00000  -0.00007   0.00000   0.00000  -0.00139   0.00000   0.00000   0.00000   0.00000   0.00000  -1.37425 ...
   ...  only 12  components have been written...


 Augmentation waves occupancies Rhoij:
 Atom #  1 - Spin component 1
   0.71893   0.00041   0.00000   0.00000   0.00000   0.00000   0.00000   0.00000   0.00000   0.00000   0.00000   0.00000 ...
   0.00041   0.00001   0.00000   0.00000   0.00000   0.00000   0.00000   0.00000   0.00000   0.00000   0.00000   0.00000 ...
   0.00000   0.00000   0.51198   0.00000   0.00000  -0.00608   0.00000   0.00000   0.00000   0.00000   0.00000  -0.00311 ...
   0.00000   0.00000   0.00000   0.51198   0.00000   0.00000  -0.00608   0.00000  -0.00311   0.00000   0.00000   0.00000 ...
   0.00000   0.00000   0.00000   0.00000   0.51198   0.00000   0.00000  -0.00608   0.00000  -0.00311   0.00000   0.00000 ...
   0.00000   0.00000  -0.00608   0.00000   0.00000   0.00212   0.00000   0.00000   0.00000   0.00000   0.00000   0.00148 ...
   0.00000   0.00000   0.00000  -0.00608   0.00000   0.00000   0.00212   0.00000   0.00148   0.00000   0.00000   0.00000 ...
   0.00000   0.00000   0.00000   0.00000  -0.00608   0.00000   0.00000   0.00212   0.00000   0.00148   0.00000   0.00000 ...
   0.00000   0.00000   0.00000  -0.00311   0.00000   0.00000   0.00148   0.00000   1.11451   0.00000   0.00000   0.00000 ...
   0.00000   0.00000   0.00000   0.00000  -0.00311   0.00000   0.00000   0.00148   0.00000   1.11451   0.00000   0.00000 ...
   0.00000   0.00000   0.00000   0.00000   0.00000   0.00000   0.00000   0.00000   0.00000   0.00000   1.11579   0.00000 ...
   0.00000   0.00000  -0.00311   0.00000   0.00000   0.00148   0.00000   0.00000   0.00000   0.00000   0.00000   1.11451 ...
   ...  only 12  components have been written...
 Atom #  1 - Spin component 2
   0.71893   0.00041   0.00000   0.00000   0.00000   0.00000   0.00000   0.00000   0.00000   0.00000   0.00000   0.00000 ...
   0.00041   0.00001   0.00000   0.00000   0.00000   0.00000   0.00000   0.00000   0.00000   0.00000   0.00000   0.00000 ...
   0.00000   0.00000   0.51198   0.00000   0.00000  -0.00608   0.00000   0.00000   0.00000   0.00000   0.00000  -0.00311 ...
   0.00000   0.00000   0.00000   0.51198   0.00000   0.00000  -0.00608   0.00000  -0.00311   0.00000   0.00000   0.00000 ...
   0.00000   0.00000   0.00000   0.00000   0.51198   0.00000   0.00000  -0.00608   0.00000  -0.00311   0.00000   0.00000 ...
   0.00000   0.00000  -0.00608   0.00000   0.00000   0.00212   0.00000   0.00000   0.00000   0.00000   0.00000   0.00148 ...
   0.00000   0.00000   0.00000  -0.00608   0.00000   0.00000   0.00212   0.00000   0.00148   0.00000   0.00000   0.00000 ...
   0.00000   0.00000   0.00000   0.00000  -0.00608   0.00000   0.00000   0.00212   0.00000   0.00148   0.00000   0.00000 ...
   0.00000   0.00000   0.00000  -0.00311   0.00000   0.00000   0.00148   0.00000   1.11451   0.00000   0.00000   0.00000 ...
   0.00000   0.00000   0.00000   0.00000  -0.00311   0.00000   0.00000   0.00148   0.00000   1.11451   0.00000   0.00000 ...
   0.00000   0.00000   0.00000   0.00000   0.00000   0.00000   0.00000   0.00000   0.00000   0.00000   1.11579   0.00000 ...
   0.00000   0.00000  -0.00311   0.00000   0.00000   0.00148   0.00000   0.00000   0.00000   0.00000   0.00000   1.11451 ...
   ...  only 12  components have been written...
 Atom #  2 - Spin component 1
   0.88592  -0.00586   0.00000   0.00000   0.00000   0.00000   0.00000   0.00000   0.00000   0.00000   0.00000   0.00000 ...
  -0.00586   0.00171   0.00000   0.00000   0.00000   0.00000   0.00000   0.00000   0.00000   0.00000   0.00000   0.00000 ...
   0.00000   0.00000   0.72196   0.00000   0.00000  -0.00281   0.00000   0.00000   0.00000   0.00000   0.00000   0.00106 ...
   0.00000   0.00000   0.00000   0.72196   0.00000   0.00000  -0.00281   0.00000   0.00106   0.00000   0.00000   0.00000 ...
   0.00000   0.00000   0.00000   0.00000   0.72196   0.00000   0.00000  -0.00281   0.00000   0.00106   0.00000   0.00000 ...
   0.00000   0.00000  -0.00281   0.00000   0.00000   0.00010   0.00000   0.00000   0.00000   0.00000   0.00000  -0.00019 ...
   0.00000   0.00000   0.00000  -0.00281   0.00000   0.00000   0.00010   0.00000  -0.00019   0.00000   0.00000   0.00000 ...
   0.00000   0.00000   0.00000   0.00000  -0.00281   0.00000   0.00000   0.00010   0.00000  -0.00019   0.00000   0.00000 ...
   0.00000   0.00000   0.00000   0.00106   0.00000   0.00000  -0.00019   0.00000   1.01507   0.00000   0.00000   0.00000 ...
   0.00000   0.00000   0.00000   0.00000   0.00106   0.00000   0.00000  -0.00019   0.00000   1.01507   0.00000   0.00000 ...
   0.00000   0.00000   0.00000   0.00000   0.00000   0.00000   0.00000   0.00000   0.00000   0.00000   1.01530   0.00000 ...
   0.00000   0.00000   0.00106   0.00000   0.00000  -0.00019   0.00000   0.00000   0.00000   0.00000   0.00000   1.01507 ...
   ...  only 12  components have been written...
 Atom #  2 - Spin component 2
   0.88592  -0.00586   0.00000   0.00000   0.00000   0.00000   0.00000   0.00000   0.00000   0.00000   0.00000   0.00000 ...
  -0.00586   0.00171   0.00000   0.00000   0.00000   0.00000   0.00000   0.00000   0.00000   0.00000   0.00000   0.00000 ...
   0.00000   0.00000   0.72196   0.00000   0.00000  -0.00281   0.00000   0.00000   0.00000   0.00000   0.00000   0.00106 ...
   0.00000   0.00000   0.00000   0.72196   0.00000   0.00000  -0.00281   0.00000   0.00106   0.00000   0.00000   0.00000 ...
   0.00000   0.00000   0.00000   0.00000   0.72196   0.00000   0.00000  -0.00281   0.00000   0.00106   0.00000   0.00000 ...
   0.00000   0.00000  -0.00281   0.00000   0.00000   0.00010   0.00000   0.00000   0.00000   0.00000   0.00000  -0.00019 ...
   0.00000   0.00000   0.00000  -0.00281   0.00000   0.00000   0.00010   0.00000  -0.00019   0.00000   0.00000   0.00000 ...
   0.00000   0.00000   0.00000   0.00000  -0.00281   0.00000   0.00000   0.00010   0.00000  -0.00019   0.00000   0.00000 ...
   0.00000   0.00000   0.00000   0.00106   0.00000   0.00000  -0.00019   0.00000   1.01507   0.00000   0.00000   0.00000 ...
   0.00000   0.00000   0.00000   0.00000   0.00106   0.00000   0.00000  -0.00019   0.00000   1.01507   0.00000   0.00000 ...
   0.00000   0.00000   0.00000   0.00000   0.00000   0.00000   0.00000   0.00000   0.00000   0.00000   1.01530   0.00000 ...
   0.00000   0.00000   0.00106   0.00000   0.00000  -0.00019   0.00000   0.00000   0.00000   0.00000   0.00000   1.01507 ...
   ...  only 12  components have been written...


================================================================================

 ----iterations are completed or convergence reached----

 Mean square residual over all n,k,spin=   37.164E-14; max=  89.489E-14
 reduced coordinates (array xred) for    2 atoms
       0.000000000000      0.000000000000      0.000000000000
       0.250000000000      0.250000000000      0.250000000000

 cartesian coordinates (angstrom) at end:
    1      0.00000000000000     0.00000000000000     0.00000000000000
    2      1.40231960276350     1.40231960276350     1.40231960276350
 length scales= 10.600000000000 10.600000000000 10.600000000000 bohr
              =  5.609278411054  5.609278411054  5.609278411054 angstroms
 prteigrs : about to open file t11o_DS2_EIG
 Eigenvalues (hartree) for nkpt=   2  k points, SPIN UP:
 kpt#   1, nband= 30, wtk=  0.75000, kpt= -0.2500  0.5000  0.0000 (reduced coord)
  -1.25912   -1.25636   -1.25477   -1.25178   -1.24682   -0.55632   -0.55029   -0.54797
  -0.54058   -0.53313   -0.24254   -0.07787    0.04119    0.08532    0.23942    0.33175
   0.39095    0.41775    0.54479    0.61285    0.62503    0.65033    0.69346    0.82293
   0.86472    0.88488    0.93600    0.94209    0.95728    1.02143
 prteigrs : prtvol=0 or 1, do not print more k-points.

 Eigenvalues (hartree) for nkpt=   2  k points, SPIN DOWN:
 kpt#   1, nband= 30, wtk=  0.75000, kpt= -0.2500  0.5000  0.0000 (reduced coord)
  -1.25912   -1.25636   -1.25477   -1.25178   -1.24682   -0.55632   -0.55029   -0.54797
  -0.54058   -0.53313   -0.24254   -0.07787    0.04119    0.08532    0.23942    0.33175
   0.39095    0.41775    0.54479    0.61285    0.62503    0.65033    0.69346    0.82293
   0.86472    0.88488    0.93600    0.94209    0.95728    1.02143
 prteigrs : prtvol=0 or 1, do not print more k-points.


================================================================================
== DATASET  3 ==================================================================
-   mpi_nproc: 1, omp_nthreads: -1 (-1 if OMP is not activated)


--- !DatasetInfo
iteration_state: {dtset: 3, }
dimensions: {natom: 2, nkpt: 32, mband: 30, nsppol: 2, nspinor: 1, nspden: 2, mpw: 211, }
cutoff_energies: {ecut:   6.0, pawecutdg:  24.0, }
electrons: {nelect:   2.80000000E+01, charge:   0.00000000E+00, occopt:   1.00000000E+00, tsmear:   1.00000000E-02, }
meta: {optdriver: 0, ionmov: 0, optcell: 0, iscf: -2, paral_kgb: 0, }
...

 mkfilename : getwfk/=0, take file _WFK from output of DATASET   2.

 mkfilename : getden/=0, take file _DEN from output of DATASET   1.

 Real(R)+Recip(G) space primitive vectors, cartesian coordinates (Bohr,Bohr^-1):
 R(1)=  0.0000000  5.3000000  5.3000000  G(1)= -0.0943396  0.0943396  0.0943396
 R(2)=  5.3000000  0.0000000  5.3000000  G(2)=  0.0943396 -0.0943396  0.0943396
 R(3)=  5.3000000  5.3000000  0.0000000  G(3)=  0.0943396  0.0943396 -0.0943396
 Unit cell volume ucvol=  2.9775400E+02 bohr^3
 Angles (23,13,12)=  6.00000000E+01  6.00000000E+01  6.00000000E+01 degrees

 Coarse grid specifications (used for wave-functions):

 getcut: wavevector=  0.0000  0.0000  0.0000  ngfft=  18  18  18
         ecut(hartree)=      6.000   => boxcut(ratio)=   2.18463

 Fine grid specifications (used for densities):

 getcut: wavevector=  0.0000  0.0000  0.0000  ngfft=  36  36  36
         ecut(hartree)=     24.000   => boxcut(ratio)=   2.17791
--------------------------------------------------------------------------------

-inwffil : will read wavefunctions from disk file t11o_DS2_WFK

================================================================================
 prteigrs : about to open file t11o_DS3_EIG

 SPIN UP channel
 Non-SCF case, kpt    1 ( -0.25000  0.50000  0.00000), residuals and eigenvalues=
  5.41E-13  2.70E-13  6.26E-13  8.80E-13  2.95E-13  3.34E-13  3.71E-13  3.44E-13
  3.53E-13  4.22E-13  5.49E-13  8.59E-13  6.10E-13  4.25E-13  8.09E-14  4.90E-13
  8.58E-14  1.36E-13  5.82E-13  1.97E-13  4.40E-13  1.29E-13  2.72E-13  2.38E-13
  2.23E-13  1.78E-13  5.08E-13  2.81E-13  2.94E-13  7.53E-11
 -1.2591E+00 -1.2564E+00 -1.2548E+00 -1.2518E+00 -1.2468E+00 -5.5632E-01
 -5.5029E-01 -5.4797E-01 -5.4058E-01 -5.3313E-01 -2.4254E-01 -7.7868E-02
  4.1191E-02  8.5322E-02  2.3942E-01  3.3175E-01  3.9095E-01  4.1775E-01
  5.4479E-01  6.1285E-01  6.2503E-01  6.5033E-01  6.9346E-01  8.2293E-01
  8.6472E-01  8.8488E-01  9.3600E-01  9.4209E-01  9.5728E-01  1.0214E+00
  prteigrs : nnsclo,ikpt=  100    1 max resid (incl. the buffer)=  7.53088E-11
 prteigrs : prtvol=0 or 1, do not print more k-points.

  prteigrs : nnsclo,ikpt=  100    2 max resid (incl. the buffer)=  7.53087E-11
  prteigrs : nnsclo,ikpt=  100    3 max resid (incl. the buffer)=  7.53087E-11
  prteigrs : nnsclo,ikpt=  100    4 max resid (incl. the buffer)=  2.24886E-06
  prteigrs : nnsclo,ikpt=  100    5 max resid (incl. the buffer)=  7.53087E-11
  prteigrs : nnsclo,ikpt=  100    6 max resid (incl. the buffer)=  7.53088E-11
  prteigrs : nnsclo,ikpt=  100    7 max resid (incl. the buffer)=  7.53088E-11
  prteigrs : nnsclo,ikpt=  100    8 max resid (incl. the buffer)=  7.53087E-11
  prteigrs : nnsclo,ikpt=  100    9 max resid (incl. the buffer)=  7.53088E-11
[...]
                       0.000000  0.000000  0.000000  0.000000  0.000000  0.000000
                       1.000000  1.000000  1.000000  1.000000  1.000000  1.000000
                       1.000000  1.000000  1.000000  1.000000  1.000000  1.000000
                       1.000000  1.000000  0.000000  0.000000  0.000000  0.000000
                       0.000000  0.000000  0.000000  0.000000  0.000000  0.000000
                       0.000000  0.000000  0.000000  0.000000  0.000000  0.000000
              occ5     1.000000  1.000000  1.000000  1.000000  1.000000  1.000000
                       1.000000  1.000000  1.000000  1.000000  1.000000  1.000000
                       1.000000  1.000000  0.000000  0.000000  0.000000  0.000000
                       0.000000  0.000000  0.000000  0.000000  0.000000  0.000000
                       0.000000  0.000000  0.000000  0.000000  0.000000  0.000000
                       1.000000  1.000000  1.000000  1.000000  1.000000  1.000000
                       1.000000  1.000000  1.000000  1.000000  1.000000  1.000000
                       1.000000  1.000000  0.000000  0.000000  0.000000  0.000000
                       0.000000  0.000000  0.000000  0.000000  0.000000  0.000000
                       0.000000  0.000000  0.000000  0.000000  0.000000  0.000000
              occ6     1.000000  1.000000  1.000000  1.000000  1.000000  1.000000
                       1.000000  1.000000  1.000000  1.000000  1.000000  1.000000
                       1.000000  1.000000  0.000000  0.000000  0.000000  0.000000
                       0.000000  0.000000  0.000000  0.000000  0.000000  0.000000
                       0.000000  0.000000  0.000000  0.000000  0.000000  0.000000
                       1.000000  1.000000  1.000000  1.000000  1.000000  1.000000
                       1.000000  1.000000  1.000000  1.000000  1.000000  1.000000
                       1.000000  1.000000  0.000000  0.000000  0.000000  0.000000
                       0.000000  0.000000  0.000000  0.000000  0.000000  0.000000
                       0.000000  0.000000  0.000000  0.000000  0.000000  0.000000
        optdriver1          0
        optdriver2          0
        optdriver3          0
        optdriver4          1
        optdriver5          1
        optdriver6          1
        pawecutdg      2.40000000E+01 Hartree
            rfdir1          0       0       0
            rfdir2          0       0       0
            rfdir3          0       0       0
            rfdir4          1       0       0
            rfdir5          0       1       0
            rfdir6          0       0       1
           rfelfd1          0
           rfelfd2          0
           rfelfd3          0
           rfelfd4          2
           rfelfd5          2
           rfelfd6          2
            rprim      0.0000000000E+00  5.0000000000E-01  5.0000000000E-01
                       5.0000000000E-01  0.0000000000E+00  5.0000000000E-01
                       5.0000000000E-01  5.0000000000E-01  0.0000000000E+00
           shiftk      5.00000000E-01  5.00000000E-01  5.00000000E-01
          spgroup         216
   spinmagntarget      0.00000000E+00
           strten1     2.2419937955E-02  2.2419937955E-02  2.2419937955E-02
                       0.0000000000E+00  0.0000000000E+00  0.0000000000E+00
           symrel      1  0  0   0  1  0   0  0  1       0 -1  1   0 -1  0   1 -1  0
                      -1  0  0  -1  0  1  -1  1  0       0  1 -1   1  0 -1   0  0 -1
                      -1  0  0  -1  1  0  -1  0  1       0 -1  1   1 -1  0   0 -1  0
                       1  0  0   0  0  1   0  1  0       0  1 -1   0  0 -1   1  0 -1
                      -1  0  1  -1  1  0  -1  0  0       0 -1  0   1 -1  0   0 -1  1
                       1  0 -1   0  0 -1   0  1 -1       0  1  0   0  0  1   1  0  0
                       1  0 -1   0  1 -1   0  0 -1       0 -1  0   0 -1  1   1 -1  0
                      -1  0  1  -1  0  0  -1  1  0       0  1  0   1  0  0   0  0  1
                       0  0 -1   0  1 -1   1  0 -1       1 -1  0   0 -1  1   0 -1  0
                       0  0  1   1  0  0   0  1  0      -1  1  0  -1  0  0  -1  0  1
                       0  0  1   0  1  0   1  0  0       1 -1  0   0 -1  0   0 -1  1
                       0  0 -1   1  0 -1   0  1 -1      -1  1  0  -1  0  1  -1  0  0
           tolwfr1     1.00000000E-12
           tolwfr2     1.00000000E-12
           tolwfr3     1.00000000E-12
           tolwfr4     1.00000000E-08
           tolwfr5     1.00000000E-08
           tolwfr6     1.00000000E-08
            typat      1  2
           useylm           1
              wtk1       0.75000    0.25000
              wtk2       0.75000    0.25000
              wtk3       0.03125    0.03125    0.03125    0.03125    0.03125    0.03125
                         0.03125    0.03125    0.03125    0.03125    0.03125    0.03125
                         0.03125    0.03125    0.03125    0.03125    0.03125    0.03125
                         0.03125    0.03125    0.03125    0.03125    0.03125    0.03125
                         0.03125    0.03125    0.03125    0.03125    0.03125    0.03125
                         0.03125    0.03125
              wtk4       0.03125    0.03125    0.03125    0.03125    0.03125    0.03125
                         0.03125    0.03125    0.03125    0.03125    0.03125    0.03125
                         0.03125    0.03125    0.03125    0.03125    0.03125    0.03125
                         0.03125    0.03125    0.03125    0.03125    0.03125    0.03125
                         0.03125    0.03125    0.03125    0.03125    0.03125    0.03125
                         0.03125    0.03125
              wtk5       0.03125    0.03125    0.03125    0.03125    0.03125    0.03125
                         0.03125    0.03125    0.03125    0.03125    0.03125    0.03125
                         0.03125    0.03125    0.03125    0.03125    0.03125    0.03125
                         0.03125    0.03125    0.03125    0.03125    0.03125    0.03125
                         0.03125    0.03125    0.03125    0.03125    0.03125    0.03125
                         0.03125    0.03125
              wtk6       0.03125    0.03125    0.03125    0.03125    0.03125    0.03125
                         0.03125    0.03125    0.03125    0.03125    0.03125    0.03125
                         0.03125    0.03125    0.03125    0.03125    0.03125    0.03125
                         0.03125    0.03125    0.03125    0.03125    0.03125    0.03125
                         0.03125    0.03125    0.03125    0.03125    0.03125    0.03125
                         0.03125    0.03125
           xangst      0.0000000000E+00  0.0000000000E+00  0.0000000000E+00
                       1.4023196028E+00  1.4023196028E+00  1.4023196028E+00
            xcart      0.0000000000E+00  0.0000000000E+00  0.0000000000E+00
                       2.6500000000E+00  2.6500000000E+00  2.6500000000E+00
             xred      0.0000000000E+00  0.0000000000E+00  0.0000000000E+00
                       2.5000000000E-01  2.5000000000E-01  2.5000000000E-01
            znucl       31.00000   33.00000

================================================================================

- Total cpu        time (s,m,h):         39.1        0.65      0.011
- Total wall clock time (s,m,h):         40.5        0.68      0.011
-
- For major independent code sections, cpu and wall times (sec),
-  as well as % of the time and number of calls for node 0-
-<BEGIN_TIMER mpi_nprocs = 1, omp_nthreads = 1, mpi_rank = 0>
- cpu_time =           39.1, wall_time =           40.5
-
- routine                        cpu     %       wall     %      number of calls  Gflops    Speedup Efficacity
-                                                                  (-1=no count)
- fourwf%(pot)                  14.585  37.3     14.463  35.7          65648      -1.00        1.01       1.01
- projbd                         4.705  12.0      4.896  12.1         127664      -1.00        0.96       0.96
- nonlop(apply)                  3.517   9.0      3.519   8.7          65648      -1.00        1.00       1.00
- pspini                         2.222   5.7      2.222   5.5              6      -1.00        1.00       1.00
- dfpt_nstpaw                    2.103   5.4      2.103   5.2              3      -1.00        1.00       1.00
- xc:pot/=fourdp                 1.373   3.5      1.380   3.4             38      -1.00        1.00       1.00
- fourwf%(G->r)                  1.001   2.6      1.059   2.6           8064      -1.00        0.95       0.95
- getghc-other                   0.789   2.0      0.715   1.8             -1      -1.00        1.10       1.10
- pawinit                        0.662   1.7      0.662   1.6              2      -1.00        1.00       1.00
- fourdp                         0.584   1.5      0.585   1.4           1050      -1.00        1.00       1.00
- pawdenpot                      0.492   1.3      0.493   1.2             16      -1.00        1.00       1.00
- dfpt_vtowfk (1)                0.471   1.2      0.474   1.2            576      -1.00        0.99       0.99
- fourwf%(den)                   0.408   1.0      0.410   1.0           3304      -1.00        1.00       1.00
- dfpt_vtowfk(contrib)           0.407   1.0      0.366   0.9             -1      -1.00        1.11       1.11
- vtowfk(ssdiag)                 0.339   0.9      0.337   0.8             -1      -1.00        1.00       1.00
- dfpt_vtorho-kpt loop           0.234   0.6      0.247   0.6             18      -1.00        0.95       0.95
- invars2                        0.232   0.6      0.232   0.6              6      -1.00        1.00       1.00
- getgh1c_setup                  0.212   0.5      0.218   0.5            576      -1.00        0.97       0.97
- ewald                          0.209   0.5      0.212   0.5              3      -1.00        0.99       0.99
- others (107)                   1.007   2.6      1.008   2.5             -1      -1.00        1.00       1.00
-<END_TIMER>
-
- subtotal                      35.550  90.8     35.601  87.9                                  1.00       1.00

- For major independent code sections, cpu and wall times (sec),
- as well as % of the total time and number of calls 

-<BEGIN_TIMER mpi_nprocs = 1, omp_nthreads = 1, mpi_rank = world>
- cpu_time =          39.1, wall_time =          40.5
-
- routine                         cpu     %       wall     %      number of calls Gflops    Speedup Efficacity
-                                                                  (-1=no count)
- fourwf%(pot)                  14.585  37.3     14.463  35.7          65648      -1.00        1.01       1.01
- projbd                         4.705  12.0      4.896  12.1         127664      -1.00        0.96       0.96
- nonlop(apply)                  3.517   9.0      3.519   8.7          65648      -1.00        1.00       1.00
- pspini                         2.222   5.7      2.222   5.5              6      -1.00        1.00       1.00
- dfpt_nstpaw                    2.103   5.4      2.103   5.2              3      -1.00        1.00       1.00
- xc:pot/=fourdp                 1.373   3.5      1.380   3.4             38      -1.00        1.00       1.00
- fourwf%(G->r)                  1.001   2.6      1.059   2.6           8064      -1.00        0.95       0.95
- getghc-other                   0.789   2.0      0.715   1.8             -1      -1.00        1.10       1.10
- pawinit                        0.662   1.7      0.662   1.6              2      -1.00        1.00       1.00
- fourdp                         0.584   1.5      0.585   1.4           1050      -1.00        1.00       1.00
- pawdenpot                      0.492   1.3      0.493   1.2             16      -1.00        1.00       1.00
- dfpt_vtowfk (1)                0.471   1.2      0.474   1.2            576      -1.00        0.99       0.99
- fourwf%(den)                   0.408   1.0      0.410   1.0           3304      -1.00        1.00       1.00
- dfpt_vtowfk(contrib)           0.407   1.0      0.366   0.9             -1      -1.00        1.11       1.11
- vtowfk(ssdiag)                 0.339   0.9      0.337   0.8             -1      -1.00        1.00       1.00
- dfpt_vtorho-kpt loop           0.234   0.6      0.247   0.6             18      -1.00        0.95       0.95
- invars2                        0.232   0.6      0.232   0.6              6      -1.00        1.00       1.00
- getgh1c_setup                  0.212   0.5      0.218   0.5            576      -1.00        0.97       0.97
- ewald                          0.209   0.5      0.212   0.5              3      -1.00        0.99       0.99
- others (107)                   1.007   2.6      1.008   2.5             -1      -1.00        1.00       1.00
-<END_TIMER>

- subtotal                      35.550  90.8     35.601  87.9                                  1.00       1.00

================================================================================

 Suggested references for the acknowledgment of ABINIT usage.

 The users of ABINIT have little formal obligations with respect to the ABINIT group
 (those specified in the GNU General Public License, http://www.gnu.org/copyleft/gpl.txt).
 However, it is common practice in the scientific literature,
 to acknowledge the efforts of people that have made the research possible.
 In this spirit, please find below suggested citations of work written by ABINIT developers,
 corresponding to implementations inside of ABINIT that you have used in the present run.
 Note also that it will be of great value to readers of publications presenting these results,
 to read papers enabling them to understand the theoretical formalism and details
 of the ABINIT implementation.
 For information on why they are suggested, see also https://docs.abinit.org/theory/acknowledgments.
-
- [1] Projector augmented-wave formulation of response to strain and electric-field perturbation 
- within density functional perturbation theory 
- A. Martin, M. Torrent, and R. Caracas. Phys. Rev. B 99, 094112 (2019)
- Comment: in case Elastic constants, Born Effective charges, piezoelectric tensor 
- are computed within the Projector Augmented-Wave (PAW) approach. 
- Strong suggestion to cite this paper in your publications.
- DOI and bibtex: see https://docs.abinit.org/theory/bibliography/#martin2019
-
- [2] Projector augmented-wave approach to density-functional perturbation theory.
- C. Audouze, F. Jollet, M. Torrent and X. Gonze, Phys. Rev. B 73, 235101 (2006).
- Comparison between projector augmented-wave and ultrasoft pseudopotential formalisms
- at the density-functional perturbation theory level.
- C. Audouze, F. Jollet, M. Torrent and X. Gonze, Phys. Rev. B 78, 035105 (2008).
- Comment: to be cited in case the computation of response function with PAW, i.e. (rfphon=1 or rfelfd=1) and usepaw=1.
- Strong suggestion to cite these papers.
- DOI and bibtex: see https://docs.abinit.org/theory/bibliography/#audouze2006,
- and https://docs.abinit.org/theory/bibliography/#audouze2008
-
- [3] Implementation of the Projector Augmented-Wave Method in the ABINIT code.
- M. Torrent, F. Jollet, F. Bottin, G. Zerah, and X. Gonze Comput. Mat. Science 42, 337, (2008).
- Comment: PAW calculations. Strong suggestion to cite this paper.
- DOI and bibtex: see https://docs.abinit.org/theory/bibliography/#torrent2008
-
- [4] Libxc: A library of exchange and correlation functionals for density functional theory.
- M.A.L. Marques, M.J.T. Oliveira, T. Burnus, Computer Physics Communications 183, 2227 (2012).
- Comment: to be cited when LibXC is used (negative value of ixc)
- Strong suggestion to cite this paper.
- DOI and bibtex: see https://docs.abinit.org/theory/bibliography/#marques2012
-
- [5] The Abinit project: Impact, environment and recent developments.
- Computer Phys. Comm. 248, 107042 (2020).
- X.Gonze, B. Amadon, G. Antonius, F.Arnardi, L.Baguet, J.-M.Beuken,
- J.Bieder, F.Bottin, J.Bouchet, E.Bousquet, N.Brouwer, F.Bruneval,
- G.Brunin, T.Cavignac, J.-B. Charraud, Wei Chen, M.Cote, S.Cottenier,
- J.Denier, G.Geneste, Ph.Ghosez, M.Giantomassi, Y.Gillet, O.Gingras,
- D.R.Hamann, G.Hautier, Xu He, N.Helbig, N.Holzwarth, Y.Jia, F.Jollet,
- W.Lafargue-Dit-Hauret, K.Lejaeghere, M.A.L.Marques, A.Martin, C.Martins,
- H.P.C. Miranda, F.Naccarato, K. Persson, G.Petretto, V.Planes, Y.Pouillon,
- S.Prokhorenko, F.Ricci, G.-M.Rignanese, A.H.Romero, M.M.Schmitt, M.Torrent,
- M.J.van Setten, B.Van Troeye, M.J.Verstraete, G.Zerah and J.W.Zwanzig
- Comment: the fifth generic paper describing the ABINIT project.
- Note that a version of this paper, that is not formatted for Computer Phys. Comm. 
- is available at https://www.abinit.org/sites/default/files/ABINIT20.pdf .
- The licence allows the authors to put it on the Web.
- DOI and bibtex: see https://docs.abinit.org/theory/bibliography/#gonze2020
-
- [6] First-principles responses of solids to atomic displacements and homogeneous electric fields:,
- implementation of a conjugate-gradient algorithm. X. Gonze, Phys. Rev. B55, 10337 (1997).
- Comment: Non-vanishing rfphon and/or rfelfd, in the norm-conserving case.
- DOI and bibtex: see https://docs.abinit.org/theory/bibliography/#gonze1997
-
- [7] Dynamical matrices, Born effective charges, dielectric permittivity tensors, and ,
- interatomic force constants from density-functional perturbation theory,
- X. Gonze and C. Lee, Phys. Rev. B55, 10355 (1997).
- Comment: Non-vanishing rfphon and/or rfelfd, in the norm-conserving case.
- DOI and bibtex: see https://docs.abinit.org/theory/bibliography/#gonze1997a
-
- [8] Recent developments in the ABINIT software package.
- Computer Phys. Comm. 205, 106 (2016).
- X.Gonze, F.Jollet, F.Abreu Araujo, D.Adams, B.Amadon, T.Applencourt,
- C.Audouze, J.-M.Beuken, J.Bieder, A.Bokhanchuk, E.Bousquet, F.Bruneval
- D.Caliste, M.Cote, F.Dahm, F.Da Pieve, M.Delaveau, M.Di Gennaro,
- B.Dorado, C.Espejo, G.Geneste, L.Genovese, A.Gerossier, M.Giantomassi,
- Y.Gillet, D.R.Hamann, L.He, G.Jomard, J.Laflamme Janssen, S.Le Roux,
- A.Levitt, A.Lherbier, F.Liu, I.Lukacevic, A.Martin, C.Martins,
- M.J.T.Oliveira, S.Ponce, Y.Pouillon, T.Rangel, G.-M.Rignanese,
- A.H.Romero, B.Rousseau, O.Rubel, A.A.Shukri, M.Stankovski, M.Torrent,
- M.J.Van Setten, B.Van Troeye, M.J.Verstraete, D.Waroquier, J.Wiktor,
- B.Xu, A.Zhou, J.W.Zwanziger.
- Comment: the fourth generic paper describing the ABINIT project.
- Note that a version of this paper, that is not formatted for Computer Phys. Comm. 
- is available at https://www.abinit.org/sites/default/files/ABINIT16.pdf .
- The licence allows the authors to put it on the Web.
- DOI and bibtex: see https://docs.abinit.org/theory/bibliography/#gonze2016
-
- [9] ABINIT: First-principles approach of materials and nanosystem properties.
- Computer Phys. Comm. 180, 2582-2615 (2009).
- X. Gonze, B. Amadon, P.-M. Anglade, J.-M. Beuken, F. Bottin, P. Boulanger, F. Bruneval,
- D. Caliste, R. Caracas, M. Cote, T. Deutsch, L. Genovese, Ph. Ghosez, M. Giantomassi
- S. Goedecker, D.R. Hamann, P. Hermet, F. Jollet, G. Jomard, S. Leroux, M. Mancini, S. Mazevet,
- M.J.T. Oliveira, G. Onida, Y. Pouillon, T. Rangel, G.-M. Rignanese, D. Sangalli, R. Shaltaf,
- M. Torrent, M.J. Verstraete, G. Zerah, J.W. Zwanziger
- Comment: the third generic paper describing the ABINIT project.
- Note that a version of this paper, that is not formatted for Computer Phys. Comm. 
- is available at https://www.abinit.org/sites/default/files/ABINIT_CPC_v10.pdf .
- The licence allows the authors to put it on the Web.
- DOI and bibtex: see https://docs.abinit.org/theory/bibliography/#gonze2009
-
- Proc.   0 individual time (sec): cpu=         39.1  wall=         40.5

================================================================================

 Calculation completed.
.Delivered  34 WARNINGs and  10 COMMENTs to log file.
+Overall time at end (sec) : cpu=         39.1  wall=         40.5
