
.Version 9.9.1 of ABINIT 
.(MPI version, prepared for a x86_64_darwin21.5.0_gnu12.1 computer) 

.Copyright (C) 1998-2022 ABINIT group . 
 ABINIT comes with ABSOLUTELY NO WARRANTY.
 It is free software, and you are welcome to redistribute it
 under certain conditions (GNU General Public License,
 see ~abinit/COPYING or http://www.gnu.org/copyleft/gpl.txt).

 ABINIT is a project of the Universite Catholique de Louvain,
 Corning Inc. and other collaborators, see ~abinit/doc/developers/contributors.txt .
 Please read https://docs.abinit.org/theory/acknowledgments for suggested
 acknowledgments of the ABINIT effort.
 For more information, see https://www.abinit.org .

.Starting date : Sat  7 Jan 2023.
- ( at 16h40 )
  
- input  file    -> /Users/gmatteo/git_repos/abinit_quick_prs/_build/tests/UPF2/SiO2/Test_suite/v9_t130/t130.abi
- output file    -> t130.abo
- root for input  files -> t130i
- root for output files -> t130o


 DATASET    1 : space group P3_2 2 1 (#154); Bravais hP (primitive hexag.)
================================================================================
 Values of the parameters that define the memory need for DATASET  1.
     intxc =       0    ionmov =       0      iscf =       7    lmnmax =       6
     lnmax =       6     mgfft =      48  mpssoang =       3    mqgrid =    3001
     natom =       9  nloc_mem =       1    nspden =       1   nspinor =       1
    nsppol =       1      nsym =       6    n1xccc =    2501    ntypat =       2
    occopt =       1   xclevel =       2
-    mband =          32        mffmem =           1         mkmem =           4
       mpw =        2286          nfft =       97200          nkpt =           4
================================================================================
P This job should need less than                      36.954 Mbytes of memory.
  Rough estimation (10% accuracy) of disk space for files :
_ WF disk file :      4.467 Mbytes ; DEN or POT disk file :      0.744 Mbytes.
================================================================================


 DATASET    2 : space group P3_2 2 1 (#154); Bravais hP (primitive hexag.)
================================================================================
 Values of the parameters that define the memory need for DATASET  2.
     intxc =       0    ionmov =       0      iscf =       7    lmnmax =      18
     lnmax =       6     mgfft =      48  mpssoang =       3    mqgrid =    3001
     natom =       9  nloc_mem =       1    nspden =       1   nspinor =       1
    nsppol =       1      nsym =       6    n1xccc =    2501    ntypat =       2
    occopt =       1   xclevel =       2
-    mband =          26        mffmem =           1         mkmem =           4
       mpw =        2286          nfft =       97200          nkpt =           4
================================================================================
P This job should need less than                      39.580 Mbytes of memory.
  Rough estimation (10% accuracy) of disk space for files :
_ WF disk file :      3.630 Mbytes ; DEN or POT disk file :      0.744 Mbytes.
================================================================================

--------------------------------------------------------------------------------
------------- Echo of variables that govern the present computation ------------
--------------------------------------------------------------------------------
-
- outvars: echo of selected default values                                      
-   iomode0 =  0 , fftalg0 =312 , wfoptalg0 =  0
-
- outvars: echo of global parameters not present in the input file              
-  max_nthreads =    0
-
 -outvars: echo values of preprocessed input variables --------
            acell      9.2843000799E+00  9.2843000799E+00  1.0213270550E+01 Bohr
              amu      2.80855000E+01  1.59994000E+01
           diemac      4.00000000E+00
             ecut      2.50000000E+01 Hartree
-          fftalg         312
           getwfk1          0
           getwfk2         -1
           istwfk        2    3    4    5
              ixc     -101130
           jdtset        1    2
              kpt      0.00000000E+00  0.00000000E+00  0.00000000E+00
                       5.00000000E-01  0.00000000E+00  0.00000000E+00
                       0.00000000E+00  0.00000000E+00  5.00000000E-01
                       5.00000000E-01  0.00000000E+00  5.00000000E-01
         kptrlatt        2    0    0      0    2    0      0    0    2
          kptrlen      1.85686002E+01
P           mkmem           4
            natom           9
            nband1         32
            nband2         26
           ndtset           2
            ngfft          45      45      48
             nkpt           4
            nstep          20
             nsym           6
           ntypat           2
              occ1     2.000000  2.000000  2.000000  2.000000  2.000000  2.000000
                       2.000000  2.000000  2.000000  2.000000  2.000000  2.000000
                       2.000000  2.000000  2.000000  2.000000  2.000000  2.000000
                       2.000000  2.000000  2.000000  2.000000  2.000000  2.000000
                       0.000000  0.000000  0.000000  0.000000  0.000000  0.000000
                       0.000000  0.000000
              occ2     2.000000  2.000000  2.000000  2.000000  2.000000  2.000000
                       2.000000  2.000000  2.000000  2.000000  2.000000  2.000000
                       2.000000  2.000000  2.000000  2.000000  2.000000  2.000000
                       2.000000  2.000000  2.000000  2.000000  2.000000  2.000000
                       0.000000  0.000000
         rmm_diis        1
            rprim      5.0000000000E-01 -8.6602540378E-01  0.0000000000E+00
                       5.0000000000E-01  8.6602540378E-01  0.0000000000E+00
                       0.0000000000E+00  0.0000000000E+00  1.0000000000E+00
          spgroup         154
           symrel      1  0  0   0  1  0   0  0  1       1  0  0  -1 -1  0   0  0 -1
                       0  1  0  -1 -1  0   0  0  1       0  1  0   1  0  0   0  0 -1
                      -1 -1  0   1  0  0   0  0  1      -1 -1  0   0  1  0   0  0 -1
            tnons      0.0000000  0.0000000  0.0000000     0.0000000  0.0000000  0.0000000
                       0.0000000  0.0000000 -0.3333333     0.0000000  0.0000000 -0.3333333
                       0.0000000  0.0000000  0.3333333     0.0000000  0.0000000  0.3333333
           tolvrs      1.00000000E-08
            typat      1  1  1  2  2  2  2  2  2
           useylm1          0
           useylm2          1
              wtk        0.12500    0.37500    0.12500    0.37500
           xangst      1.1422818000E+00 -1.9784901142E+00  0.0000000000E+00
                       1.1422818000E+00  1.9784901142E+00  3.6030866667E+00
                      -2.2845636000E+00  0.0000000000E+00  1.8015433333E+00
                       1.6876292400E+00 -6.0843889532E-01  6.4855560000E-01
                      -1.3707381600E+00 -1.1573103463E+00  2.4500989333E+00
                      -3.1689108000E-01  1.7657492417E+00  4.2516422667E+00
                      -3.1689108000E-01 -1.7657492417E+00 -6.4855560000E-01
                       1.6876292400E+00  6.0843889532E-01  2.9545310667E+00
                      -1.3707381600E+00  1.1573103463E+00  1.1529877333E+00
            xcart      2.1585997686E+00 -3.7388044724E+00  0.0000000000E+00
                       2.1585997686E+00  3.7388044724E+00  6.8088470331E+00
                      -4.3171995372E+00  0.0000000000E+00  3.4044235165E+00
                       3.1891570774E+00 -1.1497828807E+00  1.2255924659E+00
                      -2.5903197223E+00 -2.1869996053E+00  4.6300159825E+00
                      -5.9883735515E-01  3.3367824861E+00  8.0344394990E+00
                      -5.9883735515E-01 -3.3367824861E+00 -1.2255924659E+00
                       3.1891570774E+00  1.1497828807E+00  5.5832545671E+00
                      -2.5903197223E+00  2.1869996053E+00  2.1788310506E+00
             xred      4.6500000000E-01  0.0000000000E+00  0.0000000000E+00
                       0.0000000000E+00  4.6500000000E-01  6.6666666667E-01
                      -4.6500000000E-01 -4.6500000000E-01  3.3333333333E-01
                       4.1500000000E-01  2.7200000000E-01  1.2000000000E-01
                      -1.4300000000E-01 -4.1500000000E-01  4.5333333333E-01
                      -2.7200000000E-01  1.4300000000E-01  7.8666666667E-01
                       1.4300000000E-01 -2.7200000000E-01 -1.2000000000E-01
                       2.7200000000E-01  4.1500000000E-01  5.4666666667E-01
                      -4.1500000000E-01 -1.4300000000E-01  2.1333333333E-01
            znucl       14.00000    8.00000

================================================================================

 chkinp: Checking input parameters for consistency, jdtset=   1.

 chkinp: Checking input parameters for consistency, jdtset=   2.

================================================================================
== DATASET  1 ==================================================================
-   mpi_nproc: 1, omp_nthreads: -1 (-1 if OMP is not activated)


--- !DatasetInfo
iteration_state: {dtset: 1, }
dimensions: {natom: 9, nkpt: 4, mband: 32, nsppol: 1, nspinor: 1, nspden: 1, mpw: 2286, }
cutoff_energies: {ecut:  25.0, pawecutdg:  -1.0, }
electrons: {nelect:   4.80000000E+01, charge:   0.00000000E+00, occopt:   1.00000000E+00, tsmear:   1.00000000E-02, }
meta: {optdriver: 0, ionmov: 0, optcell: 0, iscf: 7, paral_kgb: 0, }
...

 Real(R)+Recip(G) space primitive vectors, cartesian coordinates (Bohr,Bohr^-1):
 R(1)=  4.6421500 -8.0404397  0.0000000  G(1)=  0.1077087 -0.0621857  0.0000000
 R(2)=  4.6421500  8.0404397  0.0000000  G(2)=  0.1077087  0.0621857  0.0000000
 R(3)=  0.0000000  0.0000000 10.2132705  G(3)=  0.0000000  0.0000000  0.0979118
 Unit cell volume ucvol=  7.6241917E+02 bohr^3
 Angles (23,13,12)=  9.00000000E+01  9.00000000E+01  1.20000000E+02 degrees

 getcut: wavevector=  0.0000  0.0000  0.0000  ngfft=  45  45  48
         ecut(hartree)=     25.000   => boxcut(ratio)=   2.08805

--- Pseudopotential description ------------------------------------------------
- pspini: atom type   1  psp file is /Users/gmatteo/git_repos/abinit_quick_prs/tests/Psps_for_tests/Pseudodojo_nc_sr_04_pbe_standard_psp8/Si.upf
- pspatm: opening atomic psp file    /Users/gmatteo/git_repos/abinit_quick_prs/tests/Psps_for_tests/Pseudodojo_nc_sr_04_pbe_standard_psp8/Si.upf
- Si Generated using ONCVPSP code by D. R. Hamann
- 14.00000   4.00000  171031                  znucl, zion, pspdat
12 -101130 2 -1 1510                          pspcod,pspxc,lmax,lloc,mmax
     nproj     2     2     2
  pspatm : epsatm=    9.34293668
         --- l  ekb(1:nproj) -->
             0    5.168965    0.829883
             1    2.571282    0.578307
             2   -2.427311   -0.488097
 pspatm: atomic psp has been read  and splines computed

- pspini: atom type   2  psp file is /Users/gmatteo/git_repos/abinit_quick_prs/tests/Psps_for_tests/Pseudodojo_nc_sr_04_pbe_standard_psp8/O.upf
- pspatm: opening atomic psp file    /Users/gmatteo/git_repos/abinit_quick_prs/tests/Psps_for_tests/Pseudodojo_nc_sr_04_pbe_standard_psp8/O.upf
- O Generated using ONCVPSP code by D. R. Hamann
-  8.00000   6.00000  171031                  znucl, zion, pspdat
12 -101130 2 -1 936                           pspcod,pspxc,lmax,lloc,mmax
     nproj     2     2     1
  pspatm : epsatm=    6.19432686
         --- l  ekb(1:nproj) -->
             0    6.056735    0.824024
             1   -4.717130   -1.149271
             2   -1.331955
 pspatm: atomic psp has been read  and splines computed

   3.12934902E+03                                ecore*ucvol(ha*bohr**3)
--------------------------------------------------------------------------------

_setup2: Arith. and geom. avg. npw (full set) are    4540.125    4540.101

================================================================================

--- !BeginCycle
iteration_state: {dtset: 1, }
solver: {iscf: 7, nstep: 20, nline: 4, wfoptalg: 0, }
tolerances: {tolvrs: 1.00E-08, }
...

     iter   Etot(hartree)      deltaE(h)  residm     vres2
 ETOT  1  -111.69224745372    -1.117E+02 6.051E-02 8.016E+02
 ETOT  2  -111.70473037129    -1.248E-02 1.017E-02 8.016E+02
 ETOT  3  -112.21091967416    -5.062E-01 6.463E-03 6.327E+00
 ETOT  4  -112.21445902655    -3.539E-03 4.799E-03 4.777E-02
 ETOT  5  -112.21455405525    -9.503E-05 6.444E-04 1.871E-03
 ETOT  6  -112.21446314749     9.091E-05 3.181E-04 8.659E-05
 ETOT  7  -112.21447018396    -7.036E-06 8.843E-04 1.062E-05
 ETOT  8  -112.21447018989    -5.929E-09 7.119E-05 1.086E-07
 ETOT  9  -112.21447019010    -2.048E-10 7.052E-05 5.553E-08
 ETOT 10  -112.21447019014    -3.773E-11 7.051E-05 3.320E-09

 At SCF step   10       vres2   =  3.32E-09 < tolvrs=  1.00E-08 =>converged.

 Cartesian components of stress tensor (hartree/bohr^3)
  sigma(1 1)=  7.24815721E-04  sigma(3 2)=  0.00000000E+00
  sigma(2 2)=  7.24815721E-04  sigma(3 1)=  0.00000000E+00
  sigma(3 3)=  6.76467498E-04  sigma(2 1)=  0.00000000E+00


--- !ResultsGS
iteration_state: {dtset: 1, }
comment   : Summary of ground state results
lattice_vectors:
- [  4.6421500,  -8.0404397,   0.0000000, ]
- [  4.6421500,   8.0404397,   0.0000000, ]
- [  0.0000000,   0.0000000,  10.2132705, ]
lattice_lengths: [   9.28430,    9.28430,   10.21327, ]
lattice_angles: [ 90.000,  90.000, 120.000, ] # degrees, (23, 13, 12)
lattice_volume:   7.6241917E+02
convergence: {deltae: -3.773E-11, res2:  3.320E-09, residm:  7.051E-05, diffor: null, }
etotal    :  -1.12214470E+02
entropy   :   0.00000000E+00
fermie    :   7.27340979E-03
cartesian_stress_tensor: # hartree/bohr^3
- [  7.24815721E-04,   0.00000000E+00,   0.00000000E+00, ]
- [  0.00000000E+00,   7.24815721E-04,   0.00000000E+00, ]
- [  0.00000000E+00,   0.00000000E+00,   6.76467498E-04, ]
pressure_GPa:  -2.0851E+01
xred      :
- [  4.6500E-01,   0.0000E+00,   0.0000E+00, Si]
- [  0.0000E+00,   4.6500E-01,   6.6667E-01, Si]
- [ -4.6500E-01,  -4.6500E-01,   3.3333E-01, Si]
- [  4.1500E-01,   2.7200E-01,   1.2000E-01,  O]
- [ -1.4300E-01,  -4.1500E-01,   4.5333E-01,  O]
- [ -2.7200E-01,   1.4300E-01,   7.8667E-01,  O]
- [  1.4300E-01,  -2.7200E-01,  -1.2000E-01,  O]
- [  2.7200E-01,   4.1500E-01,   5.4667E-01,  O]
- [ -4.1500E-01,  -1.4300E-01,   2.1333E-01,  O]
cartesian_forces: # hartree/bohr
- [ -7.11305735E-04,   1.23201767E-03,   3.85500320E-19, ]
- [ -7.11305735E-04,  -1.23201767E-03,   3.85494106E-19, ]
- [  1.42261147E-03,   2.04793744E-19,   3.85494106E-19, ]
- [ -7.89158003E-03,   1.11564729E-03,  -9.21710639E-03, ]
- [  4.91196892E-03,   6.27648514E-03,  -9.21710639E-03, ]
- [  2.97961112E-03,  -7.39213243E-03,  -9.21710639E-03, ]
- [  2.97961112E-03,   7.39213243E-03,   9.21710639E-03, ]
- [ -7.89158003E-03,  -1.11564729E-03,   9.21710639E-03, ]
- [  4.91196892E-03,  -6.27648514E-03,   9.21710639E-03, ]
force_length_stats: {min:   1.42261147E-03, max:   1.21851038E-02, mean:   8.59760635E-03, }
...

 Integrated electronic density in atomic spheres:
 ------------------------------------------------
 Atom  Sphere_radius  Integrated_density
    1        2.00000          2.40824299
    2        2.00000          2.40824299
    3        2.00000          2.40824299
    4        2.00000          6.55539865
    5        2.00000          6.55539865
    6        2.00000          6.55539865
    7        2.00000          6.55539865
    8        2.00000          6.55539865
    9        2.00000          6.55539865
================================================================================

 ----iterations are completed or convergence reached----

 Mean square residual over all n,k,spin=   26.432E-07; max=  70.509E-06
 reduced coordinates (array xred) for    9 atoms
       0.465000000000      0.000000000000      0.000000000000
       0.000000000000      0.465000000000      0.666666666667
      -0.465000000000     -0.465000000000      0.333333333333
       0.415000000000      0.272000000000      0.120000000000
      -0.143000000000     -0.415000000000      0.453333333333
      -0.272000000000      0.143000000000      0.786666666667
       0.143000000000     -0.272000000000     -0.120000000000
       0.272000000000      0.415000000000      0.546666666667
      -0.415000000000     -0.143000000000      0.213333333333
 rms dE/dt=  5.6616E-02; max dE/dt=  9.4137E-02; dE/dt below (all hartree)
    1       0.013207951776     -0.006603975888     -0.000000000000
    2      -0.006603975888      0.013207951776      0.000000000000
    3      -0.006603975888     -0.006603975888      0.000000000000
    4       0.045604193393      0.027663603735      0.094136801258
    5       0.027663603735     -0.073267797129      0.094136801258
    6      -0.073267797129      0.045604193393      0.094136801258
    7       0.045604193393     -0.073267797129     -0.094136801258
    8       0.027663603735      0.045604193393     -0.094136801258
    9      -0.073267797129      0.027663603735     -0.094136801258

 cartesian coordinates (angstrom) at end:
    1      1.14228180000000    -1.97849011415109     0.00000000000000
    2      1.14228180000000     1.97849011415109     3.60308666666667
    3     -2.28456360000000     0.00000000000000     1.80154333333333
    4      1.68762924000000    -0.60843889531958     0.64855560000000
    5     -1.37073816000000    -1.15731034634214     2.45009893333333
    6     -0.31689108000000     1.76574924166173     4.25164226666667
    7     -0.31689108000000    -1.76574924166173    -0.64855560000000
    8      1.68762924000000     0.60843889531958     2.95453106666667
    9     -1.37073816000000     1.15731034634214     1.15298773333333

 cartesian forces (hartree/bohr) at end:
    1     -0.00071130573456     0.00123201767198     0.00000000000000
    2     -0.00071130573456    -0.00123201767198     0.00000000000000
    3      0.00142261146912     0.00000000000000     0.00000000000000
    4     -0.00789158003275     0.00111564729483    -0.00921710639121
    5      0.00491196891535     0.00627648513698    -0.00921710639121
    6      0.00297961111739    -0.00739213243181    -0.00921710639121
    7      0.00297961111739     0.00739213243181     0.00921710639121
    8     -0.00789158003275    -0.00111564729483     0.00921710639121
    9      0.00491196891535    -0.00627648513698     0.00921710639121
 frms,max,avg= 5.7636537E-03 9.2171064E-03   0.000E+00  0.000E+00  0.000E+00 h/b

 cartesian forces (eV/Angstrom) at end:
    1     -0.03657680843148     0.06335289058236     0.00000000000000
    2     -0.03657680843148    -0.06335289058236     0.00000000000000
    3      0.07315361686296     0.00000000000000     0.00000000000000
    4     -0.40580132713040     0.05736888569482    -0.47396262729809
    5      0.25258357596347     0.32274981533876    -0.47396262729809
    6      0.15321775116693    -0.38011870103358    -0.47396262729809
    7      0.15321775116693     0.38011870103358     0.47396262729809
    8     -0.40580132713040    -0.05736888569482     0.47396262729809
    9      0.25258357596347    -0.32274981533876     0.47396262729809
 frms,max,avg= 2.9637896E-01 4.7396263E-01   0.000E+00  0.000E+00  0.000E+00 e/A
 length scales=  9.284300079912  9.284300079912 10.213270549578 bohr
              =  4.913040000000  4.913040000000  5.404630000000 angstroms
 prteigrs : about to open file t130o_DS1_EIG
 Fermi (or HOMO) energy (hartree) =   0.00727   Average Vxc (hartree)=  -0.33742
 Eigenvalues (hartree) for nkpt=   4  k points:
 kpt#   1, nband= 32, wtk=  0.12500, kpt=  0.0000  0.0000  0.0000 (reduced coord)
  -0.70743   -0.65178   -0.65178   -0.62812   -0.62674   -0.62674   -0.29598   -0.29598
  -0.19354   -0.19078   -0.18500   -0.18500   -0.10005   -0.10004   -0.08998   -0.08377
  -0.04849   -0.04849   -0.04491   -0.02856   -0.02856   -0.01733   -0.00211   -0.00211
   0.22797    0.35176    0.35176    0.36702    0.36704    0.40587    0.44269    0.46052
 prteigrs : prtvol=0 or 1, do not print more k-points.


--- !EnergyTerms
iteration_state     : {dtset: 1, }
comment             : Components of total free energy in Hartree
kinetic             :  7.28797456270753E+01
hartree             :  3.85048226085173E+01
xc                  : -3.03286340756463E+01
Ewald energy        : -6.95068319280861E+01
psp_core            :  4.10449940422950E+00
local_psp           : -1.13487464000640E+02
non_local_psp       : -1.43806078255852E+01
total_energy        : -1.12214470190136E+02
total_energy_eV     : -3.05351102299031E+03
band_energy         : -1.16846269250876E+01
...


 Cartesian components of stress tensor (hartree/bohr^3)
  sigma(1 1)=  7.24815721E-04  sigma(3 2)=  0.00000000E+00
  sigma(2 2)=  7.24815721E-04  sigma(3 1)=  0.00000000E+00
  sigma(3 3)=  6.76467498E-04  sigma(2 1)=  0.00000000E+00

-Cartesian components of stress tensor (GPa)         [Pressure= -2.0851E+01 GPa]
- sigma(1 1)=  2.13248112E+01  sigma(3 2)=  0.00000000E+00
- sigma(2 2)=  2.13248112E+01  sigma(3 1)=  0.00000000E+00
- sigma(3 3)=  1.99023576E+01  sigma(2 1)=  0.00000000E+00

================================================================================
== DATASET  2 ==================================================================
-   mpi_nproc: 1, omp_nthreads: -1 (-1 if OMP is not activated)


--- !DatasetInfo
iteration_state: {dtset: 2, }
dimensions: {natom: 9, nkpt: 4, mband: 26, nsppol: 1, nspinor: 1, nspden: 1, mpw: 2286, }
cutoff_energies: {ecut:  25.0, pawecutdg:  -1.0, }
electrons: {nelect:   4.80000000E+01, charge:   0.00000000E+00, occopt:   1.00000000E+00, tsmear:   1.00000000E-02, }
meta: {optdriver: 0, ionmov: 0, optcell: 0, iscf: 7, paral_kgb: 0, }
...

 mkfilename : getwfk/=0, take file _WFK from output of DATASET   1.

 Real(R)+Recip(G) space primitive vectors, cartesian coordinates (Bohr,Bohr^-1):
 R(1)=  4.6421500 -8.0404397  0.0000000  G(1)=  0.1077087 -0.0621857  0.0000000
 R(2)=  4.6421500  8.0404397  0.0000000  G(2)=  0.1077087  0.0621857  0.0000000
 R(3)=  0.0000000  0.0000000 10.2132705  G(3)=  0.0000000  0.0000000  0.0979118
 Unit cell volume ucvol=  7.6241917E+02 bohr^3
 Angles (23,13,12)=  9.00000000E+01  9.00000000E+01  1.20000000E+02 degrees

 getcut: wavevector=  0.0000  0.0000  0.0000  ngfft=  45  45  48
         ecut(hartree)=     25.000   => boxcut(ratio)=   2.08805

--- Pseudopotential description ------------------------------------------------
- pspini: atom type   1  psp file is /Users/gmatteo/git_repos/abinit_quick_prs/tests/Psps_for_tests/Pseudodojo_nc_sr_04_pbe_standard_psp8/Si.upf
- pspatm: opening atomic psp file    /Users/gmatteo/git_repos/abinit_quick_prs/tests/Psps_for_tests/Pseudodojo_nc_sr_04_pbe_standard_psp8/Si.upf
- Si Generated using ONCVPSP code by D. R. Hamann
- 14.00000   4.00000  171031                  znucl, zion, pspdat
12 -101130 2 -1 1510                          pspcod,pspxc,lmax,lloc,mmax
     nproj     2     2     2
  pspatm : epsatm=    9.34293668
         --- l  ekb(1:nproj) -->
             0    5.168965    0.829883
             1    2.571282    0.578307
             2   -2.427311   -0.488097
 pspatm: atomic psp has been read  and splines computed

- pspini: atom type   2  psp file is /Users/gmatteo/git_repos/abinit_quick_prs/tests/Psps_for_tests/Pseudodojo_nc_sr_04_pbe_standard_psp8/O.upf
- pspatm: opening atomic psp file    /Users/gmatteo/git_repos/abinit_quick_prs/tests/Psps_for_tests/Pseudodojo_nc_sr_04_pbe_standard_psp8/O.upf
- O Generated using ONCVPSP code by D. R. Hamann
-  8.00000   6.00000  171031                  znucl, zion, pspdat
12 -101130 2 -1 936                           pspcod,pspxc,lmax,lloc,mmax
     nproj     2     2     1
  pspatm : epsatm=    6.19432686
         --- l  ekb(1:nproj) -->
             0    6.056735    0.824024
             1   -4.717130   -1.149271
             2   -1.331955
 pspatm: atomic psp has been read  and splines computed

--------------------------------------------------------------------------------

-inwffil : will read wavefunctions from disk file t130o_DS1_WFK
_setup2: Arith. and geom. avg. npw (full set) are    4540.125    4540.101

================================================================================

--- !BeginCycle
iteration_state: {dtset: 2, }
solver: {iscf: 7, nstep: 20, nline: 4, wfoptalg: 0, }
tolerances: {tolvrs: 1.00E-08, }
...

     iter   Etot(hartree)      deltaE(h)  residm     vres2
 ETOT  1  -112.21447019016    -1.122E+02 1.673E-09 1.062E-08
 ETOT  2  -112.21447019015     3.539E-12 2.466E-10 1.243E-08
 ETOT  3  -112.21447019016    -8.768E-12 1.375E-10 2.727E-12

 At SCF step    3       vres2   =  2.73E-12 < tolvrs=  1.00E-08 =>converged.

 Cartesian components of stress tensor (hartree/bohr^3)
  sigma(1 1)=  7.24825840E-04  sigma(3 2)=  0.00000000E+00
  sigma(2 2)=  7.24825840E-04  sigma(3 1)=  0.00000000E+00
  sigma(3 3)=  6.76477456E-04  sigma(2 1)=  0.00000000E+00


--- !ResultsGS
iteration_state: {dtset: 2, }
comment   : Summary of ground state results
lattice_vectors:
- [  4.6421500,  -8.0404397,   0.0000000, ]
- [  4.6421500,   8.0404397,   0.0000000, ]
- [  0.0000000,   0.0000000,  10.2132705, ]
lattice_lengths: [   9.28430,    9.28430,   10.21327, ]
lattice_angles: [ 90.000,  90.000, 120.000, ] # degrees, (23, 13, 12)
lattice_volume:   7.6241917E+02
convergence: {deltae: -8.768E-12, res2:  2.727E-12, residm:  1.375E-10, diffor: null, }
etotal    :  -1.12214470E+02
entropy   :   0.00000000E+00
fermie    :   7.27345456E-03
cartesian_stress_tensor: # hartree/bohr^3
- [  7.24825840E-04,   0.00000000E+00,   0.00000000E+00, ]
- [  0.00000000E+00,   7.24825840E-04,   0.00000000E+00, ]
- [  0.00000000E+00,   0.00000000E+00,   6.76477456E-04, ]
pressure_GPa:  -2.0851E+01
xred      :
- [  4.6500E-01,   0.0000E+00,   0.0000E+00, Si]
- [  0.0000E+00,   4.6500E-01,   6.6667E-01, Si]
- [ -4.6500E-01,  -4.6500E-01,   3.3333E-01, Si]
- [  4.1500E-01,   2.7200E-01,   1.2000E-01,  O]
- [ -1.4300E-01,  -4.1500E-01,   4.5333E-01,  O]
- [ -2.7200E-01,   1.4300E-01,   7.8667E-01,  O]
- [  1.4300E-01,  -2.7200E-01,  -1.2000E-01,  O]
- [  2.7200E-01,   4.1500E-01,   5.4667E-01,  O]
- [ -4.1500E-01,  -1.4300E-01,   2.1333E-01,  O]
cartesian_forces: # hartree/bohr
- [ -7.11277788E-04,   1.23196927E-03,  -3.85494501E-19, ]
- [ -7.11277788E-04,  -1.23196927E-03,  -3.85494106E-19, ]
- [  1.42255558E-03,  -1.62630326E-19,  -3.85494106E-19, ]
- [ -7.89138251E-03,   1.11551048E-03,  -9.21688641E-03, ]
- [  4.91175167E-03,   6.27638249E-03,  -9.21688641E-03, ]
- [  2.97963085E-03,  -7.39189297E-03,  -9.21688641E-03, ]
- [  2.97963085E-03,   7.39189297E-03,   9.21688641E-03, ]
- [ -7.89138251E-03,  -1.11551048E-03,   9.21688641E-03, ]
- [  4.91175167E-03,  -6.27638249E-03,   9.21688641E-03, ]
force_length_stats: {min:   1.42255558E-03, max:   1.21847970E-02, mean:   8.59738316E-03, }
...

 Integrated electronic density in atomic spheres:
 ------------------------------------------------
 Atom  Sphere_radius  Integrated_density
    1        2.00000          2.40824367
    2        2.00000          2.40824367
    3        2.00000          2.40824367
    4        2.00000          6.55539791
    5        2.00000          6.55539791
    6        2.00000          6.55539791
    7        2.00000          6.55539791
    8        2.00000          6.55539791
    9        2.00000          6.55539791
================================================================================

 ----iterations are completed or convergence reached----

 Mean square residual over all n,k,spin=   13.778E-13; max=  13.747E-11
 reduced coordinates (array xred) for    9 atoms
       0.465000000000      0.000000000000      0.000000000000
       0.000000000000      0.465000000000      0.666666666667
      -0.465000000000     -0.465000000000      0.333333333333
       0.415000000000      0.272000000000      0.120000000000
      -0.143000000000     -0.415000000000      0.453333333333
      -0.272000000000      0.143000000000      0.786666666667
       0.143000000000     -0.272000000000     -0.120000000000
       0.272000000000      0.415000000000      0.546666666667
      -0.415000000000     -0.143000000000      0.213333333333
 rms dE/dt=  5.6615E-02; max dE/dt=  9.4135E-02; dE/dt below (all hartree)
    1       0.013207432842     -0.006603716421      0.000000000000
    2      -0.006603716421      0.013207432842      0.000000000000
    3      -0.006603716421     -0.006603716421      0.000000000000
    4       0.045602176413      0.027663786900      0.094134554572
    5       0.027663786900     -0.073265963312      0.094134554572
    6      -0.073265963312      0.045602176413      0.094134554572
    7       0.045602176413     -0.073265963312     -0.094134554572
    8       0.027663786900      0.045602176413     -0.094134554572
    9      -0.073265963312      0.027663786900     -0.094134554572

 cartesian coordinates (angstrom) at end:
    1      1.14228180000000    -1.97849011415109     0.00000000000000
    2      1.14228180000000     1.97849011415109     3.60308666666667
    3     -2.28456360000000     0.00000000000000     1.80154333333333
    4      1.68762924000000    -0.60843889531958     0.64855560000000
    5     -1.37073816000000    -1.15731034634214     2.45009893333333
    6     -0.31689108000000     1.76574924166173     4.25164226666667
    7     -0.31689108000000    -1.76574924166173    -0.64855560000000
    8      1.68762924000000     0.60843889531958     2.95453106666667
    9     -1.37073816000000     1.15731034634214     1.15298773333333

 cartesian forces (hartree/bohr) at end:
    1     -0.00071127778769     0.00123196926658    -0.00000000000000
    2     -0.00071127778769    -0.00123196926658    -0.00000000000000
    3      0.00142255557538    -0.00000000000000    -0.00000000000000
    4     -0.00789138251476     0.00111551047735    -0.00921688641411
    5      0.00491175166895     0.00627638249013    -0.00921688641411
    6      0.00297963084581    -0.00739189296748    -0.00921688641411
    7      0.00297963084581     0.00739189296748     0.00921688641411
    8     -0.00789138251476    -0.00111551047735     0.00921688641411
    9      0.00491175166895    -0.00627638249013     0.00921688641411
 frms,max,avg= 5.7635080E-03 9.2168864E-03   0.000E+00  0.000E+00  0.000E+00 h/b

 cartesian forces (eV/Angstrom) at end:
    1     -0.03657537134584     0.06335040147702    -0.00000000000000
    2     -0.03657537134584    -0.06335040147702    -0.00000000000000
    3      0.07315074269168    -0.00000000000000    -0.00000000000000
    4     -0.40579117034818     0.05736185025787    -0.47395131562169
    5      0.25257240470523     0.32274453702581    -0.47395131562169
    6      0.15321876564295    -0.38010638728368    -0.47395131562169
    7      0.15321876564295     0.38010638728368     0.47395131562169
    8     -0.40579117034818    -0.05736185025787     0.47395131562169
    9      0.25257240470523    -0.32274453702581     0.47395131562169
 frms,max,avg= 2.9637147E-01 4.7395132E-01   0.000E+00  0.000E+00  0.000E+00 e/A
 length scales=  9.284300079912  9.284300079912 10.213270549578 bohr
              =  4.913040000000  4.913040000000  5.404630000000 angstroms
 prteigrs : about to open file t130o_DS2_EIG
 Fermi (or HOMO) energy (hartree) =   0.00727   Average Vxc (hartree)=  -0.33742
 Eigenvalues (hartree) for nkpt=   4  k points:
 kpt#   1, nband= 26, wtk=  0.12500, kpt=  0.0000  0.0000  0.0000 (reduced coord)
  -0.70743   -0.65178   -0.65178   -0.62812   -0.62674   -0.62674   -0.29598   -0.29598
  -0.19354   -0.19078   -0.18500   -0.18500   -0.10005   -0.10004   -0.08998   -0.08377
  -0.04849   -0.04849   -0.04491   -0.02856   -0.02856   -0.01733   -0.00211   -0.00211
   0.22797    0.35176
 prteigrs : prtvol=0 or 1, do not print more k-points.


--- !EnergyTerms
iteration_state     : {dtset: 2, }
comment             : Components of total free energy in Hartree
kinetic             :  7.28797240662758E+01
hartree             :  3.85048079180627E+01
xc                  : -3.03286304606990E+01
Ewald energy        : -6.95068319280861E+01
psp_core            :  4.10449940422950E+00
local_psp           : -1.13487440430581E+02
non_local_psp       : -1.43805987593632E+01
total_energy        : -1.12214470190161E+02
total_energy_eV     : -3.05351102299099E+03
band_energy         : -1.16846259836337E+01
...


 Cartesian components of stress tensor (hartree/bohr^3)
  sigma(1 1)=  7.24825840E-04  sigma(3 2)=  0.00000000E+00
  sigma(2 2)=  7.24825840E-04  sigma(3 1)=  0.00000000E+00
  sigma(3 3)=  6.76477456E-04  sigma(2 1)=  0.00000000E+00

-Cartesian components of stress tensor (GPa)         [Pressure= -2.0851E+01 GPa]
- sigma(1 1)=  2.13251089E+01  sigma(3 2)=  0.00000000E+00
- sigma(2 2)=  2.13251089E+01  sigma(3 1)=  0.00000000E+00
- sigma(3 3)=  1.99026505E+01  sigma(2 1)=  0.00000000E+00

== END DATASET(S) ==============================================================
================================================================================
  
 -outvars: echo values of variables after computation  --------
            acell      9.2843000799E+00  9.2843000799E+00  1.0213270550E+01 Bohr
              amu      2.80855000E+01  1.59994000E+01
           diemac      4.00000000E+00
             ecut      2.50000000E+01 Hartree
           etotal1    -1.1221447019E+02
           etotal2    -1.1221447019E+02
            fcart1    -7.1130573456E-04  1.2320176720E-03  3.8550032019E-19
                      -7.1130573456E-04 -1.2320176720E-03  3.8549410577E-19
                       1.4226114691E-03  2.0479374369E-19  3.8549410577E-19
                      -7.8915800327E-03  1.1156472948E-03 -9.2171063912E-03
                       4.9119689154E-03  6.2764851370E-03 -9.2171063912E-03
                       2.9796111174E-03 -7.3921324318E-03 -9.2171063912E-03
                       2.9796111174E-03  7.3921324318E-03  9.2171063912E-03
                      -7.8915800327E-03 -1.1156472948E-03  9.2171063912E-03
                       4.9119689154E-03 -6.2764851370E-03  9.2171063912E-03
            fcart2    -7.1127778769E-04  1.2319692666E-03 -3.8549450104E-19
                      -7.1127778769E-04 -1.2319692666E-03 -3.8549410577E-19
                       1.4225555754E-03 -1.6263032587E-19 -3.8549410577E-19
                      -7.8913825148E-03  1.1155104773E-03 -9.2168864141E-03
                       4.9117516689E-03  6.2763824901E-03 -9.2168864141E-03
                       2.9796308458E-03 -7.3918929675E-03 -9.2168864141E-03
                       2.9796308458E-03  7.3918929675E-03  9.2168864141E-03
                      -7.8913825148E-03 -1.1155104773E-03  9.2168864141E-03
                       4.9117516689E-03 -6.2763824901E-03  9.2168864141E-03
-          fftalg         312
           getwfk1          0
           getwfk2         -1
           istwfk        2    3    4    5
              ixc     -101130
           jdtset        1    2
              kpt      0.00000000E+00  0.00000000E+00  0.00000000E+00
                       5.00000000E-01  0.00000000E+00  0.00000000E+00
                       0.00000000E+00  0.00000000E+00  5.00000000E-01
                       5.00000000E-01  0.00000000E+00  5.00000000E-01
         kptrlatt        2    0    0      0    2    0      0    0    2
          kptrlen      1.85686002E+01
P           mkmem           4
            natom           9
            nband1         32
            nband2         26
           ndtset           2
            ngfft          45      45      48
             nkpt           4
            nstep          20
             nsym           6
           ntypat           2
              occ1     2.000000  2.000000  2.000000  2.000000  2.000000  2.000000
                       2.000000  2.000000  2.000000  2.000000  2.000000  2.000000
                       2.000000  2.000000  2.000000  2.000000  2.000000  2.000000
                       2.000000  2.000000  2.000000  2.000000  2.000000  2.000000
                       0.000000  0.000000  0.000000  0.000000  0.000000  0.000000
                       0.000000  0.000000
              occ2     2.000000  2.000000  2.000000  2.000000  2.000000  2.000000
                       2.000000  2.000000  2.000000  2.000000  2.000000  2.000000
                       2.000000  2.000000  2.000000  2.000000  2.000000  2.000000
                       2.000000  2.000000  2.000000  2.000000  2.000000  2.000000
                       0.000000  0.000000
         rmm_diis        1
            rprim      5.0000000000E-01 -8.6602540378E-01  0.0000000000E+00
                       5.0000000000E-01  8.6602540378E-01  0.0000000000E+00
                       0.0000000000E+00  0.0000000000E+00  1.0000000000E+00
          spgroup         154
           strten1     7.2481572126E-04  7.2481572132E-04  6.7646749826E-04
                       0.0000000000E+00  0.0000000000E+00  0.0000000000E+00
           strten2     7.2482584037E-04  7.2482584043E-04  6.7647745595E-04
                       0.0000000000E+00  0.0000000000E+00  0.0000000000E+00
           symrel      1  0  0   0  1  0   0  0  1       1  0  0  -1 -1  0   0  0 -1
                       0  1  0  -1 -1  0   0  0  1       0  1  0   1  0  0   0  0 -1
                      -1 -1  0   1  0  0   0  0  1      -1 -1  0   0  1  0   0  0 -1
            tnons      0.0000000  0.0000000  0.0000000     0.0000000  0.0000000  0.0000000
                       0.0000000  0.0000000 -0.3333333     0.0000000  0.0000000 -0.3333333
                       0.0000000  0.0000000  0.3333333     0.0000000  0.0000000  0.3333333
           tolvrs      1.00000000E-08
            typat      1  1  1  2  2  2  2  2  2
           useylm1          0
           useylm2          1
              wtk        0.12500    0.37500    0.12500    0.37500
           xangst      1.1422818000E+00 -1.9784901142E+00  0.0000000000E+00
                       1.1422818000E+00  1.9784901142E+00  3.6030866667E+00
                      -2.2845636000E+00  0.0000000000E+00  1.8015433333E+00
                       1.6876292400E+00 -6.0843889532E-01  6.4855560000E-01
                      -1.3707381600E+00 -1.1573103463E+00  2.4500989333E+00
                      -3.1689108000E-01  1.7657492417E+00  4.2516422667E+00
                      -3.1689108000E-01 -1.7657492417E+00 -6.4855560000E-01
                       1.6876292400E+00  6.0843889532E-01  2.9545310667E+00
                      -1.3707381600E+00  1.1573103463E+00  1.1529877333E+00
            xcart      2.1585997686E+00 -3.7388044724E+00  0.0000000000E+00
                       2.1585997686E+00  3.7388044724E+00  6.8088470331E+00
                      -4.3171995372E+00  0.0000000000E+00  3.4044235165E+00
                       3.1891570774E+00 -1.1497828807E+00  1.2255924659E+00
                      -2.5903197223E+00 -2.1869996053E+00  4.6300159825E+00
                      -5.9883735515E-01  3.3367824861E+00  8.0344394990E+00
                      -5.9883735515E-01 -3.3367824861E+00 -1.2255924659E+00
                       3.1891570774E+00  1.1497828807E+00  5.5832545671E+00
                      -2.5903197223E+00  2.1869996053E+00  2.1788310506E+00
             xred      4.6500000000E-01  0.0000000000E+00  0.0000000000E+00
                       0.0000000000E+00  4.6500000000E-01  6.6666666667E-01
                      -4.6500000000E-01 -4.6500000000E-01  3.3333333333E-01
                       4.1500000000E-01  2.7200000000E-01  1.2000000000E-01
                      -1.4300000000E-01 -4.1500000000E-01  4.5333333333E-01
                      -2.7200000000E-01  1.4300000000E-01  7.8666666667E-01
                       1.4300000000E-01 -2.7200000000E-01 -1.2000000000E-01
                       2.7200000000E-01  4.1500000000E-01  5.4666666667E-01
                      -4.1500000000E-01 -1.4300000000E-01  2.1333333333E-01
            znucl       14.00000    8.00000

================================================================================


- Timing analysis has been suppressed with timopt=0



================================================================================

 Suggested references for the acknowledgment of ABINIT usage.

 The users of ABINIT have little formal obligations with respect to the ABINIT group
 (those specified in the GNU General Public License, http://www.gnu.org/copyleft/gpl.txt).
 However, it is common practice in the scientific literature,
 to acknowledge the efforts of people that have made the research possible.
 In this spirit, please find below suggested citations of work written by ABINIT developers,
 corresponding to implementations inside of ABINIT that you have used in the present run.
 Note also that it will be of great value to readers of publications presenting these results,
 to read papers enabling them to understand the theoretical formalism and details
 of the ABINIT implementation.
 For information on why they are suggested, see also https://docs.abinit.org/theory/acknowledgments.
-
- [1] Libxc: A library of exchange and correlation functionals for density functional theory.
- M.A.L. Marques, M.J.T. Oliveira, T. Burnus, Computer Physics Communications 183, 2227 (2012).
- Comment: to be cited when LibXC is used (negative value of ixc)
- Strong suggestion to cite this paper.
- DOI and bibtex: see https://docs.abinit.org/theory/bibliography/#marques2012
-
- [2] The Abinit project: Impact, environment and recent developments.
- Computer Phys. Comm. 248, 107042 (2020).
- X.Gonze, B. Amadon, G. Antonius, F.Arnardi, L.Baguet, J.-M.Beuken,
- J.Bieder, F.Bottin, J.Bouchet, E.Bousquet, N.Brouwer, F.Bruneval,
- G.Brunin, T.Cavignac, J.-B. Charraud, Wei Chen, M.Cote, S.Cottenier,
- J.Denier, G.Geneste, Ph.Ghosez, M.Giantomassi, Y.Gillet, O.Gingras,
- D.R.Hamann, G.Hautier, Xu He, N.Helbig, N.Holzwarth, Y.Jia, F.Jollet,
- W.Lafargue-Dit-Hauret, K.Lejaeghere, M.A.L.Marques, A.Martin, C.Martins,
- H.P.C. Miranda, F.Naccarato, K. Persson, G.Petretto, V.Planes, Y.Pouillon,
- S.Prokhorenko, F.Ricci, G.-M.Rignanese, A.H.Romero, M.M.Schmitt, M.Torrent,
- M.J.van Setten, B.Van Troeye, M.J.Verstraete, G.Zerah and J.W.Zwanzig
- Comment: the fifth generic paper describing the ABINIT project.
- Note that a version of this paper, that is not formatted for Computer Phys. Comm. 
- is available at https://www.abinit.org/sites/default/files/ABINIT20.pdf .
- The licence allows the authors to put it on the Web.
- DOI and bibtex: see https://docs.abinit.org/theory/bibliography/#gonze2020
-
- [3] ABINIT: Overview, and focus on selected capabilities
- J. Chem. Phys. 152, 124102 (2020).
- A. Romero, D.C. Allan, B. Amadon, G. Antonius, T. Applencourt, L.Baguet,
- J.Bieder, F.Bottin, J.Bouchet, E.Bousquet, F.Bruneval,
- G.Brunin, D.Caliste, M.Cote,
- J.Denier, C. Dreyer, Ph.Ghosez, M.Giantomassi, Y.Gillet, O.Gingras,
- D.R.Hamann, G.Hautier, F.Jollet, G. Jomard,
- A.Martin, 
- H.P.C. Miranda, F.Naccarato, G.Petretto, N.A. Pike, V.Planes,
- S.Prokhorenko, T. Rangel, F.Ricci, G.-M.Rignanese, M.Royo, M.Stengel, M.Torrent,
- M.J.van Setten, B.Van Troeye, M.J.Verstraete, J.Wiktor, J.W.Zwanziger, and X.Gonze.
- Comment: a global overview of ABINIT, with focus on selected capabilities .
- Note that a version of this paper, that is not formatted for J. Chem. Phys 
- is available at https://www.abinit.org/sites/default/files/ABINIT20_JPC.pdf .
- The licence allows the authors to put it on the Web.
- DOI and bibtex: see https://docs.abinit.org/theory/bibliography/#romero2020
-
- [4] Recent developments in the ABINIT software package.
- Computer Phys. Comm. 205, 106 (2016).
- X.Gonze, F.Jollet, F.Abreu Araujo, D.Adams, B.Amadon, T.Applencourt,
- C.Audouze, J.-M.Beuken, J.Bieder, A.Bokhanchuk, E.Bousquet, F.Bruneval
- D.Caliste, M.Cote, F.Dahm, F.Da Pieve, M.Delaveau, M.Di Gennaro,
- B.Dorado, C.Espejo, G.Geneste, L.Genovese, A.Gerossier, M.Giantomassi,
- Y.Gillet, D.R.Hamann, L.He, G.Jomard, J.Laflamme Janssen, S.Le Roux,
- A.Levitt, A.Lherbier, F.Liu, I.Lukacevic, A.Martin, C.Martins,
- M.J.T.Oliveira, S.Ponce, Y.Pouillon, T.Rangel, G.-M.Rignanese,
- A.H.Romero, B.Rousseau, O.Rubel, A.A.Shukri, M.Stankovski, M.Torrent,
- M.J.Van Setten, B.Van Troeye, M.J.Verstraete, D.Waroquier, J.Wiktor,
- B.Xu, A.Zhou, J.W.Zwanziger.
- Comment: the fourth generic paper describing the ABINIT project.
- Note that a version of this paper, that is not formatted for Computer Phys. Comm. 
- is available at https://www.abinit.org/sites/default/files/ABINIT16.pdf .
- The licence allows the authors to put it on the Web.
- DOI and bibtex: see https://docs.abinit.org/theory/bibliography/#gonze2016
-
- And optionally:
-
- [5] ABINIT: First-principles approach of materials and nanosystem properties.
- Computer Phys. Comm. 180, 2582-2615 (2009).
- X. Gonze, B. Amadon, P.-M. Anglade, J.-M. Beuken, F. Bottin, P. Boulanger, F. Bruneval,
- D. Caliste, R. Caracas, M. Cote, T. Deutsch, L. Genovese, Ph. Ghosez, M. Giantomassi
- S. Goedecker, D.R. Hamann, P. Hermet, F. Jollet, G. Jomard, S. Leroux, M. Mancini, S. Mazevet,
- M.J.T. Oliveira, G. Onida, Y. Pouillon, T. Rangel, G.-M. Rignanese, D. Sangalli, R. Shaltaf,
- M. Torrent, M.J. Verstraete, G. Zerah, J.W. Zwanziger
- Comment: the third generic paper describing the ABINIT project.
- Note that a version of this paper, that is not formatted for Computer Phys. Comm. 
- is available at https://www.abinit.org/sites/default/files/ABINIT_CPC_v10.pdf .
- The licence allows the authors to put it on the Web.
- DOI and bibtex: see https://docs.abinit.org/theory/bibliography/#gonze2009
-
- Proc.   0 individual time (sec): cpu=         27.1  wall=         27.2

================================================================================

 Calculation completed.
.Delivered   5 WARNINGs and   7 COMMENTs to log file.
+Overall time at end (sec) : cpu=         27.1  wall=         27.2
- [ALL OK] MEMORY CONSUMPTION REPORT FOR C CODE:
-   There were 160 allocations and 160 deallocations in C code
- [ALL OK] MEMORY CONSUMPTION REPORT FOR FORTRAN CODE:
-   There were 2424231 allocations and 2424231 deallocations in Fortran
-   Remaining memory at the end of the calculation is 0
