
.Version 9.9.3 of ABINIT 
.(MPI version, prepared for a x86_64_linux_gnu9.1 computer) 

.Copyright (C) 1998-2022 ABINIT group . 
 ABINIT comes with ABSOLUTELY NO WARRANTY.
 It is free software, and you are welcome to redistribute it
 under certain conditions (GNU General Public License,
 see ~abinit/COPYING or http://www.gnu.org/copyleft/gpl.txt).

 ABINIT is a project of the Universite Catholique de Louvain,
 Corning Inc. and other collaborators, see ~abinit/doc/developers/contributors.txt .
 Please read https://docs.abinit.org/theory/acknowledgments for suggested
 acknowledgments of the ABINIT effort.
 For more information, see https://www.abinit.org .

.Starting date : Tue 18 Apr 2023.
- ( at 09h51 )
  
- input  file    -> /cea/dsku/u-basque/hal1/home/abinit/abinit/REPOSITORY/BRIEUC/abinit/gitlab/build/opt/Test_suite/v9_t150-t151-t152/t151.abi
- output file    -> t151.abo
- root for input  files -> t151i
- root for output files -> t151o

- inpspheads : Reading pseudopotential header in XML form from 
-   /cea/dsku/u-basque/hal1/home/abinit/abinit/REPOSITORY/BRIEUC/abinit/gitlab/tests/Psps_for_tests/Pseudodojo_paw_pbe_standard/Ni.xml

 Symmetries : the unit cell is not primitive
================================================================================
 Values of the parameters that define the memory need of the present run
     intxc =       0    ionmov =       0      iscf =      17    lmnmax =      18
     lnmax =       6     mgfft =      20  mpssoang =       3    mqgrid =    3001
     natom =       4  nloc_mem =       2    nspden =       1   nspinor =       1
    nsppol =       1      nsym =     192    n1xccc =       1    ntypat =       1
    occopt =       3   xclevel =       2
-    mband =          48        mffmem =           1         mkmem =           4
       mpw =         461          nfft =        8000          nkpt =           4
 PAW method is used; the additional fine FFT grid is defined by:
   mgfftf=        20    nfftf =      8000
================================================================================
P This job should need less than                       8.297 Mbytes of memory.
  Rough estimation (10% accuracy) of disk space for files :
_ WF disk file :      1.353 Mbytes ; DEN or POT disk file :      0.063 Mbytes.
================================================================================

--------------------------------------------------------------------------------
------------- Echo of variables that govern the present computation ------------
--------------------------------------------------------------------------------
-
- outvars: echo of selected default values                                      
-   iomode0 =  0 , fftalg0 =512 , wfoptalg0 = 10
-
- outvars: echo of global parameters not present in the input file              
-  max_nthreads =    1
-
 -outvars: echo values of preprocessed input variables --------
            acell      6.6140414651E+00  6.6140414651E+00  6.6140414651E+00 Bohr
              amu      5.86900000E+01
           bandpp          48
          chkprim           0
             ecut      1.00000000E+01 Hartree
-          fftalg         512
           istwfk        1    1    1    1
              ixc     -101130
              kpt      0.00000000E+00  0.00000000E+00  0.00000000E+00
                       5.00000000E-01  0.00000000E+00  0.00000000E+00
                       5.00000000E-01  5.00000000E-01  0.00000000E+00
                       5.00000000E-01  5.00000000E-01  5.00000000E-01
         kptrlatt        2    0    0      0    2    0      0    0    2
          kptrlen      1.32280829E+01
P           mkmem           4
            natom           4
            nband          48
            ngfft          20      20      20
          ngfftdg          20      20      20
             nkpt           4
             nsym         192
            ntime           5
           ntypat           1
              occ      2.000000  2.000000  2.000000  2.000000  2.000000  2.000000
                       2.000000  2.000000  2.000000  2.000000  2.000000  2.000000
                       2.000000  2.000000  2.000000  2.000000  2.000000  2.000000
                       2.000000  2.000000  2.000000  2.000000  2.000000  2.000000
                       2.000000  2.000000  2.000000  2.000000  2.000000  2.000000
                       2.000000  2.000000  2.000000  2.000000  2.000000  2.000000
                       0.000000  0.000000  0.000000  0.000000  0.000000  0.000000
                       0.000000  0.000000  0.000000  0.000000  0.000000  0.000000
                       2.000000  2.000000  2.000000  2.000000  2.000000  2.000000
                       2.000000  2.000000  2.000000  2.000000  2.000000  2.000000
                       2.000000  2.000000  2.000000  2.000000  2.000000  2.000000
                       2.000000  2.000000  2.000000  2.000000  2.000000  2.000000
                       2.000000  2.000000  2.000000  2.000000  2.000000  2.000000
                       2.000000  2.000000  2.000000  2.000000  2.000000  2.000000
                       0.000000  0.000000  0.000000  0.000000  0.000000  0.000000
                       0.000000  0.000000  0.000000  0.000000  0.000000  0.000000
                       2.000000  2.000000  2.000000  2.000000  2.000000  2.000000
                       2.000000  2.000000  2.000000  2.000000  2.000000  2.000000
                       2.000000  2.000000  2.000000  2.000000  2.000000  2.000000
                       2.000000  2.000000  2.000000  2.000000  2.000000  2.000000
                       2.000000  2.000000  2.000000  2.000000  2.000000  2.000000
                       2.000000  2.000000  2.000000  2.000000  2.000000  2.000000
                       0.000000  0.000000  0.000000  0.000000  0.000000  0.000000
                       0.000000  0.000000  0.000000  0.000000  0.000000  0.000000
                       2.000000  2.000000  2.000000  2.000000  2.000000  2.000000
                       2.000000  2.000000  2.000000  2.000000  2.000000  2.000000
                       2.000000  2.000000  2.000000  2.000000  2.000000  2.000000
                       2.000000  2.000000  2.000000  2.000000  2.000000  2.000000
                       2.000000  2.000000  2.000000  2.000000  2.000000  2.000000
                       2.000000  2.000000  2.000000  2.000000  2.000000  2.000000
                       0.000000  0.000000  0.000000  0.000000  0.000000  0.000000
                       0.000000  0.000000  0.000000  0.000000  0.000000  0.000000
           occopt           3
        optdriver           9
        pawecutdg      1.00000000E+01 Hartree
           prtden           0
        prtebands           0
           prteig           0
           prtgsr           0
            prtwf           0
           symrel      1  0  0   0  1  0   0  0  1       1  0  0   0  1  0   0  0  1
                       1  0  0   0  1  0   0  0  1       1  0  0   0  1  0   0  0  1
                      -1  0  0   0 -1  0   0  0 -1      -1  0  0   0 -1  0   0  0 -1
                      -1  0  0   0 -1  0   0  0 -1      -1  0  0   0 -1  0   0  0 -1
                      -1  0  0   0  1  0   0  0 -1      -1  0  0   0  1  0   0  0 -1
                      -1  0  0   0  1  0   0  0 -1      -1  0  0   0  1  0   0  0 -1
                       1  0  0   0 -1  0   0  0  1       1  0  0   0 -1  0   0  0  1
                       1  0  0   0 -1  0   0  0  1       1  0  0   0 -1  0   0  0  1
                      -1  0  0   0 -1  0   0  0  1      -1  0  0   0 -1  0   0  0  1
                      -1  0  0   0 -1  0   0  0  1      -1  0  0   0 -1  0   0  0  1
                       1  0  0   0  1  0   0  0 -1       1  0  0   0  1  0   0  0 -1
                       1  0  0   0  1  0   0  0 -1       1  0  0   0  1  0   0  0 -1
                       1  0  0   0 -1  0   0  0 -1       1  0  0   0 -1  0   0  0 -1
                       1  0  0   0 -1  0   0  0 -1       1  0  0   0 -1  0   0  0 -1
                      -1  0  0   0  1  0   0  0  1      -1  0  0   0  1  0   0  0  1
                      -1  0  0   0  1  0   0  0  1      -1  0  0   0  1  0   0  0  1
                       0  1  0   1  0  0   0  0  1       0  1  0   1  0  0   0  0  1
                       0  1  0   1  0  0   0  0  1       0  1  0   1  0  0   0  0  1
                       0 -1  0  -1  0  0   0  0 -1       0 -1  0  -1  0  0   0  0 -1
                       0 -1  0  -1  0  0   0  0 -1       0 -1  0  -1  0  0   0  0 -1
                       0 -1  0   1  0  0   0  0 -1       0 -1  0   1  0  0   0  0 -1
                       0 -1  0   1  0  0   0  0 -1       0 -1  0   1  0  0   0  0 -1
                       0  1  0  -1  0  0   0  0  1       0  1  0  -1  0  0   0  0  1
                       0  1  0  -1  0  0   0  0  1       0  1  0  -1  0  0   0  0  1
                       0 -1  0  -1  0  0   0  0  1       0 -1  0  -1  0  0   0  0  1
                       0 -1  0  -1  0  0   0  0  1       0 -1  0  -1  0  0   0  0  1
                       0  1  0   1  0  0   0  0 -1       0  1  0   1  0  0   0  0 -1
                       0  1  0   1  0  0   0  0 -1       0  1  0   1  0  0   0  0 -1
                       0  1  0  -1  0  0   0  0 -1       0  1  0  -1  0  0   0  0 -1
                       0  1  0  -1  0  0   0  0 -1       0  1  0  -1  0  0   0  0 -1
                       0 -1  0   1  0  0   0  0  1       0 -1  0   1  0  0   0  0  1
                       0 -1  0   1  0  0   0  0  1       0 -1  0   1  0  0   0  0  1
                       0  0  1   1  0  0   0  1  0       0  0  1   1  0  0   0  1  0
                       0  0  1   1  0  0   0  1  0       0  0  1   1  0  0   0  1  0
                       0  0 -1  -1  0  0   0 -1  0       0  0 -1  -1  0  0   0 -1  0
                       0  0 -1  -1  0  0   0 -1  0       0  0 -1  -1  0  0   0 -1  0
                       0  0 -1   1  0  0   0 -1  0       0  0 -1   1  0  0   0 -1  0
                       0  0 -1   1  0  0   0 -1  0       0  0 -1   1  0  0   0 -1  0
                       0  0  1  -1  0  0   0  1  0       0  0  1  -1  0  0   0  1  0
                       0  0  1  -1  0  0   0  1  0       0  0  1  -1  0  0   0  1  0
                       0  0 -1  -1  0  0   0  1  0       0  0 -1  -1  0  0   0  1  0
                       0  0 -1  -1  0  0   0  1  0       0  0 -1  -1  0  0   0  1  0
                       0  0  1   1  0  0   0 -1  0       0  0  1   1  0  0   0 -1  0
                       0  0  1   1  0  0   0 -1  0       0  0  1   1  0  0   0 -1  0
                       0  0  1  -1  0  0   0 -1  0       0  0  1  -1  0  0   0 -1  0
                       0  0  1  -1  0  0   0 -1  0       0  0  1  -1  0  0   0 -1  0
                       0  0 -1   1  0  0   0  1  0       0  0 -1   1  0  0   0  1  0
                       0  0 -1   1  0  0   0  1  0       0  0 -1   1  0  0   0  1  0
                       1  0  0   0  0  1   0  1  0       1  0  0   0  0  1   0  1  0
                       1  0  0   0  0  1   0  1  0       1  0  0   0  0  1   0  1  0
                      -1  0  0   0  0 -1   0 -1  0      -1  0  0   0  0 -1   0 -1  0
                      -1  0  0   0  0 -1   0 -1  0      -1  0  0   0  0 -1   0 -1  0
                      -1  0  0   0  0  1   0 -1  0      -1  0  0   0  0  1   0 -1  0
                      -1  0  0   0  0  1   0 -1  0      -1  0  0   0  0  1   0 -1  0
                       1  0  0   0  0 -1   0  1  0       1  0  0   0  0 -1   0  1  0
                       1  0  0   0  0 -1   0  1  0       1  0  0   0  0 -1   0  1  0
                      -1  0  0   0  0 -1   0  1  0      -1  0  0   0  0 -1   0  1  0
                      -1  0  0   0  0 -1   0  1  0      -1  0  0   0  0 -1   0  1  0
                       1  0  0   0  0  1   0 -1  0       1  0  0   0  0  1   0 -1  0
                       1  0  0   0  0  1   0 -1  0       1  0  0   0  0  1   0 -1  0
                       1  0  0   0  0 -1   0 -1  0       1  0  0   0  0 -1   0 -1  0
                       1  0  0   0  0 -1   0 -1  0       1  0  0   0  0 -1   0 -1  0
                      -1  0  0   0  0  1   0  1  0      -1  0  0   0  0  1   0  1  0
                      -1  0  0   0  0  1   0  1  0      -1  0  0   0  0  1   0  1  0
                       0  1  0   0  0  1   1  0  0       0  1  0   0  0  1   1  0  0
                       0  1  0   0  0  1   1  0  0       0  1  0   0  0  1   1  0  0
                       0 -1  0   0  0 -1  -1  0  0       0 -1  0   0  0 -1  -1  0  0
                       0 -1  0   0  0 -1  -1  0  0       0 -1  0   0  0 -1  -1  0  0
                       0 -1  0   0  0  1  -1  0  0       0 -1  0   0  0  1  -1  0  0
                       0 -1  0   0  0  1  -1  0  0       0 -1  0   0  0  1  -1  0  0
                       0  1  0   0  0 -1   1  0  0       0  1  0   0  0 -1   1  0  0
                       0  1  0   0  0 -1   1  0  0       0  1  0   0  0 -1   1  0  0
                       0 -1  0   0  0 -1   1  0  0       0 -1  0   0  0 -1   1  0  0
                       0 -1  0   0  0 -1   1  0  0       0 -1  0   0  0 -1   1  0  0
                       0  1  0   0  0  1  -1  0  0       0  1  0   0  0  1  -1  0  0
                       0  1  0   0  0  1  -1  0  0       0  1  0   0  0  1  -1  0  0
                       0  1  0   0  0 -1  -1  0  0       0  1  0   0  0 -1  -1  0  0
                       0  1  0   0  0 -1  -1  0  0       0  1  0   0  0 -1  -1  0  0
                       0 -1  0   0  0  1   1  0  0       0 -1  0   0  0  1   1  0  0
                       0 -1  0   0  0  1   1  0  0       0 -1  0   0  0  1   1  0  0
                       0  0  1   0  1  0   1  0  0       0  0  1   0  1  0   1  0  0
                       0  0  1   0  1  0   1  0  0       0  0  1   0  1  0   1  0  0
                       0  0 -1   0 -1  0  -1  0  0       0  0 -1   0 -1  0  -1  0  0
                       0  0 -1   0 -1  0  -1  0  0       0  0 -1   0 -1  0  -1  0  0
                       0  0 -1   0  1  0  -1  0  0       0  0 -1   0  1  0  -1  0  0
                       0  0 -1   0  1  0  -1  0  0       0  0 -1   0  1  0  -1  0  0
                       0  0  1   0 -1  0   1  0  0       0  0  1   0 -1  0   1  0  0
                       0  0  1   0 -1  0   1  0  0       0  0  1   0 -1  0   1  0  0
                       0  0 -1   0 -1  0   1  0  0       0  0 -1   0 -1  0   1  0  0
                       0  0 -1   0 -1  0   1  0  0       0  0 -1   0 -1  0   1  0  0
                       0  0  1   0  1  0  -1  0  0       0  0  1   0  1  0  -1  0  0
                       0  0  1   0  1  0  -1  0  0       0  0  1   0  1  0  -1  0  0
                       0  0  1   0 -1  0  -1  0  0       0  0  1   0 -1  0  -1  0  0
                       0  0  1   0 -1  0  -1  0  0       0  0  1   0 -1  0  -1  0  0
                       0  0 -1   0  1  0   1  0  0       0  0 -1   0  1  0   1  0  0
                       0  0 -1   0  1  0   1  0  0       0  0 -1   0  1  0   1  0  0
            tnons      0.0000000  0.0000000  0.0000000     0.5000000  0.5000000  0.0000000
                       0.5000000  0.0000000  0.5000000     0.0000000  0.5000000  0.5000000
                       0.0000000  0.0000000  0.0000000     0.5000000  0.5000000  0.0000000
                       0.5000000  0.0000000  0.5000000     0.0000000  0.5000000  0.5000000
                       0.0000000  0.0000000  0.0000000     0.5000000  0.5000000  0.0000000
                       0.5000000  0.0000000  0.5000000     0.0000000  0.5000000  0.5000000
                       0.0000000  0.0000000  0.0000000     0.5000000  0.5000000  0.0000000
                       0.5000000  0.0000000  0.5000000     0.0000000  0.5000000  0.5000000
                       0.0000000  0.0000000  0.0000000     0.5000000  0.5000000  0.0000000
                       0.5000000  0.0000000  0.5000000     0.0000000  0.5000000  0.5000000
                       0.0000000  0.0000000  0.0000000     0.5000000  0.5000000  0.0000000
                       0.5000000  0.0000000  0.5000000     0.0000000  0.5000000  0.5000000
                       0.0000000  0.0000000  0.0000000     0.5000000  0.5000000  0.0000000
                       0.5000000  0.0000000  0.5000000     0.0000000  0.5000000  0.5000000
                       0.0000000  0.0000000  0.0000000     0.5000000  0.5000000  0.0000000
                       0.5000000  0.0000000  0.5000000     0.0000000  0.5000000  0.5000000
                       0.0000000  0.0000000  0.0000000     0.5000000  0.5000000  0.0000000
                       0.5000000  0.0000000  0.5000000     0.0000000  0.5000000  0.5000000
                       0.0000000  0.0000000  0.0000000     0.5000000  0.5000000  0.0000000
                       0.5000000  0.0000000  0.5000000     0.0000000  0.5000000  0.5000000
                       0.0000000  0.0000000  0.0000000     0.5000000  0.5000000  0.0000000
                       0.5000000  0.0000000  0.5000000     0.0000000  0.5000000  0.5000000
                       0.0000000  0.0000000  0.0000000     0.5000000  0.5000000  0.0000000
                       0.5000000  0.0000000  0.5000000     0.0000000  0.5000000  0.5000000
                       0.0000000  0.0000000  0.0000000     0.5000000  0.5000000  0.0000000
                       0.5000000  0.0000000  0.5000000     0.0000000  0.5000000  0.5000000
                       0.0000000  0.0000000  0.0000000     0.5000000  0.5000000  0.0000000
                       0.5000000  0.0000000  0.5000000     0.0000000  0.5000000  0.5000000
                       0.0000000  0.0000000  0.0000000     0.5000000  0.5000000  0.0000000
                       0.5000000  0.0000000  0.5000000     0.0000000  0.5000000  0.5000000
                       0.0000000  0.0000000  0.0000000     0.5000000  0.5000000  0.0000000
                       0.5000000  0.0000000  0.5000000     0.0000000  0.5000000  0.5000000
                       0.0000000  0.0000000  0.0000000     0.5000000  0.5000000  0.0000000
                       0.5000000  0.0000000  0.5000000     0.0000000  0.5000000  0.5000000
                       0.0000000  0.0000000  0.0000000     0.5000000  0.5000000  0.0000000
                       0.5000000  0.0000000  0.5000000     0.0000000  0.5000000  0.5000000
                       0.0000000  0.0000000  0.0000000     0.5000000  0.5000000  0.0000000
                       0.5000000  0.0000000  0.5000000     0.0000000  0.5000000  0.5000000
                       0.0000000  0.0000000  0.0000000     0.5000000  0.5000000  0.0000000
                       0.5000000  0.0000000  0.5000000     0.0000000  0.5000000  0.5000000
                       0.0000000  0.0000000  0.0000000     0.5000000  0.5000000  0.0000000
                       0.5000000  0.0000000  0.5000000     0.0000000  0.5000000  0.5000000
                       0.0000000  0.0000000  0.0000000     0.5000000  0.5000000  0.0000000
                       0.5000000  0.0000000  0.5000000     0.0000000  0.5000000  0.5000000
                       0.0000000  0.0000000  0.0000000     0.5000000  0.5000000  0.0000000
                       0.5000000  0.0000000  0.5000000     0.0000000  0.5000000  0.5000000
                       0.0000000  0.0000000  0.0000000     0.5000000  0.5000000  0.0000000
                       0.5000000  0.0000000  0.5000000     0.0000000  0.5000000  0.5000000
                       0.0000000  0.0000000  0.0000000     0.5000000  0.5000000  0.0000000
                       0.5000000  0.0000000  0.5000000     0.0000000  0.5000000  0.5000000
                       0.0000000  0.0000000  0.0000000     0.5000000  0.5000000  0.0000000
                       0.5000000  0.0000000  0.5000000     0.0000000  0.5000000  0.5000000
                       0.0000000  0.0000000  0.0000000     0.5000000  0.5000000  0.0000000
                       0.5000000  0.0000000  0.5000000     0.0000000  0.5000000  0.5000000
                       0.0000000  0.0000000  0.0000000     0.5000000  0.5000000  0.0000000
                       0.5000000  0.0000000  0.5000000     0.0000000  0.5000000  0.5000000
                       0.0000000  0.0000000  0.0000000     0.5000000  0.5000000  0.0000000
                       0.5000000  0.0000000  0.5000000     0.0000000  0.5000000  0.5000000
                       0.0000000  0.0000000  0.0000000     0.5000000  0.5000000  0.0000000
                       0.5000000  0.0000000  0.5000000     0.0000000  0.5000000  0.5000000
                       0.0000000  0.0000000  0.0000000     0.5000000  0.5000000  0.0000000
                       0.5000000  0.0000000  0.5000000     0.0000000  0.5000000  0.5000000
                       0.0000000  0.0000000  0.0000000     0.5000000  0.5000000  0.0000000
                       0.5000000  0.0000000  0.5000000     0.0000000  0.5000000  0.5000000
                       0.0000000  0.0000000  0.0000000     0.5000000  0.5000000  0.0000000
                       0.5000000  0.0000000  0.5000000     0.0000000  0.5000000  0.5000000
                       0.0000000  0.0000000  0.0000000     0.5000000  0.5000000  0.0000000
                       0.5000000  0.0000000  0.5000000     0.0000000  0.5000000  0.5000000
                       0.0000000  0.0000000  0.0000000     0.5000000  0.5000000  0.0000000
                       0.5000000  0.0000000  0.5000000     0.0000000  0.5000000  0.5000000
                       0.0000000  0.0000000  0.0000000     0.5000000  0.5000000  0.0000000
                       0.5000000  0.0000000  0.5000000     0.0000000  0.5000000  0.5000000
                       0.0000000  0.0000000  0.0000000     0.5000000  0.5000000  0.0000000
                       0.5000000  0.0000000  0.5000000     0.0000000  0.5000000  0.5000000
                       0.0000000  0.0000000  0.0000000     0.5000000  0.5000000  0.0000000
                       0.5000000  0.0000000  0.5000000     0.0000000  0.5000000  0.5000000
                       0.0000000  0.0000000  0.0000000     0.5000000  0.5000000  0.0000000
                       0.5000000  0.0000000  0.5000000     0.0000000  0.5000000  0.5000000
                       0.0000000  0.0000000  0.0000000     0.5000000  0.5000000  0.0000000
                       0.5000000  0.0000000  0.5000000     0.0000000  0.5000000  0.5000000
                       0.0000000  0.0000000  0.0000000     0.5000000  0.5000000  0.0000000
                       0.5000000  0.0000000  0.5000000     0.0000000  0.5000000  0.5000000
                       0.0000000  0.0000000  0.0000000     0.5000000  0.5000000  0.0000000
                       0.5000000  0.0000000  0.5000000     0.0000000  0.5000000  0.5000000
                       0.0000000  0.0000000  0.0000000     0.5000000  0.5000000  0.0000000
                       0.5000000  0.0000000  0.5000000     0.0000000  0.5000000  0.5000000
                       0.0000000  0.0000000  0.0000000     0.5000000  0.5000000  0.0000000
                       0.5000000  0.0000000  0.5000000     0.0000000  0.5000000  0.5000000
                       0.0000000  0.0000000  0.0000000     0.5000000  0.5000000  0.0000000
                       0.5000000  0.0000000  0.5000000     0.0000000  0.5000000  0.5000000
                       0.0000000  0.0000000  0.0000000     0.5000000  0.5000000  0.0000000
                       0.5000000  0.0000000  0.5000000     0.0000000  0.5000000  0.5000000
                       0.0000000  0.0000000  0.0000000     0.5000000  0.5000000  0.0000000
                       0.5000000  0.0000000  0.5000000     0.0000000  0.5000000  0.5000000
                       0.0000000  0.0000000  0.0000000     0.5000000  0.5000000  0.0000000
                       0.5000000  0.0000000  0.5000000     0.0000000  0.5000000  0.5000000
           tsmear      9.50044626E-04 Hartree
            typat      1  1  1  1
           useylm           1
              wtk        0.12500    0.37500    0.37500    0.12500
           xangst      0.0000000000E+00  0.0000000000E+00  0.0000000000E+00
                       1.7500000000E+00  1.7500000000E+00  0.0000000000E+00
                       1.7500000000E+00  0.0000000000E+00  1.7500000000E+00
                       0.0000000000E+00  1.7500000000E+00  1.7500000000E+00
            xcart      0.0000000000E+00  0.0000000000E+00  0.0000000000E+00
                       3.3070207325E+00  3.3070207325E+00  0.0000000000E+00
                       3.3070207325E+00  0.0000000000E+00  3.3070207325E+00
                       0.0000000000E+00  3.3070207325E+00  3.3070207325E+00
             xred      0.0000000000E+00  0.0000000000E+00  0.0000000000E+00
                       5.0000000000E-01  5.0000000000E-01  0.0000000000E+00
                       5.0000000000E-01  0.0000000000E+00  5.0000000000E-01
                       0.0000000000E+00  5.0000000000E-01  5.0000000000E-01
            znucl       28.00000

================================================================================

 chkinp: Checking input parameters for consistency.

================================================================================
== DATASET  1 ==================================================================
-   mpi_nproc: 1, omp_nthreads: 1 (-1 if OMP is not activated)


--- !DatasetInfo
iteration_state: {dtset: 1, }
dimensions: {natom: 4, nkpt: 4, mband: 48, nsppol: 1, nspinor: 1, nspden: 1, mpw: 461, }
cutoff_energies: {ecut:  10.0, pawecutdg:  10.0, }
electrons: {nelect:   7.20000000E+01, charge:   0.00000000E+00, occopt:   3.00000000E+00, tsmear:   9.50044626E-04, }
meta: {optdriver: 9, }
...

 mkfilename: getwfk from: t151i_WFK


---------------------------------------------------------------------------
----------------   Starting real-time time dependent DFT   ----------------
---------------------------------------------------------------------------


---------------------------   Initialization   ----------------------------

 Real(R)+Recip(G) space primitive vectors, cartesian coordinates (Bohr,Bohr^-1):
 R(1)=  6.6140415  0.0000000  0.0000000  G(1)=  0.1511935  0.0000000  0.0000000
 R(2)=  0.0000000  6.6140415  0.0000000  G(2)=  0.0000000  0.1511935  0.0000000
 R(3)=  0.0000000  0.0000000  6.6140415  G(3)=  0.0000000  0.0000000  0.1511935
 Unit cell volume ucvol=  2.8933485E+02 bohr^3
 Angles (23,13,12)=  9.00000000E+01  9.00000000E+01  9.00000000E+01 degrees

 Coarse grid specifications (used for wave-functions):

 getcut: wavevector=  0.0000  0.0000  0.0000  ngfft=  20  20  20
         ecut(hartree)=     10.000   => boxcut(ratio)=   2.12421

 Fine grid specifications (used for densities):

 getcut: wavevector=  0.0000  0.0000  0.0000  ngfft=  20  20  20
         ecut(hartree)=     10.000   => boxcut(ratio)=   2.12421

--- Pseudopotential description ------------------------------------------------
- pspini: atom type   1  psp file is /cea/dsku/u-basque/hal1/home/abinit/abinit/REPOSITORY/BRIEUC/abinit/gitlab/tests/Psps_for_tests/Pseudodojo_paw_pbe_standard/Ni.xml
- pspatm: opening atomic psp file    /cea/dsku/u-basque/hal1/home/abinit/abinit/REPOSITORY/BRIEUC/abinit/gitlab/tests/Psps_for_tests/Pseudodojo_paw_pbe_standard/Ni.xml
- pspatm : Reading pseudopotential header in XML form from /cea/dsku/u-basque/hal1/home/abinit/abinit/REPOSITORY/BRIEUC/abinit/gitlab/tests/Psps_for_tests/Pseudodojo_paw_pbe_standard/Ni.xml
 Pseudopotential format is: paw10
 basis_size (lnmax)=  6 (lmn_size= 18), orbitals=   0   0   1   1   2   2
 Spheres core radius: rc_sph= 1.81432190
 1 radial meshes are used:
  - mesh 1: r(i)=AA*[exp(BB*(i-1))-1], size=1500 , AA= 0.29784E-03 BB= 0.83395E-02
 Shapefunction is SIN type: shapef(r)=[sin(pi*r/rshp)/(pi*r/rshp)]**2
 Radius for shape functions =  1.60094920
 mmax= 1500
 Radial grid used for partial waves is grid 1
 Radial grid used for projectors is grid 1
 Radial grid used for (t)core density is grid 1
 Radial grid used for Vloc is grid 1
 Radial grid used for pseudo valence density is grid 1
 Mesh size for Vloc has been set to 1333 to avoid numerical noise.
 Compensation charge density is not taken into account in XC energy/potential
 pspatm: atomic psp has been read  and splines computed

   6.33371995E+03                                ecore*ucvol(ha*bohr**3)
--------------------------------------------------------------------------------


-------------    Reading initial wavefunctions     -------------

-inwffil : will read wavefunctions from disk file t151i_WFK

-------------------------   Starting propagation   ------------------------


--- Iteration 1

Total energy =    -662.075450 Ha
Integrated density (ie. total nb of electrons) =      72.004669

 Fermi (or HOMO) energy (hartree) =   0.00000   Average Vxc (hartree)=   0.00000
 Eigenvalues (hartree) for nkpt=   4  k points:
 kpt#   1, nband= 48, wtk=  0.12500, kpt=  0.0000  0.0000  0.0000 (reduced coord)
  -4.06142   -4.06142   -4.06142   -4.06129   -2.36936   -2.36936   -2.36936   -2.36936
  -2.36936   -2.36936   -2.30505   -2.30505   -2.30505   -2.29692   -2.29692   -2.29692
   0.02361    0.02361    0.02361    0.08373    0.19667    0.19667    0.19667    0.30644
   0.30644    0.30644    0.32787    0.32787    0.37892    0.37892    0.37892    0.40694
   0.40694    0.40694    0.40694    0.40694    0.40694    0.52400    0.52400    0.52400
   0.71556    0.71556    0.71556    0.97927    0.97927    0.97927    0.97927    0.97927
 prteigrs : prtvol=0 or 1, do not print more k-points.

- Time - cpu, wall (sec):    1.27    1.27


--- Iteration 2

Total energy =    -662.075450 Ha
Integrated density (ie. total nb of electrons) =      72.004669

 Fermi (or HOMO) energy (hartree) =   0.00000   Average Vxc (hartree)=   0.00000
 Eigenvalues (hartree) for nkpt=   4  k points:
 kpt#   1, nband= 48, wtk=  0.12500, kpt=  0.0000  0.0000  0.0000 (reduced coord)
  -4.06142   -4.06142   -4.06142   -4.06129   -2.36936   -2.36936   -2.36936   -2.36936
  -2.36936   -2.36936   -2.30505   -2.30505   -2.30505   -2.29692   -2.29692   -2.29692
   0.02361    0.02361    0.02361    0.08373    0.19667    0.19667    0.19667    0.30644
   0.30644    0.30644    0.32787    0.32787    0.37892    0.37892    0.37892    0.40694
   0.40694    0.40694    0.40694    0.40694    0.40694    0.52400    0.52400    0.52400
   0.71556    0.71556    0.71556    0.97927    0.97927    0.97927    0.97927    0.97927
 prteigrs : prtvol=0 or 1, do not print more k-points.

- Time - cpu, wall (sec):    0.45    0.45


--- Iteration 3

Total energy =    -662.075450 Ha
Integrated density (ie. total nb of electrons) =      72.004669

 Fermi (or HOMO) energy (hartree) =   0.00000   Average Vxc (hartree)=   0.00000
 Eigenvalues (hartree) for nkpt=   4  k points:
 kpt#   1, nband= 48, wtk=  0.12500, kpt=  0.0000  0.0000  0.0000 (reduced coord)
  -4.06142   -4.06142   -4.06142   -4.06129   -2.36936   -2.36936   -2.36936   -2.36936
  -2.36936   -2.36936   -2.30505   -2.30505   -2.30505   -2.29692   -2.29692   -2.29692
   0.02361    0.02361    0.02361    0.08373    0.19667    0.19667    0.19667    0.30644
   0.30644    0.30644    0.32787    0.32787    0.37892    0.37892    0.37892    0.40694
   0.40694    0.40694    0.40694    0.40694    0.40694    0.52400    0.52400    0.52400
   0.71556    0.71556    0.71556    0.97927    0.97927    0.97927    0.97927    0.97927
 prteigrs : prtvol=0 or 1, do not print more k-points.

- Time - cpu, wall (sec):    0.45    0.45


--- Iteration 4

Total energy =    -662.075450 Ha
Integrated density (ie. total nb of electrons) =      72.004669

 Fermi (or HOMO) energy (hartree) =   0.00000   Average Vxc (hartree)=   0.00000
 Eigenvalues (hartree) for nkpt=   4  k points:
 kpt#   1, nband= 48, wtk=  0.12500, kpt=  0.0000  0.0000  0.0000 (reduced coord)
  -4.06142   -4.06142   -4.06142   -4.06129   -2.36936   -2.36936   -2.36936   -2.36936
  -2.36936   -2.36936   -2.30505   -2.30505   -2.30505   -2.29692   -2.29692   -2.29692
   0.02361    0.02361    0.02361    0.08373    0.19667    0.19667    0.19667    0.30644
   0.30644    0.30644    0.32787    0.32787    0.37892    0.37892    0.37892    0.40694
   0.40694    0.40694    0.40694    0.40694    0.40694    0.52400    0.52400    0.52400
   0.71556    0.71556    0.71556    0.97927    0.97927    0.97927    0.97927    0.97927
 prteigrs : prtvol=0 or 1, do not print more k-points.

- Time - cpu, wall (sec):    0.45    0.45


--- Iteration 5

Total energy =    -662.075450 Ha
Integrated density (ie. total nb of electrons) =      72.004669

 Fermi (or HOMO) energy (hartree) =   0.00000   Average Vxc (hartree)=   0.00000
 Eigenvalues (hartree) for nkpt=   4  k points:
 kpt#   1, nband= 48, wtk=  0.12500, kpt=  0.0000  0.0000  0.0000 (reduced coord)
  -4.06142   -4.06142   -4.06142   -4.06129   -2.36936   -2.36936   -2.36936   -2.36936
  -2.36936   -2.36936   -2.30505   -2.30505   -2.30505   -2.29692   -2.29692   -2.29692
   0.02361    0.02361    0.02361    0.08373    0.19667    0.19667    0.19667    0.30644
   0.30644    0.30644    0.32787    0.32787    0.37892    0.37892    0.37892    0.40694
   0.40694    0.40694    0.40694    0.40694    0.40694    0.52400    0.52400    0.52400
   0.71556    0.71556    0.71556    0.97927    0.97927    0.97927    0.97927    0.97927
 prteigrs : prtvol=0 or 1, do not print more k-points.

- Time - cpu, wall (sec):    0.45    0.57


---------------------------------------------------------------------------
----------------   Finished real-time time dependent DFT   ----------------
---------------------------------------------------------------------------


== END DATASET(S) ==============================================================
================================================================================
  
 -outvars: echo values of variables after computation  --------
            acell      6.6140414651E+00  6.6140414651E+00  6.6140414651E+00 Bohr
              amu      5.86900000E+01
           bandpp          48
          chkprim           0
             ecut      1.00000000E+01 Hartree
           etotal      0.0000000000E+00
            fcart      0.0000000000E+00  0.0000000000E+00  0.0000000000E+00
                       0.0000000000E+00  0.0000000000E+00  0.0000000000E+00
                       0.0000000000E+00  0.0000000000E+00  0.0000000000E+00
                       0.0000000000E+00  0.0000000000E+00  0.0000000000E+00
-          fftalg         512
           istwfk        1    1    1    1
              ixc     -101130
              kpt      0.00000000E+00  0.00000000E+00  0.00000000E+00
                       5.00000000E-01  0.00000000E+00  0.00000000E+00
                       5.00000000E-01  5.00000000E-01  0.00000000E+00
                       5.00000000E-01  5.00000000E-01  5.00000000E-01
         kptrlatt        2    0    0      0    2    0      0    0    2
          kptrlen      1.32280829E+01
P           mkmem           4
            natom           4
            nband          48
            ngfft          20      20      20
          ngfftdg          20      20      20
             nkpt           4
             nsym         192
            ntime           5
           ntypat           1
              occ      2.000000  2.000000  2.000000  2.000000  2.000000  2.000000
                       2.000000  2.000000  2.000000  2.000000  2.000000  2.000000
                       2.000000  2.000000  2.000000  2.000000  2.000000  2.000000
                       2.000000  2.000000  2.000000  2.000000  2.000000  2.000000
                       2.000000  2.000000  2.000000  2.000000  2.000000  2.000000
                       2.000000  2.000000  2.000000  2.000000  2.000000  2.000000
                       0.000000  0.000000  0.000000  0.000000  0.000000  0.000000
                       0.000000  0.000000  0.000000  0.000000  0.000000  0.000000
                       2.000000  2.000000  2.000000  2.000000  2.000000  2.000000
                       2.000000  2.000000  2.000000  2.000000  2.000000  2.000000
                       2.000000  2.000000  2.000000  2.000000  2.000000  2.000000
                       2.000000  2.000000  2.000000  2.000000  2.000000  2.000000
                       2.000000  2.000000  2.000000  2.000000  2.000000  2.000000
                       2.000000  2.000000  2.000000  2.000000  2.000000  2.000000
                       0.000000  0.000000  0.000000  0.000000  0.000000  0.000000
                       0.000000  0.000000  0.000000  0.000000  0.000000  0.000000
                       2.000000  2.000000  2.000000  2.000000  2.000000  2.000000
                       2.000000  2.000000  2.000000  2.000000  2.000000  2.000000
                       2.000000  2.000000  2.000000  2.000000  2.000000  2.000000
                       2.000000  2.000000  2.000000  2.000000  2.000000  2.000000
                       2.000000  2.000000  2.000000  2.000000  2.000000  2.000000
                       2.000000  2.000000  2.000000  2.000000  2.000000  2.000000
                       0.000000  0.000000  0.000000  0.000000  0.000000  0.000000
                       0.000000  0.000000  0.000000  0.000000  0.000000  0.000000
                       2.000000  2.000000  2.000000  2.000000  2.000000  2.000000
                       2.000000  2.000000  2.000000  2.000000  2.000000  2.000000
                       2.000000  2.000000  2.000000  2.000000  2.000000  2.000000
                       2.000000  2.000000  2.000000  2.000000  2.000000  2.000000
                       2.000000  2.000000  2.000000  2.000000  2.000000  2.000000
                       2.000000  2.000000  2.000000  2.000000  2.000000  2.000000
                       0.000000  0.000000  0.000000  0.000000  0.000000  0.000000
                       0.000000  0.000000  0.000000  0.000000  0.000000  0.000000
           occopt           3
        optdriver           9
        pawecutdg      1.00000000E+01 Hartree
           prtden           0
        prtebands           0
           prteig           0
           prtgsr           0
            prtwf           0
           strten      0.0000000000E+00  0.0000000000E+00  0.0000000000E+00
                       0.0000000000E+00  0.0000000000E+00  0.0000000000E+00
           symrel      1  0  0   0  1  0   0  0  1       1  0  0   0  1  0   0  0  1
                       1  0  0   0  1  0   0  0  1       1  0  0   0  1  0   0  0  1
                      -1  0  0   0 -1  0   0  0 -1      -1  0  0   0 -1  0   0  0 -1
                      -1  0  0   0 -1  0   0  0 -1      -1  0  0   0 -1  0   0  0 -1
                      -1  0  0   0  1  0   0  0 -1      -1  0  0   0  1  0   0  0 -1
                      -1  0  0   0  1  0   0  0 -1      -1  0  0   0  1  0   0  0 -1
                       1  0  0   0 -1  0   0  0  1       1  0  0   0 -1  0   0  0  1
                       1  0  0   0 -1  0   0  0  1       1  0  0   0 -1  0   0  0  1
                      -1  0  0   0 -1  0   0  0  1      -1  0  0   0 -1  0   0  0  1
                      -1  0  0   0 -1  0   0  0  1      -1  0  0   0 -1  0   0  0  1
                       1  0  0   0  1  0   0  0 -1       1  0  0   0  1  0   0  0 -1
                       1  0  0   0  1  0   0  0 -1       1  0  0   0  1  0   0  0 -1
                       1  0  0   0 -1  0   0  0 -1       1  0  0   0 -1  0   0  0 -1
                       1  0  0   0 -1  0   0  0 -1       1  0  0   0 -1  0   0  0 -1
                      -1  0  0   0  1  0   0  0  1      -1  0  0   0  1  0   0  0  1
                      -1  0  0   0  1  0   0  0  1      -1  0  0   0  1  0   0  0  1
                       0  1  0   1  0  0   0  0  1       0  1  0   1  0  0   0  0  1
                       0  1  0   1  0  0   0  0  1       0  1  0   1  0  0   0  0  1
                       0 -1  0  -1  0  0   0  0 -1       0 -1  0  -1  0  0   0  0 -1
                       0 -1  0  -1  0  0   0  0 -1       0 -1  0  -1  0  0   0  0 -1
                       0 -1  0   1  0  0   0  0 -1       0 -1  0   1  0  0   0  0 -1
                       0 -1  0   1  0  0   0  0 -1       0 -1  0   1  0  0   0  0 -1
                       0  1  0  -1  0  0   0  0  1       0  1  0  -1  0  0   0  0  1
                       0  1  0  -1  0  0   0  0  1       0  1  0  -1  0  0   0  0  1
                       0 -1  0  -1  0  0   0  0  1       0 -1  0  -1  0  0   0  0  1
                       0 -1  0  -1  0  0   0  0  1       0 -1  0  -1  0  0   0  0  1
                       0  1  0   1  0  0   0  0 -1       0  1  0   1  0  0   0  0 -1
                       0  1  0   1  0  0   0  0 -1       0  1  0   1  0  0   0  0 -1
                       0  1  0  -1  0  0   0  0 -1       0  1  0  -1  0  0   0  0 -1
                       0  1  0  -1  0  0   0  0 -1       0  1  0  -1  0  0   0  0 -1
                       0 -1  0   1  0  0   0  0  1       0 -1  0   1  0  0   0  0  1
                       0 -1  0   1  0  0   0  0  1       0 -1  0   1  0  0   0  0  1
                       0  0  1   1  0  0   0  1  0       0  0  1   1  0  0   0  1  0
                       0  0  1   1  0  0   0  1  0       0  0  1   1  0  0   0  1  0
                       0  0 -1  -1  0  0   0 -1  0       0  0 -1  -1  0  0   0 -1  0
                       0  0 -1  -1  0  0   0 -1  0       0  0 -1  -1  0  0   0 -1  0
                       0  0 -1   1  0  0   0 -1  0       0  0 -1   1  0  0   0 -1  0
                       0  0 -1   1  0  0   0 -1  0       0  0 -1   1  0  0   0 -1  0
                       0  0  1  -1  0  0   0  1  0       0  0  1  -1  0  0   0  1  0
                       0  0  1  -1  0  0   0  1  0       0  0  1  -1  0  0   0  1  0
                       0  0 -1  -1  0  0   0  1  0       0  0 -1  -1  0  0   0  1  0
                       0  0 -1  -1  0  0   0  1  0       0  0 -1  -1  0  0   0  1  0
                       0  0  1   1  0  0   0 -1  0       0  0  1   1  0  0   0 -1  0
                       0  0  1   1  0  0   0 -1  0       0  0  1   1  0  0   0 -1  0
                       0  0  1  -1  0  0   0 -1  0       0  0  1  -1  0  0   0 -1  0
                       0  0  1  -1  0  0   0 -1  0       0  0  1  -1  0  0   0 -1  0
                       0  0 -1   1  0  0   0  1  0       0  0 -1   1  0  0   0  1  0
                       0  0 -1   1  0  0   0  1  0       0  0 -1   1  0  0   0  1  0
                       1  0  0   0  0  1   0  1  0       1  0  0   0  0  1   0  1  0
                       1  0  0   0  0  1   0  1  0       1  0  0   0  0  1   0  1  0
                      -1  0  0   0  0 -1   0 -1  0      -1  0  0   0  0 -1   0 -1  0
                      -1  0  0   0  0 -1   0 -1  0      -1  0  0   0  0 -1   0 -1  0
                      -1  0  0   0  0  1   0 -1  0      -1  0  0   0  0  1   0 -1  0
                      -1  0  0   0  0  1   0 -1  0      -1  0  0   0  0  1   0 -1  0
                       1  0  0   0  0 -1   0  1  0       1  0  0   0  0 -1   0  1  0
                       1  0  0   0  0 -1   0  1  0       1  0  0   0  0 -1   0  1  0
                      -1  0  0   0  0 -1   0  1  0      -1  0  0   0  0 -1   0  1  0
                      -1  0  0   0  0 -1   0  1  0      -1  0  0   0  0 -1   0  1  0
                       1  0  0   0  0  1   0 -1  0       1  0  0   0  0  1   0 -1  0
                       1  0  0   0  0  1   0 -1  0       1  0  0   0  0  1   0 -1  0
                       1  0  0   0  0 -1   0 -1  0       1  0  0   0  0 -1   0 -1  0
                       1  0  0   0  0 -1   0 -1  0       1  0  0   0  0 -1   0 -1  0
                      -1  0  0   0  0  1   0  1  0      -1  0  0   0  0  1   0  1  0
                      -1  0  0   0  0  1   0  1  0      -1  0  0   0  0  1   0  1  0
                       0  1  0   0  0  1   1  0  0       0  1  0   0  0  1   1  0  0
                       0  1  0   0  0  1   1  0  0       0  1  0   0  0  1   1  0  0
                       0 -1  0   0  0 -1  -1  0  0       0 -1  0   0  0 -1  -1  0  0
                       0 -1  0   0  0 -1  -1  0  0       0 -1  0   0  0 -1  -1  0  0
                       0 -1  0   0  0  1  -1  0  0       0 -1  0   0  0  1  -1  0  0
                       0 -1  0   0  0  1  -1  0  0       0 -1  0   0  0  1  -1  0  0
                       0  1  0   0  0 -1   1  0  0       0  1  0   0  0 -1   1  0  0
                       0  1  0   0  0 -1   1  0  0       0  1  0   0  0 -1   1  0  0
                       0 -1  0   0  0 -1   1  0  0       0 -1  0   0  0 -1   1  0  0
                       0 -1  0   0  0 -1   1  0  0       0 -1  0   0  0 -1   1  0  0
                       0  1  0   0  0  1  -1  0  0       0  1  0   0  0  1  -1  0  0
                       0  1  0   0  0  1  -1  0  0       0  1  0   0  0  1  -1  0  0
                       0  1  0   0  0 -1  -1  0  0       0  1  0   0  0 -1  -1  0  0
                       0  1  0   0  0 -1  -1  0  0       0  1  0   0  0 -1  -1  0  0
                       0 -1  0   0  0  1   1  0  0       0 -1  0   0  0  1   1  0  0
                       0 -1  0   0  0  1   1  0  0       0 -1  0   0  0  1   1  0  0
                       0  0  1   0  1  0   1  0  0       0  0  1   0  1  0   1  0  0
                       0  0  1   0  1  0   1  0  0       0  0  1   0  1  0   1  0  0
                       0  0 -1   0 -1  0  -1  0  0       0  0 -1   0 -1  0  -1  0  0
                       0  0 -1   0 -1  0  -1  0  0       0  0 -1   0 -1  0  -1  0  0
                       0  0 -1   0  1  0  -1  0  0       0  0 -1   0  1  0  -1  0  0
                       0  0 -1   0  1  0  -1  0  0       0  0 -1   0  1  0  -1  0  0
                       0  0  1   0 -1  0   1  0  0       0  0  1   0 -1  0   1  0  0
                       0  0  1   0 -1  0   1  0  0       0  0  1   0 -1  0   1  0  0
                       0  0 -1   0 -1  0   1  0  0       0  0 -1   0 -1  0   1  0  0
                       0  0 -1   0 -1  0   1  0  0       0  0 -1   0 -1  0   1  0  0
                       0  0  1   0  1  0  -1  0  0       0  0  1   0  1  0  -1  0  0
                       0  0  1   0  1  0  -1  0  0       0  0  1   0  1  0  -1  0  0
                       0  0  1   0 -1  0  -1  0  0       0  0  1   0 -1  0  -1  0  0
                       0  0  1   0 -1  0  -1  0  0       0  0  1   0 -1  0  -1  0  0
                       0  0 -1   0  1  0   1  0  0       0  0 -1   0  1  0   1  0  0
                       0  0 -1   0  1  0   1  0  0       0  0 -1   0  1  0   1  0  0
            tnons      0.0000000  0.0000000  0.0000000     0.5000000  0.5000000  0.0000000
                       0.5000000  0.0000000  0.5000000     0.0000000  0.5000000  0.5000000
                       0.0000000  0.0000000  0.0000000     0.5000000  0.5000000  0.0000000
                       0.5000000  0.0000000  0.5000000     0.0000000  0.5000000  0.5000000
                       0.0000000  0.0000000  0.0000000     0.5000000  0.5000000  0.0000000
                       0.5000000  0.0000000  0.5000000     0.0000000  0.5000000  0.5000000
                       0.0000000  0.0000000  0.0000000     0.5000000  0.5000000  0.0000000
                       0.5000000  0.0000000  0.5000000     0.0000000  0.5000000  0.5000000
                       0.0000000  0.0000000  0.0000000     0.5000000  0.5000000  0.0000000
                       0.5000000  0.0000000  0.5000000     0.0000000  0.5000000  0.5000000
                       0.0000000  0.0000000  0.0000000     0.5000000  0.5000000  0.0000000
                       0.5000000  0.0000000  0.5000000     0.0000000  0.5000000  0.5000000
                       0.0000000  0.0000000  0.0000000     0.5000000  0.5000000  0.0000000
                       0.5000000  0.0000000  0.5000000     0.0000000  0.5000000  0.5000000
                       0.0000000  0.0000000  0.0000000     0.5000000  0.5000000  0.0000000
                       0.5000000  0.0000000  0.5000000     0.0000000  0.5000000  0.5000000
                       0.0000000  0.0000000  0.0000000     0.5000000  0.5000000  0.0000000
                       0.5000000  0.0000000  0.5000000     0.0000000  0.5000000  0.5000000
                       0.0000000  0.0000000  0.0000000     0.5000000  0.5000000  0.0000000
                       0.5000000  0.0000000  0.5000000     0.0000000  0.5000000  0.5000000
                       0.0000000  0.0000000  0.0000000     0.5000000  0.5000000  0.0000000
                       0.5000000  0.0000000  0.5000000     0.0000000  0.5000000  0.5000000
                       0.0000000  0.0000000  0.0000000     0.5000000  0.5000000  0.0000000
                       0.5000000  0.0000000  0.5000000     0.0000000  0.5000000  0.5000000
                       0.0000000  0.0000000  0.0000000     0.5000000  0.5000000  0.0000000
                       0.5000000  0.0000000  0.5000000     0.0000000  0.5000000  0.5000000
                       0.0000000  0.0000000  0.0000000     0.5000000  0.5000000  0.0000000
                       0.5000000  0.0000000  0.5000000     0.0000000  0.5000000  0.5000000
                       0.0000000  0.0000000  0.0000000     0.5000000  0.5000000  0.0000000
                       0.5000000  0.0000000  0.5000000     0.0000000  0.5000000  0.5000000
                       0.0000000  0.0000000  0.0000000     0.5000000  0.5000000  0.0000000
                       0.5000000  0.0000000  0.5000000     0.0000000  0.5000000  0.5000000
                       0.0000000  0.0000000  0.0000000     0.5000000  0.5000000  0.0000000
                       0.5000000  0.0000000  0.5000000     0.0000000  0.5000000  0.5000000
                       0.0000000  0.0000000  0.0000000     0.5000000  0.5000000  0.0000000
                       0.5000000  0.0000000  0.5000000     0.0000000  0.5000000  0.5000000
                       0.0000000  0.0000000  0.0000000     0.5000000  0.5000000  0.0000000
                       0.5000000  0.0000000  0.5000000     0.0000000  0.5000000  0.5000000
                       0.0000000  0.0000000  0.0000000     0.5000000  0.5000000  0.0000000
                       0.5000000  0.0000000  0.5000000     0.0000000  0.5000000  0.5000000
                       0.0000000  0.0000000  0.0000000     0.5000000  0.5000000  0.0000000
                       0.5000000  0.0000000  0.5000000     0.0000000  0.5000000  0.5000000
                       0.0000000  0.0000000  0.0000000     0.5000000  0.5000000  0.0000000
                       0.5000000  0.0000000  0.5000000     0.0000000  0.5000000  0.5000000
                       0.0000000  0.0000000  0.0000000     0.5000000  0.5000000  0.0000000
                       0.5000000  0.0000000  0.5000000     0.0000000  0.5000000  0.5000000
                       0.0000000  0.0000000  0.0000000     0.5000000  0.5000000  0.0000000
                       0.5000000  0.0000000  0.5000000     0.0000000  0.5000000  0.5000000
                       0.0000000  0.0000000  0.0000000     0.5000000  0.5000000  0.0000000
                       0.5000000  0.0000000  0.5000000     0.0000000  0.5000000  0.5000000
                       0.0000000  0.0000000  0.0000000     0.5000000  0.5000000  0.0000000
                       0.5000000  0.0000000  0.5000000     0.0000000  0.5000000  0.5000000
                       0.0000000  0.0000000  0.0000000     0.5000000  0.5000000  0.0000000
                       0.5000000  0.0000000  0.5000000     0.0000000  0.5000000  0.5000000
                       0.0000000  0.0000000  0.0000000     0.5000000  0.5000000  0.0000000
                       0.5000000  0.0000000  0.5000000     0.0000000  0.5000000  0.5000000
                       0.0000000  0.0000000  0.0000000     0.5000000  0.5000000  0.0000000
                       0.5000000  0.0000000  0.5000000     0.0000000  0.5000000  0.5000000
                       0.0000000  0.0000000  0.0000000     0.5000000  0.5000000  0.0000000
                       0.5000000  0.0000000  0.5000000     0.0000000  0.5000000  0.5000000
                       0.0000000  0.0000000  0.0000000     0.5000000  0.5000000  0.0000000
                       0.5000000  0.0000000  0.5000000     0.0000000  0.5000000  0.5000000
                       0.0000000  0.0000000  0.0000000     0.5000000  0.5000000  0.0000000
                       0.5000000  0.0000000  0.5000000     0.0000000  0.5000000  0.5000000
                       0.0000000  0.0000000  0.0000000     0.5000000  0.5000000  0.0000000
                       0.5000000  0.0000000  0.5000000     0.0000000  0.5000000  0.5000000
                       0.0000000  0.0000000  0.0000000     0.5000000  0.5000000  0.0000000
                       0.5000000  0.0000000  0.5000000     0.0000000  0.5000000  0.5000000
                       0.0000000  0.0000000  0.0000000     0.5000000  0.5000000  0.0000000
                       0.5000000  0.0000000  0.5000000     0.0000000  0.5000000  0.5000000
                       0.0000000  0.0000000  0.0000000     0.5000000  0.5000000  0.0000000
                       0.5000000  0.0000000  0.5000000     0.0000000  0.5000000  0.5000000
                       0.0000000  0.0000000  0.0000000     0.5000000  0.5000000  0.0000000
                       0.5000000  0.0000000  0.5000000     0.0000000  0.5000000  0.5000000
                       0.0000000  0.0000000  0.0000000     0.5000000  0.5000000  0.0000000
                       0.5000000  0.0000000  0.5000000     0.0000000  0.5000000  0.5000000
                       0.0000000  0.0000000  0.0000000     0.5000000  0.5000000  0.0000000
                       0.5000000  0.0000000  0.5000000     0.0000000  0.5000000  0.5000000
                       0.0000000  0.0000000  0.0000000     0.5000000  0.5000000  0.0000000
                       0.5000000  0.0000000  0.5000000     0.0000000  0.5000000  0.5000000
                       0.0000000  0.0000000  0.0000000     0.5000000  0.5000000  0.0000000
                       0.5000000  0.0000000  0.5000000     0.0000000  0.5000000  0.5000000
                       0.0000000  0.0000000  0.0000000     0.5000000  0.5000000  0.0000000
                       0.5000000  0.0000000  0.5000000     0.0000000  0.5000000  0.5000000
                       0.0000000  0.0000000  0.0000000     0.5000000  0.5000000  0.0000000
                       0.5000000  0.0000000  0.5000000     0.0000000  0.5000000  0.5000000
                       0.0000000  0.0000000  0.0000000     0.5000000  0.5000000  0.0000000
                       0.5000000  0.0000000  0.5000000     0.0000000  0.5000000  0.5000000
                       0.0000000  0.0000000  0.0000000     0.5000000  0.5000000  0.0000000
                       0.5000000  0.0000000  0.5000000     0.0000000  0.5000000  0.5000000
                       0.0000000  0.0000000  0.0000000     0.5000000  0.5000000  0.0000000
                       0.5000000  0.0000000  0.5000000     0.0000000  0.5000000  0.5000000
                       0.0000000  0.0000000  0.0000000     0.5000000  0.5000000  0.0000000
                       0.5000000  0.0000000  0.5000000     0.0000000  0.5000000  0.5000000
                       0.0000000  0.0000000  0.0000000     0.5000000  0.5000000  0.0000000
                       0.5000000  0.0000000  0.5000000     0.0000000  0.5000000  0.5000000
           tsmear      9.50044626E-04 Hartree
            typat      1  1  1  1
           useylm           1
              wtk        0.12500    0.37500    0.37500    0.12500
           xangst      0.0000000000E+00  0.0000000000E+00  0.0000000000E+00
                       1.7500000000E+00  1.7500000000E+00  0.0000000000E+00
                       1.7500000000E+00  0.0000000000E+00  1.7500000000E+00
                       0.0000000000E+00  1.7500000000E+00  1.7500000000E+00
            xcart      0.0000000000E+00  0.0000000000E+00  0.0000000000E+00
                       3.3070207325E+00  3.3070207325E+00  0.0000000000E+00
                       3.3070207325E+00  0.0000000000E+00  3.3070207325E+00
                       0.0000000000E+00  3.3070207325E+00  3.3070207325E+00
             xred      0.0000000000E+00  0.0000000000E+00  0.0000000000E+00
                       5.0000000000E-01  5.0000000000E-01  0.0000000000E+00
                       5.0000000000E-01  0.0000000000E+00  5.0000000000E-01
                       0.0000000000E+00  5.0000000000E-01  5.0000000000E-01
            znucl       28.00000

================================================================================


- Timing analysis has been suppressed with timopt=0



================================================================================

 Suggested references for the acknowledgment of ABINIT usage.

 The users of ABINIT have little formal obligations with respect to the ABINIT group
 (those specified in the GNU General Public License, http://www.gnu.org/copyleft/gpl.txt).
 However, it is common practice in the scientific literature,
 to acknowledge the efforts of people that have made the research possible.
 In this spirit, please find below suggested citations of work written by ABINIT developers,
 corresponding to implementations inside of ABINIT that you have used in the present run.
 Note also that it will be of great value to readers of publications presenting these results,
 to read papers enabling them to understand the theoretical formalism and details
 of the ABINIT implementation.
 For information on why they are suggested, see also https://docs.abinit.org/theory/acknowledgments.
-
- [1] Implementation of the Projector Augmented-Wave Method in the ABINIT code.
- M. Torrent, F. Jollet, F. Bottin, G. Zerah, and X. Gonze Comput. Mat. Science 42, 337, (2008).
- Comment: PAW calculations. Strong suggestion to cite this paper.
- DOI and bibtex: see https://docs.abinit.org/theory/bibliography/#torrent2008
-
- [2] Libxc: A library of exchange and correlation functionals for density functional theory.
- M.A.L. Marques, M.J.T. Oliveira, T. Burnus, Computer Physics Communications 183, 2227 (2012).
- Comment: to be cited when LibXC is used (negative value of ixc)
- Strong suggestion to cite this paper.
- DOI and bibtex: see https://docs.abinit.org/theory/bibliography/#marques2012
-
- [3] The Abinit project: Impact, environment and recent developments.
- Computer Phys. Comm. 248, 107042 (2020).
- X.Gonze, B. Amadon, G. Antonius, F.Arnardi, L.Baguet, J.-M.Beuken,
- J.Bieder, F.Bottin, J.Bouchet, E.Bousquet, N.Brouwer, F.Bruneval,
- G.Brunin, T.Cavignac, J.-B. Charraud, Wei Chen, M.Cote, S.Cottenier,
- J.Denier, G.Geneste, Ph.Ghosez, M.Giantomassi, Y.Gillet, O.Gingras,
- D.R.Hamann, G.Hautier, Xu He, N.Helbig, N.Holzwarth, Y.Jia, F.Jollet,
- W.Lafargue-Dit-Hauret, K.Lejaeghere, M.A.L.Marques, A.Martin, C.Martins,
- H.P.C. Miranda, F.Naccarato, K. Persson, G.Petretto, V.Planes, Y.Pouillon,
- S.Prokhorenko, F.Ricci, G.-M.Rignanese, A.H.Romero, M.M.Schmitt, M.Torrent,
- M.J.van Setten, B.Van Troeye, M.J.Verstraete, G.Zerah and J.W.Zwanzig
- Comment: the fifth generic paper describing the ABINIT project.
- Note that a version of this paper, that is not formatted for Computer Phys. Comm. 
- is available at https://www.abinit.org/sites/default/files/ABINIT20.pdf .
- The licence allows the authors to put it on the Web.
- DOI and bibtex: see https://docs.abinit.org/theory/bibliography/#gonze2020
-
- [4] ABINIT: Overview, and focus on selected capabilities
- J. Chem. Phys. 152, 124102 (2020).
- A. Romero, D.C. Allan, B. Amadon, G. Antonius, T. Applencourt, L.Baguet,
- J.Bieder, F.Bottin, J.Bouchet, E.Bousquet, F.Bruneval,
- G.Brunin, D.Caliste, M.Cote,
- J.Denier, C. Dreyer, Ph.Ghosez, M.Giantomassi, Y.Gillet, O.Gingras,
- D.R.Hamann, G.Hautier, F.Jollet, G. Jomard,
- A.Martin, 
- H.P.C. Miranda, F.Naccarato, G.Petretto, N.A. Pike, V.Planes,
- S.Prokhorenko, T. Rangel, F.Ricci, G.-M.Rignanese, M.Royo, M.Stengel, M.Torrent,
- M.J.van Setten, B.Van Troeye, M.J.Verstraete, J.Wiktor, J.W.Zwanziger, and X.Gonze.
- Comment: a global overview of ABINIT, with focus on selected capabilities .
- Note that a version of this paper, that is not formatted for J. Chem. Phys 
- is available at https://www.abinit.org/sites/default/files/ABINIT20_JPC.pdf .
- The licence allows the authors to put it on the Web.
- DOI and bibtex: see https://docs.abinit.org/theory/bibliography/#romero2020
-
- [5] Recent developments in the ABINIT software package.
- Computer Phys. Comm. 205, 106 (2016).
- X.Gonze, F.Jollet, F.Abreu Araujo, D.Adams, B.Amadon, T.Applencourt,
- C.Audouze, J.-M.Beuken, J.Bieder, A.Bokhanchuk, E.Bousquet, F.Bruneval
- D.Caliste, M.Cote, F.Dahm, F.Da Pieve, M.Delaveau, M.Di Gennaro,
- B.Dorado, C.Espejo, G.Geneste, L.Genovese, A.Gerossier, M.Giantomassi,
- Y.Gillet, D.R.Hamann, L.He, G.Jomard, J.Laflamme Janssen, S.Le Roux,
- A.Levitt, A.Lherbier, F.Liu, I.Lukacevic, A.Martin, C.Martins,
- M.J.T.Oliveira, S.Ponce, Y.Pouillon, T.Rangel, G.-M.Rignanese,
- A.H.Romero, B.Rousseau, O.Rubel, A.A.Shukri, M.Stankovski, M.Torrent,
- M.J.Van Setten, B.Van Troeye, M.J.Verstraete, D.Waroquier, J.Wiktor,
- B.Xu, A.Zhou, J.W.Zwanziger.
- Comment: the fourth generic paper describing the ABINIT project.
- Note that a version of this paper, that is not formatted for Computer Phys. Comm. 
- is available at https://www.abinit.org/sites/default/files/ABINIT16.pdf .
- The licence allows the authors to put it on the Web.
- DOI and bibtex: see https://docs.abinit.org/theory/bibliography/#gonze2016
-
- Proc.   0 individual time (sec): cpu=          4.5  wall=          5.2

================================================================================

 Calculation completed.
.Delivered   6 WARNINGs and   3 COMMENTs to log file.
+Overall time at end (sec) : cpu=          4.5  wall=          5.2
