
.Version 9.3.4 of ABINIT 
.(MPI version, prepared for a x86_64_darwin18.7.0_gnu9.3 computer) 

.Copyright (C) 1998-2020 ABINIT group . 
 ABINIT comes with ABSOLUTELY NO WARRANTY.
 It is free software, and you are welcome to redistribute it
 under certain conditions (GNU General Public License,
 see ~abinit/COPYING or http://www.gnu.org/copyleft/gpl.txt).

 ABINIT is a project of the Universite Catholique de Louvain,
 Corning Inc. and other collaborators, see ~abinit/doc/developers/contributors.txt .
 Please read https://docs.abinit.org/theory/acknowledgments for suggested
 acknowledgments of the ABINIT effort.
 For more information, see https://www.abinit.org .

.Starting date : Thu 11 Feb 2021.
- ( at 16h52 )
  
- input  file    -> t22.abi
- output file    -> t22.abo
- root for input  files -> t22i
- root for output files -> t22o

- inpspheads : Reading pseudopotential header in XML form from 
-   /Users/gonze/_Research/ABINIT_git/gonze/tests//Psps_for_tests//Pseudodojo_paw_pbe_standard/Na.xml
- inpspheads : Reading pseudopotential header in XML form from 
-   /Users/gonze/_Research/ABINIT_git/gonze/tests//Psps_for_tests//Pseudodojo_paw_pbe_standard/I.xml

 DATASET    1 : space group Cm m m (# 65); Bravais oC (1-face-center ortho.)
================================================================================
 Values of the parameters that define the memory need for DATASET  1.
     intxc =       0    ionmov =       2      iscf =      17    lmnmax =       8
     lnmax =       4     mgfft =      20  mpssoang =       2    mqgrid =    3001
     natom =       8  nloc_mem =       2    nspden =       2   nspinor =       1
    nsppol =       2      nsym =       8    n1xccc =       1    ntypat =       2
    occopt =       0   xclevel =       2
-    mband =          33        mffmem =           1         mkmem =           1
       mpw =         231          nfft =        8000          nkpt =           1
  nimage =         3
 PAW method is used; the additional fine FFT grid is defined by:
   mgfftf=        50    nfftf =    125000
================================================================================
P This job should need less than                      56.102 Mbytes of memory.
  Rough estimation (10% accuracy) of disk space for files :
_ WF disk file :      0.235 Mbytes ; DEN or POT disk file :      1.909 Mbytes.
================================================================================

--------------------------------------------------------------------------------
------------- Echo of variables that govern the present computation ------------
--------------------------------------------------------------------------------
-
- outvars: echo of selected default values                                      
-   iomode0 =  0 , fftalg0 =312 , wfoptalg0 = 10
-
- outvars: echo of global parameters not present in the input file              
-  max_nthreads =    0
-
 -outvars: echo values of preprocessed input variables --------
            acell      1.2245430000E+01  1.2245430000E+01  1.2245430000E+01 Bohr
              amu      2.29897680E+01  1.26904470E+02
       cellcharge1     0.0000000000E+00
  cellcharge_2img1     2.5000000000E-02
  cellcharge_3img1     5.0000000000E-02
           diemac      2.00000000E+00
             ecut      3.00000000E+00 Hartree
-          fftalg         312
           imgmov           6
           ionmov           2
           istwfk        2
              ixc     -101130
           jdtset        1
           kptopt           0
        mixesimgf     -5.90000000E+01  8.00000000E+01 -2.00000000E+01
P           mkmem           1
            natom           8
            nband          33
           ndtset           1
        ndynimage           3
            ngfft          20      20      20
          ngfftdg          50      50      50
           nimage           3
             nkpt           1
           nspden           2
           nsppol           2
            nstep           4
             nsym           8
        ntimimage           3
           ntypat           2
              occ      1.000000  1.000000  1.000000  1.000000  1.000000  1.000000
                       1.000000  1.000000  1.000000  1.000000  1.000000  1.000000
                       1.000000  1.000000  1.000000  1.000000  1.000000  1.000000
                       1.000000  1.000000  1.000000  1.000000  1.000000  1.000000
                       1.000000  1.000000  1.000000  1.000000  1.000000  1.000000
                       1.000000  1.000000  0.000000
                       1.000000  1.000000  1.000000  1.000000  1.000000  1.000000
                       1.000000  1.000000  1.000000  1.000000  1.000000  1.000000
                       1.000000  1.000000  1.000000  1.000000  1.000000  1.000000
                       1.000000  1.000000  1.000000  1.000000  1.000000  1.000000
                       1.000000  1.000000  1.000000  1.000000  1.000000  1.000000
                       1.000000  1.000000  0.000000
         occ_2img      1.000000  1.000000  1.000000  1.000000  1.000000  1.000000
                       1.000000  1.000000  1.000000  1.000000  1.000000  1.000000
                       1.000000  1.000000  1.000000  1.000000  1.000000  1.000000
                       1.000000  1.000000  1.000000  1.000000  1.000000  1.000000
                       1.000000  1.000000  1.000000  1.000000  1.000000  1.000000
                       1.000000  0.975000  0.000000
                       1.000000  1.000000  1.000000  1.000000  1.000000  1.000000
                       1.000000  1.000000  1.000000  1.000000  1.000000  1.000000
                       1.000000  1.000000  1.000000  1.000000  1.000000  1.000000
                       1.000000  1.000000  1.000000  1.000000  1.000000  1.000000
                       1.000000  1.000000  1.000000  1.000000  1.000000  1.000000
                       1.000000  1.000000  0.000000
         occ_3img      1.000000  1.000000  1.000000  1.000000  1.000000  1.000000
                       1.000000  1.000000  1.000000  1.000000  1.000000  1.000000
                       1.000000  1.000000  1.000000  1.000000  1.000000  1.000000
                       1.000000  1.000000  1.000000  1.000000  1.000000  1.000000
                       1.000000  1.000000  1.000000  1.000000  1.000000  1.000000
                       1.000000  0.950000  0.000000
                       1.000000  1.000000  1.000000  1.000000  1.000000  1.000000
                       1.000000  1.000000  1.000000  1.000000  1.000000  1.000000
                       1.000000  1.000000  1.000000  1.000000  1.000000  1.000000
                       1.000000  1.000000  1.000000  1.000000  1.000000  1.000000
                       1.000000  1.000000  1.000000  1.000000  1.000000  1.000000
                       1.000000  1.000000  0.000000
           occopt           0
        optforces           1
        pawecutdg      2.00000000E+01 Hartree
           prtden           0
        prtebands           0
           prteig           0
           prtvol           1
            prtwf           0
          spgroup          65
           symrel      1  0  0   0  1  0   0  0  1      -1  0  0   0 -1  0   0  0 -1
                      -1  0  0   0 -1  0   0  0  1       1  0  0   0  1  0   0  0 -1
                       0  1  0   1  0  0   0  0  1       0 -1  0  -1  0  0   0  0 -1
                       0 -1  0  -1  0  0   0  0  1       0  1  0   1  0  0   0  0 -1
            tnons      0.0000000  0.0000000  0.0000000     0.5000000  0.5000000  0.0000000
                       0.5000000  0.5000000  0.0000000     0.0000000  0.0000000  0.0000000
                       0.0000000  0.0000000  0.0000000     0.5000000  0.5000000  0.0000000
                       0.5000000  0.5000000  0.0000000     0.0000000  0.0000000  0.0000000
           tolimg      1.00000000E-06 Hartree
           tolmxf      1.00000000E-06
           tolrff      2.00000000E-02
            typat      1  1  1  1  2  2  2  2
           useylm           1
           xangst      0.0000000000E+00  0.0000000000E+00  0.0000000000E+00
                       0.0000000000E+00  3.2400012327E+00  3.2400012327E+00
                       3.2400012327E+00  0.0000000000E+00  3.2400012327E+00
                       3.2400012327E+00  3.2400012327E+00  0.0000000000E+00
                       3.1752012080E+00  6.4800024654E-02  0.0000000000E+00
                       6.4800024654E-02  3.1752012080E+00  0.0000000000E+00
                       0.0000000000E+00  0.0000000000E+00  3.2400012327E+00
                       3.2400012327E+00  3.2400012327E+00  3.2400012327E+00
            xcart      0.0000000000E+00  0.0000000000E+00  0.0000000000E+00
                       0.0000000000E+00  6.1227150000E+00  6.1227150000E+00
                       6.1227150000E+00  0.0000000000E+00  6.1227150000E+00
                       6.1227150000E+00  6.1227150000E+00  0.0000000000E+00
                       6.0002607000E+00  1.2245430000E-01  0.0000000000E+00
                       1.2245430000E-01  6.0002607000E+00  0.0000000000E+00
                       0.0000000000E+00  0.0000000000E+00  6.1227150000E+00
                       6.1227150000E+00  6.1227150000E+00  6.1227150000E+00
             xred      0.0000000000E+00  0.0000000000E+00  0.0000000000E+00
                       0.0000000000E+00  5.0000000000E-01  5.0000000000E-01
                       5.0000000000E-01  0.0000000000E+00  5.0000000000E-01
                       5.0000000000E-01  5.0000000000E-01  0.0000000000E+00
                       4.9000000000E-01  1.0000000000E-02  0.0000000000E+00
                       1.0000000000E-02  4.9000000000E-01  0.0000000000E+00
                       0.0000000000E+00  0.0000000000E+00  5.0000000000E-01
                       5.0000000000E-01  5.0000000000E-01  5.0000000000E-01
            znucl       11.00000   53.00000

================================================================================

 chkinp: Checking input parameters for consistency, jdtset=   1.

================================================================================
== DATASET  1 ==================================================================
-   mpi_nproc: 1, omp_nthreads: -1 (-1 if OMP is not activated)


--- !DatasetInfo
iteration_state: {dtset: 1, }
dimensions: {natom: 8, nkpt: 1, mband: 33, nsppol: 2, nspinor: 1, nspden: 2, mpw: 231, }
cutoff_energies: {ecut:   3.0, pawecutdg:  20.0, }
electrons: {nelect:   6.40000000E+01, charge:   0.00000000E+00, occopt:   0.00000000E+00, tsmear:   1.00000000E-02, }
meta: {optdriver: 0, ionmov: 2, optcell: 0, iscf: 17, paral_kgb: 0, }
...


================================================================================
 LINEAR COMBINATION OF CONSTRAINED DFT ENERGIES - TIME STEP     1
================================================================================

--------------------------------------------------------------------------------
 LINEAR COMBINATION OF CONSTRAINED DFT ENERGIES - CELL #    1/   3
--------------------------------------------------------------------------------

 Real(R)+Recip(G) space primitive vectors, cartesian coordinates (Bohr,Bohr^-1):
 R(1)= 12.2454300  0.0000000  0.0000000  G(1)=  0.0816631  0.0000000  0.0000000
 R(2)=  0.0000000 12.2454300  0.0000000  G(2)=  0.0000000  0.0816631  0.0000000
 R(3)=  0.0000000  0.0000000 12.2454300  G(3)=  0.0000000  0.0000000  0.0816631
 Unit cell volume ucvol=  1.8362090E+03 bohr^3
 Angles (23,13,12)=  9.00000000E+01  9.00000000E+01  9.00000000E+01 degrees

 Coarse grid specifications (used for wave-functions):

 getcut: wavevector=  0.0000  0.0000  0.0000  ngfft=  20  20  20
         ecut(hartree)=      3.000   => boxcut(ratio)=   2.09474

 Fine grid specifications (used for densities):

 getcut: wavevector=  0.0000  0.0000  0.0000  ngfft=  50  50  50
         ecut(hartree)=     20.000   => boxcut(ratio)=   2.02822

--- Pseudopotential description ------------------------------------------------
- pspini: atom type   1  psp file is /Users/gonze/_Research/ABINIT_git/gonze/tests//Psps_for_tests//Pseudodojo_paw_pbe_standard/Na.xml
- pspatm: opening atomic psp file    /Users/gonze/_Research/ABINIT_git/gonze/tests//Psps_for_tests//Pseudodojo_paw_pbe_standard/Na.xml
- pspatm : Reading pseudopotential header in XML form from /Users/gonze/_Research/ABINIT_git/gonze/tests//Psps_for_tests//Pseudodojo_paw_pbe_standard/Na.xml
 Pseudopotential format is: paw10
 basis_size (lnmax)=  4 (lmn_size=  8), orbitals=   0   0   1   1
 Spheres core radius: rc_sph= 1.60198715
 1 radial meshes are used:
  - mesh 1: r(i)=AA*[exp(BB*(i-1))-1], size=2001 , AA= 0.54109E-03 BB= 0.59520E-02
 Shapefunction is SIN type: shapef(r)=[sin(pi*r/rshp)/(pi*r/rshp)]**2
 Radius for shape functions =  1.40530451
 mmax= 2001
 Radial grid used for partial waves is grid 1
 Radial grid used for projectors is grid 1
 Radial grid used for (t)core density is grid 1
 Radial grid used for Vloc is grid 1
 Radial grid used for pseudo valence density is grid 1
 Mesh size for Vloc has been set to 1768 to avoid numerical noise.
 Compensation charge density is not taken into account in XC energy/potential
 pspatm: atomic psp has been read  and splines computed

- pspini: atom type   2  psp file is /Users/gonze/_Research/ABINIT_git/gonze/tests//Psps_for_tests//Pseudodojo_paw_pbe_standard/I.xml
- pspatm: opening atomic psp file    /Users/gonze/_Research/ABINIT_git/gonze/tests//Psps_for_tests//Pseudodojo_paw_pbe_standard/I.xml
- pspatm : Reading pseudopotential header in XML form from /Users/gonze/_Research/ABINIT_git/gonze/tests//Psps_for_tests//Pseudodojo_paw_pbe_standard/I.xml
 Pseudopotential format is: paw10
 basis_size (lnmax)=  4 (lmn_size=  8), orbitals=   0   0   1   1
 Spheres core radius: rc_sph= 2.30022271
 1 radial meshes are used:
  - mesh 1: r(i)=AA*[exp(BB*(i-1))-1], size=2000 , AA= 0.12610E-03 BB= 0.66836E-02
 Shapefunction is SIN type: shapef(r)=[sin(pi*r/rshp)/(pi*r/rshp)]**2
 Radius for shape functions =  2.10879093
 mmax= 2000
 Radial grid used for partial waves is grid 1
 Radial grid used for projectors is grid 1
 Radial grid used for (t)core density is grid 1
 Radial grid used for Vloc is grid 1
 Radial grid used for pseudo valence density is grid 1
 Mesh size for Vloc has been set to 1792 to avoid numerical noise.
 Compensation charge density is not taken into account in XC energy/potential
 pspatm: atomic psp has been read  and splines computed

   2.59167868E+04                                ecore*ucvol(ha*bohr**3)
--------------------------------------------------------------------------------

P newkpt: treating     33 bands with npw=     231 for ikpt=   1 by node    0
P newkpt: treating     33 bands with npw=     231 for ikpt=   1 by node    0
_setup2: Arith. and geom. avg. npw (full set) are     461.000     461.000

================================================================================

--- !BeginCycle
iteration_state: {dtset: 1, timimage: 1, image: 1, }
solver: {iscf: 17, nstep: 4, nline: 4, wfoptalg: 10, }
tolerances: {tolrff: 2.00E-02, }
...

     iter   Etot(hartree)      deltaE(h)  residm     nres2    diffor    maxfor
 ETOT  1  -213.72408545971    -2.137E+02 6.799E-01 1.718E+03 7.959E-02 7.959E-02
 ETOT  2  -191.00255432120     2.272E+01 3.423E-03 1.152E+02 7.192E-02 2.770E-02
 ETOT  3  -190.49107793771     5.115E-01 6.381E-03 8.433E+00 4.343E-02 1.572E-02
 ETOT  4  -190.35058117872     1.405E-01 3.775E-04 1.028E+00 2.560E-02 9.878E-03

 Cartesian components of stress tensor (hartree/bohr^3)
  sigma(1 1)=  2.15521277E-02  sigma(3 2)=  0.00000000E+00
  sigma(2 2)=  2.15521277E-02  sigma(3 1)=  0.00000000E+00
  sigma(3 3)=  2.15289059E-02  sigma(2 1)=  2.57270065E-06


 scprqt:  WARNING -
  nstep=    4 was not enough SCF cycles to converge;
  maximum force difference=  2.560E-02 exceeds tolrff*maxfor=  1.976E-04


--- !ResultsGS
iteration_state: {dtset: 1, timimage: 1, image: 1, }
comment   : Summary of ground state results
lattice_vectors:
- [ 12.2454300,   0.0000000,   0.0000000, ]
- [  0.0000000,  12.2454300,   0.0000000, ]
- [  0.0000000,   0.0000000,  12.2454300, ]
lattice_lengths: [  12.24543,   12.24543,   12.24543, ]
lattice_angles: [ 90.000,  90.000,  90.000, ] # degrees, (23, 13, 12)
lattice_volume:   1.8362090E+03
convergence: {deltae:  1.405E-01, res2:  1.028E+00, residm:  3.775E-04, diffor:  2.560E-02, }
etotal    :  -1.90350581E+02
entropy   :   0.00000000E+00
fermie    :  -9.81744792E-02
cartesian_stress_tensor: # hartree/bohr^3
- [  2.15521277E-02,   2.57270065E-06,   0.00000000E+00, ]
- [  2.57270065E-06,   2.15521277E-02,   0.00000000E+00, ]
- [  0.00000000E+00,   0.00000000E+00,   2.15289059E-02, ]
pressure_GPa:  -6.3386E+02
xred      :
- [  0.0000E+00,   0.0000E+00,   0.0000E+00, Na]
- [  0.0000E+00,   5.0000E-01,   5.0000E-01, Na]
- [  5.0000E-01,   0.0000E+00,   5.0000E-01, Na]
- [  5.0000E-01,   5.0000E-01,   0.0000E+00, Na]
- [  4.9000E-01,   1.0000E-02,   0.0000E+00,  I]
- [  1.0000E-02,   4.9000E-01,   0.0000E+00,  I]
- [  0.0000E+00,   0.0000E+00,   5.0000E-01,  I]
- [  5.0000E-01,   5.0000E-01,   5.0000E-01,  I]
cartesian_forces: # hartree/bohr
- [ -1.99268849E-03,  -1.99268849E-03,  -0.00000000E+00, ]
- [ -1.49963922E-03,   1.49963922E-03,  -0.00000000E+00, ]
- [  1.49963922E-03,  -1.49963922E-03,  -0.00000000E+00, ]
- [  1.99268849E-03,   1.99268849E-03,  -0.00000000E+00, ]
- [ -9.87788566E-03,   9.87788566E-03,   1.72928380E-23, ]
- [  9.87788566E-03,  -9.87788566E-03,  -1.72928380E-23, ]
- [ -9.62597978E-03,  -9.62597978E-03,  -0.00000000E+00, ]
- [  9.62597978E-03,   9.62597978E-03,  -0.00000000E+00, ]
force_length_stats: {min:   2.12081012E-03, max:   1.39694399E-02, mean:   8.13038206E-03, }
...

 Integrated electronic and magnetization densities in atomic spheres:
 ---------------------------------------------------------------------
 Radius=ratsph(iatom), smearing ratsm=  0.0000. Diff(up-dn)=approximate z local magnetic moment.
 Atom    Radius    up_density   dn_density  Total(up+dn)  Diff(up-dn)
    1   1.60199     2.686617     2.686617      5.373234     0.000000
    2   1.60199     2.684781     2.684781      5.369562     0.000000
    3   1.60199     2.684781     2.684781      5.369562     0.000000
    4   1.60199     2.686617     2.686617      5.373234     0.000000
    5   2.30022     2.054165     2.054165      4.108330    -0.000000
    6   2.30022     2.054165     2.054165      4.108330    -0.000000
    7   2.30022     2.121188     2.121188      4.242377    -0.000000
    8   2.30022     2.121188     2.121188      4.242377    -0.000000
 ---------------------------------------------------------------------
  Sum:             19.093503    19.093503     38.187007    -0.000000
 Total magnetization (from the atomic spheres):            -0.000000
 Total magnetization (exact up - dn):                       0.000000

 PAW TEST:
 ==== Compensation charge inside spheres ============
 The following values must be close to each other ...
 Compensation charge over spherical meshes =      0.065853016097105
 Compensation charge over fine fft grid    =      0.076163974315270

 ==== Results concerning PAW augmentation regions ====

 Total pseudopotential strength Dij (hartree):
 Atom #  1 - Spin component 1
  -3.09476   0.41821   0.00013   0.00000   0.00013  -0.00001   0.00000  -0.00001
   0.41821  -0.05205  -0.00002   0.00000  -0.00002   0.00000   0.00000   0.00000
   0.00013  -0.00002  -3.44454   0.00000   0.00002   0.30600   0.00000  -0.00000
   0.00000   0.00000   0.00000  -3.44474   0.00000   0.00000   0.30602   0.00000
   0.00013  -0.00002   0.00002   0.00000  -3.44454  -0.00000   0.00000   0.30600
  -0.00001   0.00000   0.30600   0.00000  -0.00000  -0.02644   0.00000   0.00000
   0.00000   0.00000   0.00000   0.30602   0.00000   0.00000  -0.02644   0.00000
  -0.00001   0.00000  -0.00000   0.00000   0.30600   0.00000   0.00000  -0.02644
 Atom #  1 - Spin component 2
  -3.09476   0.41821   0.00013   0.00000   0.00013  -0.00001   0.00000  -0.00001
   0.41821  -0.05205  -0.00002   0.00000  -0.00002   0.00000   0.00000   0.00000
   0.00013  -0.00002  -3.44454   0.00000   0.00002   0.30600   0.00000  -0.00000
   0.00000   0.00000   0.00000  -3.44474   0.00000   0.00000   0.30602   0.00000
   0.00013  -0.00002   0.00002   0.00000  -3.44454  -0.00000   0.00000   0.30600
  -0.00001   0.00000   0.30600   0.00000  -0.00000  -0.02644   0.00000   0.00000
   0.00000   0.00000   0.00000   0.30602   0.00000   0.00000  -0.02644   0.00000
  -0.00001   0.00000  -0.00000   0.00000   0.30600   0.00000   0.00000  -0.02644
 Atom #  8 - Spin component 1
  -1.04524   2.46976   0.00017   0.00000   0.00017  -0.00068   0.00000  -0.00068
   2.46976  -7.42020  -0.00037   0.00000  -0.00037   0.00150   0.00000   0.00150
   0.00017  -0.00037  -0.33115   0.00000   0.00002   1.34011   0.00000  -0.00010
   0.00000   0.00000   0.00000  -0.33126   0.00000   0.00000   1.34060   0.00000
   0.00017  -0.00037   0.00002   0.00000  -0.33115  -0.00010   0.00000   1.34011
  -0.00068   0.00150   1.34011   0.00000  -0.00010  -6.52922   0.00000   0.00043
   0.00000   0.00000   0.00000   1.34060   0.00000   0.00000  -6.53131   0.00000
  -0.00068   0.00150  -0.00010   0.00000   1.34011   0.00043   0.00000  -6.52922
 Atom #  8 - Spin component 2
  -1.04524   2.46976   0.00017   0.00000   0.00017  -0.00068   0.00000  -0.00068
   2.46976  -7.42020  -0.00037   0.00000  -0.00037   0.00150   0.00000   0.00150
   0.00017  -0.00037  -0.33115   0.00000   0.00002   1.34011   0.00000  -0.00010
   0.00000   0.00000   0.00000  -0.33126   0.00000   0.00000   1.34060   0.00000
   0.00017  -0.00037   0.00002   0.00000  -0.33115  -0.00010   0.00000   1.34011
  -0.00068   0.00150   1.34011   0.00000  -0.00010  -6.52922   0.00000   0.00043
   0.00000   0.00000   0.00000   1.34060   0.00000   0.00000  -6.53131   0.00000
  -0.00068   0.00150  -0.00010   0.00000   1.34011   0.00043   0.00000  -6.52922


 Augmentation waves occupancies Rhoij:
 Atom #  1 - Spin component 1
   0.89956   0.32497  -0.00054   0.00000  -0.00054  -0.00285   0.00000  -0.00285
   0.32497   0.16008  -0.01203   0.00000  -0.01203  -0.05970   0.00000  -0.05970
  -0.00054  -0.01203   1.22455   0.00000  -0.00002   7.51754   0.00000  -0.00011
   0.00000   0.00000   0.00000   1.22370   0.00000   0.00000   7.51381   0.00000
  -0.00054  -0.01203  -0.00002   0.00000   1.22455  -0.00011   0.00000   7.51754
  -0.00285  -0.05970   7.51754   0.00000  -0.00011  46.19753   0.00000  -0.00071
   0.00000   0.00000   0.00000   7.51381   0.00000   0.00000  46.18082   0.00000
  -0.00285  -0.05970  -0.00011   0.00000   7.51754  -0.00071   0.00000  46.19753
 pawio_print_ij: WARNING -
  The matrix seems to have high value(s) !
  (  3 components have a value greater than   25.0).
  It can cause instabilities during SCF convergence.
  Action: you should check your atomic dataset (psp file)
          and look for "high" projector functions...
 Atom #  1 - Spin component 2
   0.89956   0.32497  -0.00054   0.00000  -0.00054  -0.00285   0.00000  -0.00285
   0.32497   0.16008  -0.01203   0.00000  -0.01203  -0.05970   0.00000  -0.05970
  -0.00054  -0.01203   1.22455   0.00000  -0.00002   7.51754   0.00000  -0.00011
   0.00000   0.00000   0.00000   1.22370   0.00000   0.00000   7.51381   0.00000
  -0.00054  -0.01203  -0.00002   0.00000   1.22455  -0.00011   0.00000   7.51754
  -0.00285  -0.05970   7.51754   0.00000  -0.00011  46.19753   0.00000  -0.00071
   0.00000   0.00000   0.00000   7.51381   0.00000   0.00000  46.18082   0.00000
  -0.00285  -0.05970  -0.00011   0.00000   7.51754  -0.00071   0.00000  46.19753
 Atom #  8 - Spin component 1
   0.87627  -0.03410  -0.00285   0.00000  -0.00285   0.00033   0.00000   0.00033
  -0.03410   0.00188   0.00223   0.00000   0.00223  -0.00001   0.00000  -0.00001
  -0.00285   0.00223   0.93577   0.00000   0.00041  -0.00377   0.00000  -0.00001
   0.00000   0.00000   0.00000   0.93613   0.00000   0.00000  -0.00358   0.00000
  -0.00285   0.00223   0.00041   0.00000   0.93577  -0.00001   0.00000  -0.00377
   0.00033  -0.00001  -0.00377   0.00000  -0.00001   0.00089   0.00000   0.00000
   0.00000   0.00000   0.00000  -0.00358   0.00000   0.00000   0.00089   0.00000
   0.00033  -0.00001  -0.00001   0.00000  -0.00377   0.00000   0.00000   0.00089
 Atom #  8 - Spin component 2
   0.87627  -0.03410  -0.00285   0.00000  -0.00285   0.00033   0.00000   0.00033
  -0.03410   0.00188   0.00223   0.00000   0.00223  -0.00001   0.00000  -0.00001
  -0.00285   0.00223   0.93577   0.00000   0.00041  -0.00377   0.00000  -0.00001
   0.00000   0.00000   0.00000   0.93613   0.00000   0.00000  -0.00358   0.00000
  -0.00285   0.00223   0.00041   0.00000   0.93577  -0.00001   0.00000  -0.00377
   0.00033  -0.00001  -0.00377   0.00000  -0.00001   0.00089   0.00000   0.00000
   0.00000   0.00000   0.00000  -0.00358   0.00000   0.00000   0.00089   0.00000
   0.00033  -0.00001  -0.00001   0.00000  -0.00377   0.00000   0.00000   0.00089


================================================================================

 ----iterations are completed or convergence reached----

 Mean square residual over all n,k,spin=   12.200E-05; max=  37.753E-05
 reduced coordinates (array xred) for    8 atoms
       0.000000000000      0.000000000000      0.000000000000
       0.000000000000      0.500000000000      0.500000000000
       0.500000000000      0.000000000000      0.500000000000
       0.500000000000      0.500000000000      0.000000000000
       0.490000000000      0.010000000000      0.000000000000
       0.010000000000      0.490000000000      0.000000000000
       0.000000000000      0.000000000000      0.500000000000
       0.500000000000      0.500000000000      0.500000000000
 rms dE/dt=  7.0069E-02; max dE/dt=  1.2096E-01; dE/dt below (all hartree)
    1       0.024401327462      0.024401327462      0.000000000000
    2       0.018363727065     -0.018363727065      0.000000000000
    3      -0.018363727065      0.018363727065      0.000000000000
    4      -0.024401327462     -0.024401327462      0.000000000000
    5       0.120958957349     -0.120958957349     -0.000000000000
    6      -0.120958957349      0.120958957349      0.000000000000
    7       0.117874261556      0.117874261556      0.000000000000
    8      -0.117874261556     -0.117874261556      0.000000000000

 cartesian coordinates (angstrom) at end:
    1      0.00000000000000     0.00000000000000     0.00000000000000
    2      0.00000000000000     3.24000123269212     3.24000123269212
    3      3.24000123269212     0.00000000000000     3.24000123269212
    4      3.24000123269212     3.24000123269212     0.00000000000000
    5      3.17520120803828     0.06480002465384     0.00000000000000
    6      0.06480002465384     3.17520120803828     0.00000000000000
    7      0.00000000000000     0.00000000000000     3.24000123269212
    8      3.24000123269212     3.24000123269212     3.24000123269212

 cartesian forces (hartree/bohr) at end:
    1     -0.00199268849375    -0.00199268849375    -0.00000000000000
    2     -0.00149963921765     0.00149963921765    -0.00000000000000
    3      0.00149963921765    -0.00149963921765    -0.00000000000000
    4      0.00199268849375     0.00199268849375    -0.00000000000000
    5     -0.00987788565607     0.00987788565607     0.00000000000000
    6      0.00987788565607    -0.00987788565607    -0.00000000000000
    7     -0.00962597977823    -0.00962597977823    -0.00000000000000
    8      0.00962597977823     0.00962597977823    -0.00000000000000
 frms,max,avg= 5.7220602E-03 9.8778857E-03   0.000E+00  0.000E+00  0.000E+00 h/b

 cartesian forces (eV/Angstrom) at end:
    1     -0.10246815364787    -0.10246815364787    -0.00000000000000
    2     -0.07711454261535     0.07711454261535    -0.00000000000000
    3      0.07711454261535    -0.07711454261535    -0.00000000000000
    4      0.10246815364787     0.10246815364787    -0.00000000000000
    5     -0.50794126041217     0.50794126041217     0.00000000000000
    6      0.50794126041217    -0.50794126041217    -0.00000000000000
    7     -0.49498774044305    -0.49498774044305    -0.00000000000000
    8      0.49498774044305     0.49498774044305    -0.00000000000000
 frms,max,avg= 2.9424014E-01 5.0794126E-01   0.000E+00  0.000E+00  0.000E+00 e/A
 length scales= 12.245430000000 12.245430000000 12.245430000000 bohr
              =  6.480002465384  6.480002465384  6.480002465384 angstroms
 Fermi (or HOMO) energy (hartree) =  -0.09817   Average Vxc (hartree)=  -0.30855
 Eigenvalues (hartree) for nkpt=   1  k points, SPIN UP:
 kpt#   1, nband= 33, wtk=  1.00000, kpt=  0.0000  0.0000  0.0000 (reduced coord)
  -3.69421   -3.69089   -3.68718   -3.64532   -0.92130   -0.91737   -0.91731   -0.91700
  -0.91688   -0.91192   -0.82449   -0.82420   -0.82419   -0.77169   -0.77150   -0.77057
  -0.53098   -0.52176   -0.48928   -0.48209   -0.17513   -0.17423   -0.17119   -0.14856
  -0.14222   -0.14129   -0.12921   -0.12845   -0.11637   -0.10106   -0.09975   -0.09817
  -0.04066
 Eigenvalues (hartree) for nkpt=   1  k points, SPIN DOWN:
 kpt#   1, nband= 33, wtk=  1.00000, kpt=  0.0000  0.0000  0.0000 (reduced coord)
  -3.69421   -3.69089   -3.68718   -3.64532   -0.92130   -0.91737   -0.91731   -0.91700
  -0.91688   -0.91192   -0.82449   -0.82420   -0.82419   -0.77169   -0.77150   -0.77057
  -0.53098   -0.52176   -0.48928   -0.48209   -0.17513   -0.17423   -0.17119   -0.14856
  -0.14222   -0.14129   -0.12921   -0.12845   -0.11637   -0.10106   -0.09975   -0.09817
  -0.04066

--- !EnergyTerms
iteration_state     : {dtset: 1, timimage: 1, image: 1, }
comment             : Components of total free energy in Hartree
kinetic             :  5.40555734456901E+01
hartree             :  3.36015145471572E+01
xc                  : -3.16577972928655E+01
Ewald energy        : -1.19739260955354E+02
psp_core            :  1.41142899641588E+01
local_psp           : -1.05694841140434E+02
spherical_terms     : -3.45473463129577E+01
total_energy        : -1.89867867744605E+02
total_energy_eV     : -5.16656743187816E+03
...


--- !EnergyTermsDC
iteration_state     : {dtset: 1, timimage: 1, image: 1, }
comment             : '"Double-counting" decomposition of free energy'
band_energy         : -5.73115137324125E+01
Ewald energy        : -1.19739260955354E+02
psp_core            :  1.41142899641588E+01
xc_dc               : -3.11459782116614E+01
spherical_terms     :  3.73188175655220E+00
total_energy_dc     : -1.90350581178717E+02
total_energy_dc_eV  : -5.17970273242817E+03
...


 Cartesian components of stress tensor (hartree/bohr^3)
  sigma(1 1)=  2.15521277E-02  sigma(3 2)=  0.00000000E+00
  sigma(2 2)=  2.15521277E-02  sigma(3 1)=  0.00000000E+00
  sigma(3 3)=  2.15289059E-02  sigma(2 1)=  2.57270065E-06

-Cartesian components of stress tensor (GPa)         [Pressure= -6.3386E+02 GPa]
- sigma(1 1)=  6.34085382E+02  sigma(3 2)=  0.00000000E+00
- sigma(2 2)=  6.34085382E+02  sigma(3 1)=  0.00000000E+00
- sigma(3 3)=  6.33402173E+02  sigma(2 1)=  7.56914537E-02


--------------------------------------------------------------------------------
 LINEAR COMBINATION OF CONSTRAINED DFT ENERGIES - CELL #    2/   3
--------------------------------------------------------------------------------

 Real(R)+Recip(G) space primitive vectors, cartesian coordinates (Bohr,Bohr^-1):
 R(1)= 12.2454300  0.0000000  0.0000000  G(1)=  0.0816631  0.0000000  0.0000000
 R(2)=  0.0000000 12.2454300  0.0000000  G(2)=  0.0000000  0.0816631  0.0000000
 R(3)=  0.0000000  0.0000000 12.2454300  G(3)=  0.0000000  0.0000000  0.0816631
 Unit cell volume ucvol=  1.8362090E+03 bohr^3
 Angles (23,13,12)=  9.00000000E+01  9.00000000E+01  9.00000000E+01 degrees

 Coarse grid specifications (used for wave-functions):

 getcut: wavevector=  0.0000  0.0000  0.0000  ngfft=  20  20  20
         ecut(hartree)=      3.000   => boxcut(ratio)=   2.09474

 Fine grid specifications (used for densities):

 getcut: wavevector=  0.0000  0.0000  0.0000  ngfft=  50  50  50
         ecut(hartree)=     20.000   => boxcut(ratio)=   2.02822
--------------------------------------------------------------------------------

P newkpt: treating     33 bands with npw=     231 for ikpt=   1 by node    0
P newkpt: treating     33 bands with npw=     231 for ikpt=   1 by node    0
_setup2: Arith. and geom. avg. npw (full set) are     461.000     461.000

================================================================================

--- !BeginCycle
iteration_state: {dtset: 1, timimage: 1, image: 2, }
solver: {iscf: 17, nstep: 4, nline: 4, wfoptalg: 10, }
tolerances: {tolrff: 2.00E-02, }
...

     iter   Etot(hartree)      deltaE(h)  residm     nres2    diffor    maxfor
 ETOT  1  -213.72547763003    -2.137E+02 6.799E-01 1.718E+03 7.972E-02 7.972E-02
 ETOT  2  -191.00085777303     2.272E+01 3.422E-03 1.152E+02 7.185E-02 2.793E-02
 ETOT  3  -190.48804585199     5.128E-01 6.427E-03 8.393E+00 4.363E-02 1.570E-02
 ETOT  4  -190.34798557351     1.401E-01 3.810E-04 1.015E+00 2.557E-02 9.870E-03

 Cartesian components of stress tensor (hartree/bohr^3)
  sigma(1 1)=  2.15565585E-02  sigma(3 2)=  0.00000000E+00
  sigma(2 2)=  2.15565585E-02  sigma(3 1)=  0.00000000E+00
  sigma(3 3)=  2.15341566E-02  sigma(2 1)=  1.89181297E-06


 scprqt:  WARNING -
  nstep=    4 was not enough SCF cycles to converge;
  maximum force difference=  2.557E-02 exceeds tolrff*maxfor=  1.974E-04


--- !ResultsGS
iteration_state: {dtset: 1, timimage: 1, image: 2, }
comment   : Summary of ground state results
lattice_vectors:
- [ 12.2454300,   0.0000000,   0.0000000, ]
- [  0.0000000,  12.2454300,   0.0000000, ]
- [  0.0000000,   0.0000000,  12.2454300, ]
lattice_lengths: [  12.24543,   12.24543,   12.24543, ]
lattice_angles: [ 90.000,  90.000,  90.000, ] # degrees, (23, 13, 12)
lattice_volume:   1.8362090E+03
convergence: {deltae:  1.401E-01, res2:  1.015E+00, residm:  3.810E-04, diffor:  2.557E-02, }
etotal    :  -1.90347986E+02
entropy   :   0.00000000E+00
fermie    :  -9.85579950E-02
cartesian_stress_tensor: # hartree/bohr^3
- [  2.15565585E-02,   1.89181297E-06,   0.00000000E+00, ]
- [  1.89181297E-06,   2.15565585E-02,   0.00000000E+00, ]
- [  0.00000000E+00,   0.00000000E+00,   2.15341566E-02, ]
pressure_GPa:  -6.3400E+02
xred      :
- [  0.0000E+00,   0.0000E+00,   0.0000E+00, Na]
- [  0.0000E+00,   5.0000E-01,   5.0000E-01, Na]
- [  5.0000E-01,   0.0000E+00,   5.0000E-01, Na]
- [  5.0000E-01,   5.0000E-01,   0.0000E+00, Na]
- [  4.9000E-01,   1.0000E-02,   0.0000E+00,  I]
- [  1.0000E-02,   4.9000E-01,   0.0000E+00,  I]
- [  0.0000E+00,   0.0000E+00,   5.0000E-01,  I]
- [  5.0000E-01,   5.0000E-01,   5.0000E-01,  I]
cartesian_forces: # hartree/bohr
- [ -1.95021019E-03,  -1.95021019E-03,  -0.00000000E+00, ]
- [ -1.43068450E-03,   1.43068450E-03,  -0.00000000E+00, ]
- [  1.43068450E-03,  -1.43068450E-03,  -0.00000000E+00, ]
- [  1.95021019E-03,   1.95021019E-03,  -0.00000000E+00, ]
- [ -9.86985149E-03,   9.86985149E-03,  -0.00000000E+00, ]
- [  9.86985149E-03,  -9.86985149E-03,  -0.00000000E+00, ]
- [ -9.77590879E-03,  -9.77590879E-03,   8.64641898E-24, ]
- [  9.77590879E-03,   9.77590879E-03,  -8.64641898E-24, ]
force_length_stats: {min:   2.02329342E-03, max:   1.39580778E-02, mean:   8.14115194E-03, }
...

 Integrated electronic and magnetization densities in atomic spheres:
 ---------------------------------------------------------------------
 Radius=ratsph(iatom), smearing ratsm=  0.0000. Diff(up-dn)=approximate z local magnetic moment.
 Atom    Radius    up_density   dn_density  Total(up+dn)  Diff(up-dn)
    1   1.60199     2.686595     2.686626      5.373222    -0.000031
    2   1.60199     2.684769     2.684767      5.369535     0.000002
    3   1.60199     2.684769     2.684767      5.369535     0.000002
    4   1.60199     2.686595     2.686626      5.373222    -0.000031
    5   2.30022     2.049939     2.055608      4.105547    -0.005669
    6   2.30022     2.049939     2.055608      4.105547    -0.005669
    7   2.30022     2.119863     2.120779      4.240642    -0.000916
    8   2.30022     2.119863     2.120779      4.240642    -0.000916
 ---------------------------------------------------------------------
  Sum:             19.082333    19.095560     38.177893    -0.013227
 Total magnetization (from the atomic spheres):            -0.013227
 Total magnetization (exact up - dn):                      -0.025000

 PAW TEST:
 ==== Compensation charge inside spheres ============
 The following values must be close to each other ...
 Compensation charge over spherical meshes =      0.066851404124456
 Compensation charge over fine fft grid    =      0.076479869971178

 ==== Results concerning PAW augmentation regions ====

 Total pseudopotential strength Dij (hartree):
 Atom #  1 - Spin component 1
  -3.09490   0.41823   0.00013   0.00000   0.00013  -0.00001   0.00000  -0.00001
   0.41823  -0.05206  -0.00002   0.00000  -0.00002   0.00000   0.00000   0.00000
   0.00013  -0.00002  -3.44479   0.00000   0.00002   0.30603   0.00000  -0.00000
   0.00000   0.00000   0.00000  -3.44499   0.00000   0.00000   0.30605   0.00000
   0.00013  -0.00002   0.00002   0.00000  -3.44479  -0.00000   0.00000   0.30603
  -0.00001   0.00000   0.30603   0.00000  -0.00000  -0.02644   0.00000   0.00000
   0.00000   0.00000   0.00000   0.30605   0.00000   0.00000  -0.02644   0.00000
  -0.00001   0.00000  -0.00000   0.00000   0.30603   0.00000   0.00000  -0.02644
 Atom #  1 - Spin component 2
  -3.09490   0.41823   0.00013   0.00000   0.00013  -0.00001   0.00000  -0.00001
   0.41823  -0.05206  -0.00002   0.00000  -0.00002   0.00000   0.00000   0.00000
   0.00013  -0.00002  -3.44480   0.00000   0.00002   0.30603   0.00000  -0.00000
   0.00000   0.00000   0.00000  -3.44499   0.00000   0.00000   0.30605   0.00000
   0.00013  -0.00002   0.00002   0.00000  -3.44480  -0.00000   0.00000   0.30603
  -0.00001   0.00000   0.30603   0.00000  -0.00000  -0.02644   0.00000   0.00000
   0.00000   0.00000   0.00000   0.30605   0.00000   0.00000  -0.02644   0.00000
  -0.00001   0.00000  -0.00000   0.00000   0.30603   0.00000   0.00000  -0.02644
 Atom #  8 - Spin component 1
  -1.04543   2.47026   0.00018   0.00000   0.00018  -0.00071   0.00000  -0.00071
   2.47026  -7.42157  -0.00039   0.00000  -0.00039   0.00158   0.00000   0.00158
   0.00018  -0.00039  -0.33118   0.00000   0.00002   1.34029   0.00000  -0.00010
   0.00000   0.00000   0.00000  -0.33129   0.00000   0.00000   1.34077   0.00000
   0.00018  -0.00039   0.00002   0.00000  -0.33118  -0.00010   0.00000   1.34029
  -0.00071   0.00158   1.34029   0.00000  -0.00010  -6.53007   0.00000   0.00044
   0.00000   0.00000   0.00000   1.34077   0.00000   0.00000  -6.53214   0.00000
  -0.00071   0.00158  -0.00010   0.00000   1.34029   0.00044   0.00000  -6.53007
 Atom #  8 - Spin component 2
  -1.04542   2.47024   0.00018   0.00000   0.00018  -0.00070   0.00000  -0.00070
   2.47024  -7.42152  -0.00038   0.00000  -0.00038   0.00155   0.00000   0.00155
   0.00018  -0.00038  -0.33118   0.00000   0.00002   1.34027   0.00000  -0.00009
   0.00000   0.00000   0.00000  -0.33129   0.00000   0.00000   1.34076   0.00000
   0.00018  -0.00038   0.00002   0.00000  -0.33118  -0.00009   0.00000   1.34027
  -0.00070   0.00155   1.34027   0.00000  -0.00009  -6.53002   0.00000   0.00042
   0.00000   0.00000   0.00000   1.34076   0.00000   0.00000  -6.53212   0.00000
  -0.00070   0.00155  -0.00009   0.00000   1.34027   0.00042   0.00000  -6.53002


 Augmentation waves occupancies Rhoij:
 Atom #  1 - Spin component 1
   0.89956   0.32497  -0.00053   0.00000  -0.00053  -0.00284   0.00000  -0.00284
   0.32497   0.15998  -0.01196   0.00000  -0.01196  -0.05933   0.00000  -0.05933
  -0.00053  -0.01196   1.22452   0.00000   0.00002   7.51741   0.00000   0.00006
   0.00000   0.00000   0.00000   1.22373   0.00000   0.00000   7.51392   0.00000
  -0.00053  -0.01196   0.00002   0.00000   1.22452   0.00006   0.00000   7.51741
  -0.00284  -0.05933   7.51741   0.00000   0.00006  46.19692   0.00000   0.00004
   0.00000   0.00000   0.00000   7.51392   0.00000   0.00000  46.18135   0.00000
  -0.00284  -0.05933   0.00006   0.00000   7.51741   0.00004   0.00000  46.19692
 pawio_print_ij: WARNING -
  The matrix seems to have high value(s) !
  (  3 components have a value greater than   25.0).
  It can cause instabilities during SCF convergence.
  Action: you should check your atomic dataset (psp file)
          and look for "high" projector functions...
 Atom #  1 - Spin component 2
   0.89956   0.32496  -0.00053   0.00000  -0.00053  -0.00284   0.00000  -0.00284
   0.32496   0.16004  -0.01196   0.00000  -0.01196  -0.05933   0.00000  -0.05933
  -0.00053  -0.01196   1.22455   0.00000  -0.00002   7.51756   0.00000  -0.00011
   0.00000   0.00000   0.00000   1.22372   0.00000   0.00000   7.51390   0.00000
  -0.00053  -0.01196  -0.00002   0.00000   1.22455  -0.00011   0.00000   7.51756
  -0.00284  -0.05933   7.51756   0.00000  -0.00011  46.19760   0.00000  -0.00071
   0.00000   0.00000   0.00000   7.51390   0.00000   0.00000  46.18131   0.00000
  -0.00284  -0.05933  -0.00011   0.00000   7.51756  -0.00071   0.00000  46.19760
 Atom #  8 - Spin component 1
   0.87626  -0.03407  -0.00286   0.00000  -0.00286   0.00034   0.00000   0.00034
  -0.03407   0.00187   0.00225   0.00000   0.00225  -0.00001   0.00000  -0.00001
  -0.00286   0.00225   0.93466   0.00000   0.00132  -0.00376   0.00000  -0.00001
   0.00000   0.00000   0.00000   0.93574   0.00000   0.00000  -0.00356   0.00000
  -0.00286   0.00225   0.00132   0.00000   0.93466  -0.00001   0.00000  -0.00376
   0.00034  -0.00001  -0.00376   0.00000  -0.00001   0.00089   0.00000   0.00000
   0.00000   0.00000   0.00000  -0.00356   0.00000   0.00000   0.00089   0.00000
   0.00034  -0.00001  -0.00001   0.00000  -0.00376   0.00000   0.00000   0.00089
 Atom #  8 - Spin component 2
   0.87630  -0.03408  -0.00289   0.00000  -0.00289   0.00034   0.00000   0.00034
  -0.03408   0.00188   0.00225   0.00000   0.00225  -0.00001   0.00000  -0.00001
  -0.00289   0.00225   0.93560   0.00000   0.00038  -0.00377   0.00000  -0.00000
   0.00000   0.00000   0.00000   0.93562   0.00000   0.00000  -0.00356   0.00000
  -0.00289   0.00225   0.00038   0.00000   0.93560  -0.00000   0.00000  -0.00377
   0.00034  -0.00001  -0.00377   0.00000  -0.00000   0.00089   0.00000   0.00000
   0.00000   0.00000   0.00000  -0.00356   0.00000   0.00000   0.00089   0.00000
   0.00034  -0.00001  -0.00000   0.00000  -0.00377   0.00000   0.00000   0.00089


================================================================================

 ----iterations are completed or convergence reached----

 Mean square residual over all n,k,spin=   12.205E-05; max=  38.102E-05
 reduced coordinates (array xred) for    8 atoms
       0.000000000000      0.000000000000      0.000000000000
       0.000000000000      0.500000000000      0.500000000000
       0.500000000000      0.000000000000      0.500000000000
       0.500000000000      0.500000000000      0.000000000000
       0.490000000000      0.010000000000      0.000000000000
       0.010000000000      0.490000000000      0.000000000000
       0.000000000000      0.000000000000      0.500000000000
       0.500000000000      0.500000000000      0.500000000000
 rms dE/dt=  7.0492E-02; max dE/dt=  1.2086E-01; dE/dt below (all hartree)
    1       0.023881162363      0.023881162363      0.000000000000
    2       0.017519346848     -0.017519346848      0.000000000000
    3      -0.017519346848      0.017519346848      0.000000000000
    4      -0.023881162363     -0.023881162363      0.000000000000
    5       0.120860575527     -0.120860575527      0.000000000000
    6      -0.120860575527      0.120860575527      0.000000000000
    7       0.119710206806      0.119710206806     -0.000000000000
    8      -0.119710206806     -0.119710206806      0.000000000000

 cartesian coordinates (angstrom) at end:
    1      0.00000000000000     0.00000000000000     0.00000000000000
    2      0.00000000000000     3.24000123269212     3.24000123269212
    3      3.24000123269212     0.00000000000000     3.24000123269212
    4      3.24000123269212     3.24000123269212     0.00000000000000
    5      3.17520120803828     0.06480002465384     0.00000000000000
    6      0.06480002465384     3.17520120803828     0.00000000000000
    7      0.00000000000000     0.00000000000000     3.24000123269212
    8      3.24000123269212     3.24000123269212     3.24000123269212

 cartesian forces (hartree/bohr) at end:
    1     -0.00195021018967    -0.00195021018967    -0.00000000000000
    2     -0.00143068449598     0.00143068449598    -0.00000000000000
    3      0.00143068449598    -0.00143068449598    -0.00000000000000
    4      0.00195021018967     0.00195021018967    -0.00000000000000
    5     -0.00986985148962     0.00986985148962    -0.00000000000000
    6      0.00986985148962    -0.00986985148962    -0.00000000000000
    7     -0.00977590879255    -0.00977590879255     0.00000000000000
    8      0.00977590879255     0.00977590879255    -0.00000000000000
 frms,max,avg= 5.7566272E-03 9.8698515E-03   0.000E+00  0.000E+00  0.000E+00 h/b

 cartesian forces (eV/Angstrom) at end:
    1     -0.10028383161108    -0.10028383161108    -0.00000000000000
    2     -0.07356874856049     0.07356874856049    -0.00000000000000
    3      0.07356874856049    -0.07356874856049    -0.00000000000000
    4      0.10028383161108     0.10028383161108    -0.00000000000000
    5     -0.50752812699697     0.50752812699697    -0.00000000000000
    6      0.50752812699697    -0.50752812699697    -0.00000000000000
    7     -0.50269739969202    -0.50269739969202     0.00000000000000
    8      0.50269739969202     0.50269739969202    -0.00000000000000
 frms,max,avg= 2.9601765E-01 5.0752813E-01   0.000E+00  0.000E+00  0.000E+00 e/A
 length scales= 12.245430000000 12.245430000000 12.245430000000 bohr
              =  6.480002465384  6.480002465384  6.480002465384 angstroms
 Fermi (or HOMO) energy (hartree) =  -0.09856   Average Vxc (hartree)=  -0.30846
 Eigenvalues (hartree) for nkpt=   1  k points, SPIN UP:
 kpt#   1, nband= 33, wtk=  1.00000, kpt=  0.0000  0.0000  0.0000 (reduced coord)
  -3.69463   -3.69102   -3.68689   -3.64532   -0.92160   -0.91740   -0.91734   -0.91703
  -0.91692   -0.91167   -0.82449   -0.82425   -0.82421   -0.77170   -0.77151   -0.77054
  -0.53045   -0.52118   -0.48982   -0.48269   -0.17475   -0.17383   -0.17095   -0.14810
  -0.14179   -0.14085   -0.12951   -0.12871   -0.11674   -0.10121   -0.10010   -0.09856
  -0.04030
 Eigenvalues (hartree) for nkpt=   1  k points, SPIN DOWN:
 kpt#   1, nband= 33, wtk=  1.00000, kpt=  0.0000  0.0000  0.0000 (reduced coord)
  -3.69464   -3.69103   -3.68690   -3.64533   -0.92164   -0.91743   -0.91737   -0.91705
  -0.91695   -0.91169   -0.82452   -0.82428   -0.82424   -0.77173   -0.77154   -0.77056
  -0.53048   -0.52122   -0.48996   -0.48284   -0.17482   -0.17390   -0.17100   -0.14812
  -0.14182   -0.14093   -0.12971   -0.12877   -0.11687   -0.10131   -0.10015   -0.09879
  -0.04030

--- !EnergyTerms
iteration_state     : {dtset: 1, timimage: 1, image: 2, }
comment             : Components of total free energy in Hartree
kinetic             :  5.40443221023562E+01
hartree             :  3.35973953755609E+01
xc                  : -3.16483659368390E+01
Ewald energy        : -1.19739260955354E+02
psp_core            :  1.41142899641588E+01
local_psp           : -1.05690280681883E+02
spherical_terms     : -3.45436375325680E+01
total_energy        : -1.89865537664568E+02
total_energy_eV     : -5.16650402717585E+03
...


--- !EnergyTermsDC
iteration_state     : {dtset: 1, timimage: 1, image: 2, }
comment             : '"Double-counting" decomposition of free energy'
band_energy         : -5.73108754044032E+01
Ewald energy        : -1.19739260955354E+02
psp_core            :  1.41142899641588E+01
xc_dc               : -3.11443995673160E+01
spherical_terms     :  3.73226038940969E+00
total_energy_dc     : -1.90347985573505E+02
total_energy_dc_eV  : -5.17963210241839E+03
...


 Cartesian components of stress tensor (hartree/bohr^3)
  sigma(1 1)=  2.15565585E-02  sigma(3 2)=  0.00000000E+00
  sigma(2 2)=  2.15565585E-02  sigma(3 1)=  0.00000000E+00
  sigma(3 3)=  2.15341566E-02  sigma(2 1)=  1.89181297E-06

-Cartesian components of stress tensor (GPa)         [Pressure= -6.3400E+02 GPa]
- sigma(1 1)=  6.34215740E+02  sigma(3 2)=  0.00000000E+00
- sigma(2 2)=  6.34215740E+02  sigma(3 1)=  0.00000000E+00
- sigma(3 3)=  6.33556653E+02  sigma(2 1)=  5.56590498E-02


--------------------------------------------------------------------------------
 LINEAR COMBINATION OF CONSTRAINED DFT ENERGIES - CELL #    3/   3
--------------------------------------------------------------------------------

 Real(R)+Recip(G) space primitive vectors, cartesian coordinates (Bohr,Bohr^-1):
 R(1)= 12.2454300  0.0000000  0.0000000  G(1)=  0.0816631  0.0000000  0.0000000
 R(2)=  0.0000000 12.2454300  0.0000000  G(2)=  0.0000000  0.0816631  0.0000000
 R(3)=  0.0000000  0.0000000 12.2454300  G(3)=  0.0000000  0.0000000  0.0816631
 Unit cell volume ucvol=  1.8362090E+03 bohr^3
 Angles (23,13,12)=  9.00000000E+01  9.00000000E+01  9.00000000E+01 degrees

 Coarse grid specifications (used for wave-functions):

 getcut: wavevector=  0.0000  0.0000  0.0000  ngfft=  20  20  20
         ecut(hartree)=      3.000   => boxcut(ratio)=   2.09474

 Fine grid specifications (used for densities):

 getcut: wavevector=  0.0000  0.0000  0.0000  ngfft=  50  50  50
         ecut(hartree)=     20.000   => boxcut(ratio)=   2.02822
--------------------------------------------------------------------------------

P newkpt: treating     33 bands with npw=     231 for ikpt=   1 by node    0
P newkpt: treating     33 bands with npw=     231 for ikpt=   1 by node    0
_setup2: Arith. and geom. avg. npw (full set) are     461.000     461.000

================================================================================

--- !BeginCycle
iteration_state: {dtset: 1, timimage: 1, image: 3, }
solver: {iscf: 17, nstep: 4, nline: 4, wfoptalg: 10, }
tolerances: {tolrff: 2.00E-02, }
...

     iter   Etot(hartree)      deltaE(h)  residm     nres2    diffor    maxfor
 ETOT  1  -213.72686980035    -2.137E+02 6.799E-01 1.718E+03 7.985E-02 7.985E-02
 ETOT  2  -190.99918777909     2.273E+01 3.422E-03 1.152E+02 7.179E-02 2.814E-02
 ETOT  3  -190.48475403614     5.144E-01 6.486E-03 8.350E+00 4.385E-02 1.572E-02
 ETOT  4  -190.34541087868     1.393E-01 3.845E-04 1.003E+00 2.556E-02 9.919E-03

 Cartesian components of stress tensor (hartree/bohr^3)
  sigma(1 1)=  2.15607482E-02  sigma(3 2)=  0.00000000E+00
  sigma(2 2)=  2.15607482E-02  sigma(3 1)=  0.00000000E+00
  sigma(3 3)=  2.15391588E-02  sigma(2 1)=  1.24227045E-06


 scprqt:  WARNING -
  nstep=    4 was not enough SCF cycles to converge;
  maximum force difference=  2.556E-02 exceeds tolrff*maxfor=  1.984E-04


--- !ResultsGS
iteration_state: {dtset: 1, timimage: 1, image: 3, }
comment   : Summary of ground state results
lattice_vectors:
- [ 12.2454300,   0.0000000,   0.0000000, ]
- [  0.0000000,  12.2454300,   0.0000000, ]
- [  0.0000000,   0.0000000,  12.2454300, ]
lattice_lengths: [  12.24543,   12.24543,   12.24543, ]
lattice_angles: [ 90.000,  90.000,  90.000, ] # degrees, (23, 13, 12)
lattice_volume:   1.8362090E+03
convergence: {deltae:  1.393E-01, res2:  1.003E+00, residm:  3.845E-04, diffor:  2.556E-02, }
etotal    :  -1.90345411E+02
entropy   :   0.00000000E+00
fermie    :  -9.89479182E-02
cartesian_stress_tensor: # hartree/bohr^3
- [  2.15607482E-02,   1.24227045E-06,   0.00000000E+00, ]
- [  1.24227045E-06,   2.15607482E-02,   0.00000000E+00, ]
- [  0.00000000E+00,   0.00000000E+00,   2.15391588E-02, ]
pressure_GPa:  -6.3413E+02
xred      :
- [  0.0000E+00,   0.0000E+00,   0.0000E+00, Na]
- [  0.0000E+00,   5.0000E-01,   5.0000E-01, Na]
- [  5.0000E-01,   0.0000E+00,   5.0000E-01, Na]
- [  5.0000E-01,   5.0000E-01,   0.0000E+00, Na]
- [  4.9000E-01,   1.0000E-02,   0.0000E+00,  I]
- [  1.0000E-02,   4.9000E-01,   0.0000E+00,  I]
- [  0.0000E+00,   0.0000E+00,   5.0000E-01,  I]
- [  5.0000E-01,   5.0000E-01,   5.0000E-01,  I]
cartesian_forces: # hartree/bohr
- [ -1.91579522E-03,  -1.91579522E-03,  -0.00000000E+00, ]
- [ -1.35809751E-03,   1.35809751E-03,  -0.00000000E+00, ]
- [  1.35809751E-03,  -1.35809751E-03,  -0.00000000E+00, ]
- [  1.91579522E-03,   1.91579522E-03,  -0.00000000E+00, ]
- [ -9.84788495E-03,   9.84788495E-03,   1.72928380E-23, ]
- [  9.84788495E-03,  -9.84788495E-03,  -1.72928380E-23, ]
- [ -9.91858721E-03,  -9.91858721E-03,   8.64641898E-24, ]
- [  9.91858721E-03,   9.91858721E-03,  -8.64641898E-24, ]
force_length_stats: {min:   1.92063991E-03, max:   1.40270006E-02, mean:   8.14599912E-03, }
...

 Integrated electronic and magnetization densities in atomic spheres:
 ---------------------------------------------------------------------
 Radius=ratsph(iatom), smearing ratsm=  0.0000. Diff(up-dn)=approximate z local magnetic moment.
 Atom    Radius    up_density   dn_density  Total(up+dn)  Diff(up-dn)
    1   1.60199     2.686572     2.686632      5.373204    -0.000061
    2   1.60199     2.684755     2.684750      5.369505     0.000005
    3   1.60199     2.684755     2.684750      5.369505     0.000005
    4   1.60199     2.686572     2.686632      5.373204    -0.000061
    5   2.30022     2.045834     2.057154      4.102988    -0.011320
    6   2.30022     2.045834     2.057154      4.102988    -0.011320
    7   2.30022     2.118536     2.120407      4.238942    -0.001871
    8   2.30022     2.118536     2.120407      4.238942    -0.001871
 ---------------------------------------------------------------------
  Sum:             19.071393    19.097887     38.169280    -0.026494
 Total magnetization (from the atomic spheres):            -0.026494
 Total magnetization (exact up - dn):                      -0.050000

 PAW TEST:
 ==== Compensation charge inside spheres ============
 The following values must be close to each other ...
 Compensation charge over spherical meshes =      0.067889439463853
 Compensation charge over fine fft grid    =      0.076638811880874

 ==== Results concerning PAW augmentation regions ====

 Total pseudopotential strength Dij (hartree):
 Atom #  1 - Spin component 1
  -3.09504   0.41826   0.00013   0.00000   0.00013  -0.00001   0.00000  -0.00001
   0.41826  -0.05206  -0.00002   0.00000  -0.00002   0.00000   0.00000   0.00000
   0.00013  -0.00002  -3.44503   0.00000   0.00002   0.30606   0.00000  -0.00000
   0.00000   0.00000   0.00000  -3.44522   0.00000   0.00000   0.30608   0.00000
   0.00013  -0.00002   0.00002   0.00000  -3.44503  -0.00000   0.00000   0.30606
  -0.00001   0.00000   0.30606   0.00000  -0.00000  -0.02644   0.00000   0.00000
   0.00000   0.00000   0.00000   0.30608   0.00000   0.00000  -0.02644   0.00000
  -0.00001   0.00000  -0.00000   0.00000   0.30606   0.00000   0.00000  -0.02644
 Atom #  1 - Spin component 2
  -3.09505   0.41826   0.00013   0.00000   0.00013  -0.00001   0.00000  -0.00001
   0.41826  -0.05206  -0.00002   0.00000  -0.00002   0.00000   0.00000   0.00000
   0.00013  -0.00002  -3.44504   0.00000   0.00002   0.30606   0.00000  -0.00000
   0.00000   0.00000   0.00000  -3.44524   0.00000   0.00000   0.30608   0.00000
   0.00013  -0.00002   0.00002   0.00000  -3.44504  -0.00000   0.00000   0.30606
  -0.00001   0.00000   0.30606   0.00000  -0.00000  -0.02644   0.00000   0.00000
   0.00000   0.00000   0.00000   0.30608   0.00000   0.00000  -0.02644   0.00000
  -0.00001   0.00000  -0.00000   0.00000   0.30606   0.00000   0.00000  -0.02644
 Atom #  8 - Spin component 1
  -1.04560   2.47073   0.00019   0.00000   0.00019  -0.00075   0.00000  -0.00075
   2.47073  -7.42285  -0.00041   0.00000  -0.00041   0.00167   0.00000   0.00167
   0.00019  -0.00041  -0.33121   0.00000   0.00002   1.34045   0.00000  -0.00010
   0.00000   0.00000   0.00000  -0.33132   0.00000   0.00000   1.34093   0.00000
   0.00019  -0.00041   0.00002   0.00000  -0.33121  -0.00010   0.00000   1.34045
  -0.00075   0.00167   1.34045   0.00000  -0.00010  -6.53087   0.00000   0.00045
   0.00000   0.00000   0.00000   1.34093   0.00000   0.00000  -6.53293   0.00000
  -0.00075   0.00167  -0.00010   0.00000   1.34045   0.00045   0.00000  -6.53087
 Atom #  8 - Spin component 2
  -1.04559   2.47070   0.00018   0.00000   0.00018  -0.00073   0.00000  -0.00073
   2.47070  -7.42276  -0.00040   0.00000  -0.00040   0.00162   0.00000   0.00162
   0.00018  -0.00040  -0.33121   0.00000   0.00002   1.34043   0.00000  -0.00009
   0.00000   0.00000   0.00000  -0.33132   0.00000   0.00000   1.34092   0.00000
   0.00018  -0.00040   0.00002   0.00000  -0.33121  -0.00009   0.00000   1.34043
  -0.00073   0.00162   1.34043   0.00000  -0.00009  -6.53078   0.00000   0.00041
   0.00000   0.00000   0.00000   1.34092   0.00000   0.00000  -6.53288   0.00000
  -0.00073   0.00162  -0.00009   0.00000   1.34043   0.00041   0.00000  -6.53078


 Augmentation waves occupancies Rhoij:
 Atom #  1 - Spin component 1
   0.89956   0.32496  -0.00053   0.00000  -0.00053  -0.00282   0.00000  -0.00282
   0.32496   0.15987  -0.01189   0.00000  -0.01189  -0.05892   0.00000  -0.05892
  -0.00053  -0.01189   1.22449   0.00000   0.00005   7.51728   0.00000   0.00022
   0.00000   0.00000   0.00000   1.22375   0.00000   0.00000   7.51402   0.00000
  -0.00053  -0.01189   0.00005   0.00000   1.22449   0.00022   0.00000   7.51728
  -0.00282  -0.05892   7.51728   0.00000   0.00022  46.19630   0.00000   0.00078
   0.00000   0.00000   0.00000   7.51402   0.00000   0.00000  46.18186   0.00000
  -0.00282  -0.05892   0.00022   0.00000   7.51728   0.00078   0.00000  46.19630
 pawio_print_ij: WARNING -
  The matrix seems to have high value(s) !
  (  3 components have a value greater than   25.0).
  It can cause instabilities during SCF convergence.
  Action: you should check your atomic dataset (psp file)
          and look for "high" projector functions...
 Atom #  1 - Spin component 2
   0.89956   0.32496  -0.00053   0.00000  -0.00053  -0.00282   0.00000  -0.00282
   0.32496   0.15998  -0.01189   0.00000  -0.01189  -0.05891   0.00000  -0.05891
  -0.00053  -0.01189   1.22455   0.00000  -0.00002   7.51756   0.00000  -0.00011
   0.00000   0.00000   0.00000   1.22373   0.00000   0.00000   7.51397   0.00000
  -0.00053  -0.01189  -0.00002   0.00000   1.22455  -0.00011   0.00000   7.51756
  -0.00282  -0.05891   7.51756   0.00000  -0.00011  46.19763   0.00000  -0.00071
   0.00000   0.00000   0.00000   7.51397   0.00000   0.00000  46.18177   0.00000
  -0.00282  -0.05891  -0.00011   0.00000   7.51756  -0.00071   0.00000  46.19763
 Atom #  8 - Spin component 1
   0.87627  -0.03405  -0.00287   0.00000  -0.00287   0.00034   0.00000   0.00034
  -0.03405   0.00187   0.00226   0.00000   0.00226  -0.00001   0.00000  -0.00001
  -0.00287   0.00226   0.93352   0.00000   0.00230  -0.00376   0.00000  -0.00001
   0.00000   0.00000   0.00000   0.93538   0.00000   0.00000  -0.00355   0.00000
  -0.00287   0.00226   0.00230   0.00000   0.93352  -0.00001   0.00000  -0.00376
   0.00034  -0.00001  -0.00376   0.00000  -0.00001   0.00089   0.00000   0.00000
   0.00000   0.00000   0.00000  -0.00355   0.00000   0.00000   0.00089   0.00000
   0.00034  -0.00001  -0.00001   0.00000  -0.00376   0.00000   0.00000   0.00089
 Atom #  8 - Spin component 2
   0.87632  -0.03407  -0.00292   0.00000  -0.00292   0.00034   0.00000   0.00034
  -0.03407   0.00187   0.00226   0.00000   0.00226  -0.00001   0.00000  -0.00001
  -0.00292   0.00226   0.93546   0.00000   0.00034  -0.00378   0.00000  -0.00000
   0.00000   0.00000   0.00000   0.93512   0.00000   0.00000  -0.00355   0.00000
  -0.00292   0.00226   0.00034   0.00000   0.93546  -0.00000   0.00000  -0.00378
   0.00034  -0.00001  -0.00378   0.00000  -0.00000   0.00089   0.00000   0.00000
   0.00000   0.00000   0.00000  -0.00355   0.00000   0.00000   0.00089   0.00000
   0.00034  -0.00001  -0.00000   0.00000  -0.00378   0.00000   0.00000   0.00089


================================================================================

 ----iterations are completed or convergence reached----

 Mean square residual over all n,k,spin=   12.217E-05; max=  38.449E-05
 reduced coordinates (array xred) for    8 atoms
       0.000000000000      0.000000000000      0.000000000000
       0.000000000000      0.500000000000      0.500000000000
       0.500000000000      0.000000000000      0.500000000000
       0.500000000000      0.500000000000      0.000000000000
       0.490000000000      0.010000000000      0.000000000000
       0.010000000000      0.490000000000      0.000000000000
       0.000000000000      0.000000000000      0.500000000000
       0.500000000000      0.500000000000      0.500000000000
 rms dE/dt=  7.0853E-02; max dE/dt=  1.2146E-01; dE/dt below (all hartree)
    1       0.023459736224      0.023459736224      0.000000000000
    2       0.016630487946     -0.016630487946      0.000000000000
    3      -0.016630487946      0.016630487946      0.000000000000
    4      -0.023459736224     -0.023459736224      0.000000000000
    5       0.120591585754     -0.120591585754     -0.000000000000
    6      -0.120591585754      0.120591585754      0.000000000000
    7       0.121457365380      0.121457365380     -0.000000000000
    8      -0.121457365380     -0.121457365380      0.000000000000

 cartesian coordinates (angstrom) at end:
    1      0.00000000000000     0.00000000000000     0.00000000000000
    2      0.00000000000000     3.24000123269212     3.24000123269212
    3      3.24000123269212     0.00000000000000     3.24000123269212
    4      3.24000123269212     3.24000123269212     0.00000000000000
    5      3.17520120803828     0.06480002465384     0.00000000000000
    6      0.06480002465384     3.17520120803828     0.00000000000000
    7      0.00000000000000     0.00000000000000     3.24000123269212
    8      3.24000123269212     3.24000123269212     3.24000123269212

 cartesian forces (hartree/bohr) at end:
    1     -0.00191579521699    -0.00191579521699    -0.00000000000000
    2     -0.00135809750627     0.00135809750627    -0.00000000000000
    3      0.00135809750627    -0.00135809750627    -0.00000000000000
    4      0.00191579521699     0.00191579521699    -0.00000000000000
    5     -0.00984788494596     0.00984788494596     0.00000000000000
    6      0.00984788494596    -0.00984788494596    -0.00000000000000
    7     -0.00991858721007    -0.00991858721007     0.00000000000000
    8      0.00991858721007     0.00991858721007    -0.00000000000000
 frms,max,avg= 5.7861028E-03 9.9185872E-03   0.000E+00  0.000E+00  0.000E+00 h/b

 cartesian forces (eV/Angstrom) at end:
    1     -0.09851414271154    -0.09851414271154    -0.00000000000000
    2     -0.06983617578870     0.06983617578870    -0.00000000000000
    3      0.06983617578870    -0.06983617578870    -0.00000000000000
    4      0.09851414271154     0.09851414271154    -0.00000000000000
    5     -0.50639856200076     0.50639856200076     0.00000000000000
    6      0.50639856200076    -0.50639856200076    -0.00000000000000
    7     -0.51003421829386    -0.51003421829386     0.00000000000000
    8      0.51003421829386     0.51003421829386    -0.00000000000000
 frms,max,avg= 2.9753334E-01 5.1003422E-01   0.000E+00  0.000E+00  0.000E+00 e/A
 length scales= 12.245430000000 12.245430000000 12.245430000000 bohr
              =  6.480002465384  6.480002465384  6.480002465384 angstroms
 Fermi (or HOMO) energy (hartree) =  -0.09895   Average Vxc (hartree)=  -0.30838
 Eigenvalues (hartree) for nkpt=   1  k points, SPIN UP:
 kpt#   1, nband= 33, wtk=  1.00000, kpt=  0.0000  0.0000  0.0000 (reduced coord)
  -3.69503   -3.69113   -3.68659   -3.64531   -0.92188   -0.91743   -0.91737   -0.91704
  -0.91695   -0.91141   -0.82448   -0.82430   -0.82420   -0.77170   -0.77150   -0.77049
  -0.52994   -0.52063   -0.49038   -0.48331   -0.17440   -0.17346   -0.17072   -0.14766
  -0.14138   -0.14042   -0.12982   -0.12897   -0.11712   -0.10137   -0.10046   -0.09895
  -0.03995
 Eigenvalues (hartree) for nkpt=   1  k points, SPIN DOWN:
 kpt#   1, nband= 33, wtk=  1.00000, kpt=  0.0000  0.0000  0.0000 (reduced coord)
  -3.69506   -3.69115   -3.68660   -3.64533   -0.92196   -0.91749   -0.91742   -0.91710
  -0.91701   -0.91145   -0.82454   -0.82437   -0.82426   -0.77176   -0.77156   -0.77055
  -0.53002   -0.52069   -0.49064   -0.48360   -0.17453   -0.17360   -0.17084   -0.14771
  -0.14145   -0.14060   -0.13020   -0.12909   -0.11738   -0.10156   -0.10057   -0.09940
  -0.03997

--- !EnergyTerms
iteration_state     : {dtset: 1, timimage: 1, image: 3, }
comment             : Components of total free energy in Hartree
kinetic             :  5.40335494791879E+01
hartree             :  3.35931899085484E+01
xc                  : -3.16387515583959E+01
Ewald energy        : -1.19739260955354E+02
psp_core            :  1.41142899641588E+01
local_psp           : -1.05685553919720E+02
spherical_terms     : -3.45396150353188E+01
total_energy        : -1.89862152116894E+02
total_energy_eV     : -5.16641190173850E+03
...


--- !EnergyTermsDC
iteration_state     : {dtset: 1, timimage: 1, image: 3, }
comment             : '"Double-counting" decomposition of free energy'
band_energy         : -5.73103399344932E+01
Ewald energy        : -1.19739260955354E+02
psp_core            :  1.41142899641588E+01
xc_dc               : -3.11427631482065E+01
spherical_terms     :  3.73266319521259E+00
total_energy_dc     : -1.90345410878683E+02
total_energy_dc_eV  : -5.17956204140925E+03
...


 Cartesian components of stress tensor (hartree/bohr^3)
  sigma(1 1)=  2.15607482E-02  sigma(3 2)=  0.00000000E+00
  sigma(2 2)=  2.15607482E-02  sigma(3 1)=  0.00000000E+00
  sigma(3 3)=  2.15391588E-02  sigma(2 1)=  1.24227045E-06

-Cartesian components of stress tensor (GPa)         [Pressure= -6.3413E+02 GPa]
- sigma(1 1)=  6.34339005E+02  sigma(3 2)=  0.00000000E+00
- sigma(2 2)=  6.34339005E+02  sigma(3 1)=  0.00000000E+00
- sigma(3 3)=  6.33703823E+02  sigma(2 1)=  3.65488524E-02

------------------------------------------------------------
 LINEAR COMBINATION OF CONSTRAINED DFT ENERGIES:
 Moving images of the cell...

------------------------------------------------------------
 LINEAR COMBINATION OF CONSTRAINED DFT ENERGIES:
 Moving images of the cell...


================================================================================
 LINEAR COMBINATION OF CONSTRAINED DFT ENERGIES - TIME STEP     2
================================================================================

--------------------------------------------------------------------------------
 LINEAR COMBINATION OF CONSTRAINED DFT ENERGIES - CELL #    1/   3
--------------------------------------------------------------------------------

 Real(R)+Recip(G) space primitive vectors, cartesian coordinates (Bohr,Bohr^-1):
 R(1)= 12.2454300  0.0000000  0.0000000  G(1)=  0.0816631  0.0000000  0.0000000
 R(2)=  0.0000000 12.2454300  0.0000000  G(2)=  0.0000000  0.0816631  0.0000000
 R(3)=  0.0000000  0.0000000 12.2454300  G(3)=  0.0000000  0.0000000  0.0816631
 Unit cell volume ucvol=  1.8362090E+03 bohr^3
 Angles (23,13,12)=  9.00000000E+01  9.00000000E+01  9.00000000E+01 degrees

 Coarse grid specifications (used for wave-functions):

 getcut: wavevector=  0.0000  0.0000  0.0000  ngfft=  20  20  20
         ecut(hartree)=      3.000   => boxcut(ratio)=   2.09474

 Fine grid specifications (used for densities):

 getcut: wavevector=  0.0000  0.0000  0.0000  ngfft=  50  50  50
         ecut(hartree)=     20.000   => boxcut(ratio)=   2.02822
--------------------------------------------------------------------------------

P newkpt: treating     33 bands with npw=     231 for ikpt=   1 by node    0
P newkpt: treating     33 bands with npw=     231 for ikpt=   1 by node    0
_setup2: Arith. and geom. avg. npw (full set) are     461.000     461.000

================================================================================

--- !BeginCycle
iteration_state: {dtset: 1, timimage: 2, image: 1, }
solver: {iscf: 17, nstep: 4, nline: 4, wfoptalg: 10, }
tolerances: {tolrff: 2.00E-02, }
...

     iter   Etot(hartree)      deltaE(h)  residm     nres2    diffor    maxfor
 ETOT  1  -188.24782365537    -1.882E+02 2.947E+00 1.198E+01 9.862E-02 9.862E-02
 ETOT  2  -190.51806617103    -2.270E+00 1.573E-03 5.727E+00 1.118E-01 1.313E-02
 ETOT  3  -190.37835636138     1.397E-01 2.998E-04 1.558E+00 1.159E-02 7.652E-03
 ETOT  4  -190.35311911627     2.524E-02 4.630E-05 7.735E-01 1.657E-03 6.177E-03

 Cartesian components of stress tensor (hartree/bohr^3)
  sigma(1 1)=  2.17750414E-02  sigma(3 2)=  0.00000000E+00
  sigma(2 2)=  2.17750414E-02  sigma(3 1)=  0.00000000E+00
  sigma(3 3)=  2.17688455E-02  sigma(2 1)= -1.80715383E-06


 scprqt:  WARNING -
  nstep=    4 was not enough SCF cycles to converge;
  maximum force difference=  1.657E-03 exceeds tolrff*maxfor=  1.235E-04


--- !ResultsGS
iteration_state: {dtset: 1, timimage: 2, image: 1, }
comment   : Summary of ground state results
lattice_vectors:
- [ 12.2454300,   0.0000000,   0.0000000, ]
- [  0.0000000,  12.2454300,   0.0000000, ]
- [  0.0000000,   0.0000000,  12.2454300, ]
lattice_lengths: [  12.24543,   12.24543,   12.24543, ]
lattice_angles: [ 90.000,  90.000,  90.000, ] # degrees, (23, 13, 12)
lattice_volume:   1.8362090E+03
convergence: {deltae:  2.524E-02, res2:  7.735E-01, residm:  4.630E-05, diffor:  1.657E-03, }
etotal    :  -1.90353119E+02
entropy   :   0.00000000E+00
fermie    :  -8.89094128E-02
cartesian_stress_tensor: # hartree/bohr^3
- [  2.17750414E-02,  -1.80715383E-06,   0.00000000E+00, ]
- [ -1.80715383E-06,   2.17750414E-02,   0.00000000E+00, ]
- [  0.00000000E+00,   0.00000000E+00,   2.17688455E-02, ]
pressure_GPa:  -6.4058E+02
xred      :
- [ -1.0803E-05,  -1.0803E-05,   0.0000E+00, Na]
- [  9.6845E-05,   4.9990E-01,   5.0000E-01, Na]
- [  4.9990E-01,   9.6845E-05,   5.0000E-01, Na]
- [  5.0001E-01,   5.0001E-01,   0.0000E+00, Na]
- [  4.8920E-01,   1.0803E-02,  -1.1156E-22,  I]
- [  1.0803E-02,   4.8920E-01,   1.1156E-22,  I]
- [ -1.2877E-03,  -1.2877E-03,   5.0000E-01,  I]
- [  5.0129E-01,   5.0129E-01,   5.0000E-01,  I]
cartesian_forces: # hartree/bohr
- [ -6.17651184E-03,  -6.17651184E-03,  -0.00000000E+00, ]
- [ -2.49953905E-03,   2.49953905E-03,  -0.00000000E+00, ]
- [  2.49953905E-03,  -2.49953905E-03,  -0.00000000E+00, ]
- [  6.17651184E-03,   6.17651184E-03,  -0.00000000E+00, ]
- [ -5.18123919E-03,   5.18123919E-03,  -0.00000000E+00, ]
- [  5.18123919E-03,  -5.18123919E-03,  -0.00000000E+00, ]
- [  2.23531201E-03,   2.23531201E-03,  -0.00000000E+00, ]
- [ -2.23531201E-03,  -2.23531201E-03,  -0.00000000E+00, ]
force_length_stats: {min:   3.16120856E-03, max:   8.73490682E-03, mean:   5.68959403E-03, }
...

 Integrated electronic and magnetization densities in atomic spheres:
 ---------------------------------------------------------------------
 Radius=ratsph(iatom), smearing ratsm=  0.0000. Diff(up-dn)=approximate z local magnetic moment.
 Atom    Radius    up_density   dn_density  Total(up+dn)  Diff(up-dn)
    1   1.60199     2.687231     2.687231      5.374461     0.000000
    2   1.60199     2.687265     2.687265      5.374530     0.000000
    3   1.60199     2.687265     2.687265      5.374530     0.000000
    4   1.60199     2.687231     2.687231      5.374461     0.000000
    5   2.30022     2.042284     2.042284      4.084569    -0.000000
    6   2.30022     2.042284     2.042284      4.084569    -0.000000
    7   2.30022     2.120254     2.120254      4.240508    -0.000000
    8   2.30022     2.120254     2.120254      4.240508    -0.000000
 ---------------------------------------------------------------------
  Sum:             19.074068    19.074068     38.148137    -0.000000
 Total magnetization (from the atomic spheres):            -0.000000
 Total magnetization (exact up - dn):                      -0.000000

 PAW TEST:
 ==== Compensation charge inside spheres ============
 The following values must be close to each other ...
 Compensation charge over spherical meshes =      0.009841922530359
 Compensation charge over fine fft grid    =      0.115710186411246

 ==== Results concerning PAW augmentation regions ====

 Total pseudopotential strength Dij (hartree):
 Atom #  1 - Spin component 1
  -3.09540   0.41831   0.00043   0.00000   0.00043  -0.00005   0.00000  -0.00005
   0.41831  -0.05207  -0.00007   0.00000  -0.00007   0.00001   0.00000   0.00001
   0.00043  -0.00007  -3.44553   0.00000   0.00000   0.30611   0.00000  -0.00000
   0.00000   0.00000   0.00000  -3.44588   0.00000   0.00000   0.30614   0.00000
   0.00043  -0.00007   0.00000   0.00000  -3.44553  -0.00000   0.00000   0.30611
  -0.00005   0.00001   0.30611   0.00000  -0.00000  -0.02645   0.00000   0.00000
   0.00000   0.00000   0.00000   0.30614   0.00000   0.00000  -0.02645   0.00000
  -0.00005   0.00001  -0.00000   0.00000   0.30611   0.00000   0.00000  -0.02645
 Atom #  1 - Spin component 2
  -3.09540   0.41831   0.00043   0.00000   0.00043  -0.00005   0.00000  -0.00005
   0.41831  -0.05207  -0.00007   0.00000  -0.00007   0.00001   0.00000   0.00001
   0.00043  -0.00007  -3.44553   0.00000   0.00000   0.30611   0.00000  -0.00000
   0.00000   0.00000   0.00000  -3.44588   0.00000   0.00000   0.30614   0.00000
   0.00043  -0.00007   0.00000   0.00000  -3.44553  -0.00000   0.00000   0.30611
  -0.00005   0.00001   0.30611   0.00000  -0.00000  -0.02645   0.00000   0.00000
   0.00000   0.00000   0.00000   0.30614   0.00000   0.00000  -0.02645   0.00000
  -0.00005   0.00001  -0.00000   0.00000   0.30611   0.00000   0.00000  -0.02645
 Atom #  8 - Spin component 1
  -1.04671   2.47344  -0.00007   0.00000  -0.00007   0.00028   0.00000   0.00028
   2.47344  -7.42951   0.00015   0.00000   0.00015  -0.00061   0.00000  -0.00061
  -0.00007   0.00015  -0.33154   0.00000  -0.00005   1.34181   0.00000   0.00024
   0.00000   0.00000   0.00000  -0.33165   0.00000   0.00000   1.34233   0.00000
  -0.00007   0.00015  -0.00005   0.00000  -0.33154   0.00024   0.00000   1.34181
   0.00028  -0.00061   1.34181   0.00000   0.00024  -6.53651   0.00000  -0.00105
   0.00000   0.00000   0.00000   1.34233   0.00000   0.00000  -6.53877   0.00000
   0.00028  -0.00061   0.00024   0.00000   1.34181  -0.00105   0.00000  -6.53651
 Atom #  8 - Spin component 2
  -1.04671   2.47344  -0.00007   0.00000  -0.00007   0.00028   0.00000   0.00028
   2.47344  -7.42951   0.00015   0.00000   0.00015  -0.00061   0.00000  -0.00061
  -0.00007   0.00015  -0.33154   0.00000  -0.00005   1.34181   0.00000   0.00024
   0.00000   0.00000   0.00000  -0.33165   0.00000   0.00000   1.34233   0.00000
  -0.00007   0.00015  -0.00005   0.00000  -0.33154   0.00024   0.00000   1.34181
   0.00028  -0.00061   1.34181   0.00000   0.00024  -6.53651   0.00000  -0.00105
   0.00000   0.00000   0.00000   1.34233   0.00000   0.00000  -6.53877   0.00000
   0.00028  -0.00061   0.00024   0.00000   1.34181  -0.00105   0.00000  -6.53651


 Augmentation waves occupancies Rhoij:
 Atom #  1 - Spin component 1
   0.89948   0.32425  -0.00059   0.00000  -0.00059  -0.00323   0.00000  -0.00323
   0.32425   0.16531  -0.01330   0.00000  -0.01330  -0.06590   0.00000  -0.06590
  -0.00059  -0.01330   1.22489   0.00000  -0.00001   7.51831   0.00000  -0.00009
   0.00000   0.00000   0.00000   1.22395   0.00000   0.00000   7.51376   0.00000
  -0.00059  -0.01330  -0.00001   0.00000   1.22489  -0.00009   0.00000   7.51831
  -0.00323  -0.06590   7.51831   0.00000  -0.00009  46.19466   0.00000  -0.00095
   0.00000   0.00000   0.00000   7.51376   0.00000   0.00000  46.17081   0.00000
  -0.00323  -0.06590  -0.00009   0.00000   7.51831  -0.00095   0.00000  46.19466
 pawio_print_ij: WARNING -
  The matrix seems to have high value(s) !
  (  3 components have a value greater than   25.0).
  It can cause instabilities during SCF convergence.
  Action: you should check your atomic dataset (psp file)
          and look for "high" projector functions...
 Atom #  1 - Spin component 2
   0.89948   0.32425  -0.00059   0.00000  -0.00059  -0.00323   0.00000  -0.00323
   0.32425   0.16531  -0.01330   0.00000  -0.01330  -0.06590   0.00000  -0.06590
  -0.00059  -0.01330   1.22489   0.00000  -0.00001   7.51831   0.00000  -0.00009
   0.00000   0.00000   0.00000   1.22395   0.00000   0.00000   7.51376   0.00000
  -0.00059  -0.01330  -0.00001   0.00000   1.22489  -0.00009   0.00000   7.51831
  -0.00323  -0.06590   7.51831   0.00000  -0.00009  46.19466   0.00000  -0.00095
   0.00000   0.00000   0.00000   7.51376   0.00000   0.00000  46.17081   0.00000
  -0.00323  -0.06590  -0.00009   0.00000   7.51831  -0.00095   0.00000  46.19466
 Atom #  8 - Spin component 1
   0.87472  -0.03235  -0.00169   0.00000  -0.00169   0.00006   0.00000   0.00006
  -0.03235   0.00173   0.00032   0.00000   0.00032   0.00005   0.00000   0.00005
  -0.00169   0.00032   0.92795   0.00000  -0.00057  -0.00274   0.00000  -0.00004
   0.00000   0.00000   0.00000   0.93596   0.00000   0.00000  -0.00310   0.00000
  -0.00169   0.00032  -0.00057   0.00000   0.92795  -0.00004   0.00000  -0.00274
   0.00006   0.00005  -0.00274   0.00000  -0.00004   0.00088   0.00000   0.00000
   0.00000   0.00000   0.00000  -0.00310   0.00000   0.00000   0.00089   0.00000
   0.00006   0.00005  -0.00004   0.00000  -0.00274   0.00000   0.00000   0.00088
 Atom #  8 - Spin component 2
   0.87472  -0.03235  -0.00169   0.00000  -0.00169   0.00006   0.00000   0.00006
  -0.03235   0.00173   0.00032   0.00000   0.00032   0.00005   0.00000   0.00005
  -0.00169   0.00032   0.92795   0.00000  -0.00057  -0.00274   0.00000  -0.00004
   0.00000   0.00000   0.00000   0.93596   0.00000   0.00000  -0.00310   0.00000
  -0.00169   0.00032  -0.00057   0.00000   0.92795  -0.00004   0.00000  -0.00274
   0.00006   0.00005  -0.00274   0.00000  -0.00004   0.00088   0.00000   0.00000
   0.00000   0.00000   0.00000  -0.00310   0.00000   0.00000   0.00089   0.00000
   0.00006   0.00005  -0.00004   0.00000  -0.00274   0.00000   0.00000   0.00088


================================================================================

 ----iterations are completed or convergence reached----

 Mean square residual over all n,k,spin=   15.903E-06; max=  46.302E-06
 reduced coordinates (array xred) for    8 atoms
      -0.000010803190     -0.000010803190      0.000000000000
       0.000096844642      0.499903155358      0.500000000000
       0.499903155358      0.000096844642      0.500000000000
       0.500010803190      0.500010803190      0.000000000000
       0.489196829630      0.010803170370     -0.000000000000
       0.010803170370      0.489196829630      0.000000000000
      -0.001287676487     -0.001287676487      0.500000000000
       0.501287676487      0.501287676487      0.500000000000
 rms dE/dt=  4.3650E-02; max dE/dt=  7.5634E-02; dE/dt below (all hartree)
    1       0.075634043416      0.075634043416      0.000000000000
    2       0.030607930417     -0.030607930417      0.000000000000
    3      -0.030607930417      0.030607930417      0.000000000000
    4      -0.075634043416     -0.075634043416      0.000000000000
    5       0.063446501847     -0.063446501847      0.000000000000
    6      -0.063446501847      0.063446501847      0.000000000000
    7      -0.027372356778     -0.027372356778      0.000000000000
    8       0.027372356778      0.027372356778      0.000000000000

 cartesian coordinates (angstrom) at end:
    1     -0.00007000469539    -0.00007000469539     0.00000000000000
    2      0.00062755352081     3.23937367917131     3.24000123269212
    3      3.23937367917131     0.00062755352081     3.24000123269212
    4      3.24007123738751     3.24007123738751     0.00000000000000
    5      3.16999666206162     0.07000457063051    -0.00000000000000
[...]
    6      -0.742928328626      0.742928328626     -0.000000000000
    7      -1.178211360612     -1.178211360612     -0.000000000000
    8       1.178211360612      1.178211360612      0.000000000000

 cartesian coordinates (angstrom) at end:
    1     -0.00636093559647    -0.00636093559647     0.00000000000000
    2      0.26280093729974     2.97720029539238     3.24000123269212
    3      2.97720029539238     0.26280093729974     3.24000123269212
    4      3.24636216828860     3.24636216828860     0.00000000000000
    5      0.57045968273706     2.66954154995506     0.00000000000000
    6      2.66954154995506     0.57045968273706     0.00000000000000
    7     -3.78270340974122    -3.78270340974122     3.24000123269212
    8      7.02270464243334     7.02270464243334     3.24000123269212

 cartesian forces (hartree/bohr) at end:
    1     -0.01752561704044    -0.01752561704044    -0.00000000000000
    2     -0.06308196178736     0.06308196178736    -0.00000000000000
    3      0.06308196178736    -0.06308196178736    -0.00000000000000
    4      0.01752561704044     0.01752561704044    -0.00000000000000
    5     -0.06066984406640     0.06066984406640    -0.00000000000000
    6      0.06066984406640    -0.06066984406640     0.00000000000000
    7      0.09621641384684     0.09621641384684     0.00000000000000
    8     -0.09621641384684    -0.09621641384684    -0.00000000000000
 frms,max,avg= 5.3580017E-02 9.6216414E-02   0.000E+00  0.000E+00  0.000E+00 h/b

 cartesian forces (eV/Angstrom) at end:
    1     -0.90120338693609    -0.90120338693609    -0.00000000000000
    2     -3.24380462531925     3.24380462531925    -0.00000000000000
    3      3.24380462531925    -3.24380462531925    -0.00000000000000
    4      0.90120338693609     0.90120338693609    -0.00000000000000
    5     -3.11976855544460     3.11976855544460    -0.00000000000000
    6      3.11976855544460    -3.11976855544460     0.00000000000000
    7      4.94764651296131     4.94764651296131     0.00000000000000
    8     -4.94764651296131    -4.94764651296131    -0.00000000000000
 frms,max,avg= 2.7551950E+00 4.9476465E+00   0.000E+00  0.000E+00  0.000E+00 e/A
 length scales= 12.245430000000 12.245430000000 12.245430000000 bohr
              =  6.480002465384  6.480002465384  6.480002465384 angstroms
 Fermi (or HOMO) energy (hartree) =  -0.05262   Average Vxc (hartree)=  -0.29716
 Eigenvalues (hartree) for nkpt=   1  k points, SPIN UP:
 kpt#   1, nband= 33, wtk=  1.00000, kpt=  0.0000  0.0000  0.0000 (reduced coord)
  -3.70162   -3.68746   -3.67909   -3.67393   -0.93803   -0.92426   -0.92156   -0.88762
  -0.88761   -0.86251   -0.85897   -0.84046   -0.84007   -0.83428   -0.80276   -0.79841
  -0.53493   -0.50783   -0.47966   -0.47401   -0.19714   -0.19445   -0.18394   -0.17306
  -0.16606   -0.14517   -0.12033   -0.10985   -0.10638   -0.07892   -0.06834   -0.05262
  -0.04300
 Eigenvalues (hartree) for nkpt=   1  k points, SPIN DOWN:
 kpt#   1, nband= 33, wtk=  1.00000, kpt=  0.0000  0.0000  0.0000 (reduced coord)
  -3.70165   -3.68747   -3.67909   -3.67395   -0.93806   -0.92431   -0.92157   -0.88767
  -0.88766   -0.86254   -0.85900   -0.84047   -0.84011   -0.83431   -0.80281   -0.79846
  -0.53508   -0.50809   -0.47974   -0.47437   -0.19712   -0.19460   -0.18443   -0.17316
  -0.16631   -0.14535   -0.12034   -0.10996   -0.10661   -0.07904   -0.06838   -0.05343
  -0.04318

--- !EnergyTerms
iteration_state     : {dtset: 1, timimage: 3, image: 3, }
comment             : Components of total free energy in Hartree
kinetic             :  5.42312477446717E+01
hartree             :  4.53853862348021E+01
xc                  : -3.19913261609914E+01
Ewald energy        : -1.07830248351647E+02
psp_core            :  1.41142899641588E+01
local_psp           : -1.29720329112843E+02
spherical_terms     : -3.46657308790902E+01
total_energy        : -1.90476710560939E+02
total_energy_eV     : -5.18313488746383E+03
...


--- !EnergyTermsDC
iteration_state     : {dtset: 1, timimage: 3, image: 3, }
comment             : '"Double-counting" decomposition of free energy'
band_energy         : -5.74638131180368E+01
Ewald energy        : -1.07830248351647E+02
psp_core            :  1.41142899641588E+01
xc_dc               : -4.27886611986160E+01
spherical_terms     :  3.74849126070299E+00
total_energy_dc     : -1.90219941443438E+02
total_energy_dc_eV  : -5.17614784444412E+03
...


 Cartesian components of stress tensor (hartree/bohr^3)
  sigma(1 1)=  2.15386989E-02  sigma(3 2)=  0.00000000E+00
  sigma(2 2)=  2.15386989E-02  sigma(3 1)=  0.00000000E+00
  sigma(3 3)=  2.21278336E-02  sigma(2 1)=  5.85992518E-05

-Cartesian components of stress tensor (GPa)         [Pressure= -6.3947E+02 GPa]
- sigma(1 1)=  6.33690293E+02  sigma(3 2)=  0.00000000E+00
- sigma(2 2)=  6.33690293E+02  sigma(3 1)=  0.00000000E+00
- sigma(3 3)=  6.51023232E+02  sigma(2 1)=  1.72404922E+00

------------------------------------------------------------
 LINEAR COMBINATION OF CONSTRAINED DFT ENERGIES:
 Average[Abs(Etotal(t)-Etotal(t-dt))]=  1.293E-01 Hartree
 Moving images of the cell...

== END DATASET(S) ==============================================================
================================================================================
  
 -outvars: echo values of variables after computation  --------
            acell      1.2245430000E+01  1.2245430000E+01  1.2245430000E+01 Bohr
              amu      2.29897680E+01  1.26904470E+02
       cellcharge1     0.0000000000E+00
  cellcharge_2img1     2.5000000000E-02
  cellcharge_3img1     5.0000000000E-02
           diemac      2.00000000E+00
             ecut      3.00000000E+00 Hartree
           etotal1    -1.9022282043E+02
      etotal_2img1    -1.9022109533E+02
      etotal_3img1    -1.9021994144E+02
            fcart1    -1.4726951053E-02 -1.4726951053E-02 -0.0000000000E+00
                      -6.3596119160E-02  6.3596119160E-02 -0.0000000000E+00
                       6.3596119160E-02 -6.3596119160E-02 -0.0000000000E+00
                       1.4726951053E-02  1.4726951053E-02 -0.0000000000E+00
                      -6.2309251402E-02  6.2309251402E-02 -0.0000000000E+00
                       6.2309251402E-02 -6.2309251402E-02 -0.0000000000E+00
                       9.8605736915E-02  9.8605736915E-02  3.4585675932E-23
                      -9.8605736915E-02 -9.8605736915E-02 -3.4585675932E-23
       fcart_2img1    -1.4354357077E-02 -1.4354357077E-02 -0.0000000000E+00
                      -6.8158180079E-02  6.8158180079E-02 -0.0000000000E+00
                       6.8158180079E-02 -6.8158180079E-02 -0.0000000000E+00
                       1.4354357077E-02  1.4354357077E-02 -0.0000000000E+00
                      -5.9970465531E-02  5.9970465531E-02  3.4585675932E-23
                       5.9970465531E-02 -5.9970465531E-02 -3.4585675932E-23
                       1.0294726618E-01  1.0294726618E-01 -0.0000000000E+00
                      -1.0294726618E-01 -1.0294726618E-01 -0.0000000000E+00
       fcart_3img1    -1.7525617040E-02 -1.7525617040E-02 -0.0000000000E+00
                      -6.3081961787E-02  6.3081961787E-02 -0.0000000000E+00
                       6.3081961787E-02 -6.3081961787E-02 -0.0000000000E+00
                       1.7525617040E-02  1.7525617040E-02 -0.0000000000E+00
                      -6.0669844066E-02  6.0669844066E-02 -6.9171351864E-23
                       6.0669844066E-02 -6.0669844066E-02  6.9171351864E-23
                       9.6216413847E-02  9.6216413847E-02  3.4585675932E-23
                      -9.6216413847E-02 -9.6216413847E-02 -3.4585675932E-23
-          fftalg         312
           imgmov           6
           ionmov           2
           istwfk        2
              ixc     -101130
           jdtset        1
           kptopt           0
        mixesimgf     -5.90000000E+01  8.00000000E+01 -2.00000000E+01
P           mkmem           1
            natom           8
            nband          33
           ndtset           1
        ndynimage           3
            ngfft          20      20      20
          ngfftdg          50      50      50
           nimage           3
             nkpt           1
           nspden           2
           nsppol           2
            nstep           4
             nsym           8
        ntimimage           3
           ntypat           2
              occ      1.000000  1.000000  1.000000  1.000000  1.000000  1.000000
                       1.000000  1.000000  1.000000  1.000000  1.000000  1.000000
                       1.000000  1.000000  1.000000  1.000000  1.000000  1.000000
                       1.000000  1.000000  1.000000  1.000000  1.000000  1.000000
                       1.000000  1.000000  1.000000  1.000000  1.000000  1.000000
                       1.000000  1.000000  0.000000
                       1.000000  1.000000  1.000000  1.000000  1.000000  1.000000
                       1.000000  1.000000  1.000000  1.000000  1.000000  1.000000
                       1.000000  1.000000  1.000000  1.000000  1.000000  1.000000
                       1.000000  1.000000  1.000000  1.000000  1.000000  1.000000
                       1.000000  1.000000  1.000000  1.000000  1.000000  1.000000
                       1.000000  1.000000  0.000000
         occ_2img      1.000000  1.000000  1.000000  1.000000  1.000000  1.000000
                       1.000000  1.000000  1.000000  1.000000  1.000000  1.000000
                       1.000000  1.000000  1.000000  1.000000  1.000000  1.000000
                       1.000000  1.000000  1.000000  1.000000  1.000000  1.000000
                       1.000000  1.000000  1.000000  1.000000  1.000000  1.000000
                       1.000000  0.975000  0.000000
                       1.000000  1.000000  1.000000  1.000000  1.000000  1.000000
                       1.000000  1.000000  1.000000  1.000000  1.000000  1.000000
                       1.000000  1.000000  1.000000  1.000000  1.000000  1.000000
                       1.000000  1.000000  1.000000  1.000000  1.000000  1.000000
                       1.000000  1.000000  1.000000  1.000000  1.000000  1.000000
                       1.000000  1.000000  0.000000
         occ_3img      1.000000  1.000000  1.000000  1.000000  1.000000  1.000000
                       1.000000  1.000000  1.000000  1.000000  1.000000  1.000000
                       1.000000  1.000000  1.000000  1.000000  1.000000  1.000000
                       1.000000  1.000000  1.000000  1.000000  1.000000  1.000000
                       1.000000  1.000000  1.000000  1.000000  1.000000  1.000000
                       1.000000  0.950000  0.000000
                       1.000000  1.000000  1.000000  1.000000  1.000000  1.000000
                       1.000000  1.000000  1.000000  1.000000  1.000000  1.000000
                       1.000000  1.000000  1.000000  1.000000  1.000000  1.000000
                       1.000000  1.000000  1.000000  1.000000  1.000000  1.000000
                       1.000000  1.000000  1.000000  1.000000  1.000000  1.000000
                       1.000000  1.000000  0.000000
           occopt           0
        optforces           1
        pawecutdg      2.00000000E+01 Hartree
           prtden           0
        prtebands           0
           prteig           0
           prtvol           1
            prtwf           0
          spgroup          65
           strten1     2.1517492073E-02  2.1517492073E-02  2.2104301972E-02
                       0.0000000000E+00  0.0000000000E+00  6.7782976543E-05
      strten_2img1     2.1551452094E-02  2.1551452094E-02  2.2150829991E-02
                       0.0000000000E+00  0.0000000000E+00  6.4927785645E-05
      strten_3img1     2.1538698900E-02  2.1538698900E-02  2.2127833631E-02
                       0.0000000000E+00  0.0000000000E+00  5.8599251845E-05
           symrel      1  0  0   0  1  0   0  0  1      -1  0  0   0 -1  0   0  0 -1
                      -1  0  0   0 -1  0   0  0  1       1  0  0   0  1  0   0  0 -1
                       0  1  0   1  0  0   0  0  1       0 -1  0  -1  0  0   0  0 -1
                       0 -1  0  -1  0  0   0  0  1       0  1  0   1  0  0   0  0 -1
            tnons      0.0000000  0.0000000  0.0000000     0.5000000  0.5000000  0.0000000
                       0.5000000  0.5000000  0.0000000     0.0000000  0.0000000  0.0000000
                       0.0000000  0.0000000  0.0000000     0.5000000  0.5000000  0.0000000
                       0.5000000  0.5000000  0.0000000     0.0000000  0.0000000  0.0000000
           tolimg      1.00000000E-06 Hartree
           tolmxf      1.00000000E-06
           tolrff      2.00000000E-02
            typat      1  1  1  1  2  2  2  2
           useylm           1
           xangst     -6.3609355965E-03 -6.3609355965E-03  0.0000000000E+00
                       2.6280093730E-01  2.9772002954E+00  3.2400012327E+00
                       2.9772002954E+00  2.6280093730E-01  3.2400012327E+00
                       3.2463621683E+00  3.2463621683E+00  0.0000000000E+00
                       5.7045968274E-01  2.6695415500E+00  0.0000000000E+00
                       2.6695415500E+00  5.7045968274E-01  0.0000000000E+00
                      -3.7827034097E+00 -3.7827034097E+00  3.2400012327E+00
                       7.0227046424E+00  7.0227046424E+00  3.2400012327E+00
            xcart     -1.2020426226E-02 -1.2020426226E-02  0.0000000000E+00
                       4.9662179896E-01  5.6260932010E+00  6.1227150000E+00
                       5.6260932010E+00  4.9662179896E-01  6.1227150000E+00
                       6.1347354262E+00  6.1347354262E+00  0.0000000000E+00
                       1.0780125702E+00  5.0447024298E+00  0.0000000000E+00
                       5.0447024298E+00  1.0780125702E+00  0.0000000000E+00
                      -7.1482734863E+00 -7.1482734863E+00  6.1227150000E+00
                       1.3270988486E+01  1.3270988486E+01  6.1227150000E+00
             xred     -9.8162549018E-04 -9.8162549018E-04  0.0000000000E+00
                       4.0555684771E-02  4.5944431523E-01  5.0000000000E-01
                       4.5944431523E-01  4.0555684771E-02  5.0000000000E-01
                       5.0098162549E-01  5.0098162549E-01  0.0000000000E+00
                       8.8033868164E-02  4.1196613184E-01  0.0000000000E+00
                       4.1196613184E-01  8.8033868164E-02  0.0000000000E+00
                      -5.8375030410E-01 -5.8375030410E-01  5.0000000000E-01
                       1.0837503041E+00  1.0837503041E+00  5.0000000000E-01
            znucl       11.00000   53.00000

================================================================================


- Timing analysis has been suppressed with timopt=0



================================================================================

 Suggested references for the acknowledgment of ABINIT usage.

 The users of ABINIT have little formal obligations with respect to the ABINIT group
 (those specified in the GNU General Public License, http://www.gnu.org/copyleft/gpl.txt).
 However, it is common practice in the scientific literature,
 to acknowledge the efforts of people that have made the research possible.
 In this spirit, please find below suggested citations of work written by ABINIT developers,
 corresponding to implementations inside of ABINIT that you have used in the present run.
 Note also that it will be of great value to readers of publications presenting these results,
 to read papers enabling them to understand the theoretical formalism and details
 of the ABINIT implementation.
 For information on why they are suggested, see also https://docs.abinit.org/theory/acknowledgments.
-
- [1] Implementation of the Projector Augmented-Wave Method in the ABINIT code.
- M. Torrent, F. Jollet, F. Bottin, G. Zerah, and X. Gonze Comput. Mat. Science 42, 337, (2008).
- Comment: PAW calculations. Strong suggestion to cite this paper.
- DOI and bibtex: see https://docs.abinit.org/theory/bibliography/#torrent2008
-
- [2] Libxc: A library of exchange and correlation functionals for density functional theory.
- M.A.L. Marques, M.J.T. Oliveira, T. Burnus, Computer Physics Communications 183, 2227 (2012).
- Comment: to be cited when LibXC is used (negative value of ixc)
- Strong suggestion to cite this paper.
- DOI and bibtex: see https://docs.abinit.org/theory/bibliography/#marques2012
-
- [3] The Abinit project: Impact, environment and recent developments.
- Computer Phys. Comm. 248, 107042 (2020).
- X.Gonze, B. Amadon, G. Antonius, F.Arnardi, L.Baguet, J.-M.Beuken,
- J.Bieder, F.Bottin, J.Bouchet, E.Bousquet, N.Brouwer, F.Bruneval,
- G.Brunin, T.Cavignac, J.-B. Charraud, Wei Chen, M.Cote, S.Cottenier,
- J.Denier, G.Geneste, Ph.Ghosez, M.Giantomassi, Y.Gillet, O.Gingras,
- D.R.Hamann, G.Hautier, Xu He, N.Helbig, N.Holzwarth, Y.Jia, F.Jollet,
- W.Lafargue-Dit-Hauret, K.Lejaeghere, M.A.L.Marques, A.Martin, C.Martins,
- H.P.C. Miranda, F.Naccarato, K. Persson, G.Petretto, V.Planes, Y.Pouillon,
- S.Prokhorenko, F.Ricci, G.-M.Rignanese, A.H.Romero, M.M.Schmitt, M.Torrent,
- M.J.van Setten, B.Van Troeye, M.J.Verstraete, G.Zerah and J.W.Zwanzig
- Comment: the fifth generic paper describing the ABINIT project.
- Note that a version of this paper, that is not formatted for Computer Phys. Comm. 
- is available at https://www.abinit.org/sites/default/files/ABINIT20.pdf .
- The licence allows the authors to put it on the Web.
- DOI and bibtex: see https://docs.abinit.org/theory/bibliography/#gonze2020
-
- [4] ABINIT: Overview, and focus on selected capabilities
- J. Chem. Phys. 152, 124102 (2020).
- A. Romero, D.C. Allan, B. Amadon, G. Antonius, T. Applencourt, L.Baguet,
- J.Bieder, F.Bottin, J.Bouchet, E.Bousquet, F.Bruneval,
- G.Brunin, D.Caliste, M.Cote,
- J.Denier, C. Dreyer, Ph.Ghosez, M.Giantomassi, Y.Gillet, O.Gingras,
- D.R.Hamann, G.Hautier, F.Jollet, G. Jomard,
- A.Martin, 
- H.P.C. Miranda, F.Naccarato, G.Petretto, N.A. Pike, V.Planes,
- S.Prokhorenko, T. Rangel, F.Ricci, G.-M.Rignanese, M.Royo, M.Stengel, M.Torrent,
- M.J.van Setten, B.Van Troeye, M.J.Verstraete, J.Wiktor, J.W.Zwanziger, and X.Gonze.
- Comment: a global overview of ABINIT, with focus on selected capabilities .
- Note that a version of this paper, that is not formatted for J. Chem. Phys 
- is available at https://www.abinit.org/sites/default/files/ABINIT20_JPC.pdf .
- The licence allows the authors to put it on the Web.
- DOI and bibtex: see https://docs.abinit.org/theory/bibliography/#romero2020
-
- [5] Recent developments in the ABINIT software package.
- Computer Phys. Comm. 205, 106 (2016).
- X.Gonze, F.Jollet, F.Abreu Araujo, D.Adams, B.Amadon, T.Applencourt,
- C.Audouze, J.-M.Beuken, J.Bieder, A.Bokhanchuk, E.Bousquet, F.Bruneval
- D.Caliste, M.Cote, F.Dahm, F.Da Pieve, M.Delaveau, M.Di Gennaro,
- B.Dorado, C.Espejo, G.Geneste, L.Genovese, A.Gerossier, M.Giantomassi,
- Y.Gillet, D.R.Hamann, L.He, G.Jomard, J.Laflamme Janssen, S.Le Roux,
- A.Levitt, A.Lherbier, F.Liu, I.Lukacevic, A.Martin, C.Martins,
- M.J.T.Oliveira, S.Ponce, Y.Pouillon, T.Rangel, G.-M.Rignanese,
- A.H.Romero, B.Rousseau, O.Rubel, A.A.Shukri, M.Stankovski, M.Torrent,
- M.J.Van Setten, B.Van Troeye, M.J.Verstraete, D.Waroquier, J.Wiktor,
- B.Xu, A.Zhou, J.W.Zwanziger.
- Comment: the fourth generic paper describing the ABINIT project.
- Note that a version of this paper, that is not formatted for Computer Phys. Comm. 
- is available at https://www.abinit.org/sites/default/files/ABINIT16.pdf .
- The licence allows the authors to put it on the Web.
- DOI and bibtex: see https://docs.abinit.org/theory/bibliography/#gonze2016
-
- Proc.   0 individual time (sec): cpu=         22.6  wall=         22.7

================================================================================

 Calculation completed.
.Delivered  18 WARNINGs and   7 COMMENTs to log file.
+Overall time at end (sec) : cpu=         22.6  wall=         22.7
