
.Version 9.3.2 of ABINIT 
.(MPI version, prepared for a x86_64_linux_gnu8.3 computer) 

.Copyright (C) 1998-2020 ABINIT group . 
 ABINIT comes with ABSOLUTELY NO WARRANTY.
 It is free software, and you are welcome to redistribute it
 under certain conditions (GNU General Public License,
 see ~abinit/COPYING or http://www.gnu.org/copyleft/gpl.txt).

 ABINIT is a project of the Universite Catholique de Louvain,
 Corning Inc. and other collaborators, see ~abinit/doc/developers/contributors.txt .
 Please read https://docs.abinit.org/theory/acknowledgments for suggested
 acknowledgments of the ABINIT effort.
 For more information, see https://www.abinit.org .

.Starting date : Sat 28 Nov 2020.
- ( at 00h51 )
  
- input  file    -> /home/marm314/abinit/tests/Test_suite/v9_t33/t33.in
- output file    -> t33.out
- root for input  files -> t33i
- root for output files -> t33o


 DATASET    1 : space group Fd -3 m (#227); Bravais cF (face-center cubic)
================================================================================
 Values of the parameters that define the memory need for DATASET  1.
     intxc =       0    ionmov =       0      iscf =      15    lmnmax =       6
     lnmax =       6     mgfft =      20  mpssoang =       3    mqgrid =    3001
     natom =       2  nloc_mem =       1    nspden =       1   nspinor =       1
    nsppol =       1      nsym =      48    n1xccc =    2501    ntypat =       1
    occopt =       1   xclevel =       2
-    mband =           8        mffmem =           1         mkmem =           6
       mpw =         303          nfft =        8000          nkpt =           6
================================================================================
P This job should need less than                       3.360 Mbytes of memory.
  Rough estimation (10% accuracy) of disk space for files :
_ WF disk file :      0.224 Mbytes ; DEN or POT disk file :      0.063 Mbytes.
================================================================================


 DATASET    2 : space group Fd -3 m (#227); Bravais cF (face-center cubic)
================================================================================
 Values of the parameters that define the memory need for DATASET  2.
     intxc =       0    ionmov =       0      iscf =       7    lmnmax =       6
     lnmax =       6     mgfft =      20  mpssoang =       3    mqgrid =    3001
     natom =       2  nloc_mem =       1    nspden =       1   nspinor =       1
    nsppol =       1      nsym =      48    n1xccc =    2501    ntypat =       1
    occopt =       1   xclevel =       2
-    mband =           8        mffmem =           1         mkmem =           6
       mpw =         303          nfft =        8000          nkpt =           6
================================================================================
P This job should need less than                       3.543 Mbytes of memory.
  Rough estimation (10% accuracy) of disk space for files :
_ WF disk file :      0.224 Mbytes ; DEN or POT disk file :      0.063 Mbytes.
================================================================================


 DATASET    3 : space group Fd -3 m (#227); Bravais cF (face-center cubic)
================================================================================
 Values of the parameters that define the memory need for DATASET  3.
     intxc =       0    ionmov =       0      iscf =       7    lmnmax =       6
     lnmax =       6     mgfft =      20  mpssoang =       3    mqgrid =    3001
     natom =       2  nloc_mem =       1    nspden =       1   nspinor =       1
    nsppol =       1      nsym =      48    n1xccc =    2501    ntypat =       1
    occopt =       1   xclevel =       2
-    mband =           8        mffmem =           1         mkmem =           6
       mpw =         303          nfft =        8000          nkpt =           6
================================================================================
P This job should need less than                       3.543 Mbytes of memory.
  Rough estimation (10% accuracy) of disk space for files :
_ WF disk file :      0.224 Mbytes ; DEN or POT disk file :      0.063 Mbytes.
================================================================================

--------------------------------------------------------------------------------
------------- Echo of variables that govern the present computation ------------
--------------------------------------------------------------------------------
-
- outvars: echo of selected default values                                      
-   iomode0 =  0 , fftalg0 =512 , wfoptalg0 =  0
-
- outvars: echo of global parameters not present in the input file              
-  max_nthreads =    0
-
 -outvars: echo values of preprocessed input variables --------
            acell      1.0217000000E+01  1.0217000000E+01  1.0217000000E+01 Bohr
              amu      2.80855000E+01
             bdgw3          1       8       1       8       1       8       1       8
                            1       8       1       8
           diemac      1.20000000E+01
             ecut      8.00000000E+00 Hartree
          ecuteps1     0.00000000E+00 Hartree
          ecuteps2     5.00000000E+00 Hartree
          ecuteps3     0.00000000E+00 Hartree
         ecutsigx1     0.00000000E+00 Hartree
         ecutsigx2     0.00000000E+00 Hartree
         ecutsigx3     8.00000000E+00 Hartree
          ecutwfn1     0.00000000E+00 Hartree
          ecutwfn2     8.00000000E+00 Hartree
          ecutwfn3     8.00000000E+00 Hartree
-          fftalg         512
           getscr1          0
           getscr2          0
           getscr3         -1
           getwfk1          0
           getwfk2         -1
           getwfk3         -2
        gwcalctyp          21
           gw1rdm           2
        gwrpacorr1          0
        gwrpacorr2          1
        gwrpacorr3          0
             iscf1         15
             iscf2          7
             iscf3          7
           istwfk        0    0    1    0    1    1
              ixc          11
        ixc_sigma          11
           jdtset        1    2    3
              kpt     -2.50000000E-01 -2.50000000E-01  0.00000000E+00
                      -2.50000000E-01  2.50000000E-01  0.00000000E+00
                       5.00000000E-01  5.00000000E-01  0.00000000E+00
                      -2.50000000E-01  5.00000000E-01  2.50000000E-01
                       5.00000000E-01  0.00000000E+00  0.00000000E+00
                       0.00000000E+00  0.00000000E+00  0.00000000E+00
            kptgw3    -2.50000000E-01 -2.50000000E-01  0.00000000E+00
                      -2.50000000E-01  2.50000000E-01  0.00000000E+00
                       5.00000000E-01  5.00000000E-01  0.00000000E+00
                      -2.50000000E-01  5.00000000E-01  2.50000000E-01
                       5.00000000E-01  0.00000000E+00  0.00000000E+00
                       0.00000000E+00  0.00000000E+00  0.00000000E+00
         kptrlatt        2   -2    2     -2    2    2     -2   -2    2
          kptrlen      2.04340000E+01
P           mkmem           6
            natom           2
            nband           8
           ndtset           3
          nfreqim1         -1
          nfreqim2         40
          nfreqim3         -1
            ngfft          20      20      20
             nkpt           6
           nkptgw1          0
           nkptgw2          0
           nkptgw3          6
         nomegasi1         12
         nomegasi2         12
         nomegasi3         20
           npweps1          0
           npweps2        137
           npweps3          0
          npwsigx1          0
          npwsigx2          0
          npwsigx3        283
           npwwfn1          0
           npwwfn2        283
           npwwfn3        283
            nstep          20
             nsym          48
           ntypat           1
              occ      2.000000  2.000000  2.000000  2.000000  0.000000  0.000000
                       0.000000  0.000000
        optdriver1          0
        optdriver2          3
        optdriver3          4
            rprim      0.0000000000E+00  5.0000000000E-01  5.0000000000E-01
                       5.0000000000E-01  0.0000000000E+00  5.0000000000E-01
                       5.0000000000E-01  5.0000000000E-01  0.0000000000E+00
          spgroup         227
           symrel      1  0  0   0  1  0   0  0  1      -1  0  0   0 -1  0   0  0 -1
                       0 -1  1   0 -1  0   1 -1  0       0  1 -1   0  1  0  -1  1  0
                      -1  0  0  -1  0  1  -1  1  0       1  0  0   1  0 -1   1 -1  0
                       0  1 -1   1  0 -1   0  0 -1       0 -1  1  -1  0  1   0  0  1
                      -1  0  0  -1  1  0  -1  0  1       1  0  0   1 -1  0   1  0 -1
                       0 -1  1   1 -1  0   0 -1  0       0  1 -1  -1  1  0   0  1  0
                       1  0  0   0  0  1   0  1  0      -1  0  0   0  0 -1   0 -1  0
                       0  1 -1   0  0 -1   1  0 -1       0 -1  1   0  0  1  -1  0  1
                      -1  0  1  -1  1  0  -1  0  0       1  0 -1   1 -1  0   1  0  0
                       0 -1  0   1 -1  0   0 -1  1       0  1  0  -1  1  0   0  1 -1
                       1  0 -1   0  0 -1   0  1 -1      -1  0  1   0  0  1   0 -1  1
                       0  1  0   0  0  1   1  0  0       0 -1  0   0  0 -1  -1  0  0
                       1  0 -1   0  1 -1   0  0 -1      -1  0  1   0 -1  1   0  0  1
                       0 -1  0   0 -1  1   1 -1  0       0  1  0   0  1 -1  -1  1  0
                      -1  0  1  -1  0  0  -1  1  0       1  0 -1   1  0  0   1 -1  0
                       0  1  0   1  0  0   0  0  1       0 -1  0  -1  0  0   0  0 -1
                       0  0 -1   0  1 -1   1  0 -1       0  0  1   0 -1  1  -1  0  1
                       1 -1  0   0 -1  1   0 -1  0      -1  1  0   0  1 -1   0  1  0
                       0  0  1   1  0  0   0  1  0       0  0 -1  -1  0  0   0 -1  0
                      -1  1  0  -1  0  0  -1  0  1       1 -1  0   1  0  0   1  0 -1
                       0  0  1   0  1  0   1  0  0       0  0 -1   0 -1  0  -1  0  0
                       1 -1  0   0 -1  0   0 -1  1      -1  1  0   0  1  0   0  1 -1
                       0  0 -1   1  0 -1   0  1 -1       0  0  1  -1  0  1   0 -1  1
                      -1  1  0  -1  0  1  -1  0  0       1 -1  0   1  0 -1   1  0  0
         symsigma        0
            tnons      0.0000000  0.0000000  0.0000000     0.2500000  0.2500000  0.2500000
                       0.0000000  0.0000000  0.0000000     0.2500000  0.2500000  0.2500000
                       0.0000000  0.0000000  0.0000000     0.2500000  0.2500000  0.2500000
                       0.0000000  0.0000000  0.0000000     0.2500000  0.2500000  0.2500000
                       0.0000000  0.0000000  0.0000000     0.2500000  0.2500000  0.2500000
                       0.0000000  0.0000000  0.0000000     0.2500000  0.2500000  0.2500000
                       0.0000000  0.0000000  0.0000000     0.2500000  0.2500000  0.2500000
                       0.0000000  0.0000000  0.0000000     0.2500000  0.2500000  0.2500000
                       0.0000000  0.0000000  0.0000000     0.2500000  0.2500000  0.2500000
                       0.0000000  0.0000000  0.0000000     0.2500000  0.2500000  0.2500000
                       0.0000000  0.0000000  0.0000000     0.2500000  0.2500000  0.2500000
                       0.0000000  0.0000000  0.0000000     0.2500000  0.2500000  0.2500000
                       0.0000000  0.0000000  0.0000000     0.2500000  0.2500000  0.2500000
                       0.0000000  0.0000000  0.0000000     0.2500000  0.2500000  0.2500000
                       0.0000000  0.0000000  0.0000000     0.2500000  0.2500000  0.2500000
                       0.0000000  0.0000000  0.0000000     0.2500000  0.2500000  0.2500000
                       0.0000000  0.0000000  0.0000000     0.2500000  0.2500000  0.2500000
                       0.0000000  0.0000000  0.0000000     0.2500000  0.2500000  0.2500000
                       0.0000000  0.0000000  0.0000000     0.2500000  0.2500000  0.2500000
                       0.0000000  0.0000000  0.0000000     0.2500000  0.2500000  0.2500000
                       0.0000000  0.0000000  0.0000000     0.2500000  0.2500000  0.2500000
                       0.0000000  0.0000000  0.0000000     0.2500000  0.2500000  0.2500000
                       0.0000000  0.0000000  0.0000000     0.2500000  0.2500000  0.2500000
                       0.0000000  0.0000000  0.0000000     0.2500000  0.2500000  0.2500000
           toldfe      1.00000000E-06 Hartree
            typat      1  1
              wtk        0.18750    0.37500    0.09375    0.18750    0.12500    0.03125
           xangst      0.0000000000E+00  0.0000000000E+00  0.0000000000E+00
                       1.3516508850E+00  1.3516508850E+00  1.3516508850E+00
            xcart      0.0000000000E+00  0.0000000000E+00  0.0000000000E+00
                       2.5542500000E+00  2.5542500000E+00  2.5542500000E+00
             xred      0.0000000000E+00  0.0000000000E+00  0.0000000000E+00
                       2.5000000000E-01  2.5000000000E-01  2.5000000000E-01
            znucl       14.00000

================================================================================

 chkinp: Checking input parameters for consistency, jdtset=   1.

 chkinp: Checking input parameters for consistency, jdtset=   2.

 chkinp: Checking input parameters for consistency, jdtset=   3.

================================================================================
== DATASET  1 ==================================================================
-   mpi_nproc: 1, omp_nthreads: -1 (-1 if OMP is not activated)


--- !DatasetInfo
iteration_state: {dtset: 1, }
dimensions: {natom: 2, nkpt: 6, mband: 8, nsppol: 1, nspinor: 1, nspden: 1, mpw: 303, }
cutoff_energies: {ecut:   8.0, pawecutdg:  -1.0, }
electrons: {nelect:   8.00000000E+00, charge:   0.00000000E+00, occopt:   1.00000000E+00, tsmear:   1.00000000E-02, }
meta: {optdriver: 0, ionmov: 0, optcell: 0, iscf: 15, paral_kgb: 0, }
...

 Exchange-correlation functional for the present dataset will be:
  GGA: Perdew-Burke-Ernzerhof functional - ixc=11
 Citation for XC functional:
  J.P.Perdew, K.Burke, M.Ernzerhof, PRL 77, 3865 (1996)

 Real(R)+Recip(G) space primitive vectors, cartesian coordinates (Bohr,Bohr^-1):
 R(1)=  0.0000000  5.1085000  5.1085000  G(1)= -0.0978761  0.0978761  0.0978761
 R(2)=  5.1085000  0.0000000  5.1085000  G(2)=  0.0978761 -0.0978761  0.0978761
 R(3)=  5.1085000  5.1085000  0.0000000  G(3)=  0.0978761  0.0978761 -0.0978761
 Unit cell volume ucvol=  2.6663072E+02 bohr^3
 Angles (23,13,12)=  6.00000000E+01  6.00000000E+01  6.00000000E+01 degrees

 getcut: wavevector=  0.0000  0.0000  0.0000  ngfft=  20  20  20
         ecut(hartree)=      8.000   => boxcut(ratio)=   2.17426

--- Pseudopotential description ------------------------------------------------
- pspini: atom type   1  psp file is /home/marm314/abinit/tests/Psps_for_tests/Si-GGA.psp8
- pspatm: opening atomic psp file    /home/marm314/abinit/tests/Psps_for_tests/Si-GGA.psp8
- Si    ONCVPSP  r_core=  1.60  1.72  1.92
- 14.00000   4.00000    150713                znucl, zion, pspdat
    8   11    2    4       600   0.00000      pspcod,pspxc,lmax,lloc,mmax,r2well
    5.99000000000000    4.00000000000000    0.00000000000000   rchrg,fchrg,qchrg
     nproj     2     2     2
     extension_switch     1
  pspatm : epsatm=    9.35284323
         --- l  ekb(1:nproj) -->
             0    5.077596    0.840525
             1    2.714235    0.601251
             2  -10.098774   -0.937313
 pspatm: atomic psp has been read  and splines computed

   1.49645492E+02                                ecore*ucvol(ha*bohr**3)
--------------------------------------------------------------------------------

_setup2: Arith. and geom. avg. npw (full set) are     286.594     286.400

================================================================================

--- !BeginCycle
iteration_state: {dtset: 1, }
solver: {iscf: 15, nstep: 20, nline: 4, wfoptalg: 0, }
tolerances: {toldfe: 1.00E-06, }
...

     iter   Etot(hartree)      deltaE(h)  residm     nres2
 ETOT  1  -8.4565592926901    -8.457E+00 8.174E-03 4.306E-01
 ETOT  2  -8.4508579794824     5.701E-03 7.073E-04 8.008E-03
 ETOT  3  -8.4506865004532     1.715E-04 1.363E-04 6.059E-03
 ETOT  4  -8.4510248257644    -3.383E-04 2.575E-05 2.679E-04
 ETOT  5  -8.4510689022491    -4.408E-05 6.798E-06 1.297E-04
 ETOT  6  -8.4510718364909    -2.934E-06 3.514E-06 5.355E-07
 ETOT  7  -8.4510718760421    -3.955E-08 1.542E-06 2.956E-08
 ETOT  8  -8.4510718474703     2.857E-08 9.145E-07 1.795E-06

 At SCF step    8, etot is converged : 
  for the second time, diff in etot=  2.857E-08 < toldfe=  1.000E-06

 Cartesian components of stress tensor (hartree/bohr^3)
  sigma(1 1)= -7.93683031E-05  sigma(3 2)=  0.00000000E+00
  sigma(2 2)= -7.93683031E-05  sigma(3 1)=  0.00000000E+00
  sigma(3 3)= -7.93683031E-05  sigma(2 1)=  0.00000000E+00


--- !ResultsGS
iteration_state: {dtset: 1, }
comment   : Summary of ground state results
lattice_vectors:
- [  0.0000000,   5.1085000,   5.1085000, ]
- [  5.1085000,   0.0000000,   5.1085000, ]
- [  5.1085000,   5.1085000,   0.0000000, ]
lattice_lengths: [   7.22451,    7.22451,    7.22451, ]
lattice_angles: [ 60.000,  60.000,  60.000, ] # degrees, (23, 13, 12)
lattice_volume:   2.6663072E+02
convergence: {deltae:  2.857E-08, res2:  1.795E-06, residm:  9.145E-07, diffor: null, }
etotal    :  -8.45107185E+00
entropy   :   0.00000000E+00
fermie    :   1.66156303E-01
cartesian_stress_tensor: # hartree/bohr^3
- [ -7.93683031E-05,   0.00000000E+00,   0.00000000E+00, ]
- [  0.00000000E+00,  -7.93683031E-05,   0.00000000E+00, ]
- [  0.00000000E+00,   0.00000000E+00,  -7.93683031E-05, ]
pressure_GPa:   2.3351E+00
xred      :
- [  0.0000E+00,   0.0000E+00,   0.0000E+00, Si]
- [  2.5000E-01,   2.5000E-01,   2.5000E-01, Si]
cartesian_forces: # hartree/bohr
- [ -2.15896542E-25,   2.15896542E-25,  -2.15896542E-25, ]
- [  2.15896542E-25,  -2.15896542E-25,   2.15896542E-25, ]
force_length_stats: {min:   3.73943779E-25, max:   3.73943779E-25, mean:   3.73943779E-25, }
...

 Integrated electronic density in atomic spheres:
 ------------------------------------------------
 Atom  Sphere_radius  Integrated_density
    1        2.00000          1.71463212
    2        2.00000          1.71463212
================================================================================

 ----iterations are completed or convergence reached----

 Mean square residual over all n,k,spin=   20.365E-09; max=  91.448E-08
 reduced coordinates (array xred) for    2 atoms
       0.000000000000      0.000000000000      0.000000000000
       0.250000000000      0.250000000000      0.250000000000
 rms dE/dt=  4.0272E-24; max dE/dt=  2.2058E-24; dE/dt below (all hartree)
    1       0.000000000000     -0.000000000000     -0.000000000000
    2       0.000000000000     -0.000000000000     -0.000000000000

 cartesian coordinates (angstrom) at end:
    1      0.00000000000000     0.00000000000000     0.00000000000000
    2      1.35165088504101     1.35165088504101     1.35165088504101

 cartesian forces (hartree/bohr) at end:
    1     -0.00000000000000     0.00000000000000    -0.00000000000000
    2      0.00000000000000    -0.00000000000000     0.00000000000000
 frms,max,avg= 2.1589654E-25 2.1589654E-25   0.000E+00  0.000E+00  0.000E+00 h/b

 cartesian forces (eV/Angstrom) at end:
    1     -0.00000000000000     0.00000000000000    -0.00000000000000
    2      0.00000000000000    -0.00000000000000     0.00000000000000
 frms,max,avg= 1.1101846E-23 1.1101846E-23   0.000E+00  0.000E+00  0.000E+00 e/A
 length scales= 10.217000000000 10.217000000000 10.217000000000 bohr
              =  5.406603540164  5.406603540164  5.406603540164 angstroms
 prteigrs : about to open file t33o_DS1_EIG
 Fermi (or HOMO) energy (hartree) =   0.16616   Average Vxc (hartree)=  -0.34226
 Eigenvalues (hartree) for nkpt=   6  k points:
 kpt#   1, nband=  8, wtk=  0.18750, kpt= -0.2500 -0.2500  0.0000 (reduced coord)
  -0.23707    0.03695    0.09497    0.09497    0.20686    0.28131    0.37965    0.37965
 prteigrs : prtvol=0 or 1, do not print more k-points.


--- !EnergyTerms
iteration_state     : {dtset: 1, }
comment             : Components of total free energy in Hartree
kinetic             :  3.10874853130363E+00
hartree             :  5.54121519298500E-01
xc                  : -3.10673460225929E+00
Ewald energy        : -8.43581958561899E+00
psp_core            :  5.61246245694275E-01
local_psp           : -2.28236198311607E+00
non_local_psp       :  1.14985462688854E+00
total_energy        : -8.45094524780941E+00
...


--- !EnergyTermsDC
iteration_state     : {dtset: 1, }
comment             : '"Double-counting" decomposition of free energy'
band_energy         : -1.66975012250597E-01
Ewald energy        : -8.43581958561899E+00
psp_core            :  5.61246245694275E-01
xc_dc               : -4.09523495294951E-01
total_energy_dc     : -8.45107184747027E+00
...


 Cartesian components of stress tensor (hartree/bohr^3)
  sigma(1 1)= -7.93683031E-05  sigma(3 2)=  0.00000000E+00
  sigma(2 2)= -7.93683031E-05  sigma(3 1)=  0.00000000E+00
  sigma(3 3)= -7.93683031E-05  sigma(2 1)=  0.00000000E+00

-Cartesian components of stress tensor (GPa)         [Pressure=  2.3351E+00 GPa]
- sigma(1 1)= -2.33509570E+00  sigma(3 2)=  0.00000000E+00
- sigma(2 2)= -2.33509570E+00  sigma(3 1)=  0.00000000E+00
- sigma(3 3)= -2.33509570E+00  sigma(2 1)=  0.00000000E+00

================================================================================
== DATASET  2 ==================================================================
-   mpi_nproc: 1, omp_nthreads: -1 (-1 if OMP is not activated)


--- !DatasetInfo
iteration_state: {dtset: 2, }
dimensions: {natom: 2, nkpt: 6, mband: 8, nsppol: 1, nspinor: 1, nspden: 1, mpw: 303, }
cutoff_energies: {ecut:   8.0, pawecutdg:  -1.0, }
electrons: {nelect:   8.00000000E+00, charge:   0.00000000E+00, occopt:   1.00000000E+00, tsmear:   1.00000000E-02, }
meta: {optdriver: 3, gwcalctyp: 21, }
...

 mkfilename : getwfk/=0, take file _WFK from output of DATASET   1.

 Exchange-correlation functional for the present dataset will be:
  GGA: Perdew-Burke-Ernzerhof functional - ixc=11
 Citation for XC functional:
  J.P.Perdew, K.Burke, M.Ernzerhof, PRL 77, 3865 (1996)

 SCREENING: Calculation of the susceptibility and dielectric matrices 

 Based on a program developped by R.W. Godby, V. Olevano, G. Onida, and L. Reining.
 Incorporated in ABINIT by V. Olevano, G.-M. Rignanese, and M. Torrent.
.Using double precision arithmetic ; gwpc =  8

 Real(R)+Recip(G) space primitive vectors, cartesian coordinates (Bohr,Bohr^-1):
 R(1)=  0.0000000  5.1085000  5.1085000  G(1)= -0.0978761  0.0978761  0.0978761
 R(2)=  5.1085000  0.0000000  5.1085000  G(2)=  0.0978761 -0.0978761  0.0978761
 R(3)=  5.1085000  5.1085000  0.0000000  G(3)=  0.0978761  0.0978761 -0.0978761
 Unit cell volume ucvol=  2.6663072E+02 bohr^3
 Angles (23,13,12)=  6.00000000E+01  6.00000000E+01  6.00000000E+01 degrees
--------------------------------------------------------------------------------

 ==== K-mesh for the wavefunctions ====
 Number of points in the irreducible wedge :     6
 Reduced coordinates and weights : 

     1)    -2.50000000E-01 -2.50000000E-01  0.00000000E+00       0.18750
     2)    -2.50000000E-01  2.50000000E-01  0.00000000E+00       0.37500
     3)     5.00000000E-01  5.00000000E-01  0.00000000E+00       0.09375
     4)    -2.50000000E-01  5.00000000E-01  2.50000000E-01       0.18750
     5)     5.00000000E-01  0.00000000E+00  0.00000000E+00       0.12500
     6)     0.00000000E+00  0.00000000E+00  0.00000000E+00       0.03125

 Together with 48 symmetry operations and time-reversal symmetry 
 yields    32 points in the full Brillouin Zone.


 ==== Q-mesh for the screening function ====
 Number of points in the irreducible wedge :     6
 Reduced coordinates and weights : 

     1)     0.00000000E+00  0.00000000E+00  0.00000000E+00       0.03125
     2)     5.00000000E-01  5.00000000E-01  0.00000000E+00       0.09375
     3)     5.00000000E-01  2.50000000E-01  2.50000000E-01       0.37500
     4)     0.00000000E+00  5.00000000E-01  0.00000000E+00       0.12500
     5)     5.00000000E-01 -2.50000000E-01  2.50000000E-01       0.18750
     6)     0.00000000E+00 -2.50000000E-01 -2.50000000E-01       0.18750

 Together with 48 symmetry operations and time-reversal symmetry 
 yields    32 points in the full Brillouin Zone.


 setmesh: FFT mesh size selected  =    20x   20x   20
          total number of points  =         8000


- screening: taking advantage of time-reversal symmetry 
- Maximum band index for partially occupied states nbvw = 4
- Remaining bands to be divided among processors   nbcw = 4
- Number of bands treated by each node ~4


 rdqps: reading QP wavefunctions of the previous step 
        looking for file t33i_DS2_QPS
 file not found, 1st iteration initialized with KS eigenelements 

 Number of electrons calculated from density =    8.0000; Expected =    8.0000
 average of density, n =  0.030004
 r_s =    1.9964
 omega_plasma =   16.7088 [eV]


 calculating chi0 at frequencies [eV] :
  1    0.000000E+00    0.000000E+00
  2    0.000000E+00    3.085463E+04
  3    0.000000E+00    5.841256E+03
  4    0.000000E+00    2.366045E+03
  5    0.000000E+00    1.266008E+03
  6    0.000000E+00    7.828056E+02
  7    0.000000E+00    5.286835E+02
  8    0.000000E+00    3.788060E+02
  9    0.000000E+00    2.830883E+02
 10    0.000000E+00    2.182742E+02
 11    0.000000E+00    1.723721E+02
 12    0.000000E+00    1.386898E+02
 13    0.000000E+00    1.132540E+02
 14    0.000000E+00    9.358506E+01
 15    0.000000E+00    7.807053E+01
 16    0.000000E+00    6.562525E+01
 17    0.000000E+00    5.549725E+01
 18    0.000000E+00    4.715212E+01
 19    0.000000E+00    4.020173E+01
 20    0.000000E+00    3.435869E+01
 21    0.000000E+00    2.940660E+01
 22    0.000000E+00    2.518004E+01
 23    0.000000E+00    2.155086E+01
 24    0.000000E+00    1.841860E+01
 25    0.000000E+00    1.570363E+01
 26    0.000000E+00    1.334227E+01
 27    0.000000E+00    1.128315E+01
 28    0.000000E+00    9.484493E+00
 29    0.000000E+00    7.912154E+00
 30    0.000000E+00    6.538042E+00
 31    0.000000E+00    5.338962E+00
 32    0.000000E+00    4.295704E+00
 33    0.000000E+00    3.392336E+00
 34    0.000000E+00    2.615648E+00
 35    0.000000E+00    1.954719E+00
 36    0.000000E+00    1.400572E+00
 37    0.000000E+00    9.459046E-01
 38    0.000000E+00    5.848775E-01
 39    0.000000E+00    3.129524E-01
 40    0.000000E+00    1.267637E-01
 41    0.000000E+00    2.399832E-02


--------------------------------------------------------------------------------
  q-point number  1        q = ( 0.000000, 0.000000, 0.000000) [r.l.u.]
--------------------------------------------------------------------------------
  chi0(G,G') at the    1 th omega   0.0000   0.0000 [eV]
       1       2       3       4       5       6       7       8       9
    1 -36.761  -0.890   0.683  -0.268   1.306  -0.890   0.683  -1.098   0.476
       -0.000  -0.890  -0.683  -0.268  -1.306  -0.890  -0.683  -1.098  -0.476

    2  -0.890  -8.662   0.000  -0.314   0.000  -0.305   0.000  -0.323  -0.000
        0.890   0.000  -4.505   0.000  -0.186   0.000  -0.180  -0.000  -0.193

  chi0(G,G') at the    2 th omega   0.0000********* [eV]
       1       2       3       4       5       6       7       8       9
    1  -0.000  -0.000   0.000  -0.000   0.000  -0.000   0.000  -0.000   0.000
       -0.000  -0.000  -0.000  -0.000  -0.000  -0.000  -0.000  -0.000  -0.000

    2  -0.000  -0.000   0.000   0.000   0.000   0.000   0.000   0.000  -0.000
        0.000   0.000  -0.000  -0.000  -0.000   0.000  -0.000  -0.000  -0.000

  chi0(G,G') at the    3 th omega   0.00005841.2562 [eV]
       1       2       3       4       5       6       7       8       9
    1  -0.000  -0.000   0.000  -0.000   0.000  -0.000   0.000  -0.000   0.000
        0.000  -0.000  -0.000  -0.000  -0.000  -0.000  -0.000  -0.000  -0.000

    2  -0.000  -0.000   0.000   0.000   0.000   0.000   0.000   0.000  -0.000
        0.000   0.000  -0.000  -0.000  -0.000   0.000  -0.000  -0.000  -0.000

  chi0(G,G') at the    4 th omega   0.00002366.0449 [eV]
       1       2       3       4       5       6       7       8       9
    1  -0.000  -0.000   0.000  -0.000   0.000  -0.000   0.000  -0.000   0.000
        0.000  -0.000  -0.000  -0.000  -0.000  -0.000  -0.000  -0.000  -0.000

    2  -0.000  -0.000   0.000   0.000   0.000   0.000   0.000   0.000  -0.000
        0.000   0.000  -0.000  -0.000  -0.000   0.000  -0.000  -0.000  -0.000

  chi0(G,G') at the    5 th omega   0.00001266.0076 [eV]
       1       2       3       4       5       6       7       8       9
    1  -0.001  -0.000   0.000  -0.000   0.000  -0.000   0.000  -0.000   0.000
       -0.000  -0.000  -0.000  -0.000  -0.000  -0.000  -0.000  -0.000  -0.000

    2  -0.000  -0.001   0.000   0.000   0.000   0.000   0.000   0.000  -0.000
        0.000   0.000  -0.000  -0.000  -0.000   0.000  -0.000  -0.000  -0.000

  chi0(G,G') at the    6 th omega   0.0000 782.8056 [eV]
       1       2       3       4       5       6       7       8       9
    1  -0.003  -0.000   0.000  -0.000   0.000  -0.000   0.000  -0.000   0.000
       -0.000  -0.000  -0.000  -0.000  -0.000  -0.000  -0.000  -0.000  -0.000

    2  -0.000  -0.001   0.000   0.000   0.000   0.000   0.000   0.000  -0.000
        0.000   0.000  -0.001  -0.000  -0.000   0.000  -0.000  -0.000  -0.000

  chi0(G,G') at the    7 th omega   0.0000 528.6835 [eV]
       1       2       3       4       5       6       7       8       9
    1  -0.007  -0.000   0.000  -0.000   0.000  -0.000   0.000  -0.000   0.000
       -0.000  -0.000  -0.000  -0.000  -0.000  -0.000  -0.000  -0.000  -0.000

    2  -0.000  -0.003   0.000   0.000   0.000   0.000   0.000   0.000  -0.000
        0.000   0.000  -0.002  -0.000  -0.000   0.000  -0.000  -0.000  -0.000

  chi0(G,G') at the    8 th omega   0.0000 378.8060 [eV]
       1       2       3       4       5       6       7       8       9
    1  -0.013  -0.000   0.000  -0.000   0.001  -0.000   0.000  -0.000   0.000
        0.000  -0.000  -0.000  -0.000  -0.001  -0.000  -0.000  -0.000  -0.000

    2  -0.000  -0.006   0.000   0.000   0.000   0.000   0.000   0.000  -0.000
        0.000   0.000  -0.003  -0.000  -0.000   0.000  -0.000  -0.000  -0.000

  chi0(G,G') at the    9 th omega   0.0000 283.0883 [eV]
       1       2       3       4       5       6       7       8       9
    1  -0.023  -0.001   0.000  -0.000   0.001  -0.001   0.000  -0.001   0.000
       -0.000  -0.001  -0.000  -0.000  -0.001  -0.001  -0.000  -0.001  -0.000

    2  -0.001  -0.011   0.000   0.000   0.000   0.000   0.000   0.000  -0.000
        0.001   0.000  -0.005  -0.000  -0.000   0.000  -0.000  -0.000  -0.000

  chi0(G,G') at the   10 th omega   0.0000 218.2742 [eV]
       1       2       3       4       5       6       7       8       9
    1  -0.038  -0.001   0.001  -0.000   0.002  -0.001   0.001  -0.001   0.000
       -0.000  -0.001  -0.001  -0.000  -0.002  -0.001  -0.001  -0.001  -0.000

    2  -0.001  -0.018   0.000   0.000   0.000   0.000   0.000   0.000  -0.000
        0.001   0.000  -0.009  -0.000  -0.000   0.000  -0.000  -0.000  -0.000

  chi0(G,G') at the   11 th omega   0.0000 172.3721 [eV]
       1       2       3       4       5       6       7       8       9
    1  -0.061  -0.002   0.001  -0.000   0.003  -0.002   0.001  -0.002   0.001
        0.000  -0.002  -0.001  -0.000  -0.003  -0.002  -0.001  -0.002  -0.001

    2  -0.002  -0.029   0.000   0.000   0.000   0.000   0.000   0.000  -0.000
        0.002   0.000  -0.014  -0.000  -0.000   0.000  -0.000  -0.000  -0.000

  chi0(G,G') at the   12 th omega   0.0000 138.6898 [eV]
       1       2       3       4       5       6       7       8       9
    1  -0.095  -0.003   0.002  -0.000   0.004  -0.003   0.002  -0.003   0.001
        0.000  -0.003  -0.002  -0.000  -0.004  -0.003  -0.002  -0.003  -0.001

    2  -0.003  -0.045   0.000   0.000   0.000   0.000   0.000   0.000  -0.000
        0.003   0.000  -0.022  -0.000  -0.000   0.000  -0.000  -0.000  -0.000

  chi0(G,G') at the   13 th omega   0.0000 113.2540 [eV]
       1       2       3       4       5       6       7       8       9
    1  -0.142  -0.004   0.003  -0.000   0.006  -0.004   0.003  -0.005   0.002
        0.000  -0.004  -0.003  -0.000  -0.006  -0.004  -0.003  -0.005  -0.002

    2  -0.004  -0.067   0.000   0.000   0.000   0.000   0.000   0.000  -0.000
        0.004   0.000  -0.033  -0.000  -0.000   0.000  -0.000  -0.000  -0.001

  chi0(G,G') at the   14 th omega   0.0000  93.5851 [eV]
       1       2       3       4       5       6       7       8       9
    1  -0.207  -0.006   0.004  -0.001   0.009  -0.006   0.004  -0.007   0.002
        0.000  -0.006  -0.004  -0.001  -0.009  -0.006  -0.004  -0.007  -0.002

    2  -0.006  -0.097   0.000   0.000   0.000   0.000   0.000   0.000  -0.000
        0.006   0.000  -0.048   0.000  -0.001   0.000  -0.001  -0.000  -0.001

  chi0(G,G') at the   15 th omega   0.0000  78.0705 [eV]
       1       2       3       4       5       6       7       8       9
    1  -0.296  -0.008   0.006  -0.001   0.013  -0.008   0.006  -0.011   0.003
       -0.000  -0.008  -0.006  -0.001  -0.013  -0.008  -0.006  -0.011  -0.003

    2  -0.008  -0.139   0.000   0.000   0.000   0.001   0.000   0.000  -0.000
        0.008   0.000  -0.068   0.000  -0.001   0.000  -0.001  -0.000  -0.001

 No. of calculated frequencies >  15, stop printing
 For q-point:  0.000010 0.000020 0.000030
  dielectric constant = ********
  dielectric constant without local fields = ********

  Average fulfillment of the sum rule on Im[epsilon] for q-point    1 :     10.09  [%]
  Heads and wings of the symmetrical epsilon^-1(G,G') 

   Upper and lower wings at the    1 th omega   0.0000   0.0000 [eV]
       1       2       3       4       5       6       7       8       9
      0.000  -0.000   0.000   0.000   0.000  -0.000   0.000  -0.000   0.000
      0.000  -0.000  -0.000   0.000  -0.000  -0.000  -0.000  -0.000  -0.000
       1       2       3       4       5       6       7       8       9
      0.000  -0.000   0.000   0.000   0.000  -0.000   0.000  -0.000   0.000
      0.000   0.000   0.000  -0.000   0.000   0.000   0.000   0.000   0.000


   Upper and lower wings at the    2 th omega   0.0000********* [eV]
       1       2       3       4       5       6       7       8       9
      0.008  -0.000   0.000  -0.000   0.000  -0.000   0.000  -0.000   0.000
     -0.000  -0.000  -0.000  -0.000  -0.000  -0.000  -0.000  -0.000  -0.000
       1       2       3       4       5       6       7       8       9
      0.008  -0.000   0.000  -0.000   0.000  -0.000   0.000  -0.000   0.000
     -0.000   0.000   0.000   0.000   0.000   0.000   0.000   0.000   0.000


   Upper and lower wings at the    3 th omega   0.00005841.2562 [eV]
       1       2       3       4       5       6       7       8       9
      0.000  -0.000   0.000  -0.000   0.000  -0.000   0.000  -0.000   0.000
      0.000  -0.000  -0.000  -0.000  -0.000  -0.000  -0.000  -0.000  -0.000
       1       2       3       4       5       6       7       8       9
      0.000  -0.000   0.000  -0.000   0.000  -0.000   0.000  -0.000   0.000
      0.000   0.000   0.000   0.000   0.000   0.000   0.000   0.000   0.000


   Upper and lower wings at the    4 th omega   0.00002366.0449 [eV]
       1       2       3       4       5       6       7       8       9
      0.000  -0.000   0.000  -0.000   0.000  -0.000   0.000  -0.000   0.000
      0.000  -0.000  -0.000  -0.000  -0.000  -0.000  -0.000  -0.000  -0.000
       1       2       3       4       5       6       7       8       9
      0.000  -0.000   0.000  -0.000   0.000  -0.000   0.000  -0.000   0.000
      0.000   0.000   0.000   0.000   0.000   0.000   0.000   0.000   0.000


   Upper and lower wings at the    5 th omega   0.00001266.0076 [eV]
       1       2       3       4       5       6       7       8       9
      0.000  -0.000   0.000  -0.000   0.000  -0.000   0.000  -0.000   0.000
     -0.000  -0.000  -0.000  -0.000  -0.000  -0.000  -0.000  -0.000  -0.000
       1       2       3       4       5       6       7       8       9
      0.000  -0.000   0.000  -0.000   0.000  -0.000   0.000  -0.000   0.000
     -0.000   0.000   0.000   0.000   0.000   0.000   0.000   0.000   0.000


   Upper and lower wings at the    6 th omega   0.0000 782.8056 [eV]
       1       2       3       4       5       6       7       8       9
      0.000  -0.000   0.000  -0.000   0.000  -0.000   0.000  -0.000   0.000
      0.000  -0.000  -0.000  -0.000  -0.000  -0.000  -0.000  -0.000  -0.000
       1       2       3       4       5       6       7       8       9
      0.000  -0.000   0.000  -0.000   0.000  -0.000   0.000  -0.000   0.000
      0.000   0.000   0.000   0.000   0.000   0.000   0.000   0.000   0.000


   Upper and lower wings at the    7 th omega   0.0000 528.6835 [eV]
       1       2       3       4       5       6       7       8       9
      0.000  -0.000   0.000  -0.000   0.000  -0.000   0.000  -0.000   0.000
      0.000  -0.000  -0.000  -0.000  -0.000  -0.000  -0.000  -0.000  -0.000
       1       2       3       4       5       6       7       8       9
      0.000  -0.000   0.000  -0.000   0.000  -0.000   0.000  -0.000   0.000
      0.000   0.000   0.000   0.000   0.000   0.000   0.000   0.000   0.000


   Upper and lower wings at the    8 th omega   0.0000 378.8060 [eV]
       1       2       3       4       5       6       7       8       9
      0.000  -0.000   0.000  -0.000   0.000  -0.000   0.000  -0.000   0.000
     -0.000  -0.000  -0.000  -0.000  -0.000  -0.000  -0.000  -0.000  -0.000
       1       2       3       4       5       6       7       8       9
      0.000  -0.000   0.000  -0.000   0.000  -0.000   0.000  -0.000   0.000
     -0.000   0.000   0.000   0.000   0.000   0.000   0.000   0.000   0.000


   Upper and lower wings at the    9 th omega   0.0000 283.0883 [eV]
       1       2       3       4       5       6       7       8       9
      0.000  -0.000   0.000  -0.000   0.000  -0.000   0.000  -0.000   0.000
      0.000  -0.000  -0.000  -0.000  -0.000  -0.000  -0.000  -0.000  -0.000
       1       2       3       4       5       6       7       8       9
      0.000  -0.000   0.000  -0.000   0.000  -0.000   0.000  -0.000   0.000
      0.000   0.000   0.000   0.000   0.000   0.000   0.000   0.000   0.000


   Upper and lower wings at the   10 th omega   0.0000 218.2742 [eV]
       1       2       3       4       5       6       7       8       9
      0.000  -0.000   0.000  -0.000   0.000  -0.000   0.000  -0.000   0.000
      0.000  -0.000  -0.000  -0.000  -0.000  -0.000  -0.000  -0.000  -0.000
       1       2       3       4       5       6       7       8       9
      0.000  -0.000   0.000  -0.000   0.000  -0.000   0.000  -0.000   0.000
      0.000   0.000   0.000   0.000   0.000   0.000   0.000   0.000   0.000


   Upper and lower wings at the   11 th omega   0.0000 172.3721 [eV]
       1       2       3       4       5       6       7       8       9
      0.000  -0.000   0.000  -0.000   0.000  -0.000   0.000  -0.000   0.000
      0.000  -0.000  -0.000  -0.000  -0.000  -0.000  -0.000  -0.000  -0.000
       1       2       3       4       5       6       7       8       9
      0.000  -0.000   0.000  -0.000   0.000  -0.000   0.000  -0.000   0.000
      0.000   0.000   0.000   0.000   0.000   0.000   0.000   0.000   0.000


   Upper and lower wings at the   12 th omega   0.0000 138.6898 [eV]
       1       2       3       4       5       6       7       8       9
      0.000  -0.000   0.000  -0.000   0.000  -0.000   0.000  -0.000   0.000
      0.000  -0.000  -0.000  -0.000  -0.000  -0.000  -0.000  -0.000  -0.000
       1       2       3       4       5       6       7       8       9
      0.000  -0.000   0.000  -0.000   0.000  -0.000   0.000  -0.000   0.000
      0.000   0.000   0.000   0.000   0.000   0.000   0.000   0.000   0.000


   Upper and lower wings at the   13 th omega   0.0000 113.2540 [eV]
       1       2       3       4       5       6       7       8       9
      0.000  -0.000   0.000  -0.000   0.000  -0.000   0.000  -0.000   0.000
      0.000  -0.000  -0.000  -0.000  -0.000  -0.000  -0.000  -0.000  -0.000
       1       2       3       4       5       6       7       8       9
      0.000  -0.000   0.000  -0.000   0.000  -0.000   0.000  -0.000   0.000
      0.000   0.000   0.000   0.000   0.000   0.000   0.000   0.000   0.000


   Upper and lower wings at the   14 th omega   0.0000  93.5851 [eV]
       1       2       3       4       5       6       7       8       9
      0.000  -0.000   0.000  -0.000   0.000  -0.000   0.000  -0.000   0.000
      0.000  -0.000  -0.000  -0.000  -0.000  -0.000  -0.000  -0.000  -0.000
       1       2       3       4       5       6       7       8       9
      0.000  -0.000   0.000  -0.000   0.000  -0.000   0.000  -0.000   0.000
      0.000   0.000   0.000   0.000   0.000   0.000   0.000   0.000   0.000


   Upper and lower wings at the   15 th omega   0.0000  78.0705 [eV]
       1       2       3       4       5       6       7       8       9
      0.000  -0.000   0.000  -0.000   0.000  -0.000   0.000  -0.000   0.000
     -0.000  -0.000  -0.000  -0.000  -0.000  -0.000  -0.000  -0.000  -0.000
       1       2       3       4       5       6       7       8       9
      0.000  -0.000   0.000  -0.000   0.000  -0.000   0.000  -0.000   0.000
     -0.000   0.000   0.000   0.000   0.000   0.000   0.000   0.000   0.000


   Upper and lower wings at the   16 th omega   0.0000  65.6253 [eV]
       1       2       3       4       5       6       7       8       9
      0.000  -0.000   0.000  -0.000   0.000  -0.000   0.000  -0.000   0.000
      0.000  -0.000  -0.000  -0.000  -0.000  -0.000  -0.000  -0.000  -0.000
       1       2       3       4       5       6       7       8       9
      0.000  -0.000   0.000  -0.000   0.000  -0.000   0.000  -0.000   0.000
      0.000   0.000   0.000   0.000   0.000   0.000   0.000   0.000   0.000


   Upper and lower wings at the   17 th omega   0.0000  55.4972 [eV]
       1       2       3       4       5       6       7       8       9
      0.000  -0.000   0.000  -0.000   0.000  -0.000   0.000  -0.000   0.000
      0.000  -0.000  -0.000  -0.000  -0.000  -0.000  -0.000  -0.000  -0.000
       1       2       3       4       5       6       7       8       9
      0.000  -0.000   0.000  -0.000   0.000  -0.000   0.000  -0.000   0.000
      0.000   0.000   0.000   0.000   0.000   0.000   0.000   0.000   0.000


   Upper and lower wings at the   18 th omega   0.0000  47.1521 [eV]
       1       2       3       4       5       6       7       8       9
      0.000  -0.000   0.000  -0.000   0.000  -0.000   0.000  -0.000   0.000
      0.000  -0.000  -0.000  -0.000  -0.000  -0.000  -0.000  -0.000  -0.000
       1       2       3       4       5       6       7       8       9
      0.000  -0.000   0.000  -0.000   0.000  -0.000   0.000  -0.000   0.000
      0.000   0.000   0.000   0.000   0.000   0.000   0.000   0.000   0.000


   Upper and lower wings at the   19 th omega   0.0000  40.2017 [eV]
       1       2       3       4       5       6       7       8       9
      0.000  -0.000   0.000  -0.000   0.000  -0.000   0.000  -0.000   0.000
      0.000  -0.000  -0.000  -0.000  -0.000  -0.000  -0.000  -0.000  -0.000
       1       2       3       4       5       6       7       8       9
      0.000  -0.000   0.000  -0.000   0.000  -0.000   0.000  -0.000   0.000
      0.000   0.000   0.000   0.000   0.000   0.000   0.000   0.000   0.000


   Upper and lower wings at the   20 th omega   0.0000  34.3587 [eV]
       1       2       3       4       5       6       7       8       9
      0.000  -0.000   0.000  -0.000   0.000  -0.000   0.000  -0.000   0.000
      0.000  -0.000  -0.000  -0.000  -0.000  -0.000  -0.000  -0.000  -0.000
       1       2       3       4       5       6       7       8       9
      0.000  -0.000   0.000  -0.000   0.000  -0.000   0.000  -0.000   0.000
      0.000   0.000   0.000   0.000   0.000   0.000   0.000   0.000   0.000


   Upper and lower wings at the   21 th omega   0.0000  29.4066 [eV]
       1       2       3       4       5       6       7       8       9
      0.000  -0.000   0.000  -0.000   0.000  -0.000   0.000  -0.000   0.000
     -0.000  -0.000  -0.000  -0.000  -0.000  -0.000  -0.000  -0.000  -0.000
       1       2       3       4       5       6       7       8       9
      0.000  -0.000   0.000  -0.000   0.000  -0.000   0.000  -0.000   0.000
     -0.000   0.000   0.000   0.000   0.000   0.000   0.000   0.000   0.000


   Upper and lower wings at the   22 th omega   0.0000  25.1800 [eV]
       1       2       3       4       5       6       7       8       9
      0.000  -0.000   0.000  -0.000   0.000  -0.000   0.000  -0.000   0.000
     -0.000  -0.000  -0.000  -0.000  -0.000  -0.000  -0.000  -0.000  -0.000
       1       2       3       4       5       6       7       8       9
      0.000  -0.000   0.000  -0.000   0.000  -0.000   0.000  -0.000   0.000
     -0.000   0.000   0.000   0.000   0.000   0.000   0.000   0.000   0.000


   Upper and lower wings at the   23 th omega   0.0000  21.5509 [eV]
       1       2       3       4       5       6       7       8       9
      0.000  -0.000   0.000   0.000   0.000  -0.000   0.000  -0.000   0.000
     -0.000  -0.000  -0.000   0.000  -0.000  -0.000  -0.000  -0.000  -0.000
       1       2       3       4       5       6       7       8       9
      0.000  -0.000   0.000   0.000   0.000  -0.000   0.000  -0.000   0.000
     -0.000   0.000   0.000  -0.000   0.000   0.000   0.000   0.000   0.000


   Upper and lower wings at the   24 th omega   0.0000  18.4186 [eV]
       1       2       3       4       5       6       7       8       9
      0.000  -0.000   0.000   0.000   0.000  -0.000   0.000  -0.000   0.000
      0.000  -0.000  -0.000   0.000  -0.000  -0.000  -0.000  -0.000  -0.000
       1       2       3       4       5       6       7       8       9
      0.000  -0.000   0.000   0.000   0.000  -0.000   0.000  -0.000   0.000
      0.000   0.000   0.000  -0.000   0.000   0.000   0.000   0.000   0.000


   Upper and lower wings at the   25 th omega   0.0000  15.7036 [eV]
       1       2       3       4       5       6       7       8       9
      0.000  -0.000   0.000   0.000   0.000  -0.000   0.000  -0.000   0.000
      0.000  -0.000  -0.000   0.000  -0.000  -0.000  -0.000  -0.000  -0.000
       1       2       3       4       5       6       7       8       9
      0.000  -0.000   0.000   0.000   0.000  -0.000   0.000  -0.000   0.000
      0.000   0.000   0.000  -0.000   0.000   0.000   0.000   0.000   0.000


   Upper and lower wings at the   26 th omega   0.0000  13.3423 [eV]
       1       2       3       4       5       6       7       8       9
      0.000  -0.000   0.000   0.000   0.000  -0.000   0.000  -0.000   0.000
     -0.000  -0.000  -0.000   0.000  -0.000  -0.000  -0.000  -0.000  -0.000
       1       2       3       4       5       6       7       8       9
      0.000  -0.000   0.000   0.000   0.000  -0.000   0.000  -0.000   0.000
     -0.000   0.000   0.000  -0.000   0.000   0.000   0.000   0.000   0.000


   Upper and lower wings at the   27 th omega   0.0000  11.2831 [eV]
       1       2       3       4       5       6       7       8       9
      0.000  -0.000   0.000   0.000   0.000  -0.000   0.000  -0.000   0.000
     -0.000  -0.000  -0.000   0.000  -0.000  -0.000  -0.000  -0.000  -0.000
       1       2       3       4       5       6       7       8       9
      0.000  -0.000   0.000   0.000   0.000  -0.000   0.000  -0.000   0.000
     -0.000   0.000   0.000  -0.000   0.000   0.000   0.000   0.000   0.000


   Upper and lower wings at the   28 th omega   0.0000   9.4845 [eV]
       1       2       3       4       5       6       7       8       9
      0.000  -0.000   0.000   0.000   0.000  -0.000   0.000  -0.000   0.000
      0.000  -0.000  -0.000   0.000  -0.000  -0.000  -0.000  -0.000  -0.000
       1       2       3       4       5       6       7       8       9
      0.000  -0.000   0.000   0.000   0.000  -0.000   0.000  -0.000   0.000
      0.000   0.000   0.000  -0.000   0.000   0.000   0.000   0.000   0.000


   Upper and lower wings at the   29 th omega   0.0000   7.9122 [eV]
       1       2       3       4       5       6       7       8       9
      0.000  -0.000   0.000   0.000   0.000  -0.000   0.000  -0.000   0.000
      0.000  -0.000  -0.000   0.000  -0.000  -0.000  -0.000  -0.000  -0.000
       1       2       3       4       5       6       7       8       9
      0.000  -0.000   0.000   0.000   0.000  -0.000   0.000  -0.000   0.000
      0.000   0.000   0.000  -0.000   0.000   0.000   0.000   0.000   0.000


   Upper and lower wings at the   30 th omega   0.0000   6.5380 [eV]
       1       2       3       4       5       6       7       8       9
      0.000  -0.000   0.000   0.000   0.000  -0.000   0.000  -0.000   0.000
     -0.000  -0.000  -0.000   0.000  -0.000  -0.000  -0.000  -0.000  -0.000
       1       2       3       4       5       6       7       8       9
      0.000  -0.000   0.000   0.000   0.000  -0.000   0.000  -0.000   0.000
     -0.000   0.000   0.000  -0.000   0.000   0.000   0.000   0.000   0.000


   Upper and lower wings at the   31 th omega   0.0000   5.3390 [eV]
       1       2       3       4       5       6       7       8       9
      0.000  -0.000   0.000   0.000   0.000  -0.000   0.000  -0.000   0.000
     -0.000  -0.000  -0.000   0.000  -0.000  -0.000  -0.000  -0.000  -0.000
       1       2       3       4       5       6       7       8       9
      0.000  -0.000   0.000   0.000   0.000  -0.000   0.000  -0.000   0.000
     -0.000   0.000   0.000  -0.000   0.000   0.000   0.000   0.000   0.000


   Upper and lower wings at the   32 th omega   0.0000   4.2957 [eV]
       1       2       3       4       5       6       7       8       9
      0.000  -0.000   0.000   0.000   0.000  -0.000   0.000  -0.000   0.000
     -0.000  -0.000  -0.000   0.000  -0.000  -0.000  -0.000  -0.000  -0.000
       1       2       3       4       5       6       7       8       9
      0.000  -0.000   0.000   0.000   0.000  -0.000   0.000  -0.000   0.000
     -0.000   0.000   0.000  -0.000   0.000   0.000   0.000   0.000   0.000


   Upper and lower wings at the   33 th omega   0.0000   3.3923 [eV]
       1       2       3       4       5       6       7       8       9
      0.000  -0.000   0.000   0.000   0.000  -0.000   0.000  -0.000   0.000
      0.000  -0.000  -0.000   0.000  -0.000  -0.000  -0.000  -0.000  -0.000
       1       2       3       4       5       6       7       8       9
      0.000  -0.000   0.000   0.000   0.000  -0.000   0.000  -0.000   0.000
      0.000   0.000   0.000  -0.000   0.000   0.000   0.000   0.000   0.000


   Upper and lower wings at the   34 th omega   0.0000   2.6156 [eV]
       1       2       3       4       5       6       7       8       9
      0.000  -0.000   0.000   0.000   0.000  -0.000   0.000  -0.000   0.000
      0.000  -0.000  -0.000   0.000  -0.000  -0.000  -0.000  -0.000  -0.000
       1       2       3       4       5       6       7       8       9
      0.000  -0.000   0.000   0.000   0.000  -0.000   0.000  -0.000   0.000
      0.000   0.000   0.000  -0.000   0.000   0.000   0.000   0.000   0.000


   Upper and lower wings at the   35 th omega   0.0000   1.9547 [eV]
       1       2       3       4       5       6       7       8       9
      0.000  -0.000   0.000   0.000   0.000  -0.000   0.000  -0.000   0.000
      0.000  -0.000  -0.000   0.000  -0.000  -0.000  -0.000  -0.000  -0.000
       1       2       3       4       5       6       7       8       9
      0.000  -0.000   0.000   0.000   0.000  -0.000   0.000  -0.000   0.000
      0.000   0.000   0.000  -0.000   0.000   0.000   0.000   0.000   0.000


   Upper and lower wings at the   36 th omega   0.0000   1.4006 [eV]
       1       2       3       4       5       6       7       8       9
      0.000  -0.000   0.000   0.000   0.000  -0.000   0.000  -0.000   0.000
      0.000  -0.000  -0.000   0.000  -0.000  -0.000  -0.000  -0.000  -0.000
       1       2       3       4       5       6       7       8       9
      0.000  -0.000   0.000   0.000   0.000  -0.000   0.000  -0.000   0.000
      0.000   0.000   0.000  -0.000   0.000   0.000   0.000   0.000   0.000


   Upper and lower wings at the   37 th omega   0.0000   0.9459 [eV]
       1       2       3       4       5       6       7       8       9
      0.000  -0.000   0.000   0.000   0.000  -0.000   0.000  -0.000   0.000
     -0.000  -0.000  -0.000   0.000  -0.000  -0.000  -0.000  -0.000  -0.000
       1       2       3       4       5       6       7       8       9
      0.000  -0.000   0.000   0.000   0.000  -0.000   0.000  -0.000   0.000
     -0.000   0.000   0.000  -0.000   0.000   0.000   0.000   0.000   0.000


   Upper and lower wings at the   38 th omega   0.0000   0.5849 [eV]
       1       2       3       4       5       6       7       8       9
      0.000  -0.000   0.000   0.000   0.000  -0.000   0.000  -0.000   0.000
     -0.000  -0.000  -0.000   0.000  -0.000  -0.000  -0.000  -0.000  -0.000
       1       2       3       4       5       6       7       8       9
      0.000  -0.000   0.000   0.000   0.000  -0.000   0.000  -0.000   0.000
     -0.000   0.000   0.000  -0.000   0.000   0.000   0.000   0.000   0.000


   Upper and lower wings at the   39 th omega   0.0000   0.3130 [eV]
       1       2       3       4       5       6       7       8       9
      0.000  -0.000   0.000   0.000   0.000  -0.000   0.000  -0.000   0.000
      0.000  -0.000  -0.000   0.000  -0.000  -0.000  -0.000  -0.000  -0.000
       1       2       3       4       5       6       7       8       9
      0.000  -0.000   0.000   0.000   0.000  -0.000   0.000  -0.000   0.000
      0.000   0.000   0.000  -0.000   0.000   0.000   0.000   0.000   0.000


   Upper and lower wings at the   40 th omega   0.0000   0.1268 [eV]
       1       2       3       4       5       6       7       8       9
      0.000  -0.000   0.000   0.000   0.000  -0.000   0.000  -0.000   0.000
      0.000  -0.000  -0.000   0.000  -0.000  -0.000  -0.000  -0.000  -0.000
       1       2       3       4       5       6       7       8       9
      0.000  -0.000   0.000   0.000   0.000  -0.000   0.000  -0.000   0.000
      0.000   0.000   0.000  -0.000   0.000   0.000   0.000   0.000   0.000


   Upper and lower wings at the   41 th omega   0.0000   0.0240 [eV]
       1       2       3       4       5       6       7       8       9
      0.000  -0.000   0.000   0.000   0.000  -0.000   0.000  -0.000   0.000
     -0.000  -0.000  -0.000   0.000  -0.000  -0.000  -0.000  -0.000  -0.000
       1       2       3       4       5       6       7       8       9
      0.000  -0.000   0.000   0.000   0.000  -0.000   0.000  -0.000   0.000
     -0.000   0.000   0.000  -0.000   0.000   0.000   0.000   0.000   0.000




--------------------------------------------------------------------------------
  q-point number  2        q = ( 0.500000, 0.500000, 0.000000) [r.l.u.]
--------------------------------------------------------------------------------
  chi0(G,G') at the    1 th omega   0.0000   0.0000 [eV]
       1       2       3       4       5       6       7       8       9
    1 -12.988  -1.898  -0.832  -0.831  -1.898  -0.831  -1.898  -1.898  -0.832
        0.000  -1.898   0.831  -0.832   1.898  -0.832   1.898  -1.898   0.831

    2  -1.898  -6.642   0.000   0.182   0.000   0.189   0.000  -0.027  -0.000
        1.898   0.000  -2.298  -0.001   0.556   0.000   0.556  -0.000  -0.181

  chi0(G,G') at the    2 th omega   0.0000********* [eV]
       1       2       3       4       5       6       7       8       9
    1  -0.000  -0.000  -0.000  -0.000  -0.000  -0.000  -0.000  -0.000  -0.000
        0.000  -0.000   0.000  -0.000   0.000  -0.000   0.000  -0.000   0.000

    2  -0.000  -0.000   0.000   0.000   0.000   0.000  -0.000   0.000   0.000
        0.000   0.000  -0.000  -0.000   0.000  -0.000   0.000  -0.000   0.000

  chi0(G,G') at the    3 th omega   0.00005841.2562 [eV]
       1       2       3       4       5       6       7       8       9
    1  -0.000  -0.000  -0.000  -0.000  -0.000  -0.000  -0.000  -0.000  -0.000
        0.000  -0.000   0.000  -0.000   0.000  -0.000   0.000  -0.000   0.000

    2  -0.000  -0.000   0.000   0.000   0.000   0.000  -0.000   0.000   0.000
        0.000   0.000  -0.000  -0.000   0.000  -0.000   0.000  -0.000   0.000

  chi0(G,G') at the    4 th omega   0.00002366.0449 [eV]
       1       2       3       4       5       6       7       8       9
    1  -0.000  -0.000  -0.000  -0.000  -0.000  -0.000  -0.000  -0.000  -0.000
        0.000  -0.000   0.000  -0.000   0.000  -0.000   0.000  -0.000   0.000

    2  -0.000  -0.000   0.000   0.000   0.000   0.000  -0.000   0.000   0.000
        0.000   0.000  -0.000  -0.000   0.000  -0.000   0.000  -0.000   0.000

  chi0(G,G') at the    5 th omega   0.00001266.0076 [eV]
       1       2       3       4       5       6       7       8       9
    1  -0.001  -0.000  -0.000  -0.000  -0.000  -0.000  -0.000  -0.000  -0.000
        0.000  -0.000   0.000  -0.000   0.000  -0.000   0.000  -0.000   0.000

    2  -0.000  -0.000   0.000   0.000   0.000   0.000  -0.000   0.000   0.000
        0.000   0.000  -0.000  -0.000   0.000  -0.000   0.000  -0.000   0.000

  chi0(G,G') at the    6 th omega   0.0000 782.8056 [eV]
       1       2       3       4       5       6       7       8       9
    1  -0.001  -0.000  -0.000  -0.000  -0.000  -0.000  -0.000  -0.000  -0.000
        0.000  -0.000   0.000  -0.000   0.000  -0.000   0.000  -0.000   0.000

    2  -0.000  -0.001   0.000   0.000   0.000   0.000  -0.000   0.000   0.000
        0.000   0.000  -0.000  -0.000   0.000  -0.000   0.000  -0.000   0.000

  chi0(G,G') at the    7 th omega   0.0000 528.6835 [eV]
       1       2       3       4       5       6       7       8       9
    1  -0.003  -0.000  -0.000  -0.000  -0.000  -0.000  -0.000  -0.000  -0.000
        0.000  -0.000   0.000  -0.000   0.000  -0.000   0.000  -0.000   0.000

    2  -0.000  -0.002   0.000   0.000   0.000   0.000  -0.000   0.000   0.000
        0.000   0.000  -0.001  -0.000   0.000  -0.000   0.000  -0.000   0.000

  chi0(G,G') at the    8 th omega   0.0000 378.8060 [eV]
       1       2       3       4       5       6       7       8       9
    1  -0.006  -0.001  -0.000  -0.000  -0.001  -0.000  -0.001  -0.001  -0.000
        0.000  -0.001   0.000  -0.000   0.001  -0.000   0.001  -0.001   0.000

    2  -0.001  -0.004   0.000   0.000   0.000   0.000  -0.000   0.000   0.000
        0.001   0.000  -0.002  -0.000   0.000  -0.000   0.000  -0.000   0.000

  chi0(G,G') at the    9 th omega   0.0000 283.0883 [eV]
       1       2       3       4       5       6       7       8       9
    1  -0.011  -0.002  -0.001  -0.001  -0.002  -0.001  -0.002  -0.002  -0.001
        0.000  -0.002   0.001  -0.001   0.002  -0.001   0.002  -0.002   0.001

    2  -0.002  -0.007   0.000   0.000   0.000   0.000  -0.000   0.000   0.000
        0.002   0.000  -0.003  -0.000   0.000  -0.000   0.000  -0.000   0.000

  chi0(G,G') at the   10 th omega   0.0000 218.2742 [eV]
       1       2       3       4       5       6       7       8       9
    1  -0.018  -0.003  -0.001  -0.001  -0.003  -0.001  -0.003  -0.003  -0.001
        0.000  -0.003   0.001  -0.001   0.003  -0.001   0.003  -0.003   0.001

    2  -0.003  -0.011   0.000   0.000   0.000   0.000  -0.000   0.001   0.000
        0.003   0.000  -0.005  -0.000   0.000  -0.000   0.000  -0.000   0.000

  chi0(G,G') at the   11 th omega   0.0000 172.3721 [eV]
       1       2       3       4       5       6       7       8       9
    1  -0.029  -0.004  -0.002  -0.002  -0.004  -0.002  -0.004  -0.004  -0.002
        0.000  -0.004   0.002  -0.002   0.004  -0.002   0.004  -0.004   0.002

    2  -0.004  -0.018   0.000   0.000   0.000   0.000  -0.000   0.001   0.000
        0.004   0.000  -0.007  -0.000   0.000  -0.000   0.000  -0.000   0.000

  chi0(G,G') at the   12 th omega   0.0000 138.6898 [eV]
       1       2       3       4       5       6       7       8       9
    1  -0.044  -0.007  -0.003  -0.003  -0.007  -0.003  -0.007  -0.007  -0.003
        0.000  -0.007   0.003  -0.003   0.007  -0.003   0.007  -0.007   0.003

    2  -0.007  -0.028   0.000   0.001   0.000   0.001  -0.000   0.002   0.000
        0.007   0.000  -0.011  -0.000   0.001  -0.000   0.001  -0.000   0.000

  chi0(G,G') at the   13 th omega   0.0000 113.2540 [eV]
       1       2       3       4       5       6       7       8       9
    1  -0.066  -0.010  -0.005  -0.005  -0.010  -0.005  -0.010  -0.010  -0.005
        0.000  -0.010   0.005  -0.005   0.010  -0.005   0.010  -0.010   0.005

    2  -0.010  -0.041   0.000   0.001   0.000   0.001  -0.000   0.003   0.000
        0.010   0.000  -0.017  -0.000   0.001  -0.000   0.001  -0.000   0.000

  chi0(G,G') at the   14 th omega   0.0000  93.5851 [eV]
       1       2       3       4       5       6       7       8       9
    1  -0.096  -0.015  -0.007  -0.007  -0.015  -0.007  -0.015  -0.015  -0.007
        0.000  -0.015   0.007  -0.007   0.015  -0.007   0.015  -0.015   0.007

    2  -0.015  -0.060   0.000   0.001   0.000   0.001  -0.000   0.004   0.000
        0.015   0.000  -0.025  -0.000   0.001  -0.000   0.001  -0.000   0.000

  chi0(G,G') at the   15 th omega   0.0000  78.0705 [eV]
       1       2       3       4       5       6       7       8       9
    1  -0.138  -0.021  -0.011  -0.011  -0.021  -0.011  -0.021  -0.021  -0.011
        0.000  -0.021   0.011  -0.011   0.021  -0.011   0.021  -0.021   0.011

    2  -0.021  -0.086   0.000   0.002   0.000   0.002  -0.000   0.005   0.000
        0.021   0.000  -0.035  -0.000   0.002  -0.000   0.002  -0.000   0.000

 No. of calculated frequencies >  15, stop printing
  Average fulfillment of the sum rule on Im[epsilon] for q-point    2 :     26.01  [%]


--------------------------------------------------------------------------------
  q-point number  3        q = ( 0.500000, 0.250000, 0.250000) [r.l.u.]
--------------------------------------------------------------------------------
  chi0(G,G') at the    1 th omega   0.0000   0.0000 [eV]
       1       2       3       4       5       6       7       8       9
    1 -11.893  -1.505   0.112  -1.829  -1.831   0.112  -1.505  -1.831  -1.829
        0.000  -1.505  -0.112  -1.829   1.831   0.112   1.505  -1.831   1.829

    2  -1.505  -6.813  -0.000  -0.340  -0.000  -0.072   0.000  -0.344  -0.000
        1.505   0.000  -2.998  -0.000   0.190   0.001   0.321   0.000   0.186

  chi0(G,G') at the    2 th omega   0.0000********* [eV]
       1       2       3       4       5       6       7       8       9
    1  -0.000  -0.000   0.000  -0.000  -0.000   0.000  -0.000  -0.000  -0.000
        0.000  -0.000  -0.000  -0.000   0.000   0.000   0.000  -0.000   0.000

    2  -0.000  -0.000   0.000   0.000   0.000   0.000   0.000   0.000  -0.000
        0.000   0.000  -0.000  -0.000   0.000   0.000   0.000  -0.000   0.000

  chi0(G,G') at the    3 th omega   0.00005841.2562 [eV]
       1       2       3       4       5       6       7       8       9
    1  -0.000  -0.000   0.000  -0.000  -0.000   0.000  -0.000  -0.000  -0.000
        0.000  -0.000  -0.000  -0.000   0.000   0.000   0.000  -0.000   0.000

    2  -0.000  -0.000   0.000   0.000   0.000   0.000   0.000   0.000  -0.000
        0.000   0.000  -0.000  -0.000   0.000   0.000   0.000  -0.000   0.000

  chi0(G,G') at the    4 th omega   0.00002366.0449 [eV]
       1       2       3       4       5       6       7       8       9
    1  -0.000  -0.000   0.000  -0.000  -0.000   0.000  -0.000  -0.000  -0.000
        0.000  -0.000  -0.000  -0.000   0.000   0.000   0.000  -0.000   0.000

    2  -0.000  -0.000   0.000   0.000   0.000   0.000   0.000   0.000  -0.000
        0.000   0.000  -0.000  -0.000   0.000   0.000   0.000  -0.000   0.000

  chi0(G,G') at the    5 th omega   0.00001266.0076 [eV]
       1       2       3       4       5       6       7       8       9
    1  -0.000  -0.000   0.000  -0.000  -0.000   0.000  -0.000  -0.000  -0.000
        0.000  -0.000  -0.000  -0.000   0.000   0.000   0.000  -0.000   0.000

    2  -0.000  -0.000   0.000   0.000   0.000   0.000   0.000   0.000  -0.000
        0.000   0.000  -0.000  -0.000   0.000   0.000   0.000  -0.000   0.000

  chi0(G,G') at the    6 th omega   0.0000 782.8056 [eV]
       1       2       3       4       5       6       7       8       9
    1  -0.001  -0.000   0.000  -0.000  -0.000   0.000  -0.000  -0.000  -0.000
        0.000  -0.000  -0.000  -0.000   0.000   0.000   0.000  -0.000   0.000

    2  -0.000  -0.001   0.000   0.000   0.000   0.000   0.000   0.000  -0.000
        0.000   0.000  -0.001  -0.000   0.000   0.000   0.000  -0.000   0.000

  chi0(G,G') at the    7 th omega   0.0000 528.6835 [eV]
       1       2       3       4       5       6       7       8       9
    1  -0.002  -0.000   0.000  -0.000  -0.000   0.000  -0.000  -0.000  -0.000
        0.000  -0.000  -0.000  -0.000   0.000   0.000   0.000  -0.000   0.000

    2  -0.000  -0.002   0.000   0.000   0.000   0.000   0.000   0.000  -0.000
        0.000   0.000  -0.001  -0.000   0.000   0.000   0.000  -0.000   0.000

  chi0(G,G') at the    8 th omega   0.0000 378.8060 [eV]
       1       2       3       4       5       6       7       8       9
    1  -0.004  -0.001   0.000  -0.001  -0.001   0.000  -0.001  -0.001  -0.001
        0.000  -0.001  -0.000  -0.001   0.001   0.000   0.001  -0.001   0.001

    2  -0.001  -0.004   0.000   0.000   0.000   0.000   0.000   0.000  -0.000
        0.001   0.000  -0.002  -0.000   0.000   0.000   0.000  -0.000   0.000

  chi0(G,G') at the    9 th omega   0.0000 283.0883 [eV]
       1       2       3       4       5       6       7       8       9
    1  -0.007  -0.001   0.001  -0.001  -0.001   0.001  -0.001  -0.001  -0.001
        0.000  -0.001  -0.001  -0.001   0.001   0.001   0.001  -0.001   0.001

    2  -0.001  -0.008   0.000   0.000   0.000   0.000   0.000   0.000  -0.000
        0.001   0.000  -0.004  -0.000   0.000   0.000   0.000  -0.000   0.000

  chi0(G,G') at the   10 th omega   0.0000 218.2742 [eV]
       1       2       3       4       5       6       7       8       9
    1  -0.012  -0.002   0.001  -0.002  -0.002   0.001  -0.002  -0.002  -0.002
        0.000  -0.002  -0.001  -0.002   0.002   0.001   0.002  -0.002   0.002

    2  -0.002  -0.013   0.000   0.001   0.000   0.000   0.000   0.001  -0.000
        0.002   0.000  -0.007  -0.000   0.000   0.000   0.000  -0.000   0.000

  chi0(G,G') at the   11 th omega   0.0000 172.3721 [eV]
       1       2       3       4       5       6       7       8       9
    1  -0.020  -0.004   0.001  -0.003  -0.003   0.001  -0.004  -0.003  -0.003
        0.000  -0.004  -0.001  -0.003   0.003   0.001   0.004  -0.003   0.003

    2  -0.004  -0.020   0.000   0.001   0.000   0.000   0.000   0.001  -0.000
        0.004   0.000  -0.011  -0.000   0.000   0.000   0.000  -0.000   0.000

  chi0(G,G') at the   12 th omega   0.0000 138.6898 [eV]
       1       2       3       4       5       6       7       8       9
    1  -0.031  -0.006   0.002  -0.005  -0.005   0.002  -0.006  -0.005  -0.005
        0.000  -0.006  -0.002  -0.005   0.005   0.002   0.006  -0.005   0.005

    2  -0.006  -0.031   0.000   0.001   0.000   0.000   0.000   0.001  -0.000
        0.006   0.000  -0.016  -0.000   0.001   0.000   0.001  -0.000   0.001

  chi0(G,G') at the   13 th omega   0.0000 113.2540 [eV]
       1       2       3       4       5       6       7       8       9
    1  -0.046  -0.009   0.003  -0.007  -0.007   0.003  -0.009  -0.007  -0.007
        0.000  -0.009  -0.003  -0.007   0.007   0.003   0.009  -0.007   0.007

    2  -0.009  -0.047   0.000   0.002   0.000   0.000   0.000   0.002  -0.000
        0.009   0.000  -0.024  -0.000   0.001   0.000   0.001  -0.000   0.001

  chi0(G,G') at the   14 th omega   0.0000  93.5851 [eV]
       1       2       3       4       5       6       7       8       9
    1  -0.068  -0.013   0.005  -0.011  -0.011   0.005  -0.013  -0.011  -0.011
        0.000  -0.013  -0.005  -0.011   0.011   0.005   0.013  -0.011   0.011

    2  -0.013  -0.068   0.000   0.003  -0.000   0.001   0.000   0.003  -0.000
        0.013   0.000  -0.036  -0.000   0.001   0.000   0.001  -0.000   0.001

  chi0(G,G') at the   15 th omega   0.0000  78.0705 [eV]
       1       2       3       4       5       6       7       8       9
    1  -0.097  -0.019   0.007  -0.015  -0.015   0.007  -0.019  -0.015  -0.015
        0.000  -0.019  -0.007  -0.015   0.015   0.007   0.019  -0.015   0.015

    2  -0.019  -0.097   0.000   0.004  -0.000   0.001   0.000   0.004  -0.000
        0.019   0.000  -0.051  -0.000   0.002   0.000   0.002  -0.000   0.002

 No. of calculated frequencies >  15, stop printing
  Average fulfillment of the sum rule on Im[epsilon] for q-point    3 :     34.83  [%]


--------------------------------------------------------------------------------
  q-point number  4        q = ( 0.000000, 0.500000, 0.000000) [r.l.u.]
--------------------------------------------------------------------------------
  chi0(G,G') at the    1 th omega   0.0000   0.0000 [eV]
       1       2       3       4       5       6       7       8       9
    1 -10.159  -1.641  -1.597  -1.642  -1.602  -1.642  -1.600  -0.960   2.505
        0.000  -1.641   1.597  -1.643   1.603  -1.642   1.600  -0.960  -2.506

    2  -1.641 -10.615  -0.001   0.305  -0.000   0.311  -0.000   0.383  -0.000
        1.641   0.000  -2.531  -0.001   0.285  -0.000   0.286   0.001  -0.847

  chi0(G,G') at the    2 th omega   0.0000********* [eV]
       1       2       3       4       5       6       7       8       9
    1  -0.000  -0.000  -0.000  -0.000  -0.000  -0.000  -0.000  -0.000   0.000
        0.000  -0.000   0.000  -0.000   0.000  -0.000   0.000  -0.000  -0.000

    2  -0.000  -0.000   0.000  -0.000   0.000  -0.000  -0.000   0.000   0.000
        0.000   0.000  -0.000  -0.000   0.000  -0.000   0.000   0.000  -0.000

  chi0(G,G') at the    3 th omega   0.00005841.2562 [eV]
       1       2       3       4       5       6       7       8       9
    1  -0.000  -0.000  -0.000  -0.000  -0.000  -0.000  -0.000  -0.000   0.000
        0.000  -0.000   0.000  -0.000   0.000  -0.000   0.000  -0.000  -0.000

    2  -0.000  -0.000   0.000  -0.000   0.000  -0.000  -0.000   0.000   0.000
        0.000   0.000  -0.000  -0.000   0.000  -0.000   0.000   0.000  -0.000

  chi0(G,G') at the    4 th omega   0.00002366.0449 [eV]
       1       2       3       4       5       6       7       8       9
    1  -0.000  -0.000  -0.000  -0.000  -0.000  -0.000  -0.000  -0.000   0.000
        0.000  -0.000   0.000  -0.000   0.000  -0.000   0.000  -0.000  -0.000

    2  -0.000  -0.000   0.000  -0.000   0.000  -0.000  -0.000   0.000   0.000
        0.000   0.000  -0.000  -0.000   0.000  -0.000   0.000   0.000  -0.000

  chi0(G,G') at the    5 th omega   0.00001266.0076 [eV]
       1       2       3       4       5       6       7       8       9
    1  -0.000  -0.000  -0.000  -0.000  -0.000  -0.000  -0.000  -0.000   0.000
        0.000  -0.000   0.000  -0.000   0.000  -0.000   0.000  -0.000  -0.000

    2  -0.000  -0.001   0.000  -0.000   0.000  -0.000  -0.000   0.000   0.000
        0.000   0.000  -0.000  -0.000   0.000  -0.000   0.000   0.000  -0.000

  chi0(G,G') at the    6 th omega   0.0000 782.8056 [eV]
       1       2       3       4       5       6       7       8       9
    1  -0.001  -0.000  -0.000  -0.000  -0.000  -0.000  -0.000  -0.000   0.000
        0.000  -0.000   0.000  -0.000   0.000  -0.000   0.000  -0.000  -0.000

    2  -0.000  -0.001   0.000  -0.000   0.000  -0.000  -0.000   0.000   0.000
        0.000   0.000  -0.000  -0.000   0.000  -0.000   0.000   0.000  -0.000

  chi0(G,G') at the    7 th omega   0.0000 528.6835 [eV]
       1       2       3       4       5       6       7       8       9
    1  -0.003  -0.000  -0.000  -0.000  -0.000  -0.000  -0.000  -0.000   0.000
        0.000  -0.000   0.000  -0.000   0.000  -0.000   0.000  -0.000  -0.000

    2  -0.000  -0.003   0.000  -0.000   0.000  -0.000  -0.000   0.000   0.000
        0.000   0.000  -0.001  -0.000   0.000  -0.000   0.000   0.000  -0.000

  chi0(G,G') at the    8 th omega   0.0000 378.8060 [eV]
       1       2       3       4       5       6       7       8       9
    1  -0.005  -0.001  -0.001  -0.001  -0.001  -0.001  -0.001  -0.001   0.001
        0.000  -0.001   0.001  -0.001   0.001  -0.001   0.001  -0.001  -0.001

    2  -0.001  -0.006   0.000  -0.000   0.000  -0.000  -0.000   0.000   0.000
        0.001   0.000  -0.002  -0.000   0.000  -0.000   0.000   0.000  -0.000

  chi0(G,G') at the    9 th omega   0.0000 283.0883 [eV]
       1       2       3       4       5       6       7       8       9
    1  -0.009  -0.001  -0.001  -0.001  -0.001  -0.001  -0.001  -0.002   0.002
        0.000  -0.001   0.001  -0.001   0.001  -0.001   0.001  -0.002  -0.002

    2  -0.001  -0.011   0.000  -0.000   0.000  -0.000  -0.000   0.000   0.000
        0.001   0.000  -0.003  -0.000   0.000  -0.000   0.000   0.000  -0.000

  chi0(G,G') at the   10 th omega   0.0000 218.2742 [eV]
       1       2       3       4       5       6       7       8       9
    1  -0.015  -0.002  -0.002  -0.002  -0.002  -0.002  -0.002  -0.003   0.003
        0.000  -0.002   0.002  -0.002   0.002  -0.002   0.002  -0.003  -0.003

    2  -0.002  -0.019   0.000  -0.000   0.000  -0.000  -0.000   0.001   0.000
        0.002   0.000  -0.005  -0.000   0.000  -0.000   0.000   0.000  -0.001

  chi0(G,G') at the   11 th omega   0.0000 172.3721 [eV]
       1       2       3       4       5       6       7       8       9
    1  -0.024  -0.003  -0.004  -0.003  -0.004  -0.003  -0.004  -0.004   0.004
        0.000  -0.003   0.004  -0.003   0.004  -0.003   0.004  -0.004  -0.004

    2  -0.003  -0.030   0.000  -0.001   0.000  -0.001  -0.000   0.001   0.000
        0.003   0.000  -0.009  -0.000   0.000  -0.000   0.000   0.000  -0.001

  chi0(G,G') at the   12 th omega   0.0000 138.6898 [eV]
       1       2       3       4       5       6       7       8       9
    1  -0.037  -0.005  -0.006  -0.005  -0.006  -0.005  -0.006  -0.006   0.007
        0.000  -0.005   0.006  -0.005   0.006  -0.005   0.006  -0.006  -0.007

    2  -0.005  -0.046   0.000  -0.001   0.000  -0.001  -0.000   0.002   0.000
        0.005   0.000  -0.013  -0.000   0.000  -0.000   0.000   0.000  -0.002

  chi0(G,G') at the   13 th omega   0.0000 113.2540 [eV]
       1       2       3       4       5       6       7       8       9
    1  -0.056  -0.007  -0.009  -0.007  -0.009  -0.007  -0.009  -0.010   0.010
        0.000  -0.007   0.009  -0.007   0.009  -0.007   0.009  -0.010  -0.010

    2  -0.007  -0.068   0.000  -0.002   0.000  -0.002  -0.000   0.003   0.000
        0.007   0.000  -0.020  -0.000   0.000  -0.000   0.000   0.000  -0.002

  chi0(G,G') at the   14 th omega   0.0000  93.5851 [eV]
       1       2       3       4       5       6       7       8       9
    1  -0.081  -0.011  -0.013  -0.011  -0.013  -0.011  -0.013  -0.014   0.015
        0.000  -0.011   0.013  -0.011   0.013  -0.011   0.013  -0.014  -0.015

    2  -0.011  -0.100   0.000  -0.002   0.000  -0.002  -0.000   0.004   0.000
        0.011   0.000  -0.029  -0.000   0.001  -0.000   0.001   0.000  -0.004

  chi0(G,G') at the   15 th omega   0.0000  78.0705 [eV]
       1       2       3       4       5       6       7       8       9
    1  -0.116  -0.015  -0.019  -0.015  -0.019  -0.015  -0.019  -0.020   0.022
        0.000  -0.015   0.019  -0.015   0.019  -0.015   0.019  -0.020  -0.022

    2  -0.015  -0.142   0.000  -0.003   0.000  -0.003  -0.000   0.005   0.000
        0.015   0.000  -0.041  -0.000   0.001  -0.000   0.001   0.000  -0.005

 No. of calculated frequencies >  15, stop printing
  Average fulfillment of the sum rule on Im[epsilon] for q-point    4 :     30.05  [%]


--------------------------------------------------------------------------------
  q-point number  5        q = ( 0.500000,-0.250000, 0.250000) [r.l.u.]
--------------------------------------------------------------------------------
  chi0(G,G') at the    1 th omega   0.0000   0.0000 [eV]
       1       2       3       4       5       6       7       8       9
    1 -13.226  -1.599  -1.343  -1.831  -1.515  -1.514  -1.831  -1.343  -1.599
        0.000  -1.599   1.344  -1.831   1.514  -1.515   1.831  -1.343   1.599

    2  -1.599  -5.428  -0.000   0.204  -0.000   0.629  -0.000  -0.109  -0.000
        1.599   0.000  -2.399   0.000   0.334   0.000   0.401  -0.000   0.167

  chi0(G,G') at the    2 th omega   0.0000********* [eV]
       1       2       3       4       5       6       7       8       9
    1  -0.000  -0.000  -0.000  -0.000  -0.000  -0.000  -0.000  -0.000  -0.000
        0.000  -0.000   0.000  -0.000   0.000  -0.000   0.000  -0.000   0.000

    2  -0.000  -0.000  -0.000   0.000   0.000   0.000   0.000   0.000  -0.000
        0.000   0.000  -0.000   0.000   0.000   0.000   0.000  -0.000   0.000

  chi0(G,G') at the    3 th omega   0.00005841.2562 [eV]
       1       2       3       4       5       6       7       8       9
    1  -0.000  -0.000  -0.000  -0.000  -0.000  -0.000  -0.000  -0.000  -0.000
        0.000  -0.000   0.000  -0.000   0.000  -0.000   0.000  -0.000   0.000

    2  -0.000  -0.000  -0.000   0.000   0.000   0.000   0.000   0.000  -0.000
        0.000   0.000  -0.000   0.000   0.000   0.000   0.000  -0.000   0.000

  chi0(G,G') at the    4 th omega   0.00002366.0449 [eV]
       1       2       3       4       5       6       7       8       9
    1  -0.000  -0.000  -0.000  -0.000  -0.000  -0.000  -0.000  -0.000  -0.000
        0.000  -0.000   0.000  -0.000   0.000  -0.000   0.000  -0.000   0.000

    2  -0.000  -0.000  -0.000   0.000   0.000   0.000   0.000   0.000  -0.000
        0.000   0.000  -0.000   0.000   0.000   0.000   0.000  -0.000   0.000

  chi0(G,G') at the    5 th omega   0.00001266.0076 [eV]
       1       2       3       4       5       6       7       8       9
    1  -0.001  -0.000  -0.000  -0.000  -0.000  -0.000  -0.000  -0.000  -0.000
        0.000  -0.000   0.000  -0.000   0.000  -0.000   0.000  -0.000   0.000

    2  -0.000  -0.000  -0.000   0.000   0.000   0.000   0.000   0.000  -0.000
        0.000   0.000  -0.000   0.000   0.000   0.000   0.000  -0.000   0.000

  chi0(G,G') at the    6 th omega   0.0000 782.8056 [eV]
       1       2       3       4       5       6       7       8       9
    1  -0.001  -0.000  -0.000  -0.000  -0.000  -0.000  -0.000  -0.000  -0.000
        0.000  -0.000   0.000  -0.000   0.000  -0.000   0.000  -0.000   0.000

    2  -0.000  -0.001  -0.000   0.000   0.000   0.000   0.000   0.000  -0.000
        0.000   0.000  -0.000   0.000   0.000   0.000   0.000  -0.000   0.000

  chi0(G,G') at the    7 th omega   0.0000 528.6835 [eV]
       1       2       3       4       5       6       7       8       9
    1  -0.003  -0.000  -0.000  -0.000  -0.000  -0.000  -0.000  -0.000  -0.000
        0.000  -0.000   0.000  -0.000   0.000  -0.000   0.000  -0.000   0.000

    2  -0.000  -0.001  -0.000   0.000   0.000   0.000   0.000   0.000  -0.000
        0.000   0.000  -0.001   0.000   0.000   0.000   0.000  -0.000   0.000

[...]
  -----------------------------------------------------------------------------------------------------------------------------
  k-point  band      eik^GS        eik^new     Delta eik        K[NO]       a*K[KS]         Vxc[KS]       vH[NO]        vH[KS]
    4        1      -3.16882      -8.13840      -4.96958     -15.98413       0.00000     -11.00865       4.51337       4.50747
    4        2      -3.16882      -8.13839      -4.96957     -15.98413       0.00000     -11.00865       4.51337       4.50747
    4        3       0.58450      -2.28552      -2.87002     -12.87072       0.00000      -9.99807       2.05686       2.05423
    4        4       0.58450      -2.28553      -2.87003     -12.87073       0.00000      -9.99807       2.05687       2.05423
    4        5       8.81199      13.39267       4.58068      -5.01340       0.00000      -9.59229       1.19680       1.19501
    4        6       8.81199      13.39265       4.58066      -5.01341       0.00000      -9.59229       1.19680       1.19501
    4        7       9.57913      14.90379       5.32465      -4.73739       0.00000     -10.05968       2.32882       2.32645
    4        8       9.57914      14.90381       5.32467      -4.73738       0.00000     -10.05968       2.32882       2.32645
  -----------------------------------------------------------------------------------------------------------------------------
  k-point  band      eik^GS        eik^new     Delta eik        K[NO]       a*K[KS]         Vxc[KS]       vH[NO]        vH[KS]
    5        1      -5.16728     -11.06425      -5.89697     -16.78719       0.00000     -10.88475       4.20882       4.20335
    5        2      -2.52466      -7.05868      -4.53403     -14.75141       0.00000     -10.21402       2.61669       2.61332
    5        3       3.29589       1.04692      -2.24898     -13.35601       0.00000     -11.10069       4.64015       4.63380
    5        4       3.29590       1.04636      -2.24953     -13.35657       0.00000     -11.10069       4.64015       4.63380
    5        5       6.15259      10.49556       4.34297      -5.77217       0.00000     -10.11199       2.63661       2.63346
    5        6       7.85472      12.49633       4.64161      -5.03960       0.00000      -9.68020       1.27215       1.27114
    5        7       7.85472      12.49663       4.64191      -5.03930       0.00000      -9.68021       1.27215       1.27114
    5        8      12.26174      17.60852       5.34678      -2.37334       0.00000      -7.72363      -2.93825      -2.93475
  -----------------------------------------------------------------------------------------------------------------------------
  k-point  band      eik^GS        eik^new     Delta eik        K[NO]       a*K[KS]         Vxc[KS]       vH[NO]        vH[KS]
    6        1      -7.54501     -14.45458      -6.90957     -17.40671       0.00000     -10.49292       3.27195       3.26774
    6        2       4.52134       2.21983      -2.30151     -13.67777       0.00000     -11.36875       5.29300       5.28549
    6        3       4.52134       2.22003      -2.30131     -13.67757       0.00000     -11.36875       5.29300       5.28549
    6        4       4.52134       2.21963      -2.30171     -13.67797       0.00000     -11.36875       5.29300       5.28549
    6        5       7.06809      11.48496       4.41687      -5.64576       0.00000     -10.06046       2.17669       2.17453
    6        6       7.06809      11.48499       4.41690      -5.64573       0.00000     -10.06046       2.17669       2.17453
    6        7       7.06809      11.48496       4.41687      -5.64576       0.00000     -10.06046       2.17669       2.17453
    6        8       8.08993      13.29474       5.20481      -5.70056       0.00000     -10.89975       4.81543       4.80980
  -----------------------------------------------------------------------------------------------------------------------------

 -------------------------------------------------------------------------------------------------
 Ekinetic   = :     3.155821E+00 Ha ,    8.587426E+01 eV
 Evext_l    = :    -2.286036E+00 Ha ,   -6.220619E+01 eV
 Evext_nl   = :     1.139732E+00 Ha ,    3.101367E+01 eV
 Epsp_core  = :     5.612462E-01 Ha ,    1.527229E+01 eV
 Ehartree   = :     5.559652E-01 Ha ,    1.512858E+01 eV
 Ex         = :    -2.100173E+00 Ha ,   -5.714862E+01 eV
 Exc[MBB]   = :    -2.365523E+00 Ha ,   -6.436915E+01 eV
 Enn        = :    -8.435820E+00 Ha ,   -2.295503E+02 eV
 -------------------------------------------------------------------------------------------------
 Etot[SD]   = :    -7.409264E+00 Ha ,   -2.016163E+02 eV
 Etot[MBB]  = :    -7.674614E+00 Ha ,   -2.088369E+02 eV
 Vee[SD]    = :    -1.544208E+00 Ha ,   -4.202003E+01 eV
 Vee[MBB]   = :    -1.809558E+00 Ha ,   -4.924057E+01 eV
 Density    = :     7.963172E+00
 Vee[SD] (= Ehartree + Efock) energy obtained using GW 1-RDM:
 -------------------------------------------------------------------------------------------------

== END DATASET(S) ==============================================================
================================================================================
  
 -outvars: echo values of variables after computation  --------
            acell      1.0217000000E+01  1.0217000000E+01  1.0217000000E+01 Bohr
              amu      2.80855000E+01
             bdgw3          1       8       1       8       1       8       1       8
                            1       8       1       8
           diemac      1.20000000E+01
             ecut      8.00000000E+00 Hartree
          ecuteps1     0.00000000E+00 Hartree
          ecuteps2     5.00000000E+00 Hartree
          ecuteps3     0.00000000E+00 Hartree
         ecutsigx1     0.00000000E+00 Hartree
         ecutsigx2     0.00000000E+00 Hartree
         ecutsigx3     8.00000000E+00 Hartree
          ecutwfn1     0.00000000E+00 Hartree
          ecutwfn2     8.00000000E+00 Hartree
          ecutwfn3     8.00000000E+00 Hartree
           etotal1    -8.4510718475E+00
           etotal2     0.0000000000E+00
           etotal3     0.0000000000E+00
            fcart1    -2.1589654173E-25  2.1589654173E-25 -2.1589654173E-25
                       2.1589654173E-25 -2.1589654173E-25  2.1589654173E-25
            fcart2     0.0000000000E+00  0.0000000000E+00  0.0000000000E+00
                       0.0000000000E+00  0.0000000000E+00  0.0000000000E+00
            fcart3     0.0000000000E+00  0.0000000000E+00  0.0000000000E+00
                       0.0000000000E+00  0.0000000000E+00  0.0000000000E+00
-          fftalg         512
           getscr1          0
           getscr2          0
           getscr3         -1
           getwfk1          0
           getwfk2         -1
           getwfk3         -2
        gwcalctyp          21
           gw1rdm           2
        gwrpacorr1          0
        gwrpacorr2          1
        gwrpacorr3          0
             iscf1         15
             iscf2          7
             iscf3          7
           istwfk        0    0    1    0    1    1
              ixc          11
        ixc_sigma          11
           jdtset        1    2    3
              kpt     -2.50000000E-01 -2.50000000E-01  0.00000000E+00
                      -2.50000000E-01  2.50000000E-01  0.00000000E+00
                       5.00000000E-01  5.00000000E-01  0.00000000E+00
                      -2.50000000E-01  5.00000000E-01  2.50000000E-01
                       5.00000000E-01  0.00000000E+00  0.00000000E+00
                       0.00000000E+00  0.00000000E+00  0.00000000E+00
            kptgw3    -2.50000000E-01 -2.50000000E-01  0.00000000E+00
                      -2.50000000E-01  2.50000000E-01  0.00000000E+00
                       5.00000000E-01  5.00000000E-01  0.00000000E+00
                      -2.50000000E-01  5.00000000E-01  2.50000000E-01
                       5.00000000E-01  0.00000000E+00  0.00000000E+00
                       0.00000000E+00  0.00000000E+00  0.00000000E+00
         kptrlatt        2   -2    2     -2    2    2     -2   -2    2
          kptrlen      2.04340000E+01
P           mkmem           6
            natom           2
            nband           8
           ndtset           3
          nfreqim1         -1
          nfreqim2         40
          nfreqim3         -1
            ngfft          20      20      20
             nkpt           6
           nkptgw1          0
           nkptgw2          0
           nkptgw3          6
         nomegasi1         12
         nomegasi2         12
         nomegasi3         20
           npweps1          0
           npweps2        137
           npweps3          0
          npwsigx1          0
          npwsigx2          0
          npwsigx3        283
           npwwfn1          0
           npwwfn2        283
           npwwfn3        283
            nstep          20
             nsym          48
           ntypat           1
              occ      2.000000  2.000000  2.000000  2.000000  0.000000  0.000000
                       0.000000  0.000000
        optdriver1          0
        optdriver2          3
        optdriver3          4
            rprim      0.0000000000E+00  5.0000000000E-01  5.0000000000E-01
                       5.0000000000E-01  0.0000000000E+00  5.0000000000E-01
                       5.0000000000E-01  5.0000000000E-01  0.0000000000E+00
          spgroup         227
           strten1    -7.9368303120E-05 -7.9368303120E-05 -7.9368303120E-05
                       0.0000000000E+00  0.0000000000E+00  0.0000000000E+00
           strten2     0.0000000000E+00  0.0000000000E+00  0.0000000000E+00
                       0.0000000000E+00  0.0000000000E+00  0.0000000000E+00
           strten3     0.0000000000E+00  0.0000000000E+00  0.0000000000E+00
                       0.0000000000E+00  0.0000000000E+00  0.0000000000E+00
           symrel      1  0  0   0  1  0   0  0  1      -1  0  0   0 -1  0   0  0 -1
                       0 -1  1   0 -1  0   1 -1  0       0  1 -1   0  1  0  -1  1  0
                      -1  0  0  -1  0  1  -1  1  0       1  0  0   1  0 -1   1 -1  0
                       0  1 -1   1  0 -1   0  0 -1       0 -1  1  -1  0  1   0  0  1
                      -1  0  0  -1  1  0  -1  0  1       1  0  0   1 -1  0   1  0 -1
                       0 -1  1   1 -1  0   0 -1  0       0  1 -1  -1  1  0   0  1  0
                       1  0  0   0  0  1   0  1  0      -1  0  0   0  0 -1   0 -1  0
                       0  1 -1   0  0 -1   1  0 -1       0 -1  1   0  0  1  -1  0  1
                      -1  0  1  -1  1  0  -1  0  0       1  0 -1   1 -1  0   1  0  0
                       0 -1  0   1 -1  0   0 -1  1       0  1  0  -1  1  0   0  1 -1
                       1  0 -1   0  0 -1   0  1 -1      -1  0  1   0  0  1   0 -1  1
                       0  1  0   0  0  1   1  0  0       0 -1  0   0  0 -1  -1  0  0
                       1  0 -1   0  1 -1   0  0 -1      -1  0  1   0 -1  1   0  0  1
                       0 -1  0   0 -1  1   1 -1  0       0  1  0   0  1 -1  -1  1  0
                      -1  0  1  -1  0  0  -1  1  0       1  0 -1   1  0  0   1 -1  0
                       0  1  0   1  0  0   0  0  1       0 -1  0  -1  0  0   0  0 -1
                       0  0 -1   0  1 -1   1  0 -1       0  0  1   0 -1  1  -1  0  1
                       1 -1  0   0 -1  1   0 -1  0      -1  1  0   0  1 -1   0  1  0
                       0  0  1   1  0  0   0  1  0       0  0 -1  -1  0  0   0 -1  0
                      -1  1  0  -1  0  0  -1  0  1       1 -1  0   1  0  0   1  0 -1
                       0  0  1   0  1  0   1  0  0       0  0 -1   0 -1  0  -1  0  0
                       1 -1  0   0 -1  0   0 -1  1      -1  1  0   0  1  0   0  1 -1
                       0  0 -1   1  0 -1   0  1 -1       0  0  1  -1  0  1   0 -1  1
                      -1  1  0  -1  0  1  -1  0  0       1 -1  0   1  0 -1   1  0  0
         symsigma        0
            tnons      0.0000000  0.0000000  0.0000000     0.2500000  0.2500000  0.2500000
                       0.0000000  0.0000000  0.0000000     0.2500000  0.2500000  0.2500000
                       0.0000000  0.0000000  0.0000000     0.2500000  0.2500000  0.2500000
                       0.0000000  0.0000000  0.0000000     0.2500000  0.2500000  0.2500000
                       0.0000000  0.0000000  0.0000000     0.2500000  0.2500000  0.2500000
                       0.0000000  0.0000000  0.0000000     0.2500000  0.2500000  0.2500000
                       0.0000000  0.0000000  0.0000000     0.2500000  0.2500000  0.2500000
                       0.0000000  0.0000000  0.0000000     0.2500000  0.2500000  0.2500000
                       0.0000000  0.0000000  0.0000000     0.2500000  0.2500000  0.2500000
                       0.0000000  0.0000000  0.0000000     0.2500000  0.2500000  0.2500000
                       0.0000000  0.0000000  0.0000000     0.2500000  0.2500000  0.2500000
                       0.0000000  0.0000000  0.0000000     0.2500000  0.2500000  0.2500000
                       0.0000000  0.0000000  0.0000000     0.2500000  0.2500000  0.2500000
                       0.0000000  0.0000000  0.0000000     0.2500000  0.2500000  0.2500000
                       0.0000000  0.0000000  0.0000000     0.2500000  0.2500000  0.2500000
                       0.0000000  0.0000000  0.0000000     0.2500000  0.2500000  0.2500000
                       0.0000000  0.0000000  0.0000000     0.2500000  0.2500000  0.2500000
                       0.0000000  0.0000000  0.0000000     0.2500000  0.2500000  0.2500000
                       0.0000000  0.0000000  0.0000000     0.2500000  0.2500000  0.2500000
                       0.0000000  0.0000000  0.0000000     0.2500000  0.2500000  0.2500000
                       0.0000000  0.0000000  0.0000000     0.2500000  0.2500000  0.2500000
                       0.0000000  0.0000000  0.0000000     0.2500000  0.2500000  0.2500000
                       0.0000000  0.0000000  0.0000000     0.2500000  0.2500000  0.2500000
                       0.0000000  0.0000000  0.0000000     0.2500000  0.2500000  0.2500000
           toldfe      1.00000000E-06 Hartree
            typat      1  1
              wtk        0.18750    0.37500    0.09375    0.18750    0.12500    0.03125
           xangst      0.0000000000E+00  0.0000000000E+00  0.0000000000E+00
                       1.3516508850E+00  1.3516508850E+00  1.3516508850E+00
            xcart      0.0000000000E+00  0.0000000000E+00  0.0000000000E+00
                       2.5542500000E+00  2.5542500000E+00  2.5542500000E+00
             xred      0.0000000000E+00  0.0000000000E+00  0.0000000000E+00
                       2.5000000000E-01  2.5000000000E-01  2.5000000000E-01
            znucl       14.00000

================================================================================


- Timing analysis has been suppressed with timopt=0



================================================================================

 Suggested references for the acknowledgment of ABINIT usage.

 The users of ABINIT have little formal obligations with respect to the ABINIT group
 (those specified in the GNU General Public License, http://www.gnu.org/copyleft/gpl.txt).
 However, it is common practice in the scientific literature,
 to acknowledge the efforts of people that have made the research possible.
 In this spirit, please find below suggested citations of work written by ABINIT developers,
 corresponding to implementations inside of ABINIT that you have used in the present run.
 Note also that it will be of great value to readers of publications presenting these results,
 to read papers enabling them to understand the theoretical formalism and details
 of the ABINIT implementation.
 For information on why they are suggested, see also https://docs.abinit.org/theory/acknowledgments.
-
- [1] Effect of self-consistency on quasiparticles in solids
- F. Bruneval, N. Vast, L. Reining, Phys. Rev. B 74, 045102 (2006).
- Comment: in case gwcalctyp >= 10.
- DOI and bibtex: see https://docs.abinit.org/theory/bibliography/#bruneval2006
-
- [2] The Abinit project: Impact, environment and recent developments.
- Computer Phys. Comm. 248, 107042 (2020).
- X.Gonze, B. Amadon, G. Antonius, F.Arnardi, L.Baguet, J.-M.Beuken,
- J.Bieder, F.Bottin, J.Bouchet, E.Bousquet, N.Brouwer, F.Bruneval,
- G.Brunin, T.Cavignac, J.-B. Charraud, Wei Chen, M.Cote, S.Cottenier,
- J.Denier, G.Geneste, Ph.Ghosez, M.Giantomassi, Y.Gillet, O.Gingras,
- D.R.Hamann, G.Hautier, Xu He, N.Helbig, N.Holzwarth, Y.Jia, F.Jollet,
- W.Lafargue-Dit-Hauret, K.Lejaeghere, M.A.L.Marques, A.Martin, C.Martins,
- H.P.C. Miranda, F.Naccarato, K. Persson, G.Petretto, V.Planes, Y.Pouillon,
- S.Prokhorenko, F.Ricci, G.-M.Rignanese, A.H.Romero, M.M.Schmitt, M.Torrent,
- M.J.van Setten, B.Van Troeye, M.J.Verstraete, G.Zerah and J.W.Zwanzig
- Comment: the fifth generic paper describing the ABINIT project.
- Note that a version of this paper, that is not formatted for Computer Phys. Comm. 
- is available at https://www.abinit.org/sites/default/files/ABINIT20.pdf .
- The licence allows the authors to put it on the Web.
- DOI and bibtex: see https://docs.abinit.org/theory/bibliography/#gonze2020
-
- [3] Optimized norm-conserving Vanderbilt pseudopotentials.
- D.R. Hamann, Phys. Rev. B 88, 085117 (2013).
- Comment: Some pseudopotential generated using the ONCVPSP code were used.
- DOI and bibtex: see https://docs.abinit.org/theory/bibliography/#hamann2013
-
- [4] ABINIT: Overview, and focus on selected capabilities
- J. Chem. Phys. 152, 124102 (2020).
- A. Romero, D.C. Allan, B. Amadon, G. Antonius, T. Applencourt, L.Baguet,
- J.Bieder, F.Bottin, J.Bouchet, E.Bousquet, F.Bruneval,
- G.Brunin, D.Caliste, M.Cote,
- J.Denier, C. Dreyer, Ph.Ghosez, M.Giantomassi, Y.Gillet, O.Gingras,
- D.R.Hamann, G.Hautier, F.Jollet, G. Jomard,
- A.Martin, 
- H.P.C. Miranda, F.Naccarato, G.Petretto, N.A. Pike, V.Planes,
- S.Prokhorenko, T. Rangel, F.Ricci, G.-M.Rignanese, M.Royo, M.Stengel, M.Torrent,
- M.J.van Setten, B.Van Troeye, M.J.Verstraete, J.Wiktor, J.W.Zwanziger, and X.Gonze.
- Comment: a global overview of ABINIT, with focus on selected capabilities .
- Note that a version of this paper, that is not formatted for J. Chem. Phys 
- is available at https://www.abinit.org/sites/default/files/ABINIT20_JPC.pdf .
- The licence allows the authors to put it on the Web.
- DOI and bibtex: see https://docs.abinit.org/theory/bibliography/#romero2020
-
- [5] Recent developments in the ABINIT software package.
- Computer Phys. Comm. 205, 106 (2016).
- X.Gonze, F.Jollet, F.Abreu Araujo, D.Adams, B.Amadon, T.Applencourt,
- C.Audouze, J.-M.Beuken, J.Bieder, A.Bokhanchuk, E.Bousquet, F.Bruneval
- D.Caliste, M.Cote, F.Dahm, F.Da Pieve, M.Delaveau, M.Di Gennaro,
- B.Dorado, C.Espejo, G.Geneste, L.Genovese, A.Gerossier, M.Giantomassi,
- Y.Gillet, D.R.Hamann, L.He, G.Jomard, J.Laflamme Janssen, S.Le Roux,
- A.Levitt, A.Lherbier, F.Liu, I.Lukacevic, A.Martin, C.Martins,
- M.J.T.Oliveira, S.Ponce, Y.Pouillon, T.Rangel, G.-M.Rignanese,
- A.H.Romero, B.Rousseau, O.Rubel, A.A.Shukri, M.Stankovski, M.Torrent,
- M.J.Van Setten, B.Van Troeye, M.J.Verstraete, D.Waroquier, J.Wiktor,
- B.Xu, A.Zhou, J.W.Zwanziger.
- Comment: the fourth generic paper describing the ABINIT project.
- Note that a version of this paper, that is not formatted for Computer Phys. Comm. 
- is available at https://www.abinit.org/sites/default/files/ABINIT16.pdf .
- The licence allows the authors to put it on the Web.
- DOI and bibtex: see https://docs.abinit.org/theory/bibliography/#gonze2016
-
- Proc.   0 individual time (sec): cpu=         22.6  wall=         22.7

================================================================================

 Calculation completed.
.Delivered   5 WARNINGs and   9 COMMENTs to log file.
+Overall time at end (sec) : cpu=         22.6  wall=         22.7
