
.Version 9.3.4 of ABINIT 
.(MPI version, prepared for a x86_64_linux_intel19.0 computer) 

.Copyright (C) 1998-2021 ABINIT group . 
 ABINIT comes with ABSOLUTELY NO WARRANTY.
 It is free software, and you are welcome to redistribute it
 under certain conditions (GNU General Public License,
 see ~abinit/COPYING or http://www.gnu.org/copyleft/gpl.txt).

 ABINIT is a project of the Universite Catholique de Louvain,
 Corning Inc. and other collaborators, see ~abinit/doc/developers/contributors.txt .
 Please read https://docs.abinit.org/theory/acknowledgments for suggested
 acknowledgments of the ABINIT effort.
 For more information, see https://www.abinit.org .

.Starting date : Sat  6 Feb 2021.
- ( at 13h55 )
  
- input  file    -> /home/jzwanzig/abinit/abinit/tmp-build/intel/fast/tests/Test_suite/v9_t44/t44.abi
- output file    -> t44.abo
- root for input  files -> t44i
- root for output files -> t44o
 
- inpspheads : Reading pseudopotential header in XML form from 
-   /home/jzwanzig/abinit/abinit/tests/Psps_for_tests/Pseudodojo_paw_pbe_standard/P.xml
- inpspheads : Reading pseudopotential header in XML form from 
-   /home/jzwanzig/abinit/abinit/tests/Psps_for_tests/Pseudodojo_paw_pbe_standard/Al.xml
 
 DATASET    1 : space group P1 (#  1); Bravais aP (primitive triclinic)
================================================================================
 Values of the parameters that define the memory need for DATASET  1.
     intxc =       0    ionmov =       0      iscf =      17    lmnmax =       8
     lnmax =       4     mgfft =      16  mpssoang =       2    mqgrid =    3001
     natom =       2  nloc_mem =       2    nspden =       1   nspinor =       1
    nsppol =       1      nsym =       1    n1xccc =       1    ntypat =       2
    occopt =       1   xclevel =       2
-    mband =           4        mffmem =           1         mkmem =          32
       mpw =         150          nfft =        4096          nkpt =          32
 PAW method is used; the additional fine FFT grid is defined by:
   mgfftf=        18    nfftf =      5832
================================================================================
P This job should need less than                       4.514 Mbytes of memory.
  Rough estimation (10% accuracy) of disk space for files :
_ WF disk file :      0.295 Mbytes ; DEN or POT disk file :      0.046 Mbytes.
================================================================================
 
 
 DATASET    2 : space group P1 (#  1); Bravais aP (primitive triclinic)
================================================================================
 Values of the parameters that define the memory need for DATASET  2 (RF).
     intxc =       0      iscf =      -3    lmnmax =       8     lnmax =       4
     mgfft =      16  mpssoang =       2    mqgrid =    3001     natom =       2
  nloc_mem =       2    nspden =       1   nspinor =       1    nsppol =       1
      nsym =       1    n1xccc =       1    ntypat =       2    occopt =       1
   xclevel =       2
-    mband =           4        mffmem =           1         mkmem =          32
-   mkqmem =          32        mk1mem =          32           mpw =         150
      nfft =        4096          nkpt =          32
================================================================================
P This job should need less than                       2.805 Mbytes of memory.
  Rough estimation (10% accuracy) of disk space for files :
_ WF disk file :      0.295 Mbytes ; DEN or POT disk file :      0.033 Mbytes.
================================================================================
 
--------------------------------------------------------------------------------
------------- Echo of variables that govern the present computation ------------
--------------------------------------------------------------------------------
-
- outvars: echo of selected default values                                      
-   iomode0 =  3 , fftalg0 =512 , wfoptalg0 = 10
-
- outvars: echo of global parameters not present in the input file              
-  max_nthreads =    0
-
 -outvars: echo values of preprocessed input variables --------
            acell      1.0300896971E+01  1.0300896971E+01  1.0300896971E+01 Bohr
              amu      3.09737620E+01  2.69815390E+01
             ecut      5.00000000E+00 Hartree
-          fftalg         512
           getwfk1          0
           getwfk2         -1
             iscf1         17
             iscf2         -3
              ixc     -101130
           jdtset        1    2
              kpt     -2.50000000E-01  5.00000000E-01  0.00000000E+00
                       5.00000000E-01 -2.50000000E-01  0.00000000E+00
                      -2.50000000E-01 -2.50000000E-01  2.50000000E-01
                      -2.50000000E-01  0.00000000E+00  0.00000000E+00
                       5.00000000E-01  2.50000000E-01  0.00000000E+00
                      -2.50000000E-01  2.50000000E-01  2.50000000E-01
                       2.50000000E-01  5.00000000E-01  0.00000000E+00
                       5.00000000E-01  5.00000000E-01  2.50000000E-01
                      -2.50000000E-01  5.00000000E-01  5.00000000E-01
                       0.00000000E+00 -2.50000000E-01  0.00000000E+00
                       2.50000000E-01 -2.50000000E-01  2.50000000E-01
                       5.00000000E-01 -2.50000000E-01  5.00000000E-01
                      -2.50000000E-01 -2.50000000E-01 -2.50000000E-01
                       2.50000000E-01  0.00000000E+00  0.00000000E+00
                       5.00000000E-01  0.00000000E+00  2.50000000E-01
                      -2.50000000E-01  0.00000000E+00  5.00000000E-01
                       0.00000000E+00  2.50000000E-01  0.00000000E+00
                       2.50000000E-01  2.50000000E-01  2.50000000E-01
                       5.00000000E-01  2.50000000E-01  5.00000000E-01
                      -2.50000000E-01  2.50000000E-01 -2.50000000E-01
                       0.00000000E+00  5.00000000E-01  2.50000000E-01
                       2.50000000E-01  5.00000000E-01  5.00000000E-01
                       5.00000000E-01  5.00000000E-01 -2.50000000E-01
                       0.00000000E+00 -2.50000000E-01  5.00000000E-01
                       2.50000000E-01 -2.50000000E-01 -2.50000000E-01
                       0.00000000E+00  0.00000000E+00  2.50000000E-01
                       2.50000000E-01  0.00000000E+00  5.00000000E-01
                       5.00000000E-01  0.00000000E+00 -2.50000000E-01
                       0.00000000E+00  2.50000000E-01  5.00000000E-01
                       2.50000000E-01  2.50000000E-01 -2.50000000E-01
                       0.00000000E+00  5.00000000E-01 -2.50000000E-01
                       0.00000000E+00  0.00000000E+00 -2.50000000E-01
           kptopt           3
         kptrlatt        2   -2    2     -2    2    2     -2   -2    2
          kptrlen      2.06017939E+01
P           mkmem          32
P          mkqmem          32
P          mk1mem          32
            natom           2
            nband           4
           ndtset           2
            ngfft          16      16      16
          ngfftdg          18      18      18
             nkpt          32
            nstep1          8
            nstep2         30
             nsym           1
           ntypat           2
        nucdipmom      0.0000000000E+00  0.0000000000E+00  0.0000000000E+00
                       1.0000000000E+01  1.0000000000E+01  1.0000000000E+01
              occ      2.000000  2.000000  2.000000  2.000000
        optdriver1          0
        optdriver2          1
        optforces           0
        optstress           0
        pawcpxocc           2
        pawecutdg      6.00000000E+00 Hartree
           prtden           0
           prteig           0
            prtwf1          1
            prtwf2          0
            rfddk1          0
            rfddk2          1
            rfdir1          0       0       0
            rfdir2          1       0       0
            rprim      0.0000000000E+00  5.0000000000E-01  5.0000000000E-01
                       5.0000000000E-01  0.0000000000E+00  5.0000000000E-01
                       5.0000000000E-01  5.0000000000E-01  0.0000000000E+00
           shiftk      5.00000000E-01  5.00000000E-01  5.00000000E-01
          spgroup           1
        symmorphi           0
           tolvrs1     1.00000000E-16
           tolvrs2     0.00000000E+00
           tolwfr1     0.00000000E+00
           tolwfr2     1.00000000E-20
            typat      1  2
        usexcnhat           0
           useylm           1
              wtk        0.03125    0.03125    0.03125    0.03125    0.03125    0.03125
                         0.03125    0.03125    0.03125    0.03125    0.03125    0.03125
                         0.03125    0.03125    0.03125    0.03125    0.03125    0.03125
                         0.03125    0.03125    0.03125    0.03125    0.03125    0.03125
                         0.03125    0.03125    0.03125    0.03125    0.03125    0.03125
                         0.03125    0.03125
           xangst      1.3627499763E+00  1.3627499763E+00  1.3627499763E+00
                       0.0000000000E+00  0.0000000000E+00  0.0000000000E+00
            xcart      2.5752242428E+00  2.5752242428E+00  2.5752242428E+00
                       0.0000000000E+00  0.0000000000E+00  0.0000000000E+00
             xred      2.5000000000E-01  2.5000000000E-01  2.5000000000E-01
                       0.0000000000E+00  0.0000000000E+00  0.0000000000E+00
            znucl       15.00000   13.00000
 
================================================================================
 
 chkinp: Checking input parameters for consistency, jdtset=   1.
 
 chkinp: Checking input parameters for consistency, jdtset=   2.
 
================================================================================
== DATASET  1 ==================================================================
-   mpi_nproc: 1, omp_nthreads: -1 (-1 if OMP is not activated)
 

--- !DatasetInfo
iteration_state: {dtset: 1, }
dimensions: {natom: 2, nkpt: 32, mband: 4, nsppol: 1, nspinor: 1, nspden: 1, mpw: 150, }
cutoff_energies: {ecut:   5.0, pawecutdg:   6.0, }
electrons: {nelect:   8.00000000E+00, charge:   0.00000000E+00, occopt:   1.00000000E+00, tsmear:   1.00000000E-02, }
meta: {optdriver: 0, ionmov: 0, optcell: 0, iscf: 17, paral_kgb: 0, }
...

 Real(R)+Recip(G) space primitive vectors, cartesian coordinates (Bohr,Bohr^-1):
 R(1)=  0.0000000  5.1504485  5.1504485  G(1)= -0.0970789  0.0970789  0.0970789
 R(2)=  5.1504485  0.0000000  5.1504485  G(2)=  0.0970789 -0.0970789  0.0970789
 R(3)=  5.1504485  5.1504485  0.0000000  G(3)=  0.0970789  0.0970789 -0.0970789
 Unit cell volume ucvol=  2.7325313E+02 bohr^3
 Angles (23,13,12)=  6.00000000E+01  6.00000000E+01  6.00000000E+01 degrees
 
 Coarse grid specifications (used for wave-functions):
 
 getcut: wavevector=  0.0000  0.0000  0.0000  ngfft=  16  16  16
         ecut(hartree)=      5.000   => boxcut(ratio)=   2.18228
 
 Fine grid specifications (used for densities):
 
 getcut: wavevector=  0.0000  0.0000  0.0000  ngfft=  18  18  18
         ecut(hartree)=      6.000   => boxcut(ratio)=   2.24806
 
 getcut : COMMENT -
  Note that boxcut > 2.2 ; recall that boxcut=Gcut(box)/Gcut(sphere) = 2
  is sufficient for exact treatment of convolution.
  Such a large boxcut is a waste : you could raise ecut
  e.g. ecut=    7.580664 Hartrees makes boxcut=2
 
 
--- Pseudopotential description ------------------------------------------------
- pspini: atom type   1  psp file is /home/jzwanzig/abinit/abinit/tests/Psps_for_tests/Pseudodojo_paw_pbe_standard/P.xml
- pspatm: opening atomic psp file    /home/jzwanzig/abinit/abinit/tests/Psps_for_tests/Pseudodojo_paw_pbe_standard/P.xml
- pspatm : Reading pseudopotential header in XML form from /home/jzwanzig/abinit/abinit/tests/Psps_for_tests/Pseudodojo_paw_pbe_standard/P.xml
 Pseudopotential format is: paw10
 basis_size (lnmax)=  4 (lmn_size=  8), orbitals=   0   0   1   1
 Spheres core radius: rc_sph= 1.90690075
 1 radial meshes are used:
  - mesh 1: r(i)=AA*[exp(BB*(i-1))-1], size=2001 , AA= 0.40634E-03 BB= 0.60952E-02
 Shapefunction is SIN type: shapef(r)=[sin(pi*r/rshp)/(pi*r/rshp)]**2
 Radius for shape functions =  1.60765221
 mmax= 2001
 Radial grid used for partial waves is grid 1
 Radial grid used for projectors is grid 1
 Radial grid used for (t)core density is grid 1
 Radial grid used for Vloc is grid 1
 Radial grid used for pseudo valence density is grid 1
 Mesh size for Vloc has been set to 1773 to avoid numerical noise.
 Compensation charge density is not taken into account in XC energy/potential
 pspatm: atomic psp has been read  and splines computed
 
- pspini: atom type   2  psp file is /home/jzwanzig/abinit/abinit/tests/Psps_for_tests/Pseudodojo_paw_pbe_standard/Al.xml
- pspatm: opening atomic psp file    /home/jzwanzig/abinit/abinit/tests/Psps_for_tests/Pseudodojo_paw_pbe_standard/Al.xml
- pspatm : Reading pseudopotential header in XML form from /home/jzwanzig/abinit/abinit/tests/Psps_for_tests/Pseudodojo_paw_pbe_standard/Al.xml
 Pseudopotential format is: paw10
 basis_size (lnmax)=  4 (lmn_size=  8), orbitals=   0   0   1   1
 Spheres core radius: rc_sph= 1.90363307
 1 radial meshes are used:
  - mesh 1: r(i)=AA*[exp(BB*(i-1))-1], size=2001 , AA= 0.46377E-03 BB= 0.60291E-02
 Shapefunction is SIN type: shapef(r)=[sin(pi*r/rshp)/(pi*r/rshp)]**2
 Radius for shape functions =  1.60786206
 mmax= 2001
 Radial grid used for partial waves is grid 1
 Radial grid used for projectors is grid 1
 Radial grid used for (t)core density is grid 1
 Radial grid used for Vloc is grid 1
 Radial grid used for pseudo valence density is grid 1
 Mesh size for Vloc has been set to 1771 to avoid numerical noise.
 Compensation charge density is not taken into account in XC energy/potential
 pspatm: atomic psp has been read  and splines computed
 
  -2.65993774E+01                                ecore*ucvol(ha*bohr**3)
--------------------------------------------------------------------------------
 
_setup2: Arith. and geom. avg. npw (full set) are     146.250     146.234
 
================================================================================

--- !BeginCycle
iteration_state: {dtset: 1, }
solver: {iscf: 17, nstep: 8, nline: 4, wfoptalg: 10, }
tolerances: {tolvrs: 1.00E-16, }
...
 
     iter   Etot(hartree)      deltaE(h)  residm     nres2
 ETOT  1  -8.7881024770233    -8.788E+00 3.988E-02 2.973E-01
 ETOT  2  -8.7993961022030    -1.129E-02 9.232E-05 4.738E-02
 ETOT  3  -8.7984833943941     9.127E-04 6.379E-06 2.206E-03
 ETOT  4  -8.7986023267285    -1.189E-04 7.685E-08 2.233E-04
 ETOT  5  -8.7986392318789    -3.691E-05 1.667E-08 1.722E-05
 ETOT  6  -8.7986435635180    -4.332E-06 9.403E-10 8.112E-07
 ETOT  7  -8.7986437585706    -1.951E-07 4.001E-10 1.667E-08
 ETOT  8  -8.7986437603076    -1.737E-09 2.534E-11 3.484E-09
 
 scprqt:  WARNING -
  nstep=    8 was not enough SCF cycles to converge;
  density residual=  3.484E-09 exceeds tolvrs=  1.000E-16
 

--- !ResultsGS
iteration_state: {dtset: 1, }
comment   : Summary of ground state results
lattice_vectors:
- [  0.0000000,   5.1504485,   5.1504485, ]
- [  5.1504485,   0.0000000,   5.1504485, ]
- [  5.1504485,   5.1504485,   0.0000000, ]
lattice_lengths: [   7.28383,    7.28383,    7.28383, ]
lattice_angles: [ 60.000,  60.000,  60.000, ] # degrees, (23, 13, 12)
lattice_volume:   2.7325313E+02
convergence: {deltae: -1.737E-09, res2:  3.484E-09, residm:  2.534E-11, diffor:  0.000E+00, }
etotal    :  -8.79864376E+00
entropy   :   0.00000000E+00
fermie    :   1.87390837E-01
cartesian_stress_tensor: null
pressure_GPa: null
xred      :
- [  2.5000E-01,   2.5000E-01,   2.5000E-01,  P]
- [  0.0000E+00,   0.0000E+00,   0.0000E+00, Al]
cartesian_forces: null
force_length_stats: {min: null, max: null, mean: null, }
...

 Integrated electronic density in atomic spheres:
 ------------------------------------------------
 Atom  Sphere_radius  Integrated_density
    1        1.90690          2.53635557
    2        1.90363          0.77728425
 
 PAW TEST:
 ==== Compensation charge inside spheres ============
 The following values must be close to each other ...
 Compensation charge over spherical meshes =     -0.545924907293418
 Compensation charge over fine fft grid    =     -0.545807970799394
 
 ==== Results concerning PAW augmentation regions ====
 
 Total pseudopotential strength Dij (hartree):
 Atom #  1
   === REAL PART:
   1.37432   0.02610  -0.00000  -0.00000  -0.00000  -0.00000   0.00000  -0.00000
   0.02610  28.09382   0.00000   0.00000   0.00000  -0.00001  -0.00001  -0.00000
  -0.00000   0.00000   0.26949   0.00000   0.00000   0.00972  -0.00000  -0.00000
  -0.00000   0.00000   0.00000   0.26949   0.00000  -0.00000   0.00972  -0.00000
  -0.00000   0.00000   0.00000   0.00000   0.26949  -0.00000  -0.00000   0.00972
  -0.00000  -0.00001   0.00972  -0.00000  -0.00000  17.75681   0.00000   0.00000
   0.00000  -0.00001  -0.00000   0.00972  -0.00000   0.00000  17.75681   0.00000
  -0.00000  -0.00000  -0.00000  -0.00000   0.00972   0.00000   0.00000  17.75680
   === IMAGINARY PART:
   0.00000   0.00000   0.00000   0.00000   0.00000   0.00000   0.00000   0.00000
   0.00000   0.00000   0.00000   0.00000   0.00000   0.00000   0.00000   0.00000
   0.00000   0.00000   0.00000   0.00000   0.00000   0.00000   0.00000   0.00000
   0.00000   0.00000   0.00000   0.00000   0.00000   0.00000   0.00000   0.00000
   0.00000   0.00000   0.00000   0.00000   0.00000   0.00000   0.00000   0.00000
   0.00000   0.00000   0.00000   0.00000   0.00000   0.00000   0.00000   0.00000
   0.00000   0.00000   0.00000   0.00000   0.00000   0.00000   0.00000   0.00000
   0.00000   0.00000   0.00000   0.00000   0.00000   0.00000   0.00000   0.00000
 Atom #  2
   === REAL PART:
   0.32753  -0.04467   0.00000  -0.00000   0.00000   0.00000   0.00000   0.00000
  -0.04467  39.58555   0.00000   0.00000  -0.00000  -0.00000  -0.00001  -0.00000
   0.00000   0.00000   0.07334  -0.00000  -0.00000  -0.13862   0.00000   0.00000
  -0.00000   0.00000  -0.00000   0.07334  -0.00000   0.00000  -0.13862   0.00000
   0.00000  -0.00000  -0.00000  -0.00000   0.07334   0.00000   0.00000  -0.13862
   0.00000  -0.00000  -0.13862   0.00000   0.00000  23.84319  -0.00007  -0.00007
   0.00000  -0.00001   0.00000  -0.13862   0.00000  -0.00007  23.84319  -0.00007
   0.00000  -0.00000   0.00000   0.00000  -0.13862  -0.00007  -0.00007  23.84319
   === IMAGINARY PART:
   0.00000   0.00000   0.00000   0.00000   0.00000   0.00000   0.00000   0.00000
   0.00000   0.00000   0.00000   0.00000   0.00000   0.00000   0.00000   0.00000
   0.00000   0.00000   0.00000   0.00133  -0.00133   0.00000  -0.02127   0.02127
   0.00000   0.00000  -0.00133   0.00000   0.00133   0.02127   0.00000  -0.02127
   0.00000   0.00000   0.00133  -0.00133   0.00000  -0.02127   0.02127   0.00000
   0.00000   0.00000   0.00000  -0.02127   0.02127   0.00000   0.32198  -0.32198
   0.00000   0.00000   0.02127   0.00000  -0.02127  -0.32198   0.00000   0.32198
   0.00000   0.00000  -0.02127   0.02127   0.00000   0.32198  -0.32198   0.00000
 
 
 Augmentation waves occupancies Rhoij:
 Atom #  1
   === REAL PART:
   1.66491   0.00548  -0.00003  -0.00002  -0.00004  -0.00000  -0.00000  -0.00000
   0.00548   0.00003   0.00000   0.00000   0.00000   0.00000   0.00000   0.00000
  -0.00003   0.00000   1.15677   0.00005   0.00005   0.00644   0.00000   0.00000
  -0.00002   0.00000   0.00005   1.15677   0.00005   0.00000   0.00644   0.00000
  -0.00004   0.00000   0.00005   0.00005   1.15677   0.00000   0.00000   0.00644
  -0.00000   0.00000   0.00644   0.00000   0.00000   0.00004   0.00000   0.00000
  -0.00000   0.00000   0.00000   0.00644   0.00000   0.00000   0.00004   0.00000
  -0.00000   0.00000   0.00000   0.00000   0.00644   0.00000   0.00000   0.00004
   === IMAGINARY PART:
   0.00000   0.00000  -0.00000   0.00000   0.00000   0.00000   0.00000   0.00000
  -0.00000   0.00000   0.00000  -0.00000  -0.00000  -0.00000   0.00000  -0.00000
   0.00000  -0.00000   0.00000   0.00061  -0.00061  -0.00000   0.00000  -0.00000
  -0.00000   0.00000  -0.00061   0.00000   0.00061  -0.00000   0.00000   0.00000
  -0.00000   0.00000   0.00061  -0.00061   0.00000   0.00000  -0.00000  -0.00000
  -0.00000   0.00000   0.00000   0.00000  -0.00000   0.00000  -0.00000   0.00000
  -0.00000   0.00000  -0.00000  -0.00000   0.00000   0.00000   0.00000  -0.00000
  -0.00000   0.00000   0.00000  -0.00000   0.00000  -0.00000   0.00000   0.00000
 Atom #  2
   === REAL PART:
   1.19597  -0.00130  -0.00001  -0.00001  -0.00001   0.00000   0.00000   0.00000
  -0.00130   0.00000  -0.00000  -0.00000  -0.00000   0.00000   0.00000   0.00000
  -0.00001  -0.00000   0.85433  -0.00062  -0.00061  -0.00070  -0.00000  -0.00000
  -0.00001  -0.00000  -0.00062   0.85433  -0.00062  -0.00000  -0.00070  -0.00000
  -0.00001  -0.00000  -0.00061  -0.00062   0.85433  -0.00000  -0.00000  -0.00070
   0.00000   0.00000  -0.00070  -0.00000  -0.00000   0.00000  -0.00000  -0.00000
   0.00000   0.00000  -0.00000  -0.00070  -0.00000  -0.00000   0.00000  -0.00000
   0.00000   0.00000  -0.00000  -0.00000  -0.00070  -0.00000  -0.00000   0.00000
   === IMAGINARY PART:
   0.00000  -0.00000  -0.00000   0.00000  -0.00000   0.00000   0.00000  -0.00000
   0.00000   0.00000  -0.00000   0.00000   0.00000   0.00000   0.00000   0.00000
   0.00000   0.00000   0.00000   0.02837  -0.02837  -0.00000   0.00010  -0.00010
  -0.00000  -0.00000  -0.02837   0.00000   0.02837  -0.00010   0.00000   0.00010
   0.00000  -0.00000   0.02837  -0.02837   0.00000   0.00010  -0.00010   0.00000
  -0.00000   0.00000   0.00000   0.00010  -0.00010   0.00000  -0.00000   0.00000
  -0.00000   0.00000  -0.00010  -0.00000   0.00010   0.00000   0.00000  -0.00000
   0.00000   0.00000   0.00010  -0.00010  -0.00000  -0.00000   0.00000   0.00000
 
 
================================================================================
 
 ----iterations are completed or convergence reached----
 
 Mean square residual over all n,k,spin=   86.593E-13; max=  25.336E-12
 reduced coordinates (array xred) for    2 atoms
       0.250000000000      0.250000000000      0.250000000000
       0.000000000000      0.000000000000      0.000000000000
 rms dE/dt=  0.0000E+00; max dE/dt=  0.0000E+00; dE/dt below (all hartree)
    1       0.000000000000      0.000000000000      0.000000000000
    2       0.000000000000      0.000000000000      0.000000000000
 
 cartesian coordinates (angstrom) at end:
    1      1.36274997628497     1.36274997628497     1.36274997628497
    2      0.00000000000000     0.00000000000000     0.00000000000000
 length scales= 10.300896971100 10.300896971100 10.300896971100 bohr
              =  5.450999905140  5.450999905140  5.450999905140 angstroms
 Fermi (or HOMO) energy (hartree) =   0.18739   Average Vxc (hartree)=  -0.33355
 Eigenvalues (hartree) for nkpt=  32  k points:
 kpt#   1, nband=  4, wtk=  0.03125, kpt= -0.2500  0.5000  0.0000 (reduced coord)
  -0.15222    0.02065    0.10293    0.14530
 prteigrs : prtvol=0 or 1, do not print more k-points.
 

--- !EnergyTerms
iteration_state     : {dtset: 1, }
comment             : Components of total free energy in Hartree
kinetic             :  3.59028405185802E+00
hartree             :  9.18098602046731E-01
xc                  : -3.11556630236830E+00
Ewald energy        : -8.73435537339883E+00
psp_core            : -9.73433600340451E-02
local_psp           : -3.09164469822983E+00
spherical_terms     :  1.73188581226767E+00
nucl. magn. dipoles : -5.72317249269228E-06
total_energy        : -8.79864699103107E+00
total_energy_eV     : -2.39423360721581E+02
...


--- !EnergyTermsDC
iteration_state     : {dtset: 1, }
comment             : '"Double-counting" decomposition of free energy'
band_energy         :  3.04693616476535E-01
Ewald energy        : -8.73435537339883E+00
psp_core            : -9.73433600340451E-02
xc_dc               : -3.52334477579697E-01
spherical_terms     :  8.06958342284183E-02
total_energy_dc     : -8.79864376030762E+00
total_energy_dc_eV  : -2.39423272809124E+02
...

 
================================================================================
== DATASET  2 ==================================================================
-   mpi_nproc: 1, omp_nthreads: -1 (-1 if OMP is not activated)
 

--- !DatasetInfo
iteration_state: {dtset: 2, }
dimensions: {natom: 2, nkpt: 32, mband: 4, nsppol: 1, nspinor: 1, nspden: 1, mpw: 150, }
cutoff_energies: {ecut:   5.0, pawecutdg:   6.0, }
electrons: {nelect:   8.00000000E+00, charge:   0.00000000E+00, occopt:   1.00000000E+00, tsmear:   1.00000000E-02, }
meta: {optdriver: 1, rfddk: 1, }
...

 mkfilename : getwfk/=0, take file _WFK from output of DATASET   1.
 
 Real(R)+Recip(G) space primitive vectors, cartesian coordinates (Bohr,Bohr^-1):
 R(1)=  0.0000000  5.1504485  5.1504485  G(1)= -0.0970789  0.0970789  0.0970789
 R(2)=  5.1504485  0.0000000  5.1504485  G(2)=  0.0970789 -0.0970789  0.0970789
 R(3)=  5.1504485  5.1504485  0.0000000  G(3)=  0.0970789  0.0970789 -0.0970789
 Unit cell volume ucvol=  2.7325313E+02 bohr^3
 Angles (23,13,12)=  6.00000000E+01  6.00000000E+01  6.00000000E+01 degrees
 
 Coarse grid specifications (used for wave-functions):
 
 getcut: wavevector=  0.0000  0.0000  0.0000  ngfft=  16  16  16
         ecut(hartree)=      5.000   => boxcut(ratio)=   2.18228
 
 Fine grid specifications (used for densities):
 
 getcut: wavevector=  0.0000  0.0000  0.0000  ngfft=  18  18  18
         ecut(hartree)=      6.000   => boxcut(ratio)=   2.24806
 
 getcut : COMMENT -
  Note that boxcut > 2.2 ; recall that boxcut=Gcut(box)/Gcut(sphere) = 2
  is sufficient for exact treatment of convolution.
  Such a large boxcut is a waste : you could raise ecut
  e.g. ecut=    7.580664 Hartrees makes boxcut=2
 
--------------------------------------------------------------------------------
 
-inwffil : will read wavefunctions from disk file t44o_DS1_WFK.nc
 
 ==>  initialize data related to q vector <== 
 
 The list of irreducible perturbations for this q vector is:
    1)    idir= 1    ipert=   3
 
================================================================================
 
--------------------------------------------------------------------------------
 Perturbation wavevector (in red.coord.)   0.000000  0.000000  0.000000
 Perturbation : derivative vs k along direction   1
 The set of symmetries contains only one element for this perturbation.
 symkpt : not enough symmetry to change the number of k points.
 
--------------------------------------------------------------------------------
 
-inwffil : will read wavefunctions from disk file t44o_DS1_WFK.nc
--------------------------------------------------------------------------------
 
 Initialisation of the first-order wave-functions :
  ireadwf=   0

--- !BeginCycle
iteration_state: {dtset: 2, }
solver: {iscf: -3, nstep: 30, nline: 4, wfoptalg: 10, }
tolerances: {tolwfr: 1.00E-20, }
...
 
     iter   2DEtotal(Ha)        deltaE(Ha) residm    vres2
-ETOT  1  -9.7132287234943     -9.713E+00 1.152E-02 0.000E+00
 ETOT  2  -9.7158761943434     -2.647E-03 7.378E-06 0.000E+00
 ETOT  3  -9.7158779840123     -1.790E-06 6.643E-09 0.000E+00
 ETOT  4  -9.7158779862058     -2.193E-09 5.966E-12 0.000E+00
 ETOT  5  -9.7158779862045      1.211E-12 1.113E-14 0.000E+00
 ETOT  6  -9.7158779862046     -9.592E-14 1.147E-17 0.000E+00
 ETOT  7  -9.7158779862046     -8.882E-15 2.267E-20 0.000E+00
 ETOT  8  -9.7158779862046      1.066E-14 9.842E-21 0.000E+00
 
 At SCF step    8   max residual=  9.84E-21 < tolwfr=  1.00E-20 =>converged.
================================================================================
 
 ----iterations are completed or convergence reached----
 
 Mean square residual over all n,k,spin=   34.907E-22; max=  98.424E-22
 dfpt_looppert : ek2=    1.7858742990E+01
          f-sum rule ratio=    1.2089089540E+00
 Expectation of eigenvalue derivatives (hartree) for nkpt=  32  k points:
  (in case of degenerate eigenvalues, averaged derivative)
 kpt#   1, nband=  4, wtk=  0.03125, kpt= -0.2500  0.5000  0.0000 (reduced coord)
  -0.07340   -0.08461    0.19958    0.15064
 prteigrs : prtvol=0 or 1, do not print more k-points.
 
 
 Nine components of 2nd-order total energy (hartree) are
 1,2,3: 0th-order hamiltonian combined with 1st-order wavefunctions
     kin0=   2.81403098E+01 eigvalue=  -7.23421942E+00  local=  -3.07703700E+01  nuc. dip.=  -5.28613586E-05
 4,5,6: 1st-order hamiltonian combined with 1st and 0th-order wfs
     kin1=  -2.15895943E+01  Hartree=   0.00000000E+00     xc=   0.00000000E+00  nuc. dip.=   4.55040269E-06
 7,8,9: eventually, occupation + non-local contributions
    edocc=   0.00000000E+00     enl0=   1.94712544E+01   enl1=   2.26678989E+00
 10: eventually, PAW "on-site" Hxc contribution: epaw1=   0.00000000E+00
 1-10 gives the relaxation energy (to be shifted if some occ is /=2.0)
   erelax=  -9.71587799E+00
 11 Contribution from 1st-order change of wavefunctions overlap
 eovl1 =  -6.28785234E-02
  No Ewald or frozen-wf contrib.: the relaxation energy is the total one
 2DEtotal=   -0.9715877986E+01 Ha. Also 2DEtotal=   -0.264382485420E+03 eV
    (  non-var. 2DEtotal :   -9.7242807326E+00 Ha)
================================================================================
 
 ---- first-order wavefunction calculations are completed ----
 
 
 respfn : d/dk was computed, but no 2DTE, so no DDB output.
 
== END DATASET(S) ==============================================================
================================================================================
  
 -outvars: echo values of variables after computation  --------
            acell      1.0300896971E+01  1.0300896971E+01  1.0300896971E+01 Bohr
              amu      3.09737620E+01  2.69815390E+01
             ecut      5.00000000E+00 Hartree
           etotal1    -8.7986437603E+00
           etotal2    -9.7158779862E+00
            fcart1     9.9999999999E+99  9.9999999999E+99  9.9999999999E+99
                       9.9999999999E+99  9.9999999999E+99  9.9999999999E+99
-          fftalg         512
           getwfk1          0
           getwfk2         -1
             iscf1         17
             iscf2         -3
              ixc     -101130
           jdtset        1    2
              kpt     -2.50000000E-01  5.00000000E-01  0.00000000E+00
                       5.00000000E-01 -2.50000000E-01  0.00000000E+00
                      -2.50000000E-01 -2.50000000E-01  2.50000000E-01
                      -2.50000000E-01  0.00000000E+00  0.00000000E+00
                       5.00000000E-01  2.50000000E-01  0.00000000E+00
                      -2.50000000E-01  2.50000000E-01  2.50000000E-01
                       2.50000000E-01  5.00000000E-01  0.00000000E+00
                       5.00000000E-01  5.00000000E-01  2.50000000E-01
                      -2.50000000E-01  5.00000000E-01  5.00000000E-01
                       0.00000000E+00 -2.50000000E-01  0.00000000E+00
                       2.50000000E-01 -2.50000000E-01  2.50000000E-01
                       5.00000000E-01 -2.50000000E-01  5.00000000E-01
                      -2.50000000E-01 -2.50000000E-01 -2.50000000E-01
                       2.50000000E-01  0.00000000E+00  0.00000000E+00
                       5.00000000E-01  0.00000000E+00  2.50000000E-01
                      -2.50000000E-01  0.00000000E+00  5.00000000E-01
                       0.00000000E+00  2.50000000E-01  0.00000000E+00
                       2.50000000E-01  2.50000000E-01  2.50000000E-01
                       5.00000000E-01  2.50000000E-01  5.00000000E-01
                      -2.50000000E-01  2.50000000E-01 -2.50000000E-01
                       0.00000000E+00  5.00000000E-01  2.50000000E-01
                       2.50000000E-01  5.00000000E-01  5.00000000E-01
                       5.00000000E-01  5.00000000E-01 -2.50000000E-01
                       0.00000000E+00 -2.50000000E-01  5.00000000E-01
                       2.50000000E-01 -2.50000000E-01 -2.50000000E-01
                       0.00000000E+00  0.00000000E+00  2.50000000E-01
                       2.50000000E-01  0.00000000E+00  5.00000000E-01
                       5.00000000E-01  0.00000000E+00 -2.50000000E-01
                       0.00000000E+00  2.50000000E-01  5.00000000E-01
                       2.50000000E-01  2.50000000E-01 -2.50000000E-01
                       0.00000000E+00  5.00000000E-01 -2.50000000E-01
                       0.00000000E+00  0.00000000E+00 -2.50000000E-01
           kptopt           3
         kptrlatt        2   -2    2     -2    2    2     -2   -2    2
          kptrlen      2.06017939E+01
P           mkmem          32
P          mkqmem          32
P          mk1mem          32
            natom           2
            nband           4
           ndtset           2
            ngfft          16      16      16
          ngfftdg          18      18      18
             nkpt          32
            nstep1          8
            nstep2         30
             nsym           1
           ntypat           2
        nucdipmom      0.0000000000E+00  0.0000000000E+00  0.0000000000E+00
                       1.0000000000E+01  1.0000000000E+01  1.0000000000E+01
              occ      2.000000  2.000000  2.000000  2.000000
        optdriver1          0
        optdriver2          1
        optforces           0
        optstress           0
        pawcpxocc           2
        pawecutdg      6.00000000E+00 Hartree
           prtden           0
           prteig           0
            prtwf1          1
            prtwf2          0
            rfddk1          0
            rfddk2          1
            rfdir1          0       0       0
            rfdir2          1       0       0
            rprim      0.0000000000E+00  5.0000000000E-01  5.0000000000E-01
                       5.0000000000E-01  0.0000000000E+00  5.0000000000E-01
                       5.0000000000E-01  5.0000000000E-01  0.0000000000E+00
           shiftk      5.00000000E-01  5.00000000E-01  5.00000000E-01
          spgroup           1
           strten1     9.9999999999E+99  9.9999999999E+99  9.9999999999E+99
                       9.9999999999E+99  9.9999999999E+99  9.9999999999E+99
        symmorphi           0
           tolvrs1     1.00000000E-16
           tolvrs2     0.00000000E+00
           tolwfr1     0.00000000E+00
           tolwfr2     1.00000000E-20
            typat      1  2
        usexcnhat           0
           useylm           1
              wtk        0.03125    0.03125    0.03125    0.03125    0.03125    0.03125
                         0.03125    0.03125    0.03125    0.03125    0.03125    0.03125
                         0.03125    0.03125    0.03125    0.03125    0.03125    0.03125
                         0.03125    0.03125    0.03125    0.03125    0.03125    0.03125
                         0.03125    0.03125    0.03125    0.03125    0.03125    0.03125
                         0.03125    0.03125
           xangst      1.3627499763E+00  1.3627499763E+00  1.3627499763E+00
                       0.0000000000E+00  0.0000000000E+00  0.0000000000E+00
            xcart      2.5752242428E+00  2.5752242428E+00  2.5752242428E+00
                       0.0000000000E+00  0.0000000000E+00  0.0000000000E+00
             xred      2.5000000000E-01  2.5000000000E-01  2.5000000000E-01
                       0.0000000000E+00  0.0000000000E+00  0.0000000000E+00
            znucl       15.00000   13.00000
 
================================================================================


- Timing analysis has been suppressed with timopt=0



================================================================================

 Suggested references for the acknowledgment of ABINIT usage.

 The users of ABINIT have little formal obligations with respect to the ABINIT group
 (those specified in the GNU General Public License, http://www.gnu.org/copyleft/gpl.txt).
 However, it is common practice in the scientific literature,
 to acknowledge the efforts of people that have made the research possible.
 In this spirit, please find below suggested citations of work written by ABINIT developers,
 corresponding to implementations inside of ABINIT that you have used in the present run.
 Note also that it will be of great value to readers of publications presenting these results,
 to read papers enabling them to understand the theoretical formalism and details
 of the ABINIT implementation.
 For information on why they are suggested, see also https://docs.abinit.org/theory/acknowledgments.
-
- [1] Specification of an extensible and portable file format for electronic structure and crystallographic data
- X. Gonze, C.-O. Almbladh, A. Cucca, D. Caliste, C. Freysoldt, M. Marques, V. Olevano, Y. Pouillon, M.J. Verstraete,
- Comput. Material Science 43, 1056 (2008).
- Comment: to be cited in case the ETSF_IO file format is used, i.e. iomode=3.
- DOI and bibtex: see https://docs.abinit.org/theory/bibliography/#gonze2008
-
- [2] Projector augmented-wave approach to density-functional perturbation theory.
- C. Audouze, F. Jollet, M. Torrent and X. Gonze, Phys. Rev. B 73, 235101 (2006).
- Comparison between projector augmented-wave and ultrasoft pseudopotential formalisms
- at the density-functional perturbation theory level.
- C. Audouze, F. Jollet, M. Torrent and X. Gonze, Phys. Rev. B 78, 035105 (2008).
- Comment: to be cited in case the computation of response function with PAW, i.e. (rfphon=1 or rfelfd=1) and usepaw=1.
- Strong suggestion to cite these papers.
- DOI and bibtex: see https://docs.abinit.org/theory/bibliography/#audouze2006,
- and https://docs.abinit.org/theory/bibliography/#audouze2008
-
- [3] Implementation of the Projector Augmented-Wave Method in the ABINIT code.
- M. Torrent, F. Jollet, F. Bottin, G. Zerah, and X. Gonze Comput. Mat. Science 42, 337, (2008).
- Comment: PAW calculations. Strong suggestion to cite this paper.
- DOI and bibtex: see https://docs.abinit.org/theory/bibliography/#torrent2008
-
- [4] Libxc: A library of exchange and correlation functionals for density functional theory.
- M.A.L. Marques, M.J.T. Oliveira, T. Burnus, Computer Physics Communications 183, 2227 (2012).
- Comment: to be cited when LibXC is used (negative value of ixc)
- Strong suggestion to cite this paper.
- DOI and bibtex: see https://docs.abinit.org/theory/bibliography/#marques2012
-
- [5] The Abinit project: Impact, environment and recent developments.
- Computer Phys. Comm. 248, 107042 (2020).
- X.Gonze, B. Amadon, G. Antonius, F.Arnardi, L.Baguet, J.-M.Beuken,
- J.Bieder, F.Bottin, J.Bouchet, E.Bousquet, N.Brouwer, F.Bruneval,
- G.Brunin, T.Cavignac, J.-B. Charraud, Wei Chen, M.Cote, S.Cottenier,
- J.Denier, G.Geneste, Ph.Ghosez, M.Giantomassi, Y.Gillet, O.Gingras,
- D.R.Hamann, G.Hautier, Xu He, N.Helbig, N.Holzwarth, Y.Jia, F.Jollet,
- W.Lafargue-Dit-Hauret, K.Lejaeghere, M.A.L.Marques, A.Martin, C.Martins,
- H.P.C. Miranda, F.Naccarato, K. Persson, G.Petretto, V.Planes, Y.Pouillon,
- S.Prokhorenko, F.Ricci, G.-M.Rignanese, A.H.Romero, M.M.Schmitt, M.Torrent,
- M.J.van Setten, B.Van Troeye, M.J.Verstraete, G.Zerah and J.W.Zwanzig
- Comment: the fifth generic paper describing the ABINIT project.
- Note that a version of this paper, that is not formatted for Computer Phys. Comm. 
- is available at https://www.abinit.org/sites/default/files/ABINIT20.pdf .
- The licence allows the authors to put it on the Web.
- DOI and bibtex: see https://docs.abinit.org/theory/bibliography/#gonze2020
-
- [6] ABINIT: Overview, and focus on selected capabilities
- J. Chem. Phys. 152, 124102 (2020).
- A. Romero, D.C. Allan, B. Amadon, G. Antonius, T. Applencourt, L.Baguet,
- J.Bieder, F.Bottin, J.Bouchet, E.Bousquet, F.Bruneval,
- G.Brunin, D.Caliste, M.Cote,
- J.Denier, C. Dreyer, Ph.Ghosez, M.Giantomassi, Y.Gillet, O.Gingras,
- D.R.Hamann, G.Hautier, F.Jollet, G. Jomard,
- A.Martin, 
- H.P.C. Miranda, F.Naccarato, G.Petretto, N.A. Pike, V.Planes,
- S.Prokhorenko, T. Rangel, F.Ricci, G.-M.Rignanese, M.Royo, M.Stengel, M.Torrent,
- M.J.van Setten, B.Van Troeye, M.J.Verstraete, J.Wiktor, J.W.Zwanziger, and X.Gonze.
- Comment: a global overview of ABINIT, with focus on selected capabilities .
- Note that a version of this paper, that is not formatted for J. Chem. Phys 
- is available at https://www.abinit.org/sites/default/files/ABINIT20_JPC.pdf .
- The licence allows the authors to put it on the Web.
- DOI and bibtex: see https://docs.abinit.org/theory/bibliography/#romero2020
-
- [7] Recent developments in the ABINIT software package.
- Computer Phys. Comm. 205, 106 (2016).
- X.Gonze, F.Jollet, F.Abreu Araujo, D.Adams, B.Amadon, T.Applencourt,
- C.Audouze, J.-M.Beuken, J.Bieder, A.Bokhanchuk, E.Bousquet, F.Bruneval
- D.Caliste, M.Cote, F.Dahm, F.Da Pieve, M.Delaveau, M.Di Gennaro,
- B.Dorado, C.Espejo, G.Geneste, L.Genovese, A.Gerossier, M.Giantomassi,
- Y.Gillet, D.R.Hamann, L.He, G.Jomard, J.Laflamme Janssen, S.Le Roux,
- A.Levitt, A.Lherbier, F.Liu, I.Lukacevic, A.Martin, C.Martins,
- M.J.T.Oliveira, S.Ponce, Y.Pouillon, T.Rangel, G.-M.Rignanese,
- A.H.Romero, B.Rousseau, O.Rubel, A.A.Shukri, M.Stankovski, M.Torrent,
- M.J.Van Setten, B.Van Troeye, M.J.Verstraete, D.Waroquier, J.Wiktor,
- B.Xu, A.Zhou, J.W.Zwanziger.
- Comment: the fourth generic paper describing the ABINIT project.
- Note that a version of this paper, that is not formatted for Computer Phys. Comm. 
- is available at https://www.abinit.org/sites/default/files/ABINIT16.pdf .
- The licence allows the authors to put it on the Web.
- DOI and bibtex: see https://docs.abinit.org/theory/bibliography/#gonze2016
-
- Proc.   0 individual time (sec): cpu=          3.3  wall=          3.4
 
================================================================================
 
 Calculation completed.
.Delivered   8 WARNINGs and  15 COMMENTs to log file.
+Overall time at end (sec) : cpu=          3.3  wall=          3.4
