
.Version 9.1.5 of ABINIT 
.(MPI version, prepared for a x86_64_linux_gnu9.2 computer) 

.Copyright (C) 1998-2020 ABINIT group . 
 ABINIT comes with ABSOLUTELY NO WARRANTY.
 It is free software, and you are welcome to redistribute it
 under certain conditions (GNU General Public License,
 see ~abinit/COPYING or http://www.gnu.org/copyleft/gpl.txt).

 ABINIT is a project of the Universite Catholique de Louvain,
 Corning Inc. and other collaborators, see ~abinit/doc/developers/contributors.txt .
 Please read https://docs.abinit.org/theory/acknowledgments for suggested
 acknowledgments of the ABINIT effort.
 For more information, see https://www.abinit.org .

.Starting date : Thu 23 Jul 2020.
- ( at 15h26 )
  
- input  file    -> /home/gmatteo/git_repos/abinit/_abiref_gnu9.2_openmpi/tests/Test_suite/v9_t50-t51-t52-t53-t54-t55-t56/t56.in
- output file    -> t56.out
- root for input  files -> t56i
- root for output files -> t56o


 DATASET    1 : space group Fd -3 m (#227); Bravais cF (face-center cubic)
================================================================================
 Values of the parameters that define the memory need for DATASET  1.
     intxc =       0    ionmov =       0      iscf =       7    lmnmax =       1
     lnmax =       1     mgfft =      20  mpssoang =       2    mqgrid =    3001
     natom =       2  nloc_mem =       1    nspden =       1   nspinor =       1
    nsppol =       1      nsym =      48    n1xccc =    2501    ntypat =       1
    occopt =       1   xclevel =       1
-    mband =           8        mffmem =           1         mkmem =           8
       mpw =         332          nfft =        8000          nkpt =           8
================================================================================
P This job should need less than                       3.141 Mbytes of memory.
  Rough estimation (10% accuracy) of disk space for files :
_ WF disk file :      0.326 Mbytes ; DEN or POT disk file :      0.063 Mbytes.
================================================================================


 DATASET    2 : space group Fd -3 m (#227); Bravais cF (face-center cubic)
================================================================================
 Values of the parameters that define the memory need for DATASET  2.
     intxc =       0    ionmov =       0      iscf =       7    lmnmax =       1
     lnmax =       1     mgfft =      20  mpssoang =       2    mqgrid =    3001
     natom =       2  nloc_mem =       1    nspden =       1   nspinor =       1
    nsppol =       1      nsym =      48    n1xccc =    2501    ntypat =       1
    occopt =       1   xclevel =       1
-    mband =           8        mffmem =           1         mkmem =           8
       mpw =         332          nfft =        8000          nkpt =           8
================================================================================
P This job should need less than                       3.141 Mbytes of memory.
  Rough estimation (10% accuracy) of disk space for files :
_ WF disk file :      0.326 Mbytes ; DEN or POT disk file :      0.063 Mbytes.
================================================================================


 DATASET    3 : space group Fd -3 m (#227); Bravais cF (face-center cubic)
================================================================================
 Values of the parameters that define the memory need for DATASET  3.
     intxc =       0    ionmov =       0      iscf =       7    lmnmax =       1
     lnmax =       1     mgfft =      20  mpssoang =       2    mqgrid =    3001
     natom =       2  nloc_mem =       1    nspden =       1   nspinor =       1
    nsppol =       1      nsym =      48    n1xccc =    2501    ntypat =       1
    occopt =       3   xclevel =       1
-    mband =           8        mffmem =           1         mkmem =           8
       mpw =         332          nfft =        8000          nkpt =           8
================================================================================
P This job should need less than                       3.873 Mbytes of memory.
  Rough estimation (10% accuracy) of disk space for files :
_ WF disk file :      0.326 Mbytes ; DEN or POT disk file :      0.063 Mbytes.
================================================================================


 DATASET    4 : space group Fd -3 m (#227); Bravais cF (face-center cubic)
================================================================================
 Values of the parameters that define the memory need for DATASET  4.
     intxc =       0    ionmov =       0      iscf =       7    lmnmax =       1
     lnmax =       1     mgfft =      20  mpssoang =       2    mqgrid =    3001
     natom =       2  nloc_mem =       1    nspden =       1   nspinor =       1
    nsppol =       1      nsym =      48    n1xccc =    2501    ntypat =       1
    occopt =       3   xclevel =       1
-    mband =           8        mffmem =           1         mkmem =           8
       mpw =         332          nfft =        8000          nkpt =           8
================================================================================
P This job should need less than                       3.873 Mbytes of memory.
  Rough estimation (10% accuracy) of disk space for files :
_ WF disk file :      0.326 Mbytes ; DEN or POT disk file :      0.063 Mbytes.
================================================================================


 DATASET    5 : space group Fd -3 m (#227); Bravais cF (face-center cubic)
================================================================================
 Values of the parameters that define the memory need for DATASET  5.
     intxc =       0    ionmov =       0      iscf =       7    lmnmax =       1
     lnmax =       1     mgfft =      20  mpssoang =       2    mqgrid =    3001
     natom =       2  nloc_mem =       1    nspden =       1   nspinor =       1
    nsppol =       1      nsym =      48    n1xccc =    2501    ntypat =       1
    occopt =       3   xclevel =       1
-    mband =           8        mffmem =           1         mkmem =           8
       mpw =         332          nfft =        8000          nkpt =           8
================================================================================
P This job should need less than                       3.873 Mbytes of memory.
  Rough estimation (10% accuracy) of disk space for files :
_ WF disk file :      0.326 Mbytes ; DEN or POT disk file :      0.063 Mbytes.
================================================================================

--------------------------------------------------------------------------------
------------- Echo of variables that govern the present computation ------------
--------------------------------------------------------------------------------
-
- outvars: echo of selected default values                                      
-   iomode0 =  0 , fftalg0 =312 , wfoptalg0 =  0
-
- outvars: echo of global parameters not present in the input file              
-  max_nthreads =    0
-
 -outvars: echo values of preprocessed input variables --------
            acell      6.7034680500E+00  6.7034680500E+00  6.7034680500E+00 Bohr
              amu      1.20110000E+01
             bdgw           1       8
        ddb_ngqpt        2    2    2
 dvdb_rspace_cell        1
             ecut      2.00000000E+01 Hartree
           ecutsm      5.00000000E-01 Hartree
      eph_extrael1     0.00000000E+00
      eph_extrael2     0.00000000E+00
      eph_extrael3     2.00000000E-01
      eph_extrael4     2.00000000E-01
      eph_extrael5     0.00000000E+00
       eph_fermie1     0.00000000E+00 Hartree
       eph_fermie2     0.00000000E+00 Hartree
       eph_fermie3     0.00000000E+00 Hartree
       eph_fermie4     0.00000000E+00 Hartree
       eph_fermie5     6.43113194E-01 Hartree
      eph_intmeth           1
         eph_task          -4
-          fftalg         312
           getddb          20
           getwfk          20
           istwfk        1    0    1    0    0    0    1    0
           jdtset        1    2    3    4    5
              kpt      0.00000000E+00  0.00000000E+00  0.00000000E+00
                       2.50000000E-01  0.00000000E+00  0.00000000E+00
                       5.00000000E-01  0.00000000E+00  0.00000000E+00
                       2.50000000E-01  2.50000000E-01  0.00000000E+00
                       5.00000000E-01  2.50000000E-01  0.00000000E+00
                      -2.50000000E-01  2.50000000E-01  0.00000000E+00
                       5.00000000E-01  5.00000000E-01  0.00000000E+00
                      -2.50000000E-01  5.00000000E-01  2.50000000E-01
         kptrlatt        4    0    0      0    4    0      0    0    4
          kptrlen      1.89602709E+01
P           mkmem           8
            natom           2
            nband1          8
            nband2          8
            nband3          8
            nband4          8
            nband5          8
           ndtset           5
            ngfft          20      20      20
             nkpt           8
           nkptgw           1
             nsym          48
           ntypat           1
              occ1     2.000000  2.000000  2.000000  2.000000  0.000000  0.000000
                       0.000000  0.000000
              occ2     2.000000  2.000000  2.000000  2.000000  0.000000  0.000000
                       0.000000  0.000000
              occ3     2.000000  2.000000  2.000000  2.000000  0.000000  0.000000
                       0.000000  0.000000
                       2.000000  2.000000  2.000000  2.000000  0.000000  0.000000
                       0.000000  0.000000
                       2.000000  2.000000  2.000000  2.000000  0.000000  0.000000
                       0.000000  0.000000
                       2.000000  2.000000  2.000000  2.000000  0.000000  0.000000
                       0.000000  0.000000
                       2.000000  2.000000  2.000000  2.000000  0.000000  0.000000
                       0.000000  0.000000
                       2.000000  2.000000  2.000000  2.000000  0.000000  0.000000
                       0.000000  0.000000
                       2.000000  2.000000  2.000000  2.000000  0.000000  0.000000
                       0.000000  0.000000
                       2.000000  2.000000  2.000000  2.000000  0.000000  0.000000
                       0.000000  0.000000
              occ4     2.000000  2.000000  2.000000  2.000000  0.000000  0.000000
                       0.000000  0.000000
                       2.000000  2.000000  2.000000  2.000000  0.000000  0.000000
                       0.000000  0.000000
                       2.000000  2.000000  2.000000  2.000000  0.000000  0.000000
                       0.000000  0.000000
                       2.000000  2.000000  2.000000  2.000000  0.000000  0.000000
                       0.000000  0.000000
                       2.000000  2.000000  2.000000  2.000000  0.000000  0.000000
                       0.000000  0.000000
                       2.000000  2.000000  2.000000  2.000000  0.000000  0.000000
                       0.000000  0.000000
                       2.000000  2.000000  2.000000  2.000000  0.000000  0.000000
                       0.000000  0.000000
                       2.000000  2.000000  2.000000  2.000000  0.000000  0.000000
                       0.000000  0.000000
              occ5     2.000000  2.000000  2.000000  2.000000  0.000000  0.000000
                       0.000000  0.000000
                       2.000000  2.000000  2.000000  2.000000  0.000000  0.000000
                       0.000000  0.000000
                       2.000000  2.000000  2.000000  2.000000  0.000000  0.000000
                       0.000000  0.000000
                       2.000000  2.000000  2.000000  2.000000  0.000000  0.000000
                       0.000000  0.000000
                       2.000000  2.000000  2.000000  2.000000  0.000000  0.000000
                       0.000000  0.000000
                       2.000000  2.000000  2.000000  2.000000  0.000000  0.000000
                       0.000000  0.000000
                       2.000000  2.000000  2.000000  2.000000  0.000000  0.000000
                       0.000000  0.000000
                       2.000000  2.000000  2.000000  2.000000  0.000000  0.000000
                       0.000000  0.000000
           occopt1          1
           occopt2          1
           occopt3          3
           occopt4          3
           occopt5          3
        optdriver           7
         prtphdos           0
            rprim      0.0000000000E+00  5.0000000000E-01  5.0000000000E-01
                       5.0000000000E-01  0.0000000000E+00  5.0000000000E-01
                       5.0000000000E-01  5.0000000000E-01  0.0000000000E+00
          spgroup         227
           symrel      1  0  0   0  1  0   0  0  1      -1  0  0   0 -1  0   0  0 -1
                       0 -1  1   0 -1  0   1 -1  0       0  1 -1   0  1  0  -1  1  0
                      -1  0  0  -1  0  1  -1  1  0       1  0  0   1  0 -1   1 -1  0
                       0  1 -1   1  0 -1   0  0 -1       0 -1  1  -1  0  1   0  0  1
                      -1  0  0  -1  1  0  -1  0  1       1  0  0   1 -1  0   1  0 -1
                       0 -1  1   1 -1  0   0 -1  0       0  1 -1  -1  1  0   0  1  0
                       1  0  0   0  0  1   0  1  0      -1  0  0   0  0 -1   0 -1  0
                       0  1 -1   0  0 -1   1  0 -1       0 -1  1   0  0  1  -1  0  1
                      -1  0  1  -1  1  0  -1  0  0       1  0 -1   1 -1  0   1  0  0
                       0 -1  0   1 -1  0   0 -1  1       0  1  0  -1  1  0   0  1 -1
                       1  0 -1   0  0 -1   0  1 -1      -1  0  1   0  0  1   0 -1  1
                       0  1  0   0  0  1   1  0  0       0 -1  0   0  0 -1  -1  0  0
                       1  0 -1   0  1 -1   0  0 -1      -1  0  1   0 -1  1   0  0  1
                       0 -1  0   0 -1  1   1 -1  0       0  1  0   0  1 -1  -1  1  0
                      -1  0  1  -1  0  0  -1  1  0       1  0 -1   1  0  0   1 -1  0
                       0  1  0   1  0  0   0  0  1       0 -1  0  -1  0  0   0  0 -1
                       0  0 -1   0  1 -1   1  0 -1       0  0  1   0 -1  1  -1  0  1
                       1 -1  0   0 -1  1   0 -1  0      -1  1  0   0  1 -1   0  1  0
                       0  0  1   1  0  0   0  1  0       0  0 -1  -1  0  0   0 -1  0
                      -1  1  0  -1  0  0  -1  0  1       1 -1  0   1  0  0   1  0 -1
                       0  0  1   0  1  0   1  0  0       0  0 -1   0 -1  0  -1  0  0
                       1 -1  0   0 -1  0   0 -1  1      -1  1  0   0  1  0   0  1 -1
                       0  0 -1   1  0 -1   0  1 -1       0  0  1  -1  0  1   0 -1  1
                      -1  1  0  -1  0  1  -1  0  0       1 -1  0   1  0 -1   1  0  0
            tnons      0.0000000  0.0000000  0.0000000     0.2500000  0.2500000  0.2500000
                       0.0000000  0.0000000  0.0000000     0.2500000  0.2500000  0.2500000
                       0.0000000  0.0000000  0.0000000     0.2500000  0.2500000  0.2500000
                       0.0000000  0.0000000  0.0000000     0.2500000  0.2500000  0.2500000
                       0.0000000  0.0000000  0.0000000     0.2500000  0.2500000  0.2500000
                       0.0000000  0.0000000  0.0000000     0.2500000  0.2500000  0.2500000
                       0.0000000  0.0000000  0.0000000     0.2500000  0.2500000  0.2500000
                       0.0000000  0.0000000  0.0000000     0.2500000  0.2500000  0.2500000
                       0.0000000  0.0000000  0.0000000     0.2500000  0.2500000  0.2500000
                       0.0000000  0.0000000  0.0000000     0.2500000  0.2500000  0.2500000
                       0.0000000  0.0000000  0.0000000     0.2500000  0.2500000  0.2500000
                       0.0000000  0.0000000  0.0000000     0.2500000  0.2500000  0.2500000
                       0.0000000  0.0000000  0.0000000     0.2500000  0.2500000  0.2500000
                       0.0000000  0.0000000  0.0000000     0.2500000  0.2500000  0.2500000
                       0.0000000  0.0000000  0.0000000     0.2500000  0.2500000  0.2500000
                       0.0000000  0.0000000  0.0000000     0.2500000  0.2500000  0.2500000
                       0.0000000  0.0000000  0.0000000     0.2500000  0.2500000  0.2500000
                       0.0000000  0.0000000  0.0000000     0.2500000  0.2500000  0.2500000
                       0.0000000  0.0000000  0.0000000     0.2500000  0.2500000  0.2500000
                       0.0000000  0.0000000  0.0000000     0.2500000  0.2500000  0.2500000
                       0.0000000  0.0000000  0.0000000     0.2500000  0.2500000  0.2500000
                       0.0000000  0.0000000  0.0000000     0.2500000  0.2500000  0.2500000
                       0.0000000  0.0000000  0.0000000     0.2500000  0.2500000  0.2500000
                       0.0000000  0.0000000  0.0000000     0.2500000  0.2500000  0.2500000
           tolwfr      1.00000000E-16
            tmesh1     0.00000000E+00  3.00000000E+01  1.10000000E+01
            tmesh2     0.00000000E+00  3.00000000E+01  1.10000000E+01
            tmesh3     0.00000000E+00  3.00000000E+01  1.10000000E+01
            tmesh4     0.00000000E+00  3.00000000E+01  1.10000000E+01
            tmesh5     3.00000000E+02  0.00000000E+00  1.00000000E+00
            typat      1  1
              wtk        0.01563    0.12500    0.06250    0.09375    0.37500    0.18750
                         0.04688    0.09375
           xangst      0.0000000000E+00  0.0000000000E+00  0.0000000000E+00
                       8.8683062764E-01  8.8683062764E-01  8.8683062764E-01
            xcart      0.0000000000E+00  0.0000000000E+00  0.0000000000E+00
                       1.6758670125E+00  1.6758670125E+00  1.6758670125E+00
             xred      0.0000000000E+00  0.0000000000E+00  0.0000000000E+00
                       2.5000000000E-01  2.5000000000E-01  2.5000000000E-01
            znucl        6.00000

================================================================================

 chkinp: Checking input parameters for consistency, jdtset=   1.

 chkinp: Checking input parameters for consistency, jdtset=   2.

 chkinp: Checking input parameters for consistency, jdtset=   3.

 chkinp: Checking input parameters for consistency, jdtset=   4.

 chkinp: Checking input parameters for consistency, jdtset=   5.

================================================================================
== DATASET  1 ==================================================================
-   mpi_nproc: 1, omp_nthreads: -1 (-1 if OMP is not activated)


--- !DatasetInfo
iteration_state: {dtset: 1, }
dimensions: {natom: 2, nkpt: 8, mband: 8, nsppol: 1, nspinor: 1, nspden: 1, mpw: 332, }
cutoff_energies: {ecut:  20.0, pawecutdg:  -1.0, }
electrons: {nelect:   8.00000000E+00, charge:   0.00000000E+00, occopt:   1.00000000E+00, tsmear:   1.00000000E-02, }
meta: {optdriver: 7, eph_task: -4, }
...

 mkfilename : getwfk/=0, take file _WFK from output of DATASET  20.

 mkfilename : getddb/=0, take file _DDB from output of DATASET  20.

 Exchange-correlation functional for the present dataset will be:
  LDA: new Teter (4/93) with spin-polarized option - ixc=1
 Citation for XC functional:
  S. Goedecker, M. Teter, J. Huetter, PRB 54, 1703 (1996)

- Reading GS states from WFK file: t56o_DS20_WFK
- Reading DDB from file: t56o_DS20_DDB
- Reading DVDB from file: t56o_DS20_DVDB



 Real(R)+Recip(G) space primitive vectors, cartesian coordinates (Bohr,Bohr^-1):
 R(1)=  0.0000000  3.3517340  3.3517340  G(1)= -0.1491765  0.1491765  0.1491765
 R(2)=  3.3517340  0.0000000  3.3517340  G(2)=  0.1491765 -0.1491765  0.1491765
 R(3)=  3.3517340  3.3517340  0.0000000  G(3)=  0.1491765  0.1491765 -0.1491765
 Unit cell volume ucvol=  7.5307571E+01 bohr^3
 Angles (23,13,12)=  6.00000000E+01  6.00000000E+01  6.00000000E+01 degrees
 Now the whole DDB is in central memory
- Cannot find dielectric tensor and Born effective charges in DDB file: t56o_DS20_DDB
 Values initialized with zeros.
- Cannot find quadrupole tensor in DDB file: t56o_DS20_DDB
 Values initialized with zeros.
       Homogeneous q point set in the B.Z.
 Grid q points  :        8
  1)   0.00000000E+00  0.00000000E+00  0.00000000E+00
  2)   5.00000000E-01  0.00000000E+00  0.00000000E+00
  3)   0.00000000E+00  5.00000000E-01  0.00000000E+00
  4)   5.00000000E-01  5.00000000E-01  0.00000000E+00
  5)   0.00000000E+00  0.00000000E+00  5.00000000E-01
  6)   5.00000000E-01  0.00000000E+00  5.00000000E-01
  7)   0.00000000E+00  5.00000000E-01  5.00000000E-01
  8)   5.00000000E-01  5.00000000E-01  5.00000000E-01

 The interatomic forces have been obtained

--- Pseudopotential description ------------------------------------------------
- pspini: atom type   1  psp file is /home/gmatteo/git_repos/abinit/tests/Psps_for_tests/6c.pspnc
- pspatm: opening atomic psp file    /home/gmatteo/git_repos/abinit/tests/Psps_for_tests/6c.pspnc
-  Troullier-Martins psp for element  C         Thu Oct 27 17:29:33 EDT 1994
-  6.00000   4.00000    940714                znucl, zion, pspdat
    1    1    1    1      2001   0.00000      pspcod,pspxc,lmax,lloc,mmax,r2well
    0  10.372  24.987    1   1.4850707        l,e99.0,e99.9,nproj,rcpsp
   0.00000000   0.00000000   0.00000000   0.00000000     rms, ekb1, ekb2, epsatm
    1  15.431  21.987    0   1.4850707        l,e99.0,e99.9,nproj,rcpsp
   0.00000000   0.00000000   0.00000000   0.00000000     rms, ekb1, ekb2, epsatm
    0.83985002509544    0.99012430797080    0.51184907750884   rchrg,fchrg,qchrg
  pspatm : epsatm=    0.92590353
         --- l  ekb(1:nproj) -->
             0    4.921466
 pspatm: atomic psp has been read  and splines computed

   1.48144565E+01                                ecore*ucvol(ha*bohr**3)
--------------------------------------------------------------------------------


 === Gaps, band edges and relative position wrt Fermi level ===
 Indirect band gap semiconductor
 Fundamental gap:     4.517 (eV)
   VBM:    12.800 (eV) at k: [ 0.0000E+00,  0.0000E+00,  0.0000E+00]
   CBM:    17.318 (eV) at k: [ 2.5000E-01,  2.5000E-01,  0.0000E+00]
 Direct gap:         5.626 (eV) at k: [ 0.0000E+00,  0.0000E+00,  0.0000E+00]

 Position of CBM/VBM with respect to the Fermi level:
 Notations: mu_e = Fermi level, D_v = (mu_e - VBM), D_c = (CBM - mu_e)

  T(K)   kT (eV)  mu_e (eV)  D_v (eV)   D_c (eV)
   0.0     0.000    15.266     2.466     2.051
  30.0     0.000    15.257     2.457     2.061
  60.0     0.000    15.247     2.447     2.071
  90.0     0.000    15.237     2.437     2.080
 120.0     0.000    15.228     2.427     2.090
 150.0     0.000    15.218     2.418     2.100
 180.0     0.001    15.208     2.408     2.109
 210.0     0.001    15.199     2.398     2.119
 240.0     0.001    15.189     2.389     2.129
 270.0     0.001    15.179     2.379     2.138
 300.0     0.001    15.169     2.369     2.148



 Number of bands in e-ph self-energy sum: 8
 From bsum_start: 1 to bsum_stop: 8
 Symsigma: 1 Timrev: 1
 Imaginary shift in the denominator (zcut): 0.100 [eV]
 Method for q-space integration:  Standard quadrature
 Only the Imaginary part of Sigma will be computed.
 Number of frequencies along the real axis: 0 , Step: 0.000 [eV]
 Number of frequency in generalized Eliashberg functions: 0
 Number of temperatures: 11 From: 0.000000E+00 to 3.000000E+02 [K]
 Ab-initio q-mesh from DDB file: [2, 2, 2]
 Q-mesh used for self-energy integration [ngqpt]: [2, 2, 2]
 Number of q-points in the IBZ: 3
 asr: 1 chneut: 1
 dipdip: 1 symdynmat: 1
 No special treatment of Frohlich divergence in gkq for q --> 0
 Number of k-points for self-energy corrections: 1
 List of K-points for self-energy corrections:
   1     1  [ 0.0000E+00,  0.0000E+00,  0.0000E+00]   1    8

 === MPI parallelism ===
P Allocating and summing bands from my_bsum_start: 1 up to my_bsum_stop: 8
P Number of CPUs for parallelism over perturbations: 1
P Number of perturbations treated by this CPU: 6
P Number of CPUs for parallelism over q-points: 1
P Number of q-points in the IBZ treated by this proc: 3 of 3
P Number of CPUs for parallelism over bands: 1
P Number of CPUs for parallelism over spins: 1
P Number of CPUs for parallelism over k-points: 1
P Number of k-point in Sigma_nk treated by this proc: 1 of 1

 DVDB file contains all q-points in the IBZ --> Reading DFPT potentials from file.
================================================================================
 Final results in eV.
 Notations:
     eKS: Kohn-Sham energy. eQP: quasi-particle energy.
     eQP - eKS: Difference between the QP and the KS energy.
     SE1(eKS): Real part of the self-energy computed at the KS energy, SE2 for imaginary part.
     Z(eKS): Renormalization factor.
     FAN: Real part of the Fan term at eKS. DW: Debye-Waller term.
     DeKS: KS energy difference between this band and band-1, DeQP same meaning but for eQP.
     OTMS: On-the-mass-shell approximation with eQP ~= eKS + Sigma(omega=eKS)
     TAU(eKS): Lifetime in femtoseconds computed at the KS energy.
     mu_e: Fermi level for given (T, nelect)
 
 
K-point: [ 0.0000E+00,  0.0000E+00,  0.0000E+00], T:    0.0 [K], mu_e:   15.266
   B    eKS    SE2(eKS)  TAU(eKS)  DeKS
   1  -8.789   -0.001    557.2    0.000
   2  12.800   -0.333      1.0   21.589
   3  12.800   -0.333      1.0    0.000
   4  12.800   -0.333      1.0    0.000
   5  18.426   -0.315      1.0    5.626
   6  18.426   -0.315      1.0    0.000
   7  18.426   -0.315      1.0    0.000
   8  26.686   -0.006     52.0    8.260
 
 KS gap:    5.626 (assuming bval:4 ==> bcond:5)
 
============================================================================================
K-point: [ 0.0000E+00,  0.0000E+00,  0.0000E+00], T:   30.0 [K], mu_e:   15.257
   B    eKS    SE2(eKS)  TAU(eKS)  DeKS
   1  -8.789   -0.001    557.2    0.000
   2  12.800   -0.333      1.0   21.589
   3  12.800   -0.333      1.0    0.000
   4  12.800   -0.333      1.0    0.000
   5  18.426   -0.315      1.0    5.626
   6  18.426   -0.315      1.0    0.000
   7  18.426   -0.315      1.0    0.000
   8  26.686   -0.006     52.0    8.260
 
 KS gap:    5.626 (assuming bval:4 ==> bcond:5)
 
============================================================================================
K-point: [ 0.0000E+00,  0.0000E+00,  0.0000E+00], T:   60.0 [K], mu_e:   15.247
   B    eKS    SE2(eKS)  TAU(eKS)  DeKS
   1  -8.789   -0.001    557.2    0.000
   2  12.800   -0.333      1.0   21.589
   3  12.800   -0.333      1.0    0.000
   4  12.800   -0.333      1.0    0.000
   5  18.426   -0.315      1.0    5.626
   6  18.426   -0.315      1.0    0.000
   7  18.426   -0.315      1.0    0.000
   8  26.686   -0.006     52.0    8.260
 
 KS gap:    5.626 (assuming bval:4 ==> bcond:5)
 
============================================================================================
K-point: [ 0.0000E+00,  0.0000E+00,  0.0000E+00], T:   90.0 [K], mu_e:   15.237
   B    eKS    SE2(eKS)  TAU(eKS)  DeKS
   1  -8.789   -0.001    557.2    0.000
   2  12.800   -0.333      1.0   21.589
   3  12.800   -0.333      1.0    0.000
   4  12.800   -0.333      1.0    0.000
   5  18.426   -0.315      1.0    5.626
   6  18.426   -0.315      1.0    0.000
   7  18.426   -0.315      1.0    0.000
   8  26.686   -0.006     52.0    8.260
 
 KS gap:    5.626 (assuming bval:4 ==> bcond:5)
 
============================================================================================
K-point: [ 0.0000E+00,  0.0000E+00,  0.0000E+00], T:  120.0 [K], mu_e:   15.228
   B    eKS    SE2(eKS)  TAU(eKS)  DeKS
   1  -8.789   -0.001    557.1    0.000
   2  12.800   -0.333      1.0   21.589
   3  12.800   -0.333      1.0    0.000
   4  12.800   -0.333      1.0    0.000
   5  18.426   -0.315      1.0    5.626
   6  18.426   -0.315      1.0    0.000
   7  18.426   -0.315      1.0    0.000
   8  26.686   -0.006     52.0    8.260
 
 KS gap:    5.626 (assuming bval:4 ==> bcond:5)
 
============================================================================================
K-point: [ 0.0000E+00,  0.0000E+00,  0.0000E+00], T:  150.0 [K], mu_e:   15.218
   B    eKS    SE2(eKS)  TAU(eKS)  DeKS
   1  -8.789   -0.001    557.1    0.000
   2  12.800   -0.333      1.0   21.589
   3  12.800   -0.333      1.0    0.000
   4  12.800   -0.333      1.0    0.000
   5  18.426   -0.315      1.0    5.626
   6  18.426   -0.315      1.0    0.000
   7  18.426   -0.315      1.0    0.000
   8  26.686   -0.006     51.9    8.260
 
 KS gap:    5.626 (assuming bval:4 ==> bcond:5)
 
============================================================================================
K-point: [ 0.0000E+00,  0.0000E+00,  0.0000E+00], T:  180.0 [K], mu_e:   15.208
   B    eKS    SE2(eKS)  TAU(eKS)  DeKS
   1  -8.789   -0.001    556.9    0.000
   2  12.800   -0.333      1.0   21.589
   3  12.800   -0.333      1.0    0.000
   4  12.800   -0.333      1.0    0.000
   5  18.426   -0.315      1.0    5.626
   6  18.426   -0.315      1.0    0.000
   7  18.426   -0.315      1.0    0.000
   8  26.686   -0.006     51.9    8.260
 
 KS gap:    5.626 (assuming bval:4 ==> bcond:5)
 
============================================================================================
K-point: [ 0.0000E+00,  0.0000E+00,  0.0000E+00], T:  210.0 [K], mu_e:   15.199
   B    eKS    SE2(eKS)  TAU(eKS)  DeKS
   1  -8.789   -0.001    556.5    0.000
   2  12.800   -0.333      1.0   21.589
   3  12.800   -0.333      1.0    0.000
   4  12.800   -0.333      1.0    0.000
   5  18.426   -0.315      1.0    5.626
   6  18.426   -0.315      1.0    0.000
   7  18.426   -0.315      1.0    0.000
   8  26.686   -0.006     51.8    8.260
 
 KS gap:    5.626 (assuming bval:4 ==> bcond:5)
 
============================================================================================
K-point: [ 0.0000E+00,  0.0000E+00,  0.0000E+00], T:  240.0 [K], mu_e:   15.189
   B    eKS    SE2(eKS)  TAU(eKS)  DeKS
   1  -8.789   -0.001    555.7    0.000
   2  12.800   -0.333      1.0   21.589
   3  12.800   -0.333      1.0    0.000
   4  12.800   -0.333      1.0    0.000
   5  18.426   -0.315      1.0    5.626
   6  18.426   -0.315      1.0    0.000
   7  18.426   -0.315      1.0    0.000
   8  26.686   -0.006     51.7    8.260
 
 KS gap:    5.626 (assuming bval:4 ==> bcond:5)
 
============================================================================================
K-point: [ 0.0000E+00,  0.0000E+00,  0.0000E+00], T:  270.0 [K], mu_e:   15.179
   B    eKS    SE2(eKS)  TAU(eKS)  DeKS
   1  -8.789   -0.001    554.3    0.000
   2  12.800   -0.333      1.0   21.589
   3  12.800   -0.333      1.0    0.000
   4  12.800   -0.333      1.0    0.000
   5  18.426   -0.315      1.0    5.626
   6  18.426   -0.315      1.0    0.000
   7  18.426   -0.315      1.0    0.000
   8  26.686   -0.006     51.5    8.260
 
 KS gap:    5.626 (assuming bval:4 ==> bcond:5)
 
============================================================================================
K-point: [ 0.0000E+00,  0.0000E+00,  0.0000E+00], T:  300.0 [K], mu_e:   15.169
   B    eKS    SE2(eKS)  TAU(eKS)  DeKS
   1  -8.789   -0.001    552.2    0.000
   2  12.800   -0.334      1.0   21.589
   3  12.800   -0.334      1.0    0.000
   4  12.800   -0.334      1.0    0.000
   5  18.426   -0.316      1.0    5.626
   6  18.426   -0.316      1.0    0.000
   7  18.426   -0.316      1.0    0.000
   8  26.686   -0.006     51.1    8.260
 
 KS gap:    5.626 (assuming bval:4 ==> bcond:5)
 
============================================================================================

 Entering transport RTA computation driver.
- Reading carrier lifetimes from: t56o_DS1_SIGEPH.nc



 Indirect band gap semiconductor
 Fundamental gap:     4.517 (eV)
   VBM:    12.800 (eV) at k: [ 0.0000E+00,  0.0000E+00,  0.0000E+00]
   CBM:    17.318 (eV) at k: [ 2.5000E-01,  2.5000E-01,  0.0000E+00]
 Direct gap:         5.626 (eV) at k: [ 0.0000E+00,  0.0000E+00,  0.0000E+00]


 === Computation of DOS, VV_DOS and VVTAU_DOS === 
 Linear tetrahedron method.
 Mesh step:  27.2 (meV) with npts: 166
 From emin:  12.8 to emax:  17.3 (eV)
 Number of k-points in the IBZ: 8
 edos%ief == 0 --> Cannot print quantities at the Fermi level.


 Transport (RTA) calculation results:

 Cartesian component of SERTA mobility tensor: xx
 Temperature [K]             e/h density [cm^-3]          e/h mobility [cm^2/Vs]
            0.00        0.00E+00        0.00E+00            0.00            0.00
           30.00        0.00E+00        0.00E+00            0.00            0.00
           60.00        0.20-151        0.00E+00            0.00            0.00
           90.00        0.55E-94        0.00E+00            0.00            0.00
          120.00        0.28E-65        0.00E+00            0.00            0.00
          150.00        0.48E-48        0.00E+00            0.00            0.00
          180.00        0.15E-36        0.00E+00            0.00            0.00
          210.00        0.23E-28        0.00E+00            0.00            0.00
          240.00        0.33E-22        0.00E+00            0.00            0.00
          270.00        0.20E-17        0.00E+00            0.00            0.00
          300.00        0.14E-13        0.00E+00            0.00            0.00


 Cartesian component of SERTA mobility tensor: yy
 Temperature [K]             e/h density [cm^-3]          e/h mobility [cm^2/Vs]
            0.00        0.00E+00        0.00E+00            0.00            0.00
           30.00        0.00E+00        0.00E+00            0.00            0.00
           60.00        0.20-151        0.00E+00            0.00            0.00
           90.00        0.55E-94        0.00E+00            0.00            0.00
          120.00        0.28E-65        0.00E+00            0.00            0.00
          150.00        0.48E-48        0.00E+00            0.00            0.00
          180.00        0.15E-36        0.00E+00            0.00            0.00
          210.00        0.23E-28        0.00E+00            0.00            0.00
          240.00        0.33E-22        0.00E+00            0.00            0.00
          270.00        0.20E-17        0.00E+00            0.00            0.00
          300.00        0.14E-13        0.00E+00            0.00            0.00


 Cartesian component of SERTA mobility tensor: zz
 Temperature [K]             e/h density [cm^-3]          e/h mobility [cm^2/Vs]
            0.00        0.00E+00        0.00E+00            0.00            0.00
           30.00        0.00E+00        0.00E+00            0.00            0.00
           60.00        0.20-151        0.00E+00            0.00            0.00
           90.00        0.55E-94        0.00E+00            0.00            0.00
          120.00        0.28E-65        0.00E+00            0.00            0.00
          150.00        0.48E-48        0.00E+00            0.00            0.00
          180.00        0.15E-36        0.00E+00            0.00            0.00
          210.00        0.23E-28        0.00E+00            0.00            0.00
          240.00        0.33E-22        0.00E+00            0.00            0.00
          270.00        0.20E-17        0.00E+00            0.00            0.00
          300.00        0.14E-13        0.00E+00            0.00            0.00




 Cartesian component of MRTA mobility tensor: xx
 Temperature [K]             e/h density [cm^-3]          e/h mobility [cm^2/Vs]
            0.00        0.00E+00        0.00E+00            0.00            0.00
           30.00        0.00E+00        0.00E+00            0.00            0.00
           60.00        0.20-151        0.00E+00            0.00            0.00
           90.00        0.55E-94        0.00E+00            0.00            0.00
          120.00        0.28E-65        0.00E+00            0.00            0.00
          150.00        0.48E-48        0.00E+00            0.00            0.00
          180.00        0.15E-36        0.00E+00            0.00            0.00
          210.00        0.23E-28        0.00E+00            0.00            0.00
          240.00        0.33E-22        0.00E+00            0.00            0.00
          270.00        0.20E-17        0.00E+00            0.00            0.00
          300.00        0.14E-13        0.00E+00            0.00            0.00


 Cartesian component of MRTA mobility tensor: yy
 Temperature [K]             e/h density [cm^-3]          e/h mobility [cm^2/Vs]
            0.00        0.00E+00        0.00E+00            0.00            0.00
           30.00        0.00E+00        0.00E+00            0.00            0.00
           60.00        0.20-151        0.00E+00            0.00            0.00
           90.00        0.55E-94        0.00E+00            0.00            0.00
          120.00        0.28E-65        0.00E+00            0.00            0.00
          150.00        0.48E-48        0.00E+00            0.00            0.00
          180.00        0.15E-36        0.00E+00            0.00            0.00
          210.00        0.23E-28        0.00E+00            0.00            0.00
          240.00        0.33E-22        0.00E+00            0.00            0.00
          270.00        0.20E-17        0.00E+00            0.00            0.00
          300.00        0.14E-13        0.00E+00            0.00            0.00


 Cartesian component of MRTA mobility tensor: zz
 Temperature [K]             e/h density [cm^-3]          e/h mobility [cm^2/Vs]
            0.00        0.00E+00        0.00E+00            0.00            0.00
           30.00        0.00E+00        0.00E+00            0.00            0.00
           60.00        0.20-151        0.00E+00            0.00            0.00
           90.00        0.55E-94        0.00E+00            0.00            0.00
          120.00        0.28E-65        0.00E+00            0.00            0.00
          150.00        0.48E-48        0.00E+00            0.00            0.00
          180.00        0.15E-36        0.00E+00            0.00            0.00
          210.00        0.23E-28        0.00E+00            0.00            0.00
          240.00        0.33E-22        0.00E+00            0.00            0.00
          270.00        0.20E-17        0.00E+00            0.00            0.00
          300.00        0.14E-13        0.00E+00            0.00            0.00





- Writing RTA transport results to: t56o_DS1_RTA.nc

================================================================================
== DATASET  2 ==================================================================
-   mpi_nproc: 1, omp_nthreads: -1 (-1 if OMP is not activated)


--- !DatasetInfo
iteration_state: {dtset: 2, }
dimensions: {natom: 2, nkpt: 8, mband: 8, nsppol: 1, nspinor: 1, nspden: 1, mpw: 332, }
cutoff_energies: {ecut:  20.0, pawecutdg:  -1.0, }
electrons: {nelect:   8.00000000E+00, charge:   0.00000000E+00, occopt:   1.00000000E+00, tsmear:   1.00000000E-02, }
meta: {optdriver: 7, eph_task: -4, }
...

 mkfilename : getwfk/=0, take file _WFK from output of DATASET  20.

 mkfilename : getddb/=0, take file _DDB from output of DATASET  20.

 mkfilename: getwfkfine from: t50o_DS6_WFK

 Exchange-correlation functional for the present dataset will be:
  LDA: new Teter (4/93) with spin-polarized option - ixc=1
 Citation for XC functional:
  S. Goedecker, M. Teter, J. Huetter, PRB 54, 1703 (1996)

- Reading GS states from WFK file: t56o_DS20_WFK
- Reading DDB from file: t56o_DS20_DDB
- Reading DVDB from file: t56o_DS20_DVDB



 Real(R)+Recip(G) space primitive vectors, cartesian coordinates (Bohr,Bohr^-1):
 R(1)=  0.0000000  3.3517340  3.3517340  G(1)= -0.1491765  0.1491765  0.1491765
 R(2)=  3.3517340  0.0000000  3.3517340  G(2)=  0.1491765 -0.1491765  0.1491765
 R(3)=  3.3517340  3.3517340  0.0000000  G(3)=  0.1491765  0.1491765 -0.1491765
 Unit cell volume ucvol=  7.5307571E+01 bohr^3
 Angles (23,13,12)=  6.00000000E+01  6.00000000E+01  6.00000000E+01 degrees
 Now the whole DDB is in central memory
- Cannot find dielectric tensor and Born effective charges in DDB file: t56o_DS20_DDB
 Values initialized with zeros.
- Cannot find quadrupole tensor in DDB file: t56o_DS20_DDB
 Values initialized with zeros.
       Homogeneous q point set in the B.Z.
 Grid q points  :        8
  1)   0.00000000E+00  0.00000000E+00  0.00000000E+00
  2)   5.00000000E-01  0.00000000E+00  0.00000000E+00
  3)   0.00000000E+00  5.00000000E-01  0.00000000E+00
  4)   5.00000000E-01  5.00000000E-01  0.00000000E+00
  5)   0.00000000E+00  0.00000000E+00  5.00000000E-01
  6)   5.00000000E-01  0.00000000E+00  5.00000000E-01
  7)   0.00000000E+00  5.00000000E-01  5.00000000E-01
  8)   5.00000000E-01  5.00000000E-01  5.00000000E-01

 The interatomic forces have been obtained
--------------------------------------------------------------------------------

 EPH double grid interpolation: will read energies from: t50o_DS6_WFK


 === Gaps, band edges and relative position wrt Fermi level ===
 Indirect band gap semiconductor
 Fundamental gap:     4.517 (eV)
   VBM:    12.800 (eV) at k: [ 0.0000E+00,  0.0000E+00,  0.0000E+00]
   CBM:    17.318 (eV) at k: [ 2.5000E-01,  2.5000E-01,  0.0000E+00]
 Direct gap:         5.626 (eV) at k: [ 0.0000E+00,  0.0000E+00,  0.0000E+00]

 Position of CBM/VBM with respect to the Fermi level:
 Notations: mu_e = Fermi level, D_v = (mu_e - VBM), D_c = (CBM - mu_e)

  T(K)   kT (eV)  mu_e (eV)  D_v (eV)   D_c (eV)
   0.0     0.000    15.739     2.939     1.579
  30.0     0.000    15.729     2.929     1.588
  60.0     0.000    15.719     2.919     1.598
  90.0     0.000    15.710     2.910     1.608
 120.0     0.000    15.700     2.900     1.617
 150.0     0.000    15.690     2.890     1.627
 180.0     0.001    15.681     2.881     1.637
 210.0     0.001    15.671     2.871     1.647
 240.0     0.001    15.661     2.861     1.656
 270.0     0.001    15.652     2.851     1.666
 300.0     0.001    15.642     2.842     1.676



 Number of bands in e-ph self-energy sum: 8
 From bsum_start: 1 to bsum_stop: 8
 Symsigma: 1 Timrev: 1
 Imaginary shift in the denominator (zcut): 0.100 [eV]
 Method for q-space integration:  Standard quadrature
 Using double grid technique with ndiv: 27
 Only the Imaginary part of Sigma will be computed.
 Number of frequencies along the real axis: 0 , Step: 0.000 [eV]
 Number of frequency in generalized Eliashberg functions: 0
 Number of temperatures: 11 From: 0.000000E+00 to 3.000000E+02 [K]
 Ab-initio q-mesh from DDB file: [2, 2, 2]
 Q-mesh used for self-energy integration [ngqpt]: [2, 2, 2]
 Number of q-points in the IBZ: 3
 asr: 1 chneut: 1
 dipdip: 1 symdynmat: 1
 No special treatment of Frohlich divergence in gkq for q --> 0
 Number of k-points for self-energy corrections: 1
 List of K-points for self-energy corrections:
   1     1  [ 0.0000E+00,  0.0000E+00,  0.0000E+00]   1    8

 === MPI parallelism ===
P Allocating and summing bands from my_bsum_start: 1 up to my_bsum_stop: 8
P Number of CPUs for parallelism over perturbations: 1
P Number of perturbations treated by this CPU: 6
P Number of CPUs for parallelism over q-points: 1
P Number of q-points in the IBZ treated by this proc: 3 of 3
P Number of CPUs for parallelism over bands: 1
P Number of CPUs for parallelism over spins: 1
P Number of CPUs for parallelism over k-points: 1
P Number of k-point in Sigma_nk treated by this proc: 1 of 1

 DVDB file contains all q-points in the IBZ --> Reading DFPT potentials from file.
================================================================================
 Final results in eV.
 Notations:
     eKS: Kohn-Sham energy. eQP: quasi-particle energy.
     eQP - eKS: Difference between the QP and the KS energy.
     SE1(eKS): Real part of the self-energy computed at the KS energy, SE2 for imaginary part.
     Z(eKS): Renormalization factor.
     FAN: Real part of the Fan term at eKS. DW: Debye-Waller term.
     DeKS: KS energy difference between this band and band-1, DeQP same meaning but for eQP.
     OTMS: On-the-mass-shell approximation with eQP ~= eKS + Sigma(omega=eKS)
     TAU(eKS): Lifetime in femtoseconds computed at the KS energy.
     mu_e: Fermi level for given (T, nelect)
 
 
K-point: [ 0.0000E+00,  0.0000E+00,  0.0000E+00], T:    0.0 [K], mu_e:   15.739
   B    eKS    SE2(eKS)  TAU(eKS)  DeKS
   1  -8.789   -0.001    509.1    0.000
   2  12.800   -0.052      6.3   21.589
   3  12.800   -0.052      6.3    0.000
   4  12.800   -0.052      6.3    0.000
   5  18.426   -0.102      3.2    5.626
   6  18.426   -0.102      3.2    0.000
   7  18.426   -0.102      3.2    0.000
   8  26.686   -0.054      6.1    8.260
 
 KS gap:    5.626 (assuming bval:4 ==> bcond:5)
 
============================================================================================
K-point: [ 0.0000E+00,  0.0000E+00,  0.0000E+00], T:   30.0 [K], mu_e:   15.729
   B    eKS    SE2(eKS)  TAU(eKS)  DeKS
   1  -8.789   -0.001    509.1    0.000
   2  12.800   -0.052      6.3   21.589
   3  12.800   -0.052      6.3    0.000
   4  12.800   -0.052      6.3    0.000
   5  18.426   -0.102      3.2    5.626
   6  18.426   -0.102      3.2    0.000
   7  18.426   -0.102      3.2    0.000
   8  26.686   -0.054      6.1    8.260
 
 KS gap:    5.626 (assuming bval:4 ==> bcond:5)
 
============================================================================================
K-point: [ 0.0000E+00,  0.0000E+00,  0.0000E+00], T:   60.0 [K], mu_e:   15.719
   B    eKS    SE2(eKS)  TAU(eKS)  DeKS
   1  -8.789   -0.001    509.1    0.000
   2  12.800   -0.052      6.3   21.589
   3  12.800   -0.052      6.3    0.000
   4  12.800   -0.052      6.3    0.000
   5  18.426   -0.102      3.2    5.626
   6  18.426   -0.102      3.2    0.000
   7  18.426   -0.102      3.2    0.000
   8  26.686   -0.054      6.1    8.260
 
 KS gap:    5.626 (assuming bval:4 ==> bcond:5)
 
============================================================================================
K-point: [ 0.0000E+00,  0.0000E+00,  0.0000E+00], T:   90.0 [K], mu_e:   15.710
   B    eKS    SE2(eKS)  TAU(eKS)  DeKS
   1  -8.789   -0.001    509.1    0.000
   2  12.800   -0.052      6.3   21.589
   3  12.800   -0.052      6.3    0.000
   4  12.800   -0.052      6.3    0.000
   5  18.426   -0.102      3.2    5.626
   6  18.426   -0.102      3.2    0.000
   7  18.426   -0.102      3.2    0.000
   8  26.686   -0.054      6.1    8.260
 
 KS gap:    5.626 (assuming bval:4 ==> bcond:5)
 
============================================================================================
K-point: [ 0.0000E+00,  0.0000E+00,  0.0000E+00], T:  120.0 [K], mu_e:   15.700
   B    eKS    SE2(eKS)  TAU(eKS)  DeKS
   1  -8.789   -0.001    509.0    0.000
   2  12.800   -0.052      6.3   21.589
   3  12.800   -0.052      6.3    0.000
   4  12.800   -0.052      6.3    0.000
   5  18.426   -0.102      3.2    5.626
   6  18.426   -0.102      3.2    0.000
   7  18.426   -0.102      3.2    0.000
   8  26.686   -0.054      6.1    8.260
 
 KS gap:    5.626 (assuming bval:4 ==> bcond:5)
 
============================================================================================
K-point: [ 0.0000E+00,  0.0000E+00,  0.0000E+00], T:  150.0 [K], mu_e:   15.690
   B    eKS    SE2(eKS)  TAU(eKS)  DeKS
   1  -8.789   -0.001    509.0    0.000
   2  12.800   -0.052      6.3   21.589
   3  12.800   -0.052      6.3    0.000
   4  12.800   -0.052      6.3    0.000
   5  18.426   -0.102      3.2    5.626
   6  18.426   -0.102      3.2    0.000
   7  18.426   -0.102      3.2    0.000
   8  26.686   -0.054      6.1    8.260
 
 KS gap:    5.626 (assuming bval:4 ==> bcond:5)
 
============================================================================================
K-point: [ 0.0000E+00,  0.0000E+00,  0.0000E+00], T:  180.0 [K], mu_e:   15.681
   B    eKS    SE2(eKS)  TAU(eKS)  DeKS
   1  -8.789   -0.001    508.9    0.000
   2  12.800   -0.052      6.3   21.589
   3  12.800   -0.052      6.3    0.000
   4  12.800   -0.052      6.3    0.000
   5  18.426   -0.102      3.2    5.626
   6  18.426   -0.102      3.2    0.000
   7  18.426   -0.102      3.2    0.000
   8  26.686   -0.054      6.1    8.260
 
 KS gap:    5.626 (assuming bval:4 ==> bcond:5)
 
============================================================================================
K-point: [ 0.0000E+00,  0.0000E+00,  0.0000E+00], T:  210.0 [K], mu_e:   15.671
   B    eKS    SE2(eKS)  TAU(eKS)  DeKS
   1  -8.789   -0.001    508.5    0.000
   2  12.800   -0.052      6.3   21.589
   3  12.800   -0.052      6.3    0.000
   4  12.800   -0.052      6.3    0.000
   5  18.426   -0.102      3.2    5.626
   6  18.426   -0.102      3.2    0.000
   7  18.426   -0.102      3.2    0.000
   8  26.686   -0.054      6.1    8.260
 
 KS gap:    5.626 (assuming bval:4 ==> bcond:5)
 
============================================================================================
K-point: [ 0.0000E+00,  0.0000E+00,  0.0000E+00], T:  240.0 [K], mu_e:   15.661
   B    eKS    SE2(eKS)  TAU(eKS)  DeKS
   1  -8.789   -0.001    507.8    0.000
   2  12.800   -0.052      6.3   21.589
   3  12.800   -0.052      6.3    0.000
   4  12.800   -0.052      6.3    0.000
   5  18.426   -0.103      3.2    5.626
   6  18.426   -0.103      3.2    0.000
   7  18.426   -0.103      3.2    0.000
   8  26.686   -0.054      6.1    8.260
 
 KS gap:    5.626 (assuming bval:4 ==> bcond:5)
 
============================================================================================
K-point: [ 0.0000E+00,  0.0000E+00,  0.0000E+00], T:  270.0 [K], mu_e:   15.652
   B    eKS    SE2(eKS)  TAU(eKS)  DeKS
   1  -8.789   -0.001    506.6    0.000
   2  12.800   -0.052      6.3   21.589
   3  12.800   -0.052      6.3    0.000
   4  12.800   -0.052      6.3    0.000
   5  18.426   -0.103      3.2    5.626
   6  18.426   -0.103      3.2    0.000
   7  18.426   -0.103      3.2    0.000
   8  26.686   -0.055      6.0    8.260
 
 KS gap:    5.626 (assuming bval:4 ==> bcond:5)
 
============================================================================================
K-point: [ 0.0000E+00,  0.0000E+00,  0.0000E+00], T:  300.0 [K], mu_e:   15.642
   B    eKS    SE2(eKS)  TAU(eKS)  DeKS
   1  -8.789   -0.001    504.7    0.000
   2  12.800   -0.052      6.3   21.589
   3  12.800   -0.052      6.3    0.000
   4  12.800   -0.052      6.3    0.000
   5  18.426   -0.103      3.2    5.626
   6  18.426   -0.103      3.2    0.000
   7  18.426   -0.103      3.2    0.000
   8  26.686   -0.055      6.0    8.260
 
 KS gap:    5.626 (assuming bval:4 ==> bcond:5)
 
============================================================================================

 Entering transport RTA computation driver.
- Reading carrier lifetimes from: t56o_DS2_SIGEPH.nc



 Indirect band gap semiconductor
 Fundamental gap:     4.517 (eV)
   VBM:    12.800 (eV) at k: [ 0.0000E+00,  0.0000E+00,  0.0000E+00]
   CBM:    17.318 (eV) at k: [ 2.5000E-01,  2.5000E-01,  0.0000E+00]
 Direct gap:         5.626 (eV) at k: [ 0.0000E+00,  0.0000E+00,  0.0000E+00]


 === Computation of DOS, VV_DOS and VVTAU_DOS === 
 Linear tetrahedron method.
 Mesh step:  27.2 (meV) with npts: 166
 From emin:  12.8 to emax:  17.3 (eV)
 Number of k-points in the IBZ: 8
 edos%ief == 0 --> Cannot print quantities at the Fermi level.


 Transport (RTA) calculation results:

 Cartesian component of SERTA mobility tensor: xx
 Temperature [K]             e/h density [cm^-3]          e/h mobility [cm^2/Vs]
            0.00        0.00E+00        0.00E+00            0.00            0.00
           30.00        0.00E+00        0.00E+00            0.00            0.00
           60.00        0.98-112        0.00E+00            0.00            0.00
           90.00        0.16E-67        0.00E+00            0.00            0.00
          120.00        0.20E-45        0.00E+00            0.00            0.00
          150.00        0.36E-32        0.00E+00            0.00            0.00
          180.00        0.25E-23        0.00E+00            0.00            0.00
          210.00        0.51E-17        0.00E+00            0.00            0.00
          240.00        0.28E-12        0.00E+00            0.00            0.00
          270.00        0.13E-08        0.00E+00            0.00            0.00
          300.00        0.12E-05        0.00E+00            0.00            0.00


 Cartesian component of SERTA mobility tensor: yy
 Temperature [K]             e/h density [cm^-3]          e/h mobility [cm^2/Vs]
            0.00        0.00E+00        0.00E+00            0.00            0.00
           30.00        0.00E+00        0.00E+00            0.00            0.00
           60.00        0.98-112        0.00E+00            0.00            0.00
           90.00        0.16E-67        0.00E+00            0.00            0.00
          120.00        0.20E-45        0.00E+00            0.00            0.00
          150.00        0.36E-32        0.00E+00            0.00            0.00
          180.00        0.25E-23        0.00E+00            0.00            0.00
          210.00        0.51E-17        0.00E+00            0.00            0.00
          240.00        0.28E-12        0.00E+00            0.00            0.00
          270.00        0.13E-08        0.00E+00            0.00            0.00
          300.00        0.12E-05        0.00E+00            0.00            0.00


 Cartesian component of SERTA mobility tensor: zz
 Temperature [K]             e/h density [cm^-3]          e/h mobility [cm^2/Vs]
            0.00        0.00E+00        0.00E+00            0.00            0.00
           30.00        0.00E+00        0.00E+00            0.00            0.00
           60.00        0.98-112        0.00E+00            0.00            0.00
           90.00        0.16E-67        0.00E+00            0.00            0.00
          120.00        0.20E-45        0.00E+00            0.00            0.00
          150.00        0.36E-32        0.00E+00            0.00            0.00
          180.00        0.25E-23        0.00E+00            0.00            0.00
          210.00        0.51E-17        0.00E+00            0.00            0.00
          240.00        0.28E-12        0.00E+00            0.00            0.00
          270.00        0.13E-08        0.00E+00            0.00            0.00
          300.00        0.12E-05        0.00E+00            0.00            0.00




 Cartesian component of MRTA mobility tensor: xx
 Temperature [K]             e/h density [cm^-3]          e/h mobility [cm^2/Vs]
            0.00        0.00E+00        0.00E+00            0.00            0.00
           30.00        0.00E+00        0.00E+00            0.00            0.00
           60.00        0.98-112        0.00E+00            0.00            0.00
           90.00        0.16E-67        0.00E+00            0.00            0.00
          120.00        0.20E-45        0.00E+00            0.00            0.00
          150.00        0.36E-32        0.00E+00            0.00            0.00
          180.00        0.25E-23        0.00E+00            0.00            0.00
          210.00        0.51E-17        0.00E+00            0.00            0.00
          240.00        0.28E-12        0.00E+00            0.00            0.00
          270.00        0.13E-08        0.00E+00            0.00            0.00
          300.00        0.12E-05        0.00E+00            0.00            0.00


 Cartesian component of MRTA mobility tensor: yy
 Temperature [K]             e/h density [cm^-3]          e/h mobility [cm^2/Vs]
            0.00        0.00E+00        0.00E+00            0.00            0.00
           30.00        0.00E+00        0.00E+00            0.00            0.00
           60.00        0.98-112        0.00E+00            0.00            0.00
           90.00        0.16E-67        0.00E+00            0.00            0.00
          120.00        0.20E-45        0.00E+00            0.00            0.00
          150.00        0.36E-32        0.00E+00            0.00            0.00
          180.00        0.25E-23        0.00E+00            0.00            0.00
          210.00        0.51E-17        0.00E+00            0.00            0.00
          240.00        0.28E-12        0.00E+00            0.00            0.00
          270.00        0.13E-08        0.00E+00            0.00            0.00
          300.00        0.12E-05        0.00E+00            0.00            0.00


 Cartesian component of MRTA mobility tensor: zz
 Temperature [K]             e/h density [cm^-3]          e/h mobility [cm^2/Vs]
            0.00        0.00E+00        0.00E+00            0.00            0.00
           30.00        0.00E+00        0.00E+00            0.00            0.00
           60.00        0.98-112        0.00E+00            0.00            0.00
           90.00        0.16E-67        0.00E+00            0.00            0.00
          120.00        0.20E-45        0.00E+00            0.00            0.00
          150.00        0.36E-32        0.00E+00            0.00            0.00
          180.00        0.25E-23        0.00E+00            0.00            0.00
          210.00        0.51E-17        0.00E+00            0.00            0.00
          240.00        0.28E-12        0.00E+00            0.00            0.00
          270.00        0.13E-08        0.00E+00            0.00            0.00
          300.00        0.12E-05        0.00E+00            0.00            0.00





- Writing RTA transport results to: t56o_DS2_RTA.nc

================================================================================
== DATASET  3 ==================================================================
-   mpi_nproc: 1, omp_nthreads: -1 (-1 if OMP is not activated)


--- !DatasetInfo
iteration_state: {dtset: 3, }
dimensions: {natom: 2, nkpt: 8, mband: 8, nsppol: 1, nspinor: 1, nspden: 1, mpw: 332, }
cutoff_energies: {ecut:  20.0, pawecutdg:  -1.0, }
electrons: {nelect:   8.00000000E+00, charge:   0.00000000E+00, occopt:   3.00000000E+00, tsmear:   1.00000000E-02, }
meta: {optdriver: 7, eph_task: -4, }
...

 mkfilename : getwfk/=0, take file _WFK from output of DATASET  20.

 mkfilename : getddb/=0, take file _DDB from output of DATASET  20.

 Exchange-correlation functional for the present dataset will be:
  LDA: new Teter (4/93) with spin-polarized option - ixc=1
 Citation for XC functional:
  S. Goedecker, M. Teter, J. Huetter, PRB 54, 1703 (1996)

- Reading GS states from WFK file: t56o_DS20_WFK
- Reading DDB from file: t56o_DS20_DDB
- Reading DVDB from file: t56o_DS20_DVDB



 Changing occupation scheme as input occopt and tsmear differ from those read from WFK file.
   From WFK file: occopt = 1, tsmear =       0.010000
   From input:    occopt = 3, tsmear =       0.010000

 Adding eph_extrael: 2.000000E-01 to input nelect: 8.000000E+00
 Old fermi level:     5.483715E-01, with nelect:     8.000000E+00
 New fermi level:     6.422151E-01, with nelect:     8.200000E+00
 Real(R)+Recip(G) space primitive vectors, cartesian coordinates (Bohr,Bohr^-1):
 R(1)=  0.0000000  3.3517340  3.3517340  G(1)= -0.1491765  0.1491765  0.1491765
 R(2)=  3.3517340  0.0000000  3.3517340  G(2)=  0.1491765 -0.1491765  0.1491765
 R(3)=  3.3517340  3.3517340  0.0000000  G(3)=  0.1491765  0.1491765 -0.1491765
 Unit cell volume ucvol=  7.5307571E+01 bohr^3
 Angles (23,13,12)=  6.00000000E+01  6.00000000E+01  6.00000000E+01 degrees
 Now the whole DDB is in central memory
- Cannot find dielectric tensor and Born effective charges in DDB file: t56o_DS20_DDB
 Values initialized with zeros.
- Cannot find quadrupole tensor in DDB file: t56o_DS20_DDB
 Values initialized with zeros.
       Homogeneous q point set in the B.Z.
 Grid q points  :        8
  1)   0.00000000E+00  0.00000000E+00  0.00000000E+00
  2)   5.00000000E-01  0.00000000E+00  0.00000000E+00
  3)   0.00000000E+00  5.00000000E-01  0.00000000E+00
  4)   5.00000000E-01  5.00000000E-01  0.00000000E+00
  5)   0.00000000E+00  0.00000000E+00  5.00000000E-01
  6)   5.00000000E-01  0.00000000E+00  5.00000000E-01
  7)   0.00000000E+00  5.00000000E-01  5.00000000E-01
  8)   5.00000000E-01  5.00000000E-01  5.00000000E-01

 The interatomic forces have been obtained
--------------------------------------------------------------------------------


 === Gaps, band edges and relative position wrt Fermi level ===
 Indirect band gap semiconductor
 Fundamental gap:     4.517 (eV)
   VBM:    12.800 (eV) at k: [ 8.0187-316,  7.8959-316,  0.0000E+00]
   CBM:    17.318 (eV) at k: [ 2.5000E-01,  2.5000E-01,  0.0000E+00]
 Direct gap:         5.626 (eV) at k: [ 8.0187-316,  7.8959-316,  0.0000E+00]

 Position of CBM/VBM with respect to the Fermi level:
 Notations: mu_e = Fermi level, D_v = (mu_e - VBM), D_c = (CBM - mu_e)

  T(K)   kT (eV)  mu_e (eV)  D_v (eV)   D_c (eV)
   0.0     0.000    17.595     4.795    -0.278
  30.0     0.000    17.589     4.788    -0.271
  60.0     0.000    17.582     4.782    -0.264
  90.0     0.000    17.575     4.775    -0.257
 120.0     0.000    17.568     4.768    -0.251
 150.0     0.000    17.561     4.761    -0.244
 180.0     0.001    17.554     4.754    -0.237
 210.0     0.001    17.548     4.747    -0.230
 240.0     0.001    17.541     4.741    -0.223
 270.0     0.001    17.534     4.734    -0.216
 300.0     0.001    17.527     4.727    -0.210



 Number of bands in e-ph self-energy sum: 8
 From bsum_start: 1 to bsum_stop: 8
 Symsigma: 1 Timrev: 1
 Imaginary shift in the denominator (zcut): 0.100 [eV]
 Method for q-space integration:  Standard quadrature
 Only the Imaginary part of Sigma will be computed.
 Number of frequencies along the real axis: 0 , Step: 0.000 [eV]
 Number of frequency in generalized Eliashberg functions: 0
 Number of temperatures: 11 From: 0.000000E+00 to 3.000000E+02 [K]
 Ab-initio q-mesh from DDB file: [2, 2, 2]
 Q-mesh used for self-energy integration [ngqpt]: [2, 2, 2]
 Number of q-points in the IBZ: 3
 asr: 1 chneut: 1
 dipdip: 1 symdynmat: 1
 No special treatment of Frohlich divergence in gkq for q --> 0
 Number of k-points for self-energy corrections: 1
 List of K-points for self-energy corrections:
   1     1  [ 0.0000E+00,  0.0000E+00,  0.0000E+00]   1    8

 === MPI parallelism ===
P Allocating and summing bands from my_bsum_start: 1 up to my_bsum_stop: 8
P Number of CPUs for parallelism over perturbations: 1
P Number of perturbations treated by this CPU: 6
P Number of CPUs for parallelism over q-points: 1
P Number of q-points in the IBZ treated by this proc: 3 of 3
P Number of CPUs for parallelism over bands: 1
P Number of CPUs for parallelism over spins: 1
P Number of CPUs for parallelism over k-points: 1
P Number of k-point in Sigma_nk treated by this proc: 1 of 1

 DVDB file contains all q-points in the IBZ --> Reading DFPT potentials from file.
================================================================================
 Final results in eV.
 Notations:
     eKS: Kohn-Sham energy. eQP: quasi-particle energy.
     eQP - eKS: Difference between the QP and the KS energy.
     SE1(eKS): Real part of the self-energy computed at the KS energy, SE2 for imaginary part.
     Z(eKS): Renormalization factor.
     FAN: Real part of the Fan term at eKS. DW: Debye-Waller term.
     DeKS: KS energy difference between this band and band-1, DeQP same meaning but for eQP.
     OTMS: On-the-mass-shell approximation with eQP ~= eKS + Sigma(omega=eKS)
     TAU(eKS): Lifetime in femtoseconds computed at the KS energy.
     mu_e: Fermi level for given (T, nelect)
 
 
K-point: [ 0.0000E+00,  0.0000E+00,  0.0000E+00], T:    0.0 [K], mu_e:   17.595
   B    eKS    SE2(eKS)  TAU(eKS)  DeKS
   1  -8.789   -0.001    557.1    0.000
   2  12.800   -0.333      1.0   21.589
   3  12.800   -0.333      1.0    0.000
   4  12.800   -0.333      1.0    0.000
   5  18.426   -0.304      1.1    5.626
   6  18.426   -0.304      1.1    0.000
   7  18.426   -0.304      1.1    0.000
   8  26.686   -0.006     52.0    8.260
 
 KS gap:    5.626 (assuming bval:4 ==> bcond:5)
 
============================================================================================
K-point: [ 0.0000E+00,  0.0000E+00,  0.0000E+00], T:   30.0 [K], mu_e:   17.589
   B    eKS    SE2(eKS)  TAU(eKS)  DeKS
   1  -8.789   -0.001    557.2    0.000
   2  12.800   -0.333      1.0   21.589
   3  12.800   -0.333      1.0    0.000
   4  12.800   -0.333      1.0    0.000
   5  18.426   -0.313      1.1    5.626
   6  18.426   -0.313      1.1    0.000
   7  18.426   -0.313      1.1    0.000
   8  26.686   -0.006     52.0    8.260
 
 KS gap:    5.626 (assuming bval:4 ==> bcond:5)
 
============================================================================================
K-point: [ 0.0000E+00,  0.0000E+00,  0.0000E+00], T:   60.0 [K], mu_e:   17.582
   B    eKS    SE2(eKS)  TAU(eKS)  DeKS
   1  -8.789   -0.001    557.2    0.000
   2  12.800   -0.333      1.0   21.589
   3  12.800   -0.333      1.0    0.000
   4  12.800   -0.333      1.0    0.000
   5  18.426   -0.313      1.1    5.626
   6  18.426   -0.313      1.1    0.000
   7  18.426   -0.313      1.1    0.000
   8  26.686   -0.006     52.0    8.260
 
 KS gap:    5.626 (assuming bval:4 ==> bcond:5)
 
============================================================================================
K-point: [ 0.0000E+00,  0.0000E+00,  0.0000E+00], T:   90.0 [K], mu_e:   17.575
   B    eKS    SE2(eKS)  TAU(eKS)  DeKS
   1  -8.789   -0.001    557.2    0.000
   2  12.800   -0.333      1.0   21.589
   3  12.800   -0.333      1.0    0.000
   4  12.800   -0.333      1.0    0.000
   5  18.426   -0.313      1.1    5.626
   6  18.426   -0.313      1.1    0.000
   7  18.426   -0.313      1.1    0.000
   8  26.686   -0.006     52.0    8.260
 
 KS gap:    5.626 (assuming bval:4 ==> bcond:5)
 
============================================================================================
K-point: [ 0.0000E+00,  0.0000E+00,  0.0000E+00], T:  120.0 [K], mu_e:   17.568
   B    eKS    SE2(eKS)  TAU(eKS)  DeKS
   1  -8.789   -0.001    557.1    0.000
   2  12.800   -0.333      1.0   21.589
   3  12.800   -0.333      1.0    0.000
   4  12.800   -0.333      1.0    0.000
   5  18.426   -0.313      1.1    5.626
   6  18.426   -0.313      1.1    0.000
   7  18.426   -0.313      1.1    0.000
   8  26.686   -0.006     52.0    8.260
 
 KS gap:    5.626 (assuming bval:4 ==> bcond:5)
 
============================================================================================
K-point: [ 0.0000E+00,  0.0000E+00,  0.0000E+00], T:  150.0 [K], mu_e:   17.561
   B    eKS    SE2(eKS)  TAU(eKS)  DeKS
   1  -8.789   -0.001    557.1    0.000
   2  12.800   -0.333      1.0   21.589
   3  12.800   -0.333      1.0    0.000
   4  12.800   -0.333      1.0    0.000
   5  18.426   -0.313      1.1    5.626
   6  18.426   -0.313      1.1    0.000
   7  18.426   -0.313      1.1    0.000
   8  26.686   -0.006     51.9    8.260
 
 KS gap:    5.626 (assuming bval:4 ==> bcond:5)
 
============================================================================================
K-point: [ 0.0000E+00,  0.0000E+00,  0.0000E+00], T:  180.0 [K], mu_e:   17.554
   B    eKS    SE2(eKS)  TAU(eKS)  DeKS
   1  -8.789   -0.001    556.9    0.000
   2  12.800   -0.333      1.0   21.589
   3  12.800   -0.333      1.0    0.000
   4  12.800   -0.333      1.0    0.000
   5  18.426   -0.313      1.1    5.626
   6  18.426   -0.313      1.1    0.000
   7  18.426   -0.313      1.1    0.000
   8  26.686   -0.006     51.9    8.260
 
 KS gap:    5.626 (assuming bval:4 ==> bcond:5)
 
============================================================================================
K-point: [ 0.0000E+00,  0.0000E+00,  0.0000E+00], T:  210.0 [K], mu_e:   17.548
   B    eKS    SE2(eKS)  TAU(eKS)  DeKS
   1  -8.789   -0.001    556.5    0.000
   2  12.800   -0.333      1.0   21.589
   3  12.800   -0.333      1.0    0.000
   4  12.800   -0.333      1.0    0.000
   5  18.426   -0.313      1.1    5.626
   6  18.426   -0.313      1.1    0.000
   7  18.426   -0.313      1.1    0.000
   8  26.686   -0.006     51.8    8.260
 
 KS gap:    5.626 (assuming bval:4 ==> bcond:5)
 
============================================================================================
K-point: [ 0.0000E+00,  0.0000E+00,  0.0000E+00], T:  240.0 [K], mu_e:   17.541
   B    eKS    SE2(eKS)  TAU(eKS)  DeKS
   1  -8.789   -0.001    555.7    0.000
   2  12.800   -0.333      1.0   21.589
   3  12.800   -0.333      1.0    0.000
   4  12.800   -0.333      1.0    0.000
   5  18.426   -0.313      1.1    5.626
   6  18.426   -0.313      1.1    0.000
   7  18.426   -0.313      1.1    0.000
   8  26.686   -0.006     51.7    8.260
 
 KS gap:    5.626 (assuming bval:4 ==> bcond:5)
 
============================================================================================
K-point: [ 0.0000E+00,  0.0000E+00,  0.0000E+00], T:  270.0 [K], mu_e:   17.534
   B    eKS    SE2(eKS)  TAU(eKS)  DeKS
   1  -8.789   -0.001    554.3    0.000
   2  12.800   -0.333      1.0   21.589
   3  12.800   -0.333      1.0    0.000
   4  12.800   -0.333      1.0    0.000
   5  18.426   -0.314      1.0    5.626
   6  18.426   -0.314      1.0    0.000
   7  18.426   -0.314      1.0    0.000
   8  26.686   -0.006     51.5    8.260
 
 KS gap:    5.626 (assuming bval:4 ==> bcond:5)
 
============================================================================================
K-point: [ 0.0000E+00,  0.0000E+00,  0.0000E+00], T:  300.0 [K], mu_e:   17.527
   B    eKS    SE2(eKS)  TAU(eKS)  DeKS
   1  -8.789   -0.001    552.2    0.000
   2  12.800   -0.334      1.0   21.589
   3  12.800   -0.334      1.0    0.000
   4  12.800   -0.334      1.0    0.000
   5  18.426   -0.314      1.0    5.626
   6  18.426   -0.314      1.0    0.000
   7  18.426   -0.314      1.0    0.000
   8  26.686   -0.006     51.1    8.260
 
 KS gap:    5.626 (assuming bval:4 ==> bcond:5)
 
============================================================================================

 Entering transport RTA computation driver.
- Reading carrier lifetimes from: t56o_DS3_SIGEPH.nc



 Detected metallic system for spin channel: 1
 Cannot detect gap for spin: 1
   Fermi level:   17.476 (eV) with nelect:    8.200


 === Computation of DOS, VV_DOS and VVTAU_DOS === 
 Linear tetrahedron method.
 Mesh step:  27.2 (meV) with npts: 74
 From emin:  16.5 to emax:  18.5 (eV)
 Number of k-points in the IBZ: 8
 edos%ief == 0 --> Cannot print quantities at the Fermi level.


 Transport (RTA) calculation results:

 Cartesian component of SERTA mobility tensor: xx
 Temperature [K]             e/h density [cm^-3]          e/h mobility [cm^2/Vs]
            0.00        0.00E+00        0.00E+00            0.00            0.00
           30.00        0.11E+22        0.00E+00            0.00            0.00
           60.00        0.11E+22        0.00E+00            0.00            0.00
           90.00        0.11E+22        0.67E+08            0.00            0.00
          120.00        0.11E+22        0.51E+12            0.00            0.00
          150.00        0.11E+22        0.11E+15            0.00            0.00
          180.00        0.11E+22        0.39E+16            0.00            0.00
          210.00        0.11E+22        0.51E+17            0.00            0.00
          240.00        0.11E+22        0.35E+18            0.00            0.00
          270.00        0.11E+22        0.15E+19            0.00            0.00
          300.00        0.11E+22        0.50E+19            0.00            0.00


 Cartesian component of SERTA mobility tensor: yy
 Temperature [K]             e/h density [cm^-3]          e/h mobility [cm^2/Vs]
            0.00        0.00E+00        0.00E+00            0.00            0.00
           30.00        0.11E+22        0.00E+00            0.00            0.00
           60.00        0.11E+22        0.00E+00            0.00            0.00
           90.00        0.11E+22        0.67E+08            0.00            0.00
          120.00        0.11E+22        0.51E+12            0.00            0.00
          150.00        0.11E+22        0.11E+15            0.00            0.00
          180.00        0.11E+22        0.39E+16            0.00            0.00
          210.00        0.11E+22        0.51E+17            0.00            0.00
          240.00        0.11E+22        0.35E+18            0.00            0.00
          270.00        0.11E+22        0.15E+19            0.00            0.00
          300.00        0.11E+22        0.50E+19            0.00            0.00


 Cartesian component of SERTA mobility tensor: zz
 Temperature [K]             e/h density [cm^-3]          e/h mobility [cm^2/Vs]
            0.00        0.00E+00        0.00E+00            0.00            0.00
           30.00        0.11E+22        0.00E+00            0.00            0.00
           60.00        0.11E+22        0.00E+00            0.00            0.00
           90.00        0.11E+22        0.67E+08            0.00            0.00
          120.00        0.11E+22        0.51E+12            0.00            0.00
          150.00        0.11E+22        0.11E+15            0.00            0.00
          180.00        0.11E+22        0.39E+16            0.00            0.00
          210.00        0.11E+22        0.51E+17            0.00            0.00
          240.00        0.11E+22        0.35E+18            0.00            0.00
          270.00        0.11E+22        0.15E+19            0.00            0.00
          300.00        0.11E+22        0.50E+19            0.00            0.00




 Cartesian component of MRTA mobility tensor: xx
 Temperature [K]             e/h density [cm^-3]          e/h mobility [cm^2/Vs]
            0.00        0.00E+00        0.00E+00            0.00            0.00
           30.00        0.11E+22        0.00E+00            0.00            0.00
           60.00        0.11E+22        0.00E+00            0.00            0.00
           90.00        0.11E+22        0.67E+08            0.00            0.00
          120.00        0.11E+22        0.51E+12            0.00            0.00
          150.00        0.11E+22        0.11E+15            0.00            0.00
          180.00        0.11E+22        0.39E+16            0.00            0.00
          210.00        0.11E+22        0.51E+17            0.00            0.00
          240.00        0.11E+22        0.35E+18            0.00            0.00
          270.00        0.11E+22        0.15E+19            0.00            0.00
          300.00        0.11E+22        0.50E+19            0.00            0.00


 Cartesian component of MRTA mobility tensor: yy
 Temperature [K]             e/h density [cm^-3]          e/h mobility [cm^2/Vs]
            0.00        0.00E+00        0.00E+00            0.00            0.00
           30.00        0.11E+22        0.00E+00            0.00            0.00
           60.00        0.11E+22        0.00E+00            0.00            0.00
           90.00        0.11E+22        0.67E+08            0.00            0.00
          120.00        0.11E+22        0.51E+12            0.00            0.00
          150.00        0.11E+22        0.11E+15            0.00            0.00
          180.00        0.11E+22        0.39E+16            0.00            0.00
          210.00        0.11E+22        0.51E+17            0.00            0.00
          240.00        0.11E+22        0.35E+18            0.00            0.00
          270.00        0.11E+22        0.15E+19            0.00            0.00
          300.00        0.11E+22        0.50E+19            0.00            0.00


 Cartesian component of MRTA mobility tensor: zz
 Temperature [K]             e/h density [cm^-3]          e/h mobility [cm^2/Vs]
            0.00        0.00E+00        0.00E+00            0.00            0.00
           30.00        0.11E+22        0.00E+00            0.00            0.00
           60.00        0.11E+22        0.00E+00            0.00            0.00
           90.00        0.11E+22        0.67E+08            0.00            0.00
          120.00        0.11E+22        0.51E+12            0.00            0.00
          150.00        0.11E+22        0.11E+15            0.00            0.00
          180.00        0.11E+22        0.39E+16            0.00            0.00
          210.00        0.11E+22        0.51E+17            0.00            0.00
          240.00        0.11E+22        0.35E+18            0.00            0.00
          270.00        0.11E+22        0.15E+19            0.00            0.00
          300.00        0.11E+22        0.50E+19            0.00            0.00





- Writing RTA transport results to: t56o_DS3_RTA.nc

================================================================================
== DATASET  4 ==================================================================
-   mpi_nproc: 1, omp_nthreads: -1 (-1 if OMP is not activated)


--- !DatasetInfo
iteration_state: {dtset: 4, }
dimensions: {natom: 2, nkpt: 8, mband: 8, nsppol: 1, nspinor: 1, nspden: 1, mpw: 332, }
cutoff_energies: {ecut:  20.0, pawecutdg:  -1.0, }
electrons: {nelect:   8.00000000E+00, charge:   0.00000000E+00, occopt:   3.00000000E+00, tsmear:   1.00000000E-02, }
meta: {optdriver: 7, eph_task: -4, }
...

 mkfilename : getwfk/=0, take file _WFK from output of DATASET  20.

 mkfilename : getddb/=0, take file _DDB from output of DATASET  20.

 mkfilename: getwfkfine from: t50o_DS6_WFK

 Exchange-correlation functional for the present dataset will be:
  LDA: new Teter (4/93) with spin-polarized option - ixc=1
 Citation for XC functional:
  S. Goedecker, M. Teter, J. Huetter, PRB 54, 1703 (1996)

- Reading GS states from WFK file: t56o_DS20_WFK
- Reading DDB from file: t56o_DS20_DDB
- Reading DVDB from file: t56o_DS20_DVDB



 Changing occupation scheme as input occopt and tsmear differ from those read from WFK file.
   From WFK file: occopt = 1, tsmear =       0.010000
   From input:    occopt = 3, tsmear =       0.010000

 Adding eph_extrael: 2.000000E-01 to input nelect: 8.000000E+00
 Old fermi level:     5.483715E-01, with nelect:     8.000000E+00
 New fermi level:     6.422151E-01, with nelect:     8.200000E+00
 Real(R)+Recip(G) space primitive vectors, cartesian coordinates (Bohr,Bohr^-1):
 R(1)=  0.0000000  3.3517340  3.3517340  G(1)= -0.1491765  0.1491765  0.1491765
 R(2)=  3.3517340  0.0000000  3.3517340  G(2)=  0.1491765 -0.1491765  0.1491765
 R(3)=  3.3517340  3.3517340  0.0000000  G(3)=  0.1491765  0.1491765 -0.1491765
 Unit cell volume ucvol=  7.5307571E+01 bohr^3
 Angles (23,13,12)=  6.00000000E+01  6.00000000E+01  6.00000000E+01 degrees
 Now the whole DDB is in central memory
- Cannot find dielectric tensor and Born effective charges in DDB file: t56o_DS20_DDB
 Values initialized with zeros.
- Cannot find quadrupole tensor in DDB file: t56o_DS20_DDB
 Values initialized with zeros.
       Homogeneous q point set in the B.Z.
 Grid q points  :        8
  1)   0.00000000E+00  0.00000000E+00  0.00000000E+00
  2)   5.00000000E-01  0.00000000E+00  0.00000000E+00
  3)   0.00000000E+00  5.00000000E-01  0.00000000E+00
  4)   5.00000000E-01  5.00000000E-01  0.00000000E+00
  5)   0.00000000E+00  0.00000000E+00  5.00000000E-01
  6)   5.00000000E-01  0.00000000E+00  5.00000000E-01
  7)   0.00000000E+00  5.00000000E-01  5.00000000E-01
  8)   5.00000000E-01  5.00000000E-01  5.00000000E-01

 The interatomic forces have been obtained
--------------------------------------------------------------------------------

 EPH double grid interpolation: will read energies from: t50o_DS6_WFK


 === Gaps, band edges and relative position wrt Fermi level ===
 Indirect band gap semiconductor
 Fundamental gap:     4.517 (eV)
   VBM:    12.800 (eV) at k: [ 7.7208-316,  8.0926-316,  0.0000E+00]
[...]
   3  12.800   -0.334      1.0    0.000
   4  12.800   -0.334      1.0    0.000
   5  18.426   -0.315      1.0    5.626
   6  18.426   -0.315      1.0    0.000
   7  18.426   -0.315      1.0    0.000
   8  26.686   -0.006     51.1    8.260
 
 KS gap:    5.626 (assuming bval:4 ==> bcond:5)
 
============================================================================================

 Entering transport RTA computation driver.
- Reading carrier lifetimes from: t56o_DS5_SIGEPH.nc



 Detected metallic system for spin channel: 1
 Cannot detect gap for spin: 1
   Fermi level:   17.500 (eV) with nelect:    8.208


 === Computation of DOS, VV_DOS and VVTAU_DOS === 
 Linear tetrahedron method.
 Mesh step:  27.2 (meV) with npts: 74
 From emin:  16.5 to emax:  18.5 (eV)
 Number of k-points in the IBZ: 8
 edos%ief == 0 --> Cannot print quantities at the Fermi level.


 Transport (RTA) calculation results:

 Cartesian component of SERTA mobility tensor: xx
 Temperature [K]             e/h density [cm^-3]          e/h mobility [cm^2/Vs]
          300.00        0.41E+21        0.14E+20            0.00            0.00


 Cartesian component of SERTA mobility tensor: yy
 Temperature [K]             e/h density [cm^-3]          e/h mobility [cm^2/Vs]
          300.00        0.41E+21        0.14E+20            0.00            0.00


 Cartesian component of SERTA mobility tensor: zz
 Temperature [K]             e/h density [cm^-3]          e/h mobility [cm^2/Vs]
          300.00        0.41E+21        0.14E+20            0.00            0.00




 Cartesian component of MRTA mobility tensor: xx
 Temperature [K]             e/h density [cm^-3]          e/h mobility [cm^2/Vs]
          300.00        0.41E+21        0.14E+20            0.00            0.00


 Cartesian component of MRTA mobility tensor: yy
 Temperature [K]             e/h density [cm^-3]          e/h mobility [cm^2/Vs]
          300.00        0.41E+21        0.14E+20            0.00            0.00


 Cartesian component of MRTA mobility tensor: zz
 Temperature [K]             e/h density [cm^-3]          e/h mobility [cm^2/Vs]
          300.00        0.41E+21        0.14E+20            0.00            0.00





- Writing RTA transport results to: t56o_DS5_RTA.nc

== END DATASET(S) ==============================================================
================================================================================
  
 -outvars: echo values of variables after computation  --------
            acell      6.7034680500E+00  6.7034680500E+00  6.7034680500E+00 Bohr
              amu      1.20110000E+01
             bdgw           1       8
        ddb_ngqpt        2    2    2
 dvdb_rspace_cell        1
             ecut      2.00000000E+01 Hartree
           ecutsm      5.00000000E-01 Hartree
      eph_extrael1     0.00000000E+00
      eph_extrael2     0.00000000E+00
      eph_extrael3     2.00000000E-01
      eph_extrael4     2.00000000E-01
      eph_extrael5     0.00000000E+00
       eph_fermie1     0.00000000E+00 Hartree
       eph_fermie2     0.00000000E+00 Hartree
       eph_fermie3     0.00000000E+00 Hartree
       eph_fermie4     0.00000000E+00 Hartree
       eph_fermie5     6.43113194E-01 Hartree
      eph_intmeth           1
         eph_task          -4
           etotal1     0.0000000000E+00
           etotal2     0.0000000000E+00
           etotal3     0.0000000000E+00
           etotal4     0.0000000000E+00
           etotal5     0.0000000000E+00
            fcart1     0.0000000000E+00  0.0000000000E+00  0.0000000000E+00
                       0.0000000000E+00  0.0000000000E+00  0.0000000000E+00
            fcart2     0.0000000000E+00  0.0000000000E+00  0.0000000000E+00
                       0.0000000000E+00  0.0000000000E+00  0.0000000000E+00
            fcart3     0.0000000000E+00  0.0000000000E+00  0.0000000000E+00
                       0.0000000000E+00  0.0000000000E+00  0.0000000000E+00
            fcart4     0.0000000000E+00  0.0000000000E+00  0.0000000000E+00
                       0.0000000000E+00  0.0000000000E+00  0.0000000000E+00
            fcart5     0.0000000000E+00  0.0000000000E+00  0.0000000000E+00
                       0.0000000000E+00  0.0000000000E+00  0.0000000000E+00
-          fftalg         312
           getddb          20
           getwfk          20
           jdtset        1    2    3    4    5
         kptrlatt        4    0    0      0    4    0      0    0    4
          kptrlen      1.89602709E+01
P           mkmem           8
            natom           2
            nband1          8
            nband2          8
            nband3          8
            nband4          8
            nband5          8
           ndtset           5
            ngfft          20      20      20
             nkpt           8
           nkptgw           1
             nsym          48
           ntypat           1
              occ1     2.000000  2.000000  2.000000  2.000000  0.000000  0.000000
                       0.000000  0.000000
              occ2     2.000000  2.000000  2.000000  2.000000  0.000000  0.000000
                       0.000000  0.000000
              occ3     2.000000  2.000000  2.000000  2.000000  0.000000  0.000000
                       0.000000  0.000000
                       2.000000  2.000000  2.000000  2.000000  0.000000  0.000000
                       0.000000  0.000000
                       2.000000  2.000000  2.000000  2.000000  0.000000  0.000000
                       0.000000  0.000000
                       2.000000  2.000000  2.000000  2.000000  0.000000  0.000000
                       0.000000  0.000000
                       2.000000  2.000000  2.000000  2.000000  0.000000  0.000000
                       0.000000  0.000000
                       2.000000  2.000000  2.000000  2.000000  0.000000  0.000000
                       0.000000  0.000000
                       2.000000  2.000000  2.000000  2.000000  0.000000  0.000000
                       0.000000  0.000000
                       2.000000  2.000000  2.000000  2.000000  0.000000  0.000000
                       0.000000  0.000000
              occ4     2.000000  2.000000  2.000000  2.000000  0.000000  0.000000
                       0.000000  0.000000
                       2.000000  2.000000  2.000000  2.000000  0.000000  0.000000
                       0.000000  0.000000
                       2.000000  2.000000  2.000000  2.000000  0.000000  0.000000
                       0.000000  0.000000
                       2.000000  2.000000  2.000000  2.000000  0.000000  0.000000
                       0.000000  0.000000
                       2.000000  2.000000  2.000000  2.000000  0.000000  0.000000
                       0.000000  0.000000
                       2.000000  2.000000  2.000000  2.000000  0.000000  0.000000
                       0.000000  0.000000
                       2.000000  2.000000  2.000000  2.000000  0.000000  0.000000
                       0.000000  0.000000
                       2.000000  2.000000  2.000000  2.000000  0.000000  0.000000
                       0.000000  0.000000
              occ5     2.000000  2.000000  2.000000  2.000000  0.000000  0.000000
                       0.000000  0.000000
                       2.000000  2.000000  2.000000  2.000000  0.000000  0.000000
                       0.000000  0.000000
                       2.000000  2.000000  2.000000  2.000000  0.000000  0.000000
                       0.000000  0.000000
                       2.000000  2.000000  2.000000  2.000000  0.000000  0.000000
                       0.000000  0.000000
                       2.000000  2.000000  2.000000  2.000000  0.000000  0.000000
                       0.000000  0.000000
                       2.000000  2.000000  2.000000  2.000000  0.000000  0.000000
                       0.000000  0.000000
                       2.000000  2.000000  2.000000  2.000000  0.000000  0.000000
                       0.000000  0.000000
                       2.000000  2.000000  2.000000  2.000000  0.000000  0.000000
                       0.000000  0.000000
           occopt1          1
           occopt2          1
           occopt3          3
           occopt4          3
           occopt5          3
        optdriver           7
         prtphdos           0
            rprim      0.0000000000E+00  5.0000000000E-01  5.0000000000E-01
                       5.0000000000E-01  0.0000000000E+00  5.0000000000E-01
                       5.0000000000E-01  5.0000000000E-01  0.0000000000E+00
          spgroup         227
           strten1     0.0000000000E+00  0.0000000000E+00  0.0000000000E+00
                       0.0000000000E+00  0.0000000000E+00  0.0000000000E+00
           strten2     0.0000000000E+00  0.0000000000E+00  0.0000000000E+00
                       0.0000000000E+00  0.0000000000E+00  0.0000000000E+00
           strten3     0.0000000000E+00  0.0000000000E+00  0.0000000000E+00
                       0.0000000000E+00  0.0000000000E+00  0.0000000000E+00
           strten4     0.0000000000E+00  0.0000000000E+00  0.0000000000E+00
                       0.0000000000E+00  0.0000000000E+00  0.0000000000E+00
           strten5     0.0000000000E+00  0.0000000000E+00  0.0000000000E+00
                       0.0000000000E+00  0.0000000000E+00  0.0000000000E+00
           symrel      1  0  0   0  1  0   0  0  1      -1  0  0   0 -1  0   0  0 -1
                       0 -1  1   0 -1  0   1 -1  0       0  1 -1   0  1  0  -1  1  0
                      -1  0  0  -1  0  1  -1  1  0       1  0  0   1  0 -1   1 -1  0
                       0  1 -1   1  0 -1   0  0 -1       0 -1  1  -1  0  1   0  0  1
                      -1  0  0  -1  1  0  -1  0  1       1  0  0   1 -1  0   1  0 -1
                       0 -1  1   1 -1  0   0 -1  0       0  1 -1  -1  1  0   0  1  0
                       1  0  0   0  0  1   0  1  0      -1  0  0   0  0 -1   0 -1  0
                       0  1 -1   0  0 -1   1  0 -1       0 -1  1   0  0  1  -1  0  1
                      -1  0  1  -1  1  0  -1  0  0       1  0 -1   1 -1  0   1  0  0
                       0 -1  0   1 -1  0   0 -1  1       0  1  0  -1  1  0   0  1 -1
                       1  0 -1   0  0 -1   0  1 -1      -1  0  1   0  0  1   0 -1  1
                       0  1  0   0  0  1   1  0  0       0 -1  0   0  0 -1  -1  0  0
                       1  0 -1   0  1 -1   0  0 -1      -1  0  1   0 -1  1   0  0  1
                       0 -1  0   0 -1  1   1 -1  0       0  1  0   0  1 -1  -1  1  0
                      -1  0  1  -1  0  0  -1  1  0       1  0 -1   1  0  0   1 -1  0
                       0  1  0   1  0  0   0  0  1       0 -1  0  -1  0  0   0  0 -1
                       0  0 -1   0  1 -1   1  0 -1       0  0  1   0 -1  1  -1  0  1
                       1 -1  0   0 -1  1   0 -1  0      -1  1  0   0  1 -1   0  1  0
                       0  0  1   1  0  0   0  1  0       0  0 -1  -1  0  0   0 -1  0
                      -1  1  0  -1  0  0  -1  0  1       1 -1  0   1  0  0   1  0 -1
                       0  0  1   0  1  0   1  0  0       0  0 -1   0 -1  0  -1  0  0
                       1 -1  0   0 -1  0   0 -1  1      -1  1  0   0  1  0   0  1 -1
                       0  0 -1   1  0 -1   0  1 -1       0  0  1  -1  0  1   0 -1  1
                      -1  1  0  -1  0  1  -1  0  0       1 -1  0   1  0 -1   1  0  0
            tnons      0.0000000  0.0000000  0.0000000     0.2500000  0.2500000  0.2500000
                       0.0000000  0.0000000  0.0000000     0.2500000  0.2500000  0.2500000
                       0.0000000  0.0000000  0.0000000     0.2500000  0.2500000  0.2500000
                       0.0000000  0.0000000  0.0000000     0.2500000  0.2500000  0.2500000
                       0.0000000  0.0000000  0.0000000     0.2500000  0.2500000  0.2500000
                       0.0000000  0.0000000  0.0000000     0.2500000  0.2500000  0.2500000
                       0.0000000  0.0000000  0.0000000     0.2500000  0.2500000  0.2500000
                       0.0000000  0.0000000  0.0000000     0.2500000  0.2500000  0.2500000
                       0.0000000  0.0000000  0.0000000     0.2500000  0.2500000  0.2500000
                       0.0000000  0.0000000  0.0000000     0.2500000  0.2500000  0.2500000
                       0.0000000  0.0000000  0.0000000     0.2500000  0.2500000  0.2500000
                       0.0000000  0.0000000  0.0000000     0.2500000  0.2500000  0.2500000
                       0.0000000  0.0000000  0.0000000     0.2500000  0.2500000  0.2500000
                       0.0000000  0.0000000  0.0000000     0.2500000  0.2500000  0.2500000
                       0.0000000  0.0000000  0.0000000     0.2500000  0.2500000  0.2500000
                       0.0000000  0.0000000  0.0000000     0.2500000  0.2500000  0.2500000
                       0.0000000  0.0000000  0.0000000     0.2500000  0.2500000  0.2500000
                       0.0000000  0.0000000  0.0000000     0.2500000  0.2500000  0.2500000
                       0.0000000  0.0000000  0.0000000     0.2500000  0.2500000  0.2500000
                       0.0000000  0.0000000  0.0000000     0.2500000  0.2500000  0.2500000
                       0.0000000  0.0000000  0.0000000     0.2500000  0.2500000  0.2500000
                       0.0000000  0.0000000  0.0000000     0.2500000  0.2500000  0.2500000
                       0.0000000  0.0000000  0.0000000     0.2500000  0.2500000  0.2500000
                       0.0000000  0.0000000  0.0000000     0.2500000  0.2500000  0.2500000
           tolwfr      1.00000000E-16
            tmesh1     0.00000000E+00  3.00000000E+01  1.10000000E+01
            tmesh2     0.00000000E+00  3.00000000E+01  1.10000000E+01
            tmesh3     0.00000000E+00  3.00000000E+01  1.10000000E+01
            tmesh4     0.00000000E+00  3.00000000E+01  1.10000000E+01
            tmesh5     3.00000000E+02  0.00000000E+00  1.00000000E+00
            typat      1  1
           xangst      0.0000000000E+00  0.0000000000E+00  0.0000000000E+00
                       8.8683062764E-01  8.8683062764E-01  8.8683062764E-01
            xcart      0.0000000000E+00  0.0000000000E+00  0.0000000000E+00
                       1.6758670125E+00  1.6758670125E+00  1.6758670125E+00
             xred      0.0000000000E+00  0.0000000000E+00  0.0000000000E+00
                       2.5000000000E-01  2.5000000000E-01  2.5000000000E-01
            znucl        6.00000

================================================================================


- Timing analysis has been suppressed with timopt=0



================================================================================

 Suggested references for the acknowledgment of ABINIT usage.

 The users of ABINIT have little formal obligations with respect to the ABINIT group
 (those specified in the GNU General Public License, http://www.gnu.org/copyleft/gpl.txt).
 However, it is common practice in the scientific literature,
 to acknowledge the efforts of people that have made the research possible.
 In this spirit, please find below suggested citations of work written by ABINIT developers,
 corresponding to implementations inside of ABINIT that you have used in the present run.
 Note also that it will be of great value to readers of publications presenting these results,
 to read papers enabling them to understand the theoretical formalism and details
 of the ABINIT implementation.
 For information on why they are suggested, see also https://docs.abinit.org/theory/acknowledgments.
-
- [1] The Abinit project: Impact, environment and recent developments.
- Computer Phys. Comm. 248, 107042 (2020).
- X.Gonze, B. Amadon, G. Antonius, F.Arnardi, L.Baguet, J.-M.Beuken,
- J.Bieder, F.Bottin, J.Bouchet, E.Bousquet, N.Brouwer, F.Bruneval,
- G.Brunin, T.Cavignac, J.-B. Charraud, Wei Chen, M.Cote, S.Cottenier,
- J.Denier, G.Geneste, Ph.Ghosez, M.Giantomassi, Y.Gillet, O.Gingras,
- D.R.Hamann, G.Hautier, Xu He, N.Helbig, N.Holzwarth, Y.Jia, F.Jollet,
- W.Lafargue-Dit-Hauret, K.Lejaeghere, M.A.L.Marques, A.Martin, C.Martins,
- H.P.C. Miranda, F.Naccarato, K. Persson, G.Petretto, V.Planes, Y.Pouillon,
- S.Prokhorenko, F.Ricci, G.-M.Rignanese, A.H.Romero, M.M.Schmitt, M.Torrent,
- M.J.van Setten, B.Van Troeye, M.J.Verstraete, G.Zerah and J.W.Zwanzig
- Comment: the fifth generic paper describing the ABINIT project.
- Note that a version of this paper, that is not formatted for Computer Phys. Comm. 
- is available at https://www.abinit.org/sites/default/files/ABINIT20.pdf .
- The licence allows the authors to put it on the Web.
- DOI and bibtex: see https://docs.abinit.org/theory/bibliography/#gonze2020
-
- [2] Recent developments in the ABINIT software package.
- Computer Phys. Comm. 205, 106 (2016).
- X.Gonze, F.Jollet, F.Abreu Araujo, D.Adams, B.Amadon, T.Applencourt,
- C.Audouze, J.-M.Beuken, J.Bieder, A.Bokhanchuk, E.Bousquet, F.Bruneval
- D.Caliste, M.Cote, F.Dahm, F.Da Pieve, M.Delaveau, M.Di Gennaro,
- B.Dorado, C.Espejo, G.Geneste, L.Genovese, A.Gerossier, M.Giantomassi,
- Y.Gillet, D.R.Hamann, L.He, G.Jomard, J.Laflamme Janssen, S.Le Roux,
- A.Levitt, A.Lherbier, F.Liu, I.Lukacevic, A.Martin, C.Martins,
- M.J.T.Oliveira, S.Ponce, Y.Pouillon, T.Rangel, G.-M.Rignanese,
- A.H.Romero, B.Rousseau, O.Rubel, A.A.Shukri, M.Stankovski, M.Torrent,
- M.J.Van Setten, B.Van Troeye, M.J.Verstraete, D.Waroquier, J.Wiktor,
- B.Xu, A.Zhou, J.W.Zwanziger.
- Comment: the fourth generic paper describing the ABINIT project.
- Note that a version of this paper, that is not formatted for Computer Phys. Comm. 
- is available at https://www.abinit.org/sites/default/files/ABINIT16.pdf .
- The licence allows the authors to put it on the Web.
- DOI and bibtex: see https://docs.abinit.org/theory/bibliography/#gonze2016
-
- [3] ABINIT: First-principles approach of materials and nanosystem properties.
- Computer Phys. Comm. 180, 2582-2615 (2009).
- X. Gonze, B. Amadon, P.-M. Anglade, J.-M. Beuken, F. Bottin, P. Boulanger, F. Bruneval,
- D. Caliste, R. Caracas, M. Cote, T. Deutsch, L. Genovese, Ph. Ghosez, M. Giantomassi
- S. Goedecker, D.R. Hamann, P. Hermet, F. Jollet, G. Jomard, S. Leroux, M. Mancini, S. Mazevet,
- M.J.T. Oliveira, G. Onida, Y. Pouillon, T. Rangel, G.-M. Rignanese, D. Sangalli, R. Shaltaf,
- M. Torrent, M.J. Verstraete, G. Zerah, J.W. Zwanziger
- Comment: the third generic paper describing the ABINIT project.
- Note that a version of this paper, that is not formatted for Computer Phys. Comm. 
- is available at https://www.abinit.org/sites/default/files/ABINIT_CPC_v10.pdf .
- The licence allows the authors to put it on the Web.
- DOI and bibtex: see https://docs.abinit.org/theory/bibliography/#gonze2009
-
- And optionally:
-
- [4] A brief introduction to the ABINIT software package.
- Z. Kristallogr. 220, 558-562 (2005).
- X. Gonze, G.-M. Rignanese, M. Verstraete, J.-M. Beuken, Y. Pouillon, R. Caracas, F. Jollet,
- M. Torrent, G. Zerah, M. Mikami, Ph. Ghosez, M. Veithen, J.-Y. Raty, V. Olevano, F. Bruneval,
- L. Reining, R. Godby, G. Onida, D.R. Hamann, and D.C. Allan.
- Comment: the second generic paper describing the ABINIT project. Note that this paper
- should be cited especially if you are using the GW part of ABINIT, as several authors
- of this part are not in the list of authors of the first or third paper.
- The .pdf of the latter paper is available at https://www.abinit.org/sites/default/files/zfk_0505-06_558-562.pdf.
- Note that it should not redistributed (Copyright by Oldenburg Wissenschaftverlag,
- the licence allows the authors to put it on the Web).
- DOI and bibtex: see https://docs.abinit.org/theory/bibliography/#gonze2005
-
- Proc.   0 individual time (sec): cpu=          2.9  wall=          4.6

================================================================================

 Calculation completed.
.Delivered  18 WARNINGs and  11 COMMENTs to log file.
+Overall time at end (sec) : cpu=          2.9  wall=          4.6
