
.Version 9.8.2 of ABINIT 
.(MPI version, prepared for a x86_64_linux_gnu9.1 computer) 

.Copyright (C) 1998-2022 ABINIT group . 
 ABINIT comes with ABSOLUTELY NO WARRANTY.
 It is free software, and you are welcome to redistribute it
 under certain conditions (GNU General Public License,
 see ~abinit/COPYING or http://www.gnu.org/copyleft/gpl.txt).

 ABINIT is a project of the Universite Catholique de Louvain,
 Corning Inc. and other collaborators, see ~abinit/doc/developers/contributors.txt .
 Please read https://docs.abinit.org/theory/acknowledgments for suggested
 acknowledgments of the ABINIT effort.
 For more information, see https://www.abinit.org .

.Starting date : Tue 17 Jan 2023.
- ( at 09h47 )
  
- input  file    -> /tmp/abinit/hotfix-usepawu_prof/Test_suite/v9_t78/t78.abi
- output file    -> t78.abo
- root for input  files -> t78i
- root for output files -> t78o


 invars1: COMMENT -
  With nspinor=2 and usepaw=1, pawspnorb=1 has been switched on by default.

 invars1: COMMENT -
  With nspinor=2 and usepaw=1, pawspnorb=1 has been switched on by default.

 invars1: COMMENT -
  With nspinor=2 and usepaw=1, pawspnorb=1 has been switched on by default.

 invars1: COMMENT -
  With nspinor=2 and usepaw=1, pawspnorb=1 has been switched on by default.

 invars1: COMMENT -
  With nspinor=2 and usepaw=1, pawspnorb=1 has been switched on by default.

 invars1: COMMENT -
  With nspinor=2 and usepaw=1, pawspnorb=1 has been switched on by default.

 invars1: COMMENT -
  With nspinor=2 and usepaw=1, pawspnorb=1 has been switched on by default.

 invars1: COMMENT -
  With nspinor=2 and usepaw=1, pawspnorb=1 has been switched on by default.

 DATASET    1 : magnetic group, Shubnikov type III
 Fedorov space group R3 2 (#155); Bravais hR (rhombohedral)
 Magnetic point group 32' (# 30)
================================================================================
 Values of the parameters that define the memory need for DATASET  1.
     intxc =       0    ionmov =       0      iscf =      17    lmnmax =      18
     lnmax =       6     mgfft =      16  mpssoang =       3    mqgrid =    3001
     natom =       1  nloc_mem =       2    nspden =       4   nspinor =       2
    nsppol =       1      nsym =       6    n1xccc =       1    ntypat =       1
    occopt =       7   xclevel =       1
-    mband =          24        mffmem =           1         mkmem =           1
       mpw =         201          nfft =        4096          nkpt =           1
 PAW method is used; the additional fine FFT grid is defined by:
   mgfftf=        24    nfftf =     13824
================================================================================
P This job should need less than                      11.076 Mbytes of memory.
  Rough estimation (10% accuracy) of disk space for files :
_ WF disk file :      0.076 Mbytes ; DEN or POT disk file :      0.107 Mbytes.
================================================================================


 DATASET    2 : magnetic group, Shubnikov type III
 Fedorov space group R3 2 (#155); Bravais hR (rhombohedral)
 Magnetic point group 32' (# 30)
================================================================================
 Values of the parameters that define the memory need for DATASET  2.
     intxc =       0    ionmov =       0      iscf =      17    lmnmax =      18
     lnmax =       6     mgfft =      16  mpssoang =       3    mqgrid =    3001
     natom =       1  nloc_mem =       2    nspden =       4   nspinor =       2
    nsppol =       1      nsym =       6    n1xccc =       1    ntypat =       1
    occopt =       7   xclevel =       1
-    mband =          24        mffmem =           1         mkmem =           1
       mpw =         201          nfft =        4096          nkpt =           1
 PAW method is used; the additional fine FFT grid is defined by:
   mgfftf=        24    nfftf =     13824
================================================================================
P This job should need less than                      11.076 Mbytes of memory.
  Rough estimation (10% accuracy) of disk space for files :
_ WF disk file :      0.076 Mbytes ; DEN or POT disk file :      0.107 Mbytes.
================================================================================


 DATASET    3 : magnetic group, Shubnikov type III
 Fedorov space group R3 2 (#155); Bravais hR (rhombohedral)
 Magnetic point group 32' (# 30)
================================================================================
 Values of the parameters that define the memory need for DATASET  3.
     intxc =       0    ionmov =       0      iscf =      17    lmnmax =      18
     lnmax =       6     mgfft =      16  mpssoang =       3    mqgrid =    3001
     natom =       1  nloc_mem =       2    nspden =       4   nspinor =       2
    nsppol =       1      nsym =       6    n1xccc =       1    ntypat =       1
    occopt =       7   xclevel =       1
-    mband =          24        mffmem =           1         mkmem =           1
       mpw =         201          nfft =        4096          nkpt =           1
 PAW method is used; the additional fine FFT grid is defined by:
   mgfftf=        24    nfftf =     13824
================================================================================
P This job should need less than                      11.076 Mbytes of memory.
  Rough estimation (10% accuracy) of disk space for files :
_ WF disk file :      0.076 Mbytes ; DEN or POT disk file :      0.107 Mbytes.
================================================================================


 DATASET    4 : magnetic group, Shubnikov type III
 Fedorov space group R3 2 (#155); Bravais hR (rhombohedral)
 Magnetic point group 32' (# 30)
================================================================================
 Values of the parameters that define the memory need for DATASET  4.
     intxc =       0    ionmov =       0      iscf =      17    lmnmax =      18
     lnmax =       6     mgfft =      16  mpssoang =       3    mqgrid =    3001
     natom =       1  nloc_mem =       2    nspden =       4   nspinor =       2
    nsppol =       1      nsym =       6    n1xccc =       1    ntypat =       1
    occopt =       7   xclevel =       1
-    mband =          24        mffmem =           1         mkmem =           1
       mpw =         201          nfft =        4096          nkpt =           1
 PAW method is used; the additional fine FFT grid is defined by:
   mgfftf=        24    nfftf =     13824
================================================================================
P This job should need less than                      11.076 Mbytes of memory.
  Rough estimation (10% accuracy) of disk space for files :
_ WF disk file :      0.076 Mbytes ; DEN or POT disk file :      0.107 Mbytes.
================================================================================


 DATASET    5 : magnetic group, Shubnikov type III
 Fedorov space group R3 2 (#155); Bravais hR (rhombohedral)
 Magnetic point group 32' (# 30)
================================================================================
 Values of the parameters that define the memory need for DATASET  5.
     intxc =       0    ionmov =       0      iscf =      17    lmnmax =      18
     lnmax =       6     mgfft =      16  mpssoang =       3    mqgrid =    3001
     natom =       1  nloc_mem =       2    nspden =       4   nspinor =       2
    nsppol =       1      nsym =       6    n1xccc =       1    ntypat =       1
    occopt =       7   xclevel =       1
-    mband =          24        mffmem =           1         mkmem =           1
       mpw =         201          nfft =        4096          nkpt =           1
 PAW method is used; the additional fine FFT grid is defined by:
   mgfftf=        24    nfftf =     13824
================================================================================
P This job should need less than                      11.076 Mbytes of memory.
  Rough estimation (10% accuracy) of disk space for files :
_ WF disk file :      0.076 Mbytes ; DEN or POT disk file :      0.107 Mbytes.
================================================================================


 DATASET    6 : magnetic group, Shubnikov type III
 Fedorov space group R3 2 (#155); Bravais hR (rhombohedral)
 Magnetic point group 32' (# 30)
================================================================================
 Values of the parameters that define the memory need for DATASET  6.
     intxc =       0    ionmov =       0      iscf =      17    lmnmax =      18
     lnmax =       6     mgfft =      16  mpssoang =       3    mqgrid =    3001
     natom =       1  nloc_mem =       2    nspden =       4   nspinor =       2
    nsppol =       1      nsym =       6    n1xccc =       1    ntypat =       1
    occopt =       7   xclevel =       1
-    mband =          24        mffmem =           1         mkmem =           1
       mpw =         201          nfft =        4096          nkpt =           1
 PAW method is used; the additional fine FFT grid is defined by:
   mgfftf=        24    nfftf =     13824
================================================================================
P This job should need less than                      11.076 Mbytes of memory.
  Rough estimation (10% accuracy) of disk space for files :
_ WF disk file :      0.076 Mbytes ; DEN or POT disk file :      0.107 Mbytes.
================================================================================


 DATASET    7 : magnetic group, Shubnikov type III
 Fedorov space group R3 2 (#155); Bravais hR (rhombohedral)
 Magnetic point group 32' (# 30)
================================================================================
 Values of the parameters that define the memory need for DATASET  7.
     intxc =       0    ionmov =       0      iscf =      17    lmnmax =      18
     lnmax =       6     mgfft =      16  mpssoang =       3    mqgrid =    3001
     natom =       1  nloc_mem =       2    nspden =       4   nspinor =       2
    nsppol =       1      nsym =       6    n1xccc =       1    ntypat =       1
    occopt =       7   xclevel =       1
-    mband =          24        mffmem =           1         mkmem =           1
       mpw =         201          nfft =        4096          nkpt =           1
 PAW method is used; the additional fine FFT grid is defined by:
   mgfftf=        24    nfftf =     13824
================================================================================
P This job should need less than                      11.076 Mbytes of memory.
  Rough estimation (10% accuracy) of disk space for files :
_ WF disk file :      0.076 Mbytes ; DEN or POT disk file :      0.107 Mbytes.
================================================================================


 DATASET    8 : magnetic group, Shubnikov type III
 Fedorov space group R3 2 (#155); Bravais hR (rhombohedral)
 Magnetic point group 32' (# 30)
================================================================================
 Values of the parameters that define the memory need for DATASET  8.
     intxc =       0    ionmov =       0      iscf =      17    lmnmax =      18
     lnmax =       6     mgfft =      16  mpssoang =       3    mqgrid =    3001
     natom =       1  nloc_mem =       2    nspden =       4   nspinor =       2
    nsppol =       1      nsym =       6    n1xccc =       1    ntypat =       1
    occopt =       7   xclevel =       1
-    mband =          24        mffmem =           1         mkmem =           1
       mpw =         201          nfft =        4096          nkpt =           1
 PAW method is used; the additional fine FFT grid is defined by:
   mgfftf=        24    nfftf =     13824
================================================================================
P This job should need less than                      11.076 Mbytes of memory.
  Rough estimation (10% accuracy) of disk space for files :
_ WF disk file :      0.076 Mbytes ; DEN or POT disk file :      0.107 Mbytes.
================================================================================

--------------------------------------------------------------------------------
------------- Echo of variables that govern the present computation ------------
--------------------------------------------------------------------------------
-
- outvars: echo of selected default values                                      
-   iomode0 =  0 , fftalg0 =512 , wfoptalg0 = 10
-
- outvars: echo of global parameters not present in the input file              
-  max_nthreads =    1
-
 -outvars: echo values of preprocessed input variables --------
            acell      5.4200000000E+00  5.4200000000E+00  5.4200000000E+00 Bohr
              amu      5.58470000E+01
      chksymbreak           0
             ecut      1.40000000E+01 Hartree
-          fftalg         512
           getden1          0
           getden2          0
           getden3          1
           getden4          2
           getden5          1
           getden6          2
           getden7          1
           getden8          2
           getwfk1          0
           getwfk2          0
           getwfk3          1
           getwfk4          2
           getwfk5          1
           getwfk6          2
           getwfk7          1
           getwfk8          2
           istwfk        1
              ixc           7
           jdtset        1    2    3    4    5    6    7    8
            jpawu      1.10247976E-01 Hartree
           kptopt           3
         kptrlatt        1    0    0      0    1    0      0    0    1
          kptrlen      4.69385769E+00
            lpawu           2
P           mkmem           1
            natom           1
            nband          24
           ndtset           8
            ngfft          16      16      16
          ngfftdg          24      24      24
             nkpt           1
            nline          12
           nspden           4
          nspinor           2
            nstep1         15
            nstep2         15
            nstep3         15
            nstep4         15
            nstep5         50
            nstep6         50
            nstep7         15
            nstep8         15
             nsym           6
           ntypat           1
              occ      1.000000  1.000000  1.000000  1.000000  1.000000  1.000000
                       1.000000  1.000000  1.000000  1.000000  1.000000  1.000000
                       1.000000  1.000000  1.000000  1.000000  0.000000  0.000000
                       0.000000  0.000000  0.000000  0.000000  0.000000  0.000000
           occopt           7
     optdcmagpawu1          1
     optdcmagpawu2          1
     optdcmagpawu3          1
     optdcmagpawu4          1
     optdcmagpawu5          3
     optdcmagpawu6          3
     optdcmagpawu7          3
     optdcmagpawu8          3
        pawcpxocc           2
        pawecutdg      3.00000000E+01 Hartree
        pawprtvol          -3
        pawspnorb           1
           prtvol           3
        ptgroupma          30
            rprim     -5.0000000000E-01  5.0000000000E-01  5.0000000000E-01
                       5.0000000000E-01 -5.0000000000E-01  5.0000000000E-01
                       5.0000000000E-01  5.0000000000E-01 -5.0000000000E-01
          spgroup         155
           spinat      1.0000000000E+00  1.0000000000E+00  1.0000000000E+00
           symafm        1   -1    1   -1    1   -1
           symrel      1  0  0   0  1  0   0  0  1       0 -1  0  -1  0  0   0  0 -1
                       0  1  0   0  0  1   1  0  0       0  0 -1   0 -1  0  -1  0  0
                       0  0  1   1  0  0   0  1  0      -1  0  0   0  0 -1   0 -1  0
           tolvrs      1.00000000E-15
           tsmear      5.06690467E-03 Hartree
            typat      1
            upawu      2.20495952E-01 Hartree
          usepawu1          1
          usepawu2         -1
          usepawu3          4
          usepawu4         -4
          usepawu5          1
          usepawu6         -1
          usepawu7          4
          usepawu8         -4
           useylm           1
            znucl       26.00000

================================================================================

 chkinp: Checking input parameters for consistency, jdtset=   1.

 chkinp: Checking input parameters for consistency, jdtset=   2.

 chkinp: Checking input parameters for consistency, jdtset=   3.

 chkinp: Checking input parameters for consistency, jdtset=   4.

 chkinp: Checking input parameters for consistency, jdtset=   5.

 chkinp: Checking input parameters for consistency, jdtset=   6.

 chkinp: Checking input parameters for consistency, jdtset=   7.

 chkinp: Checking input parameters for consistency, jdtset=   8.

================================================================================
== DATASET  1 ==================================================================
-   mpi_nproc: 1, omp_nthreads: 1 (-1 if OMP is not activated)


--- !DatasetInfo
iteration_state: {dtset: 1, }
dimensions: {natom: 1, nkpt: 1, mband: 24, nsppol: 1, nspinor: 2, nspden: 4, mpw: 201, }
cutoff_energies: {ecut:  14.0, pawecutdg:  30.0, }
electrons: {nelect:   1.60000000E+01, charge:   0.00000000E+00, occopt:   7.00000000E+00, tsmear:   5.06690467E-03, }
meta: {optdriver: 0, ionmov: 0, optcell: 0, iscf: 17, paral_kgb: 0, }
...

 Exchange-correlation functional for the present dataset will be:
  LDA: Perdew-Wang 92 LSD fit to Ceperley-Alder data - ixc=7
 Citation for XC functional:
  J.P.Perdew and Y.Wang, PRB 45, 13244 (1992)

 Real(R)+Recip(G) space primitive vectors, cartesian coordinates (Bohr,Bohr^-1):
 R(1)= -2.7100000  2.7100000  2.7100000  G(1)=  0.0000000  0.1845018  0.1845018
 R(2)=  2.7100000 -2.7100000  2.7100000  G(2)=  0.1845018  0.0000000  0.1845018
 R(3)=  2.7100000  2.7100000 -2.7100000  G(3)=  0.1845018  0.1845018  0.0000000
 Unit cell volume ucvol=  7.9610044E+01 bohr^3
 Angles (23,13,12)=  1.09471221E+02  1.09471221E+02  1.09471221E+02 degrees

 Coarse grid specifications (used for wave-functions):

 getcut: wavevector=  0.0000  0.0000  0.0000  ngfft=  16  16  16
         ecut(hartree)=     14.000   => boxcut(ratio)=   2.03166

 Fine grid specifications (used for densities):

 getcut: wavevector=  0.0000  0.0000  0.0000  ngfft=  24  24  24
         ecut(hartree)=     30.000   => boxcut(ratio)=   2.07375

--- Pseudopotential description ------------------------------------------------
- pspini: atom type   1  psp file is /cea/home/pmc/baguetl/PROGRAM/abinit/hotfix-usepawu/tests/Psps_for_tests/26fe.lda2.paw
- pspatm: opening atomic psp file    /cea/home/pmc/baguetl/PROGRAM/abinit/hotfix-usepawu/tests/Psps_for_tests/26fe.lda2.paw
- Paw atomic data for element Fe - Generated by AtomPAW + AtomPAW2Abinit v3.2.0
- 26.00000  16.00000  20120514                znucl, zion, pspdat
    7    7    2    0      1061   0.00000      pspcod,pspxc,lmax,lloc,mmax,r2well
 Pseudopotential format is: paw4
 basis_size (lnmax)=  6 (lmn_size= 18), orbitals=   0   0   1   1   2   2
 Spheres core radius: rc_sph= 2.01261267
 3 radial meshes are used:
  - mesh 1: r(i)=AA*[exp(BB*(i-1))-1], size=1061 , AA= 0.31899E-03 BB= 0.82938E-02
  - mesh 2: r(i)=AA*[exp(BB*(i-1))-1], size=1121 , AA= 0.31899E-03 BB= 0.82938E-02
  - mesh 3: r(i)=AA*[exp(BB*(i-1))-1], size=1249 , AA= 0.31899E-03 BB= 0.82938E-02
 Shapefunction is BESSEL type: shapef(r,l)=aa(1,l)*jl(q(1,l)*r)+aa(2,l)*jl(q(2,l)*r)
 Radius for shape functions = sphere core radius
 Radial grid used for partial waves is grid 1
 Radial grid used for projectors is grid  2
 Radial grid used for (t)core density is grid 1
 Radial grid used for Vloc is grid 3
 Radial grid used for pseudo valence density is grid 3
 Compensation charge density is taken into account in XC energy/potential
 pspatm: atomic psp has been read  and splines computed

   4.81326310E+02                                ecore*ucvol(ha*bohr**3)
--------------------------------------------------------------------------------

P newkpt: treating     24 bands with npw=     201 for ikpt=   1 by node    0
_setup2: Arith. and geom. avg. npw (full set) are     201.000     201.000


 ******************************************
 DFT+U Method used: FLL
 Magnetic DC : option_interaction = 1
 ******************************************

================================================================================

--- !BeginCycle
iteration_state: {dtset: 1, }
solver: {iscf: 17, nstep: 15, nline: 12, wfoptalg: 10, }
tolerances: {tolvrs: 1.00E-15, }
...

     iter   Etot(hartree)      deltaE(h)  residm     nres2
 ETOT  1  -124.19643649400    -1.242E+02 3.935E+00 2.387E+01
 ETOT  2  -125.15652431725    -9.601E-01 3.324E-04 6.626E+00
 ETOT  3  -125.21560612890    -5.908E-02 8.090E-03 1.464E+00
 ETOT  4  -125.20962034825     5.986E-03 7.488E-04 1.865E-01
 ETOT  5  -125.21100816869    -1.388E-03 1.276E-04 2.085E-02
 ETOT  6  -125.21099106399     1.710E-05 1.532E-05 1.014E-03
 ETOT  7  -125.21101839102    -2.733E-05 1.621E-05 1.579E-04
 ETOT  8  -125.21102293798    -4.547E-06 1.760E-06 1.969E-05
 ETOT  9  -125.21102403166    -1.094E-06 5.696E-07 2.775E-06
 ETOT 10  -125.21102415703    -1.254E-07 1.271E-08 4.821E-07
 ETOT 11  -125.21102416854    -1.151E-08 1.920E-08 2.682E-08
 ETOT 12  -125.21102417056    -2.022E-09 8.915E-10 5.396E-09
 ETOT 13  -125.21102417074    -1.791E-10 6.487E-10 5.898E-10
 ETOT 14  -125.21102417076    -1.874E-11 7.427E-11 6.160E-11
 ETOT 15  -125.21102417076    -1.293E-12 4.425E-10 8.843E-12

 Cartesian components of stress tensor (hartree/bohr^3)
  sigma(1 1)= -2.65343544E-04  sigma(3 2)= -9.35050232E-04
  sigma(2 2)= -2.65343544E-04  sigma(3 1)= -9.35050232E-04
  sigma(3 3)= -2.65343544E-04  sigma(2 1)= -9.35050232E-04


 scprqt:  WARNING -
  nstep=   15 was not enough SCF cycles to converge;
  density residual=  8.843E-12 exceeds tolvrs=  1.000E-15


--- !ResultsGS
iteration_state: {dtset: 1, }
comment   : Summary of ground state results
lattice_vectors:
- [ -2.7100000,   2.7100000,   2.7100000, ]
- [  2.7100000,  -2.7100000,   2.7100000, ]
- [  2.7100000,   2.7100000,  -2.7100000, ]
lattice_lengths: [   4.69386,    4.69386,    4.69386, ]
lattice_angles: [109.471, 109.471, 109.471, ] # degrees, (23, 13, 12)
lattice_volume:   7.9610044E+01
convergence: {deltae: -1.293E-12, res2:  8.843E-12, residm:  4.425E-10, diffor: null, }
etotal    :  -1.25211024E+02
entropy   :   0.00000000E+00
fermie    :   5.40913219E-01
cartesian_stress_tensor: # hartree/bohr^3
- [ -2.65343544E-04,  -9.35050232E-04,  -9.35050232E-04, ]
- [ -9.35050232E-04,  -2.65343544E-04,  -9.35050232E-04, ]
- [ -9.35050232E-04,  -9.35050232E-04,  -2.65343544E-04, ]
pressure_GPa:   7.8067E+00
xred      :
- [  0.0000E+00,   0.0000E+00,   0.0000E+00, Fe]
cartesian_forces: # hartree/bohr
- [  0.00000000E+00,   0.00000000E+00,   0.00000000E+00, ]
force_length_stats: {min:   0.00000000E+00, max:   0.00000000E+00, mean:   0.00000000E+00, }
...

 Integrated electronic and magnetization densities in atomic spheres:
 ---------------------------------------------------------------------
 Radius=ratsph(iatom), smearing ratsm=  0.0000. mag(i)=approximate local magnetic moment.
 Atom    Radius     Total density     mag(x)      mag(y)      mag(z)
    1   2.01261       14.196189      2.217815    2.217815    2.217815
 ---------------------------------------------------------------------
 Total magnetization (spheres)       2.217815    2.217815    2.217815
 Total magnetization (exact)         2.309273    2.309273    2.309273

 PAW TEST:
 ==== Compensation charge inside spheres ============
 The following values must be close to each other ...
 Compensation charge over spherical meshes =      9.790162907285175
 Compensation charge over fine fft grid    =      9.790151747135413

 ==== Results concerning PAW augmentation regions ====

 Total pseudopotential strength Dij (hartree):
 Atom #  1 - Component up-up
   === REAL PART:
  -2.05768   0.24160   0.00000   0.00000   0.00000   0.00000   0.00000   0.00000  -0.00697  -0.00695  -0.00000  -0.00695   0.00000   0.00627   0.00626   0.00000   0.00626   0.00000
   0.24160   0.07148   0.00000   0.00000   0.00000   0.00000   0.00000   0.00000   0.00098   0.00098   0.00000   0.00098   0.00000  -0.00072  -0.00072   0.00000  -0.00072   0.00000
   0.00000   0.00000  -1.57914  -0.00667  -0.00669   0.07041   0.00076   0.00076   0.00000   0.00000   0.00000   0.00000   0.00000   0.00000   0.00000   0.00000   0.00000   0.00000
   0.00000   0.00000  -0.00667  -1.57914  -0.00667   0.00076   0.07041   0.00076   0.00000  -0.00000   0.00000   0.00000   0.00000   0.00000   0.00000   0.00000  -0.00000   0.00000
   0.00000   0.00000  -0.00669  -0.00667  -1.57914   0.00076   0.00076   0.07041   0.00000   0.00000   0.00000   0.00000   0.00000   0.00000   0.00000   0.00000   0.00000   0.00000
   0.00000   0.00000   0.07041   0.00076   0.00076   0.02130  -0.00007  -0.00007   0.00000   0.00000   0.00000   0.00000   0.00000   0.00000   0.00000   0.00000   0.00000   0.00000
   0.00000   0.00000   0.00076   0.07041   0.00076  -0.00007   0.02130  -0.00007   0.00000   0.00000   0.00000   0.00000   0.00000   0.00000   0.00000   0.00000   0.00000   0.00000
   0.00000   0.00000   0.00076   0.00076   0.07041  -0.00007  -0.00007   0.02130   0.00000   0.00000   0.00000   0.00000   0.00000   0.00000   0.00000   0.00000   0.00000   0.00000
  -0.00697   0.00098   0.00000   0.00000   0.00000   0.00000   0.00000   0.00000  -0.21343  -0.01785   0.01272  -0.01785   0.00000  -0.28281   0.00870  -0.00576   0.00870   0.00000
  -0.00695   0.00098   0.00000  -0.00000   0.00000   0.00000   0.00000   0.00000  -0.01785  -0.21343  -0.00630  -0.01776   0.01064   0.00870  -0.28281   0.00286   0.00867  -0.00486
  -0.00000   0.00000   0.00000   0.00000   0.00000   0.00000   0.00000   0.00000   0.01272  -0.00630  -0.22932  -0.00630   0.00000  -0.00576   0.00286  -0.27470   0.00286   0.00000
  -0.00695   0.00098   0.00000   0.00000   0.00000   0.00000   0.00000   0.00000  -0.01785  -0.01776  -0.00630  -0.21343  -0.01064   0.00870   0.00867   0.00286  -0.28281   0.00486
   0.00000   0.00000   0.00000   0.00000   0.00000   0.00000   0.00000   0.00000   0.00000   0.01064   0.00000  -0.01064  -0.22931   0.00000  -0.00486   0.00000   0.00486  -0.27470
   0.00627  -0.00072   0.00000   0.00000   0.00000   0.00000   0.00000   0.00000  -0.28281   0.00870  -0.00576   0.00870   0.00000   0.68967  -0.01366   0.00986  -0.01366   0.00000
   0.00626  -0.00072   0.00000   0.00000   0.00000   0.00000   0.00000   0.00000   0.00870  -0.28281   0.00286   0.00867  -0.00486  -0.01366   0.68968  -0.00489  -0.01359   0.00825
   0.00000   0.00000   0.00000   0.00000   0.00000   0.00000   0.00000   0.00000  -0.00576   0.00286  -0.27470   0.00286   0.00000   0.00986  -0.00489   0.67720  -0.00489   0.00000
   0.00626  -0.00072   0.00000  -0.00000   0.00000   0.00000   0.00000   0.00000   0.00870   0.00867   0.00286  -0.28281   0.00486  -0.01366  -0.01359  -0.00489   0.68968  -0.00825
   0.00000   0.00000   0.00000   0.00000   0.00000   0.00000   0.00000   0.00000   0.00000  -0.00486   0.00000   0.00486  -0.27470   0.00000   0.00825   0.00000  -0.00825   0.67721
   max. value=  6.90E-01, min. value= -2.06E+00
   === IMAGINARY PART:
  -0.00000  -0.00000  -0.00000  -0.00000  -0.00000  -0.00000  -0.00000  -0.00000  -0.00000  -0.00000  -0.00000  -0.00000  -0.00000  -0.00000  -0.00000  -0.00000  -0.00000  -0.00000
   0.00000  -0.00000  -0.00000  -0.00000  -0.00000  -0.00000  -0.00000  -0.00000  -0.00000  -0.00000  -0.00000  -0.00000  -0.00000  -0.00000  -0.00000  -0.00000  -0.00000  -0.00000
   0.00000   0.00000  -0.00000  -0.00000  -0.01850  -0.00000  -0.00000   0.00273  -0.00000  -0.00000  -0.00000  -0.00000  -0.00000  -0.00000  -0.00000  -0.00000  -0.00000  -0.00000
   0.00000   0.00000   0.00000  -0.00000  -0.00000  -0.00000  -0.00000  -0.00000  -0.00000  -0.00000  -0.00000  -0.00000  -0.00000  -0.00000  -0.00000  -0.00000  -0.00000  -0.00000
   0.00000   0.00000   0.01850   0.00000  -0.00000  -0.00273  -0.00000  -0.00000  -0.00000  -0.00000  -0.00000  -0.00000  -0.00000  -0.00000  -0.00000  -0.00000  -0.00000  -0.00000
   0.00000   0.00000   0.00000   0.00000   0.00273  -0.00000  -0.00000  -0.00041  -0.00000  -0.00000  -0.00000  -0.00000  -0.00000  -0.00000  -0.00000  -0.00000  -0.00000  -0.00000
   0.00000   0.00000   0.00000   0.00000   0.00000   0.00000  -0.00000  -0.00000  -0.00000  -0.00000  -0.00000  -0.00000  -0.00000  -0.00000  -0.00000  -0.00000  -0.00000  -0.00000
   0.00000   0.00000  -0.00273   0.00000   0.00000   0.00041   0.00000  -0.00000  -0.00000  -0.00000  -0.00000  -0.00000  -0.00000  -0.00000  -0.00000  -0.00000  -0.00000  -0.00000
   0.00000   0.00000   0.00000   0.00000   0.00000   0.00000   0.00000   0.00000  -0.00000   0.00399  -0.00000  -0.00399   0.00020  -0.00000  -0.00137  -0.00000   0.00137   0.00138
   0.00000   0.00000   0.00000   0.00000   0.00000   0.00000   0.00000   0.00000  -0.00399  -0.00000  -0.00263   0.00254  -0.00154   0.00137  -0.00000   0.00090  -0.00015   0.00053
   0.00000   0.00000   0.00000   0.00000   0.00000   0.00000   0.00000   0.00000   0.00000   0.00263  -0.00000  -0.00263   0.00001  -0.00000  -0.00090  -0.00000   0.00090  -0.00000
   0.00000   0.00000   0.00000   0.00000   0.00000   0.00000   0.00000   0.00000   0.00399  -0.00254   0.00263  -0.00000  -0.00154  -0.00137   0.00015  -0.00090  -0.00000   0.00053
   0.00000   0.00000   0.00000   0.00000   0.00000   0.00000   0.00000   0.00000  -0.00020   0.00154  -0.00001   0.00154  -0.00000  -0.00138  -0.00053   0.00000  -0.00053  -0.00000
   0.00000   0.00000   0.00000   0.00000   0.00000   0.00000   0.00000   0.00000   0.00000  -0.00137   0.00000   0.00137   0.00138  -0.00000   0.00322  -0.00000  -0.00322  -0.00053
   0.00000   0.00000   0.00000   0.00000   0.00000   0.00000   0.00000   0.00000   0.00137   0.00000   0.00090  -0.00015   0.00053  -0.00322  -0.00000  -0.00212   0.00170  -0.00125
   0.00000   0.00000   0.00000   0.00000   0.00000   0.00000   0.00000   0.00000   0.00000  -0.00090   0.00000   0.00090  -0.00000   0.00000   0.00212  -0.00000  -0.00212   0.00001
   0.00000   0.00000   0.00000   0.00000   0.00000   0.00000   0.00000   0.00000  -0.00137   0.00015  -0.00090   0.00000   0.00053   0.00322  -0.00170   0.00212  -0.00000  -0.00125
   0.00000   0.00000   0.00000   0.00000   0.00000   0.00000   0.00000   0.00000  -0.00138  -0.00053   0.00000  -0.00053   0.00000   0.00053   0.00125  -0.00001   0.00125  -0.00000
   max. value=  1.85E-02, min. value= -3.99E-03
 Atom #  1 - Component dwn-dwn
   === REAL PART:
  -2.00449   0.22840   0.00000   0.00000   0.00000   0.00000   0.00000   0.00000  -0.00450  -0.00452   0.00000  -0.00452   0.00000   0.00408   0.00410  -0.00000   0.00410   0.00000
   0.22840   0.07287   0.00000   0.00000   0.00000   0.00000   0.00000   0.00000   0.00065   0.00065  -0.00000   0.00065   0.00000  -0.00045  -0.00045  -0.00000  -0.00045   0.00000
   0.00000   0.00000  -1.50919  -0.00440  -0.00439   0.06138   0.00051   0.00051   0.00000   0.00000   0.00000   0.00000   0.00000   0.00000   0.00000   0.00000   0.00000   0.00000
   0.00000   0.00000  -0.00440  -1.50919  -0.00440   0.00051   0.06138   0.00051   0.00000   0.00000   0.00000  -0.00000   0.00000   0.00000  -0.00000   0.00000   0.00000   0.00000
   0.00000   0.00000  -0.00439  -0.00440  -1.50919   0.00051   0.00051   0.06138   0.00000   0.00000   0.00000   0.00000   0.00000   0.00000   0.00000   0.00000   0.00000   0.00000
   0.00000   0.00000   0.06138   0.00051   0.00051   0.02213  -0.00004  -0.00004   0.00000   0.00000   0.00000   0.00000   0.00000   0.00000   0.00000   0.00000   0.00000   0.00000
   0.00000   0.00000   0.00051   0.06138   0.00051  -0.00004   0.02213  -0.00004   0.00000   0.00000   0.00000   0.00000   0.00000   0.00000   0.00000   0.00000   0.00000   0.00000
   0.00000   0.00000   0.00051   0.00051   0.06138  -0.00004  -0.00004   0.02213   0.00000   0.00000   0.00000   0.00000   0.00000   0.00000   0.00000   0.00000   0.00000   0.00000
  -0.00450   0.00065   0.00000   0.00000   0.00000   0.00000   0.00000   0.00000   0.06876   0.00461   0.01765   0.00461   0.00000  -0.40877  -0.00053  -0.00756  -0.00053   0.00000
  -0.00452   0.00065   0.00000   0.00000   0.00000   0.00000   0.00000   0.00000   0.00461   0.06876  -0.00888   0.00452   0.01566  -0.00053  -0.40877   0.00380  -0.00051  -0.00668
   0.00000  -0.00000   0.00000   0.00000   0.00000   0.00000   0.00000   0.00000   0.01765  -0.00888   0.10780  -0.00888   0.00000  -0.00756   0.00380  -0.42333   0.00380   0.00000
  -0.00452   0.00065   0.00000  -0.00000   0.00000   0.00000   0.00000   0.00000   0.00461   0.00452  -0.00888   0.06876  -0.01566  -0.00053  -0.00051   0.00380  -0.40877   0.00668
   0.00000   0.00000   0.00000   0.00000   0.00000   0.00000   0.00000   0.00000   0.00000   0.01566   0.00000  -0.01566   0.10779   0.00000  -0.00668   0.00000   0.00668  -0.42333
   0.00408  -0.00045   0.00000   0.00000   0.00000   0.00000   0.00000   0.00000  -0.40877  -0.00053  -0.00756  -0.00053   0.00000   0.91439   0.00394   0.01375   0.00394   0.00000
   0.00410  -0.00045   0.00000  -0.00000   0.00000   0.00000   0.00000   0.00000  -0.00053  -0.40877   0.00380  -0.00051  -0.00668   0.00394   0.91438  -0.00692   0.00387   0.01220
  -0.00000  -0.00000   0.00000   0.00000   0.00000   0.00000   0.00000   0.00000  -0.00756   0.00380  -0.42333   0.00380   0.00000   0.01375  -0.00692   0.94524  -0.00692   0.00000
   0.00410  -0.00045   0.00000   0.00000   0.00000   0.00000   0.00000   0.00000  -0.00053  -0.00051   0.00380  -0.40877   0.00668   0.00394   0.00387  -0.00692   0.91438  -0.01220
   0.00000   0.00000   0.00000   0.00000   0.00000   0.00000   0.00000   0.00000   0.00000  -0.00668   0.00000   0.00668  -0.42333   0.00000   0.01220   0.00000  -0.01220   0.94523
   max. value=  9.45E-01, min. value= -2.00E+00
   === IMAGINARY PART:
  -0.00000  -0.00000  -0.00000  -0.00000  -0.00000  -0.00000  -0.00000  -0.00000  -0.00000  -0.00000  -0.00000  -0.00000  -0.00000  -0.00000  -0.00000  -0.00000  -0.00000  -0.00000
   0.00000  -0.00000  -0.00000  -0.00000  -0.00000  -0.00000  -0.00000  -0.00000  -0.00000  -0.00000  -0.00000  -0.00000  -0.00000  -0.00000  -0.00000  -0.00000  -0.00000  -0.00000
   0.00000   0.00000  -0.00000  -0.00000   0.01850  -0.00000  -0.00000  -0.00273  -0.00000  -0.00000  -0.00000  -0.00000  -0.00000  -0.00000  -0.00000  -0.00000  -0.00000  -0.00000
   0.00000   0.00000   0.00000  -0.00000  -0.00000  -0.00000  -0.00000  -0.00000  -0.00000  -0.00000  -0.00000  -0.00000  -0.00000  -0.00000  -0.00000  -0.00000  -0.00000  -0.00000
   0.00000   0.00000  -0.01850   0.00000  -0.00000   0.00273  -0.00000  -0.00000  -0.00000  -0.00000  -0.00000  -0.00000  -0.00000  -0.00000  -0.00000  -0.00000  -0.00000  -0.00000
   0.00000   0.00000   0.00000   0.00000  -0.00273  -0.00000  -0.00000   0.00041  -0.00000  -0.00000  -0.00000  -0.00000  -0.00000  -0.00000  -0.00000  -0.00000  -0.00000  -0.00000
   0.00000   0.00000   0.00000   0.00000   0.00000   0.00000  -0.00000  -0.00000  -0.00000  -0.00000  -0.00000  -0.00000  -0.00000  -0.00000  -0.00000  -0.00000  -0.00000  -0.00000
   0.00000   0.00000   0.00273   0.00000   0.00000  -0.00041   0.00000  -0.00000  -0.00000  -0.00000  -0.00000  -0.00000  -0.00000  -0.00000  -0.00000  -0.00000  -0.00000  -0.00000
   0.00000   0.00000   0.00000   0.00000   0.00000   0.00000   0.00000   0.00000  -0.00000   0.01425  -0.00000  -0.01425   0.01300  -0.00000  -0.00488  -0.00000   0.00488  -0.00590
   0.00000   0.00000   0.00000   0.00000   0.00000   0.00000   0.00000   0.00000  -0.01425  -0.00000  -0.00881   0.01570  -0.00506   0.00488  -0.00000   0.00302  -0.00610   0.00173
   0.00000   0.00000   0.00000   0.00000   0.00000   0.00000   0.00000   0.00000   0.00000   0.00881  -0.00000  -0.00881   0.00003  -0.00000  -0.00302  -0.00000   0.00302  -0.00001
   0.00000   0.00000   0.00000   0.00000   0.00000   0.00000   0.00000   0.00000   0.01425  -0.01570   0.00881  -0.00000  -0.00506  -0.00488   0.00610  -0.00302  -0.00000   0.00173
   0.00000   0.00000   0.00000   0.00000   0.00000   0.00000   0.00000   0.00000  -0.01300   0.00506  -0.00003   0.00506  -0.00000   0.00590  -0.00173   0.00001  -0.00173  -0.00000
   0.00000   0.00000   0.00000   0.00000   0.00000   0.00000   0.00000   0.00000   0.00000  -0.00488   0.00000   0.00488  -0.00590  -0.00000   0.01149  -0.00000  -0.01149   0.01118
   0.00000   0.00000   0.00000   0.00000   0.00000   0.00000   0.00000   0.00000   0.00488   0.00000   0.00302  -0.00610   0.00173  -0.01149  -0.00000  -0.00710   0.01301  -0.00408
   0.00000   0.00000   0.00000   0.00000   0.00000   0.00000   0.00000   0.00000   0.00000  -0.00302   0.00000   0.00302  -0.00001   0.00000   0.00710  -0.00000  -0.00710   0.00003
   0.00000   0.00000   0.00000   0.00000   0.00000   0.00000   0.00000   0.00000  -0.00488   0.00610  -0.00302   0.00000   0.00173   0.01149  -0.01301   0.00710  -0.00000  -0.00408
   0.00000   0.00000   0.00000   0.00000   0.00000   0.00000   0.00000   0.00000   0.00590  -0.00173   0.00001  -0.00173   0.00000  -0.01118   0.00408  -0.00003   0.00408  -0.00000
   max. value=  1.42E-02, min. value= -1.85E-02
 Atom #  1 - Component up-dwn
   === REAL PART:
  -0.02659   0.00660   0.00000   0.00000   0.00000   0.00000   0.00000   0.00000  -0.00122  -0.00123   0.00000  -0.00122  -0.00000   0.00108   0.00109  -0.00000   0.00108   0.00000
   0.00660  -0.00070   0.00000   0.00000   0.00000   0.00000   0.00000   0.00000   0.00016   0.00016  -0.00000   0.00016   0.00000  -0.00014  -0.00014  -0.00000  -0.00014   0.00000
   0.00000   0.00000  -0.03498  -0.00115  -0.00114   0.00452   0.00013   0.00013   0.00000   0.00000   0.00000   0.00000   0.00000   0.00000   0.00000   0.00000   0.00000   0.00000
   0.00000   0.00000  -0.00115  -0.03498   0.01737   0.00013   0.00452  -0.00261   0.00000   0.00000   0.00000   0.00000   0.00000   0.00000   0.00000   0.00000   0.00000   0.00000
   0.00000   0.00000  -0.00114  -0.01964  -0.03498   0.00013   0.00286   0.00452   0.00000   0.00000   0.00000  -0.00000   0.00000  -0.00000   0.00000   0.00000   0.00000   0.00000
   0.00000   0.00000   0.00452   0.00013   0.00013  -0.00041  -0.00001  -0.00001   0.00000   0.00000   0.00000   0.00000   0.00000   0.00000   0.00000   0.00000   0.00000   0.00000
   0.00000   0.00000   0.00013   0.00452  -0.00261  -0.00001  -0.00041   0.00039   0.00000   0.00000   0.00000   0.00000   0.00000   0.00000   0.00000   0.00000   0.00000   0.00000
   0.00000   0.00000   0.00013   0.00286   0.00452  -0.00001  -0.00042  -0.00041   0.00000   0.00000   0.00000   0.00000   0.00000   0.00000   0.00000   0.00000   0.00000   0.00000
  -0.00122   0.00016   0.00000   0.00000   0.00000   0.00000   0.00000   0.00000  -0.14109  -0.01781  -0.00284  -0.00601  -0.00369   0.06298   0.00759   0.00103   0.00283   0.00127
  -0.00123   0.00016   0.00000   0.00000   0.00000   0.00000   0.00000   0.00000  -0.00465  -0.14110   0.00430  -0.01636  -0.00034   0.00164   0.06298  -0.00150   0.00637   0.00016
   0.00000  -0.00000   0.00000   0.00000   0.00000   0.00000   0.00000   0.00000  -0.00279  -0.00183  -0.16855   0.00707  -0.00001   0.00101   0.00060   0.07431  -0.00370   0.00000
  -0.00122   0.00016   0.00000   0.00000  -0.00000   0.00000   0.00000   0.00000  -0.01627  -0.00610  -0.00402  -0.14109   0.00557   0.00634   0.00286   0.00260   0.06298  -0.00268
  -0.00000   0.00000   0.00000   0.00000   0.00000   0.00000   0.00000   0.00000   0.00342  -0.00393   0.00002  -0.00083  -0.16856  -0.00117   0.00139  -0.00001   0.00096   0.07432
   0.00108  -0.00014   0.00000   0.00000  -0.00000   0.00000   0.00000   0.00000   0.06298   0.00759   0.00103   0.00283   0.00127  -0.11235  -0.01445  -0.00224  -0.00459  -0.00298
   0.00109  -0.00014   0.00000   0.00000   0.00000   0.00000   0.00000   0.00000   0.00164   0.06298  -0.00150   0.00637   0.00016  -0.00315  -0.11236   0.00345  -0.01293  -0.00023
  -0.00000  -0.00000   0.00000   0.00000   0.00000   0.00000   0.00000   0.00000   0.00101   0.00060   0.07431  -0.00370   0.00000  -0.00220  -0.00150  -0.13402   0.00627  -0.00001
   0.00108  -0.00014   0.00000   0.00000   0.00000   0.00000   0.00000   0.00000   0.00634   0.00286   0.00260   0.06298  -0.00268  -0.01286  -0.00466  -0.00387  -0.11235   0.00480
   0.00000   0.00000   0.00000   0.00000   0.00000   0.00000   0.00000   0.00000  -0.00117   0.00139  -0.00001   0.00096   0.07432   0.00276  -0.00314   0.00001  -0.00106  -0.13402
   max. value=  7.43E-02, min. value= -1.69E-01
   === IMAGINARY PART:
   0.02659  -0.00660  -0.00000  -0.00000  -0.00000  -0.00000  -0.00000  -0.00000   0.00122   0.00122  -0.00000   0.00123  -0.00000  -0.00108  -0.00108   0.00000  -0.00109   0.00000
  -0.00660   0.00070  -0.00000  -0.00000  -0.00000  -0.00000  -0.00000  -0.00000  -0.00016  -0.00016   0.00000  -0.00016   0.00000   0.00014   0.00014   0.00000   0.00014   0.00000
   0.00000   0.00000   0.03498   0.01964   0.00114  -0.00452  -0.00286  -0.00013   0.00000  -0.00000  -0.00000  -0.00000  -0.00000  -0.00000   0.00000  -0.00000  -0.00000  -0.00000
   0.00000   0.00000  -0.01737   0.03498   0.00115   0.00261  -0.00452  -0.00013  -0.00000  -0.00000  -0.00000  -0.00000  -0.00000  -0.00000  -0.00000  -0.00000  -0.00000  -0.00000
   0.00000   0.00000   0.00114   0.00115   0.03498  -0.00013  -0.00013  -0.00452  -0.00000  -0.00000  -0.00000  -0.00000  -0.00000  -0.00000  -0.00000  -0.00000  -0.00000  -0.00000
   0.00000   0.00000  -0.00452  -0.00286  -0.00013   0.00041   0.00042   0.00001  -0.00000  -0.00000  -0.00000  -0.00000  -0.00000  -0.00000  -0.00000  -0.00000  -0.00000  -0.00000
   0.00000   0.00000   0.00261  -0.00452  -0.00013  -0.00039   0.00041   0.00001  -0.00000  -0.00000  -0.00000  -0.00000  -0.00000  -0.00000  -0.00000  -0.00000  -0.00000  -0.00000
   0.00000   0.00000  -0.00013  -0.00013  -0.00452   0.00001   0.00001   0.00041  -0.00000  -0.00000  -0.00000  -0.00000  -0.00000  -0.00000  -0.00000  -0.00000  -0.00000  -0.00000
   0.00122  -0.00016   0.00000   0.00000   0.00000   0.00000   0.00000   0.00000   0.14109   0.00601   0.00284   0.01781  -0.00369  -0.06298  -0.00283  -0.00103  -0.00759   0.00127
   0.00122  -0.00016  -0.00000   0.00000   0.00000   0.00000   0.00000   0.00000   0.01627   0.14109   0.00402   0.00610   0.00557  -0.00634  -0.06298  -0.00260  -0.00286  -0.00268
  -0.00000   0.00000   0.00000   0.00000   0.00000   0.00000   0.00000   0.00000   0.00279  -0.00707   0.16855   0.00183  -0.00001  -0.00101   0.00370  -0.07431  -0.00060   0.00000
   0.00123  -0.00016   0.00000   0.00000   0.00000   0.00000   0.00000   0.00000   0.00465   0.01636  -0.00430   0.14110  -0.00034  -0.00164  -0.00637   0.00150  -0.06298   0.00016
  -0.00000   0.00000   0.00000   0.00000   0.00000   0.00000   0.00000   0.00000   0.00342  -0.00083   0.00002  -0.00393   0.16856  -0.00117   0.00096  -0.00001   0.00139  -0.07432
  -0.00108   0.00014  -0.00000   0.00000   0.00000   0.00000   0.00000   0.00000  -0.06298  -0.00283  -0.00103  -0.00759   0.00127   0.11235   0.00459   0.00224   0.01445  -0.00298
  -0.00108   0.00014   0.00000   0.00000   0.00000   0.00000   0.00000   0.00000  -0.00634  -0.06298  -0.00260  -0.00286  -0.00268   0.01286   0.11235   0.00387   0.00466   0.00480
   0.00000   0.00000   0.00000   0.00000   0.00000   0.00000   0.00000   0.00000  -0.00101   0.00370  -0.07431  -0.00060   0.00000   0.00220  -0.00627   0.13402   0.00150  -0.00001
  -0.00109   0.00014   0.00000   0.00000   0.00000   0.00000   0.00000   0.00000  -0.00164  -0.00637   0.00150  -0.06298   0.00016   0.00315   0.01293  -0.00345   0.11236  -0.00023
   0.00000   0.00000   0.00000   0.00000   0.00000   0.00000   0.00000   0.00000  -0.00117   0.00096  -0.00001   0.00139  -0.07432   0.00276  -0.00106   0.00001  -0.00314   0.13402
   max. value=  1.69E-01, min. value= -7.43E-02
 Atom #  1 - Component dwn-up
   === REAL PART:
  -0.02659   0.00660   0.00000   0.00000   0.00000   0.00000   0.00000   0.00000  -0.00122  -0.00123   0.00000  -0.00122  -0.00000   0.00108   0.00109  -0.00000   0.00108   0.00000
   0.00660  -0.00070   0.00000   0.00000   0.00000   0.00000   0.00000   0.00000   0.00016   0.00016  -0.00000   0.00016   0.00000  -0.00014  -0.00014  -0.00000  -0.00014   0.00000
   0.00000   0.00000  -0.03498  -0.00115  -0.00114   0.00452   0.00013   0.00013   0.00000   0.00000   0.00000   0.00000   0.00000   0.00000   0.00000   0.00000   0.00000   0.00000
   0.00000   0.00000  -0.00115  -0.03498  -0.01964   0.00013   0.00452   0.00286   0.00000   0.00000   0.00000   0.00000   0.00000   0.00000   0.00000   0.00000   0.00000   0.00000
   0.00000   0.00000  -0.00114   0.01737  -0.03498   0.00013  -0.00261   0.00452   0.00000   0.00000   0.00000  -0.00000   0.00000  -0.00000   0.00000   0.00000   0.00000   0.00000
   0.00000   0.00000   0.00452   0.00013   0.00013  -0.00041  -0.00001  -0.00001   0.00000   0.00000   0.00000   0.00000   0.00000   0.00000   0.00000   0.00000   0.00000   0.00000
   0.00000   0.00000   0.00013   0.00452   0.00286  -0.00001  -0.00041  -0.00042   0.00000   0.00000   0.00000   0.00000   0.00000   0.00000   0.00000   0.00000   0.00000   0.00000
   0.00000   0.00000   0.00013  -0.00261   0.00452  -0.00001   0.00039  -0.00041   0.00000   0.00000   0.00000   0.00000   0.00000   0.00000   0.00000   0.00000   0.00000   0.00000
  -0.00122   0.00016   0.00000   0.00000   0.00000   0.00000   0.00000   0.00000  -0.14109  -0.00465  -0.00279  -0.01627   0.00342   0.06298   0.00164   0.00101   0.00634  -0.00117
  -0.00123   0.00016   0.00000   0.00000   0.00000   0.00000   0.00000   0.00000  -0.01781  -0.14110  -0.00183  -0.00610  -0.00393   0.00759   0.06298   0.00060   0.00286   0.00139
   0.00000  -0.00000   0.00000   0.00000   0.00000   0.00000   0.00000   0.00000  -0.00284   0.00430  -0.16855  -0.00402   0.00002   0.00103  -0.00150   0.07431   0.00260  -0.00001
  -0.00122   0.00016   0.00000   0.00000  -0.00000   0.00000   0.00000   0.00000  -0.00601  -0.01636   0.00707  -0.14109  -0.00083   0.00283   0.00637  -0.00370   0.06298   0.00096
  -0.00000   0.00000   0.00000   0.00000   0.00000   0.00000   0.00000   0.00000  -0.00369  -0.00034  -0.00001   0.00557  -0.16856   0.00127   0.00016   0.00000  -0.00268   0.07432
   0.00108  -0.00014   0.00000   0.00000  -0.00000   0.00000   0.00000   0.00000   0.06298   0.00164   0.00101   0.00634  -0.00117  -0.11235  -0.00315  -0.00220  -0.01286   0.00276
   0.00109  -0.00014   0.00000   0.00000   0.00000   0.00000   0.00000   0.00000   0.00759   0.06298   0.00060   0.00286   0.00139  -0.01445  -0.11236  -0.00150  -0.00466  -0.00314
  -0.00000  -0.00000   0.00000   0.00000   0.00000   0.00000   0.00000   0.00000   0.00103  -0.00150   0.07431   0.00260  -0.00001  -0.00224   0.00345  -0.13402  -0.00387   0.00001
   0.00108  -0.00014   0.00000   0.00000   0.00000   0.00000   0.00000   0.00000   0.00283   0.00637  -0.00370   0.06298   0.00096  -0.00459  -0.01293   0.00627  -0.11235  -0.00106
   0.00000   0.00000   0.00000   0.00000   0.00000   0.00000   0.00000   0.00000   0.00127   0.00016   0.00000  -0.00268   0.07432  -0.00298  -0.00023  -0.00001   0.00480  -0.13402
   max. value=  7.43E-02, min. value= -1.69E-01
   === IMAGINARY PART:
  -0.02659   0.00660  -0.00000  -0.00000  -0.00000  -0.00000  -0.00000  -0.00000  -0.00122  -0.00122   0.00000  -0.00123   0.00000   0.00108   0.00108  -0.00000   0.00109  -0.00000
   0.00660  -0.00070  -0.00000  -0.00000  -0.00000  -0.00000  -0.00000  -0.00000   0.00016   0.00016  -0.00000   0.00016  -0.00000  -0.00014  -0.00014  -0.00000  -0.00014  -0.00000
   0.00000   0.00000  -0.03498   0.01737  -0.00114   0.00452  -0.00261   0.00013  -0.00000   0.00000  -0.00000  -0.00000  -0.00000   0.00000  -0.00000  -0.00000  -0.00000  -0.00000
   0.00000   0.00000  -0.01964  -0.03498  -0.00115   0.00286   0.00452   0.00013  -0.00000  -0.00000  -0.00000  -0.00000  -0.00000  -0.00000  -0.00000  -0.00000  -0.00000  -0.00000
   0.00000   0.00000  -0.00114  -0.00115  -0.03498   0.00013   0.00013   0.00452  -0.00000  -0.00000  -0.00000  -0.00000  -0.00000  -0.00000  -0.00000  -0.00000  -0.00000  -0.00000
   0.00000   0.00000   0.00452  -0.00261   0.00013  -0.00041   0.00039  -0.00001  -0.00000  -0.00000  -0.00000  -0.00000  -0.00000  -0.00000  -0.00000  -0.00000  -0.00000  -0.00000
   0.00000   0.00000   0.00286   0.00452   0.00013  -0.00042  -0.00041  -0.00001  -0.00000  -0.00000  -0.00000  -0.00000  -0.00000  -0.00000  -0.00000  -0.00000  -0.00000  -0.00000
   0.00000   0.00000   0.00013   0.00013   0.00452  -0.00001  -0.00001  -0.00041  -0.00000  -0.00000  -0.00000  -0.00000  -0.00000  -0.00000  -0.00000  -0.00000  -0.00000  -0.00000
  -0.00122   0.00016  -0.00000   0.00000   0.00000   0.00000   0.00000   0.00000  -0.14109  -0.01627  -0.00279  -0.00465  -0.00342   0.06298   0.00634   0.00101   0.00164   0.00117
  -0.00122   0.00016   0.00000   0.00000   0.00000   0.00000   0.00000   0.00000  -0.00601  -0.14109   0.00707  -0.01636   0.00083   0.00283   0.06298  -0.00370   0.00637  -0.00096
   0.00000  -0.00000   0.00000   0.00000   0.00000   0.00000   0.00000   0.00000  -0.00284  -0.00402  -0.16855   0.00430  -0.00002   0.00103   0.00260   0.07431  -0.00150   0.00001
  -0.00123   0.00016   0.00000   0.00000   0.00000   0.00000   0.00000   0.00000  -0.01781  -0.00610  -0.00183  -0.14110   0.00393   0.00759   0.00286   0.00060   0.06298  -0.00139
   0.00000  -0.00000   0.00000   0.00000   0.00000   0.00000   0.00000   0.00000   0.00369  -0.00557   0.00001   0.00034  -0.16856  -0.00127   0.00268  -0.00000  -0.00016   0.07432
   0.00108  -0.00014   0.00000   0.00000   0.00000   0.00000   0.00000   0.00000   0.06298   0.00634   0.00101   0.00164   0.00117  -0.11235  -0.01286  -0.00220  -0.00315  -0.00276
   0.00108  -0.00014  -0.00000   0.00000   0.00000   0.00000   0.00000   0.00000   0.00283   0.06298  -0.00370   0.00637  -0.00096  -0.00459  -0.11235   0.00627  -0.01293   0.00106
  -0.00000  -0.00000   0.00000   0.00000   0.00000   0.00000   0.00000   0.00000   0.00103   0.00260   0.07431  -0.00150   0.00001  -0.00224  -0.00387  -0.13402   0.00345  -0.00001
   0.00109  -0.00014   0.00000   0.00000   0.00000   0.00000   0.00000   0.00000   0.00759   0.00286   0.00060   0.06298  -0.00139  -0.01445  -0.00466  -0.00150  -0.11236   0.00314
  -0.00000  -0.00000   0.00000   0.00000   0.00000   0.00000   0.00000   0.00000  -0.00127   0.00268  -0.00000  -0.00016   0.07432   0.00298  -0.00480   0.00001   0.00023  -0.13402
   max. value=  7.43E-02, min. value= -1.69E-01


 Augmentation waves occupancies Rhoij:
 Atom #  1 - Component dens (n)
   === REAL PART:
   1.99637  -0.04252   0.00000   0.00000   0.00000   0.00000  -0.00000   0.00000   0.00130   0.00130  -0.00000   0.00130   0.00000  -0.00161  -0.00161  -0.00000  -0.00161   0.00000
  -0.04252   3.57408   0.00000  -0.00000   0.00000   0.00000   0.00000  -0.00000   0.00503   0.00503   0.00000   0.00503  -0.00000   0.00869   0.00869   0.00000   0.00869  -0.00000
   0.00000   0.00000   2.00098  -0.00010  -0.00010  -0.08501  -0.00171  -0.00171   0.00000  -0.00000   0.00000   0.00000   0.00000   0.00000  -0.00000  -0.00000   0.00000   0.00000
   0.00000  -0.00000  -0.00010   2.00098  -0.00010  -0.00171  -0.08501  -0.00171   0.00000   0.00000   0.00000  -0.00000   0.00000  -0.00000   0.00000  -0.00000  -0.00000  -0.00000
   0.00000   0.00000  -0.00010  -0.00010   2.00098  -0.00171  -0.00171  -0.08501  -0.00000   0.00000   0.00000   0.00000   0.00000  -0.00000   0.00000   0.00000   0.00000   0.00000
   0.00000   0.00000  -0.08501  -0.00171  -0.00171   0.00620   0.00016   0.00016   0.00000  -0.00000   0.00000   0.00000  -0.00000   0.00000  -0.00000   0.00000  -0.00000   0.00000
  -0.00000   0.00000  -0.00171  -0.08501  -0.00171   0.00016   0.00620   0.00016   0.00000   0.00000   0.00000  -0.00000   0.00000   0.00000   0.00000   0.00000  -0.00000   0.00000
   0.00000  -0.00000  -0.00171  -0.00171  -0.08501   0.00016   0.00016   0.00620  -0.00000   0.00000  -0.00000   0.00000  -0.00000  -0.00000  -0.00000   0.00000   0.00000   0.00000
   0.00130   0.00503   0.00000   0.00000  -0.00000   0.00000   0.00000  -0.00000   1.43143  -0.17476  -0.01969  -0.17476   0.00000   0.01028  -0.01327   0.00047  -0.01327  -0.00000
   0.00130   0.00503  -0.00000   0.00000   0.00000  -0.00000   0.00000   0.00000  -0.17476   1.43143   0.00984  -0.17476  -0.01705  -0.01327   0.01028  -0.00024  -0.01327   0.00041
  -0.00000   0.00000   0.00000   0.00000   0.00000   0.00000   0.00000  -0.00000  -0.01969   0.00984   1.06940   0.00984   0.00000   0.00053  -0.00026  -0.07788  -0.00026   0.00000
   0.00130   0.00503   0.00000  -0.00000   0.00000   0.00000  -0.00000   0.00000  -0.17476  -0.17476   0.00984   1.43143   0.01705  -0.01327  -0.01327  -0.00024   0.01028  -0.00041
   0.00000  -0.00000   0.00000   0.00000   0.00000  -0.00000   0.00000  -0.00000   0.00000  -0.01705   0.00000   0.01705   1.06940  -0.00000   0.00046   0.00000  -0.00046  -0.07788
  -0.00161   0.00869   0.00000  -0.00000  -0.00000   0.00000   0.00000  -0.00000   0.01028  -0.01327   0.00053  -0.01327  -0.00000   0.00149  -0.00058  -0.00012  -0.00058   0.00000
  -0.00161   0.00869  -0.00000   0.00000   0.00000  -0.00000   0.00000  -0.00000  -0.01327   0.01028  -0.00026  -0.01327   0.00046  -0.00058   0.00149   0.00006  -0.00058  -0.00010
  -0.00000   0.00000  -0.00000  -0.00000   0.00000   0.00000   0.00000   0.00000   0.00047  -0.00024  -0.07788  -0.00024   0.00000  -0.00012   0.00006   0.00568   0.00006  -0.00000
  -0.00161   0.00869   0.00000  -0.00000   0.00000  -0.00000  -0.00000   0.00000  -0.01327  -0.01327  -0.00026   0.01028  -0.00046  -0.00058  -0.00058   0.00006   0.00149   0.00010
   0.00000  -0.00000   0.00000  -0.00000   0.00000   0.00000   0.00000   0.00000  -0.00000   0.00041   0.00000  -0.00041  -0.07788   0.00000  -0.00010  -0.00000   0.00010   0.00568
   max. value=  3.57E+00, min. value= -1.75E-01
   === IMAGINARY PART:
  -0.00000  -0.00000  -0.00000  -0.00000  -0.00000   0.00000   0.00000   0.00000   0.00000   0.00000   0.00000   0.00000  -0.00000  -0.00000   0.00000  -0.00000   0.00000   0.00000
   0.00000  -0.00000  -0.00000  -0.00000  -0.00000  -0.00000  -0.00000  -0.00000   0.00000  -0.00000   0.00000  -0.00000  -0.00000   0.00000  -0.00000   0.00000  -0.00000  -0.00000
   0.00000   0.00000  -0.00000  -0.00001   0.00001  -0.00000   0.00030  -0.00030  -0.00000  -0.00000  -0.00000  -0.00000  -0.00000   0.00000   0.00000   0.00000   0.00000   0.00000
   0.00000   0.00000   0.00001  -0.00000  -0.00001  -0.00030  -0.00000   0.00030  -0.00000  -0.00000  -0.00000  -0.00000  -0.00000   0.00000   0.00000  -0.00000   0.00000  -0.00000
   0.00000   0.00000  -0.00001   0.00001  -0.00000   0.00030  -0.00030   0.00000  -0.00000  -0.00000  -0.00000  -0.00000  -0.00000   0.00000   0.00000   0.00000   0.00000  -0.00000
  -0.00000   0.00000   0.00000   0.00030  -0.00030   0.00000   0.00102  -0.00102  -0.00000  -0.00000  -0.00000   0.00000  -0.00000   0.00000   0.00000  -0.00000  -0.00000  -0.00000
  -0.00000   0.00000  -0.00030   0.00000   0.00030  -0.00102   0.00000   0.00102   0.00000  -0.00000   0.00000  -0.00000  -0.00000  -0.00000   0.00000  -0.00000   0.00000  -0.00000
  -0.00000   0.00000   0.00030  -0.00030  -0.00000   0.00102  -0.00102  -0.00000  -0.00000   0.00000  -0.00000  -0.00000   0.00000   0.00000  -0.00000  -0.00000   0.00000  -0.00000
  -0.00000  -0.00000   0.00000   0.00000   0.00000   0.00000  -0.00000   0.00000  -0.00000   0.30378   0.00000  -0.30378  -0.01883  -0.00000   0.01917  -0.00000  -0.01917   0.00094
  -0.00000   0.00000   0.00000   0.00000   0.00000   0.00000   0.00000  -0.00000  -0.30378  -0.00000   0.01630   0.30378   0.00941  -0.01917  -0.00000  -0.00082   0.01917  -0.00047
  -0.00000  -0.00000   0.00000   0.00000   0.00000   0.00000  -0.00000   0.00000  -0.00000  -0.01630  -0.00000   0.01630   0.00104  -0.00000  -0.00017  -0.00000   0.00017  -0.00001
  -0.00000   0.00000   0.00000   0.00000   0.00000  -0.00000   0.00000   0.00000   0.30378  -0.30378  -0.01630   0.00000   0.00941   0.01917  -0.01917   0.00082  -0.00000  -0.00047
   0.00000   0.00000   0.00000   0.00000   0.00000   0.00000   0.00000  -0.00000   0.01883  -0.00941  -0.00104  -0.00941  -0.00000   0.00020  -0.00010   0.00001  -0.00010  -0.00000
   0.00000  -0.00000  -0.00000  -0.00000  -0.00000  -0.00000   0.00000  -0.00000   0.00000   0.01917   0.00000  -0.01917  -0.00020  -0.00000   0.00115  -0.00000  -0.00115  -0.00007
  -0.00000   0.00000  -0.00000  -0.00000  -0.00000  -0.00000  -0.00000   0.00000  -0.01917   0.00000   0.00017   0.01917   0.00010  -0.00115  -0.00000   0.00006   0.00115   0.00003
   0.00000  -0.00000  -0.00000   0.00000  -0.00000   0.00000   0.00000   0.00000   0.00000   0.00082   0.00000  -0.00082  -0.00001   0.00000  -0.00006   0.00000   0.00006   0.00000
  -0.00000   0.00000  -0.00000  -0.00000  -0.00000   0.00000  -0.00000  -0.00000   0.01917  -0.01917  -0.00017   0.00000   0.00010   0.00115  -0.00115  -0.00006  -0.00000   0.00003
  -0.00000   0.00000  -0.00000   0.00000   0.00000   0.00000   0.00000   0.00000  -0.00094   0.00047   0.00001   0.00047   0.00000   0.00007  -0.00003  -0.00000  -0.00003  -0.00000
   max. value=  3.04E-01, min. value= -3.04E-01
 Atom #  1 - Component magn (x)
   === REAL PART:
  -0.00081  -0.00391   0.00000   0.00000   0.00000  -0.00000   0.00000  -0.00000  -0.00086  -0.00085   0.00000  -0.00086  -0.00000  -0.00036  -0.00036  -0.00000  -0.00036   0.00000
  -0.00391   0.06481  -0.00000   0.00000  -0.00000  -0.00000   0.00000  -0.00000   0.00077   0.00086   0.00001   0.00077  -0.00002   0.00300   0.00302  -0.00000   0.00300   0.00001
   0.00000  -0.00000  -0.00189   0.00000  -0.00000  -0.02526  -0.00010   0.00048   0.00000   0.00000   0.00000   0.00000   0.00000   0.00000   0.00000  -0.00000   0.00000   0.00000
   0.00000   0.00000   0.00000  -0.00189  -0.00000  -0.00010  -0.02526   0.00048   0.00000  -0.00000   0.00000  -0.00000   0.00000  -0.00000  -0.00000   0.00000  -0.00000  -0.00000
   0.00000  -0.00000  -0.00000  -0.00000  -0.00189  -0.00075  -0.00075  -0.02526  -0.00000   0.00000   0.00000   0.00000   0.00000  -0.00000  -0.00000  -0.00000   0.00000  -0.00000
  -0.00000  -0.00000  -0.02526  -0.00010  -0.00075   0.00217   0.00005   0.00007  -0.00000   0.00000   0.00000  -0.00000   0.00000  -0.00000   0.00000   0.00000  -0.00000   0.00000
   0.00000   0.00000  -0.00010  -0.02526  -0.00075   0.00005   0.00217   0.00007   0.00000  -0.00000   0.00000   0.00000   0.00000   0.00000  -0.00000   0.00000   0.00000   0.00000
  -0.00000  -0.00000   0.00048   0.00048  -0.02526   0.00007   0.00007   0.00221  -0.00000  -0.00000   0.00000   0.00000   0.00000  -0.00000  -0.00000   0.00000   0.00000   0.00000
  -0.00086   0.00077   0.00000   0.00000  -0.00000  -0.00000   0.00000  -0.00000   0.42161   0.10160   0.01223   0.10122   0.00147  -0.01897   0.00511   0.00031   0.00476  -0.00008
  -0.00085   0.00086   0.00000  -0.00000   0.00000   0.00000  -0.00000  -0.00000   0.10160   0.42165  -0.00414   0.10160   0.00718   0.00453  -0.01900   0.00017   0.00453  -0.00029
   0.00000   0.00001   0.00000   0.00000   0.00000   0.00000   0.00000   0.00000   0.01223  -0.00414   0.61613  -0.00739  -0.00006   0.00174  -0.00077  -0.04497  -0.00151  -0.00003
  -0.00086   0.00077   0.00000  -0.00000   0.00000  -0.00000   0.00000   0.00000   0.10122   0.10160  -0.00739   0.42161  -0.00985   0.00476   0.00511  -0.00009  -0.01897  -0.00031
  -0.00000  -0.00002   0.00000   0.00000   0.00000   0.00000   0.00000   0.00000   0.00147   0.00718  -0.00006  -0.00985   0.61620   0.00074   0.00134  -0.00003  -0.00113  -0.04493
  -0.00036   0.00300   0.00000  -0.00000  -0.00000  -0.00000   0.00000  -0.00000  -0.01897   0.00453   0.00174   0.00476   0.00074  -0.00067   0.00043  -0.00007   0.00043  -0.00002
  -0.00036   0.00302   0.00000  -0.00000  -0.00000   0.00000  -0.00000  -0.00000   0.00511  -0.01900  -0.00077   0.00511   0.00134   0.00043  -0.00068   0.00005   0.00043  -0.00009
  -0.00000  -0.00000  -0.00000   0.00000  -0.00000   0.00000   0.00000   0.00000   0.00031   0.00017  -0.04497  -0.00009  -0.00003  -0.00007   0.00005   0.00328   0.00005   0.00000
  -0.00036   0.00300   0.00000  -0.00000   0.00000  -0.00000   0.00000   0.00000   0.00476   0.00453  -0.00151  -0.01897  -0.00113   0.00043   0.00043   0.00005  -0.00067   0.00005
   0.00000   0.00001   0.00000  -0.00000  -0.00000   0.00000   0.00000   0.00000  -0.00008  -0.00029  -0.00003  -0.00031  -0.04493  -0.00002  -0.00009   0.00000   0.00005   0.00328
   max. value=  6.16E-01, min. value= -4.50E-02
   === IMAGINARY PART:
  -0.00000   0.00000  -0.00000  -0.00000  -0.00000   0.00000   0.00000  -0.00000   0.00001  -0.00000  -0.00002  -0.00001  -0.00001   0.00000  -0.00000   0.00000  -0.00000   0.00000
  -0.00000   0.00000   0.00000   0.00000  -0.00000   0.00000   0.00000   0.00000   0.00002  -0.00000  -0.00003  -0.00002  -0.00002  -0.00001   0.00000   0.00001   0.00001   0.00001
   0.00000  -0.00000  -0.00000  -0.00339  -0.00000  -0.00011  -0.04012  -0.00006  -0.00000   0.00000  -0.00000  -0.00000  -0.00000   0.00000   0.00000  -0.00000  -0.00000  -0.00000
   0.00000  -0.00000   0.00339   0.00000   0.00000   0.04012   0.00011   0.00006  -0.00000   0.00000  -0.00000  -0.00000  -0.00000  -0.00000   0.00000   0.00000   0.00000  -0.00000
   0.00000   0.00000   0.00000  -0.00000   0.00000  -0.00006   0.00006  -0.00000  -0.00000  -0.00000  -0.00000  -0.00000  -0.00000  -0.00000  -0.00000   0.00000  -0.00000  -0.00000
  -0.00000  -0.00000   0.00011  -0.04012   0.00006  -0.00000   0.00419   0.00003  -0.00000  -0.00000  -0.00000   0.00000   0.00000  -0.00000   0.00000  -0.00000   0.00000  -0.00000
  -0.00000  -0.00000   0.04012  -0.00011  -0.00006  -0.00419   0.00000  -0.00003   0.00000  -0.00000  -0.00000  -0.00000   0.00000   0.00000   0.00000  -0.00000  -0.00000  -0.00000
   0.00000  -0.00000   0.00006  -0.00006   0.00000  -0.00003   0.00003  -0.00000  -0.00000  -0.00000  -0.00000  -0.00000   0.00000   0.00000  -0.00000  -0.00000   0.00000  -0.00000
  -0.00001  -0.00002   0.00000   0.00000   0.00000   0.00000  -0.00000   0.00000   0.00000  -0.17333   0.00141   0.17882   0.01398   0.00002  -0.01072   0.00039   0.01013  -0.00040
   0.00000   0.00000  -0.00000  -0.00000   0.00000   0.00000   0.00000   0.00000   0.17333  -0.00000  -0.00539  -0.17333  -0.00311   0.01070  -0.00000  -0.00166  -0.01070  -0.00096
   0.00002   0.00003   0.00000   0.00000   0.00000   0.00000   0.00000   0.00000  -0.00141   0.00539   0.00000  -0.01282  -0.00063  -0.00011   0.00190  -0.00002  -0.00074   0.00002
   0.00001   0.00002   0.00000   0.00000   0.00000  -0.00000   0.00000   0.00000  -0.17882   0.17333   0.01282  -0.00000  -0.00577  -0.01013   0.01072  -0.00015  -0.00002   0.00054
   0.00001   0.00002   0.00000   0.00000   0.00000  -0.00000  -0.00000  -0.00000  -0.01398   0.00311   0.00063   0.00577  -0.00000  -0.00079   0.00110   0.00001   0.00030   0.00002
  -0.00000   0.00001  -0.00000   0.00000   0.00000   0.00000  -0.00000  -0.00000  -0.00002  -0.01070   0.00011   0.01013   0.00079  -0.00000  -0.00066   0.00003   0.00068  -0.00003
   0.00000  -0.00000  -0.00000  -0.00000   0.00000  -0.00000  -0.00000   0.00000   0.01072   0.00000  -0.00190  -0.01072  -0.00110   0.00066   0.00000   0.00008  -0.00066   0.00004
  -0.00000  -0.00001   0.00000  -0.00000  -0.00000   0.00000   0.00000   0.00000  -0.00039   0.00166   0.00002   0.00015  -0.00001  -0.00003  -0.00008   0.00000   0.00001  -0.00000
   0.00000  -0.00001   0.00000  -0.00000   0.00000  -0.00000   0.00000  -0.00000  -0.01013   0.01070   0.00074   0.00002  -0.00030  -0.00068   0.00066  -0.00001   0.00000   0.00004
  -0.00000  -0.00001   0.00000   0.00000   0.00000   0.00000   0.00000   0.00000   0.00040   0.00096  -0.00002  -0.00054  -0.00002   0.00003  -0.00004   0.00000  -0.00004  -0.00000
   max. value=  1.73E-01, min. value= -1.79E-01
 Atom #  1 - Component magn (y)
   === REAL PART:
  -0.00081  -0.00391   0.00000   0.00000   0.00000   0.00000  -0.00000   0.00000  -0.00086  -0.00086   0.00000  -0.00085   0.00000  -0.00036  -0.00036  -0.00000  -0.00036  -0.00000
  -0.00391   0.06481   0.00000  -0.00000   0.00000   0.00000  -0.00000   0.00000   0.00077   0.00077   0.00001   0.00086   0.00002   0.00300   0.00300  -0.00000   0.00302  -0.00001
   0.00000   0.00000  -0.00189  -0.00000  -0.00000  -0.02526  -0.00075  -0.00075   0.00000  -0.00000   0.00000   0.00000   0.00000   0.00000  -0.00000   0.00000   0.00000  -0.00000
   0.00000  -0.00000  -0.00000  -0.00189   0.00000   0.00048  -0.02526  -0.00010   0.00000   0.00000   0.00000   0.00000   0.00000   0.00000   0.00000  -0.00000   0.00000  -0.00000
   0.00000   0.00000  -0.00000   0.00000  -0.00189   0.00048  -0.00010  -0.02526  -0.00000   0.00000   0.00000  -0.00000   0.00000  -0.00000  -0.00000   0.00000  -0.00000   0.00000
   0.00000   0.00000  -0.02526   0.00048   0.00048   0.00221   0.00007   0.00007   0.00000  -0.00000  -0.00000   0.00000   0.00000   0.00000  -0.00000   0.00000   0.00000   0.00000
  -0.00000  -0.00000  -0.00075  -0.02526  -0.00010   0.00007   0.00217   0.00005  -0.00000  -0.00000  -0.00000   0.00000   0.00000  -0.00000  -0.00000   0.00000   0.00000   0.00000
   0.00000   0.00000  -0.00075  -0.00010  -0.02526   0.00007   0.00005   0.00217   0.00000   0.00000  -0.00000  -0.00000   0.00000   0.00000   0.00000   0.00000  -0.00000   0.00000
  -0.00086   0.00077   0.00000   0.00000  -0.00000   0.00000  -0.00000   0.00000   0.42161   0.10122   0.01223   0.10160  -0.00147  -0.01897   0.00476   0.00031   0.00511   0.00008
  -0.00086   0.00077  -0.00000   0.00000   0.00000  -0.00000  -0.00000   0.00000   0.10122   0.42161  -0.00739   0.10160   0.00985   0.00476  -0.01897  -0.00009   0.00511   0.00031
   0.00000   0.00001   0.00000   0.00000   0.00000  -0.00000  -0.00000  -0.00000   0.01223  -0.00739   0.61613  -0.00414   0.00006   0.00174  -0.00151  -0.04497  -0.00077   0.00003
  -0.00085   0.00086   0.00000   0.00000  -0.00000   0.00000   0.00000  -0.00000   0.10160   0.10160  -0.00414   0.42165  -0.00718   0.00453   0.00453   0.00017  -0.01900   0.00029
   0.00000   0.00002   0.00000   0.00000   0.00000   0.00000   0.00000   0.00000  -0.00147   0.00985   0.00006  -0.00718   0.61620  -0.00074   0.00113   0.00003  -0.00134  -0.04493
  -0.00036   0.00300   0.00000   0.00000  -0.00000   0.00000  -0.00000   0.00000  -0.01897   0.00476   0.00174   0.00453  -0.00074  -0.00067   0.00043  -0.00007   0.00043   0.00002
  -0.00036   0.00300  -0.00000   0.00000  -0.00000  -0.00000  -0.00000   0.00000   0.00476  -0.01897  -0.00151   0.00453   0.00113   0.00043  -0.00067   0.00005   0.00043  -0.00005
  -0.00000  -0.00000   0.00000  -0.00000   0.00000   0.00000   0.00000   0.00000   0.00031  -0.00009  -0.04497   0.00017   0.00003  -0.00007   0.00005   0.00328   0.00005  -0.00000
  -0.00036   0.00302   0.00000   0.00000  -0.00000   0.00000   0.00000  -0.00000   0.00511   0.00511  -0.00077  -0.01900  -0.00134   0.00043   0.00043   0.00005  -0.00068   0.00009
  -0.00000  -0.00001  -0.00000  -0.00000   0.00000   0.00000   0.00000   0.00000   0.00008   0.00031   0.00003   0.00029  -0.04493   0.00002  -0.00005  -0.00000   0.00009   0.00328
   max. value=  6.16E-01, min. value= -4.50E-02
   === IMAGINARY PART:
  -0.00000  -0.00000  -0.00000  -0.00000  -0.00000  -0.00000   0.00000   0.00000  -0.00001   0.00001   0.00002   0.00000  -0.00001  -0.00000   0.00000  -0.00000   0.00000   0.00000
   0.00000  -0.00000  -0.00000   0.00000   0.00000   0.00000   0.00000   0.00000  -0.00002   0.00002   0.00003   0.00000  -0.00002   0.00001  -0.00001  -0.00001  -0.00000   0.00001
   0.00000   0.00000  -0.00000   0.00000  -0.00000   0.00000  -0.00006   0.00006  -0.00000  -0.00000  -0.00000  -0.00000  -0.00000  -0.00000  -0.00000   0.00000  -0.00000   0.00000
   0.00000  -0.00000  -0.00000  -0.00000  -0.00339  -0.00006  -0.00011  -0.04012  -0.00000  -0.00000  -0.00000   0.00000  -0.00000  -0.00000   0.00000   0.00000   0.00000   0.00000
   0.00000  -0.00000   0.00000   0.00339   0.00000   0.00006   0.04012   0.00011  -0.00000  -0.00000  -0.00000   0.00000  -0.00000   0.00000  -0.00000  -0.00000   0.00000   0.00000
   0.00000  -0.00000  -0.00000   0.00006  -0.00006  -0.00000  -0.00003   0.00003  -0.00000  -0.00000  -0.00000  -0.00000  -0.00000   0.00000   0.00000  -0.00000  -0.00000  -0.00000
  -0.00000  -0.00000   0.00006   0.00011  -0.04012   0.00003  -0.00000   0.00419   0.00000  -0.00000  -0.00000  -0.00000  -0.00000   0.00000  -0.00000  -0.00000   0.00000  -0.00000
  -0.00000  -0.00000  -0.00006   0.04012  -0.00011  -0.00003  -0.00419   0.00000  -0.00000   0.00000  -0.00000  -0.00000  -0.00000  -0.00000   0.00000  -0.00000   0.00000  -0.00000
   0.00001   0.00002   0.00000   0.00000   0.00000   0.00000  -0.00000   0.00000  -0.00000  -0.17882  -0.00141   0.17333   0.01398  -0.00002  -0.01013  -0.00039   0.01072  -0.00040
  -0.00001  -0.00002   0.00000   0.00000   0.00000   0.00000   0.00000  -0.00000   0.17882   0.00000  -0.01282  -0.17333  -0.00577   0.01013   0.00002   0.00015  -0.01072   0.00054
  -0.00002  -0.00003   0.00000   0.00000   0.00000   0.00000   0.00000   0.00000   0.00141   0.01282   0.00000  -0.00539  -0.00063   0.00011   0.00074   0.00002  -0.00190   0.00002
  -0.00000  -0.00000   0.00000  -0.00000  -0.00000   0.00000   0.00000   0.00000  -0.17333   0.17333   0.00539  -0.00000  -0.00311  -0.01070   0.01070   0.00166   0.00000  -0.00096
   0.00001   0.00002   0.00000   0.00000   0.00000   0.00000   0.00000   0.00000  -0.01398   0.00577   0.00063   0.00311   0.00000  -0.00079   0.00030   0.00001   0.00110  -0.00002
   0.00000  -0.00001   0.00000   0.00000  -0.00000  -0.00000  -0.00000   0.00000   0.00002  -0.01013  -0.00011   0.01070   0.00079   0.00000  -0.00068  -0.00003   0.00066  -0.00003
  -0.00000   0.00001   0.00000  -0.00000   0.00000  -0.00000   0.00000  -0.00000   0.01013  -0.00002  -0.00074  -0.01070  -0.00030   0.00068  -0.00000   0.00001  -0.00066   0.00004
   0.00000   0.00001  -0.00000  -0.00000   0.00000   0.00000   0.00000   0.00000   0.00039  -0.00015  -0.00002  -0.00166  -0.00001   0.00003  -0.00001  -0.00000   0.00008  -0.00000
  -0.00000   0.00000   0.00000  -0.00000  -0.00000   0.00000  -0.00000  -0.00000  -0.01072   0.01072   0.00190  -0.00000  -0.00110  -0.00066   0.00066  -0.00008  -0.00000   0.00004
  -0.00000  -0.00001  -0.00000  -0.00000  -0.00000   0.00000   0.00000   0.00000   0.00040  -0.00054  -0.00002   0.00096   0.00002   0.00003  -0.00004   0.00000  -0.00004   0.00000
   max. value=  1.79E-01, min. value= -1.73E-01
 Atom #  1 - Component magn (z)
   === REAL PART:
  -0.00081  -0.00391   0.00000   0.00000   0.00000   0.00000  -0.00000  -0.00000  -0.00085  -0.00086  -0.00000  -0.00086   0.00000  -0.00036  -0.00036   0.00000  -0.00036  -0.00000
  -0.00391   0.06481   0.00000  -0.00000  -0.00000   0.00000  -0.00000  -0.00000   0.00086   0.00077  -0.00003   0.00077   0.00000   0.00302   0.00300   0.00001   0.00300  -0.00000
   0.00000   0.00000  -0.00189  -0.00000   0.00000  -0.02526   0.00048  -0.00010  -0.00000  -0.00000   0.00000   0.00000   0.00000  -0.00000  -0.00000  -0.00000  -0.00000   0.00000
   0.00000  -0.00000  -0.00000  -0.00189  -0.00000  -0.00075  -0.02526  -0.00075   0.00000   0.00000   0.00000  -0.00000   0.00000  -0.00000   0.00000   0.00000  -0.00000   0.00000
   0.00000  -0.00000   0.00000  -0.00000  -0.00189  -0.00010   0.00048  -0.02526   0.00000   0.00000   0.00000   0.00000   0.00000   0.00000   0.00000   0.00000   0.00000   0.00000
   0.00000   0.00000  -0.02526  -0.00075  -0.00010   0.00217   0.00007   0.00005  -0.00000   0.00000  -0.00000   0.00000  -0.00000  -0.00000   0.00000   0.00000   0.00000   0.00000
  -0.00000  -0.00000   0.00048  -0.02526   0.00048   0.00007   0.00221   0.00007  -0.00000   0.00000  -0.00000  -0.00000  -0.00000  -0.00000   0.00000   0.00000  -0.00000   0.00000
  -0.00000  -0.00000  -0.00010  -0.00075  -0.02526   0.00005   0.00007   0.00217   0.00000  -0.00000   0.00000  -0.00000  -0.00000   0.00000  -0.00000   0.00000  -0.00000   0.00000
  -0.00085   0.00086  -0.00000   0.00000   0.00000  -0.00000  -0.00000   0.00000   0.42165   0.10160   0.00829   0.10160  -0.00000  -0.01900   0.00453  -0.00034   0.00453   0.00000
  -0.00086   0.00077  -0.00000   0.00000   0.00000   0.00000   0.00000  -0.00000   0.10160   0.42161  -0.00484   0.10122   0.01133   0.00511  -0.01897  -0.00022   0.00476   0.00023
  -0.00000  -0.00003   0.00000   0.00000   0.00000  -0.00000  -0.00000   0.00000   0.00829  -0.00484   0.61624  -0.00484   0.00000   0.00155  -0.00023  -0.04492  -0.00023   0.00000
  -0.00086   0.00077   0.00000  -0.00000   0.00000   0.00000  -0.00000  -0.00000   0.10160   0.10122  -0.00484   0.42161  -0.01133   0.00511   0.00476  -0.00022  -0.01897  -0.00023
   0.00000   0.00000   0.00000   0.00000   0.00000  -0.00000  -0.00000  -0.00000  -0.00000   0.01133   0.00000  -0.01133   0.61609  -0.00000   0.00188  -0.00000  -0.00188  -0.04499
  -0.00036   0.00302  -0.00000  -0.00000   0.00000  -0.00000  -0.00000   0.00000  -0.01900   0.00511   0.00155   0.00511  -0.00000  -0.00068   0.00043  -0.00010   0.00043  -0.00000
  -0.00036   0.00300  -0.00000   0.00000   0.00000   0.00000   0.00000  -0.00000   0.00453  -0.01897  -0.00023   0.00476   0.00188   0.00043  -0.00067   0.00002   0.00043  -0.00006
   0.00000   0.00001  -0.00000   0.00000   0.00000   0.00000   0.00000   0.00000  -0.00034  -0.00022  -0.04492  -0.00022  -0.00000  -0.00010   0.00002   0.00328   0.00002  -0.00000
  -0.00036   0.00300  -0.00000  -0.00000   0.00000   0.00000  -0.00000  -0.00000   0.00453   0.00476  -0.00023  -0.01897  -0.00188   0.00043   0.00043   0.00002  -0.00067   0.00006
  -0.00000  -0.00000   0.00000   0.00000   0.00000   0.00000   0.00000   0.00000   0.00000   0.00023   0.00000  -0.00023  -0.04499  -0.00000  -0.00006  -0.00000   0.00006   0.00328
   max. value=  6.16E-01, min. value= -4.50E-02
   === IMAGINARY PART:
  -0.00000  -0.00000  -0.00000  -0.00000  -0.00000   0.00000  -0.00000   0.00000  -0.00000  -0.00001   0.00000   0.00001   0.00002  -0.00000  -0.00000  -0.00000   0.00000  -0.00000
   0.00000  -0.00000   0.00000  -0.00000   0.00000   0.00000   0.00000   0.00000  -0.00000  -0.00002   0.00000   0.00002   0.00004   0.00000   0.00001  -0.00000  -0.00001  -0.00001
   0.00000  -0.00000   0.00000   0.00000   0.00339   0.00011   0.00006   0.04012   0.00000  -0.00000  -0.00000  -0.00000  -0.00000   0.00000   0.00000  -0.00000  -0.00000  -0.00000
   0.00000   0.00000  -0.00000  -0.00000   0.00000   0.00006  -0.00000  -0.00006  -0.00000  -0.00000  -0.00000  -0.00000  -0.00000  -0.00000  -0.00000  -0.00000  -0.00000   0.00000
   0.00000  -0.00000  -0.00339  -0.00000  -0.00000  -0.04012  -0.00006  -0.00011   0.00000  -0.00000  -0.00000  -0.00000  -0.00000   0.00000  -0.00000  -0.00000   0.00000   0.00000
  -0.00000  -0.00000  -0.00011  -0.00006   0.04012   0.00000  -0.00003  -0.00419  -0.00000  -0.00000   0.00000   0.00000   0.00000   0.00000  -0.00000  -0.00000   0.00000  -0.00000
   0.00000  -0.00000  -0.00006   0.00000   0.00006   0.00003  -0.00000  -0.00003  -0.00000  -0.00000   0.00000  -0.00000  -0.00000  -0.00000   0.00000  -0.00000   0.00000  -0.00000
  -0.00000  -0.00000  -0.04012   0.00006   0.00011   0.00419   0.00003  -0.00000  -0.00000   0.00000   0.00000  -0.00000  -0.00000   0.00000   0.00000  -0.00000  -0.00000  -0.00000
   0.00000   0.00000  -0.00000   0.00000  -0.00000   0.00000   0.00000   0.00000   0.00000  -0.17333  -0.00000   0.17333   0.00623  -0.00000  -0.01070  -0.00000   0.01070   0.00192
   0.00001   0.00002   0.00000   0.00000   0.00000   0.00000   0.00000  -0.00000   0.17333  -0.00000  -0.01140  -0.17882  -0.00821   0.01072  -0.00002   0.00055  -0.01013  -0.00014
  -0.00000  -0.00000   0.00000   0.00000   0.00000  -0.00000  -0.00000  -0.00000   0.00000   0.01140   0.00000  -0.01140  -0.00063   0.00000   0.00063   0.00000  -0.00063  -0.00003
  -0.00001  -0.00002   0.00000   0.00000   0.00000  -0.00000   0.00000   0.00000  -0.17333   0.17882   0.01140   0.00000  -0.00821  -0.01072   0.01013  -0.00055   0.00002  -0.00014
  -0.00002  -0.00004   0.00000   0.00000   0.00000  -0.00000   0.00000   0.00000  -0.00623   0.00821   0.00063   0.00821  -0.00000  -0.00220   0.00049  -0.00003   0.00049   0.00000
   0.00000  -0.00000  -0.00000   0.00000  -0.00000  -0.00000   0.00000  -0.00000   0.00000  -0.01072  -0.00000   0.01072   0.00220   0.00000  -0.00066  -0.00000   0.00066  -0.00009
   0.00000  -0.00001  -0.00000   0.00000   0.00000   0.00000  -0.00000  -0.00000   0.01070   0.00002  -0.00063  -0.01013  -0.00049   0.00066   0.00000   0.00004  -0.00068  -0.00001
   0.00000   0.00000   0.00000   0.00000   0.00000   0.00000   0.00000   0.00000   0.00000  -0.00055  -0.00000   0.00055   0.00003   0.00000  -0.00004  -0.00000   0.00004  -0.00000
  -0.00000   0.00001   0.00000   0.00000  -0.00000  -0.00000  -0.00000   0.00000  -0.01070   0.01013   0.00063  -0.00002  -0.00049  -0.00066   0.00068  -0.00004  -0.00000  -0.00001
   0.00000   0.00001   0.00000  -0.00000  -0.00000   0.00000   0.00000   0.00000  -0.00192   0.00014   0.00003   0.00014  -0.00000   0.00009   0.00001   0.00000   0.00001  -0.00000
   max. value=  1.79E-01, min. value= -1.73E-01

 "PAW+U" part of augmentation waves occupancies Rhoij:
 Atom #  1 - L=2 ONLY - Component dens (n)
   === REAL PART:
   1.43143  -0.17476  -0.01969  -0.17476   0.00000   0.01028  -0.01327   0.00047  -0.01327  -0.00000
  -0.17476   1.43143   0.00984  -0.17476  -0.01705  -0.01327   0.01028  -0.00024  -0.01327   0.00041
  -0.01969   0.00984   1.06940   0.00984   0.00000   0.00053  -0.00026  -0.07788  -0.00026   0.00000
  -0.17476  -0.17476   0.00984   1.43143   0.01705  -0.01327  -0.01327  -0.00024   0.01028  -0.00041
   0.00000  -0.01705   0.00000   0.01705   1.06940  -0.00000   0.00046   0.00000  -0.00046  -0.07788
   0.01028  -0.01327   0.00053  -0.01327  -0.00000   0.00149  -0.00058  -0.00012  -0.00058   0.00000
  -0.01327   0.01028  -0.00026  -0.01327   0.00046  -0.00058   0.00149   0.00006  -0.00058  -0.00010
   0.00047  -0.00024  -0.07788  -0.00024   0.00000  -0.00012   0.00006   0.00568   0.00006  -0.00000
  -0.01327  -0.01327  -0.00026   0.01028  -0.00046  -0.00058  -0.00058   0.00006   0.00149   0.00010
  -0.00000   0.00041   0.00000  -0.00041  -0.07788   0.00000  -0.00010  -0.00000   0.00010   0.00568
   === IMAGINARY PART:
  -0.00000   0.30378   0.00000  -0.30378  -0.01883  -0.00000   0.01917  -0.00000  -0.01917   0.00094
  -0.30378  -0.00000   0.01630   0.30378   0.00941  -0.01917  -0.00000  -0.00082   0.01917  -0.00047
  -0.00000  -0.01630  -0.00000   0.01630   0.00104  -0.00000  -0.00017  -0.00000   0.00017  -0.00001
   0.30378  -0.30378  -0.01630   0.00000   0.00941   0.01917  -0.01917   0.00082  -0.00000  -0.00047
   0.01883  -0.00941  -0.00104  -0.00941  -0.00000   0.00020  -0.00010   0.00001  -0.00010  -0.00000
   0.00000   0.01917   0.00000  -0.01917  -0.00020  -0.00000   0.00115  -0.00000  -0.00115  -0.00007
  -0.01917   0.00000   0.00017   0.01917   0.00010  -0.00115  -0.00000   0.00006   0.00115   0.00003
   0.00000   0.00082   0.00000  -0.00082  -0.00001   0.00000  -0.00006   0.00000   0.00006   0.00000
   0.01917  -0.01917  -0.00017   0.00000   0.00010   0.00115  -0.00115  -0.00006  -0.00000   0.00003
  -0.00094   0.00047   0.00001   0.00047   0.00000   0.00007  -0.00003  -0.00000  -0.00003  -0.00000
 Atom #  1 - L=2 ONLY - Component magn (x)
   === REAL PART:
   0.42161   0.10160   0.01223   0.10122   0.00147  -0.01897   0.00511   0.00031   0.00476  -0.00008
   0.10160   0.42165  -0.00414   0.10160   0.00718   0.00453  -0.01900   0.00017   0.00453  -0.00029
[...]
  (  0.04751, -0.04751) (  0.02865,  0.00000) ( -0.00326, -0.00326) (  0.00000,  0.10866) (  0.23568, -0.23568) (

== Occupation matrix in the complex harmonics basis for component dwn-up
  (  0.22155,  0.22155) (  0.00000, -0.02918) ( -0.00493,  0.00493) (  0.12358,  0.00000) (  0.04751,  0.04751) (
  ( -0.03663,  0.00000) (  0.25362,  0.25362) (  0.00000,  0.00702) (  0.04291, -0.04291) (  0.02865,  0.00000) (
  (  0.00372, -0.00372) ( -0.00329,  0.00000) (  0.27542,  0.27542) (  0.00000,  0.01147) ( -0.00326,  0.00326) (
  ( -0.00000,  0.11973) ( -0.04270,  0.04270) (  0.00656,  0.00000) (  0.11017,  0.11017) ( -0.00000, -0.10866) (
  (  0.04613,  0.04613) (  0.00000,  0.02934) (  0.00442, -0.00442) ( -0.11292,  0.00000) (  0.23568,  0.23568) (



== Occupation matrix in the J (= L-1/2, L+1/2) and M_J basis
  (  0.697, -0.000) ( -0.082, -0.082) ( -0.000,  0.118) ( -0.079,  0.079) ( -0.178,  0.178) ( -0.200, -0.000) (  0.060,  0.060) ( -0.000,  0.106) (  0.026, -0.026) (  0.029,  0.000) (
  ( -0.082,  0.082) (  0.527,  0.000) ( -0.092, -0.092) ( -0.000,  0.023) ( -0.000, -0.017) ( -0.182,  0.182) ( -0.261, -0.000) (  0.150,  0.150) ( -0.000, -0.006) (  0.007, -0.007) (
  (  0.000, -0.118) ( -0.092,  0.092) (  0.671, -0.000) (  0.059,  0.059) ( -0.127, -0.127) ( -0.000, -0.035) ( -0.165,  0.165) ( -0.061, -0.000) (  0.127,  0.127) ( -0.000, -0.081) (
  ( -0.079, -0.079) (  0.000, -0.023) (  0.059, -0.059) (  0.501,  0.000) ( -0.155, -0.000) ( -0.021, -0.021) (  0.000,  0.035) (  0.055, -0.055) ( -0.282, -0.000) (  0.193,  0.193) (
  ( -0.178, -0.178) ( -0.000,  0.017) ( -0.127,  0.127) ( -0.155,  0.000) (  0.324, -0.000) (  0.138,  0.138) ( -0.000, -0.026) ( -0.110,  0.110) (  0.061,  0.000) (  0.048,  0.048) (
  ( -0.200, -0.000) ( -0.182, -0.182) ( -0.000,  0.035) ( -0.021,  0.021) (  0.138, -0.138) (  0.305, -0.000) (  0.146,  0.146) ( -0.000,  0.034) (  0.010, -0.010) (  0.018,  0.000) (
  (  0.060, -0.060) ( -0.261, -0.000) ( -0.165, -0.165) (  0.000, -0.035) (  0.000,  0.026) (  0.146, -0.146) (  0.414,  0.000) (  0.141,  0.141) (  0.000,  0.013) ( -0.010,  0.010) (
  (  0.000, -0.106) (  0.150, -0.150) ( -0.061, -0.000) (  0.055,  0.055) ( -0.110, -0.110) ( -0.000, -0.034) (  0.141, -0.141) (  0.709, -0.000) (  0.103,  0.103) ( -0.000, -0.072) (
  (  0.026,  0.026) (  0.000,  0.006) (  0.127, -0.127) ( -0.282, -0.000) (  0.061, -0.000) (  0.010,  0.010) (  0.000, -0.013) (  0.103, -0.103) (  0.642,  0.000) (  0.141,  0.141) (
  (  0.029, -0.000) (  0.007,  0.007) ( -0.000,  0.081) (  0.193, -0.193) (  0.048, -0.048) (  0.018,  0.000) ( -0.010, -0.010) (  0.000,  0.072) (  0.141, -0.141) (  0.763,  0.000) (



================================================================================

 ----iterations are completed or convergence reached----

 Mean square residual over all n,k,spin=   26.219E-17; max=  21.986E-16
   0.0000  0.0000  0.0000    1  2.19861E-15 kpt; spin; max resid(k); each band:
  3.53E-17 1.73E-17 1.70E-17 1.71E-17 1.79E-17 1.80E-17 2.52E-19 5.00E-19
  1.06E-16 1.73E-17 1.37E-17 9.71E-16 6.20E-17 1.31E-15 1.45E-17 2.33E-16
  2.70E-16 8.36E-16 2.20E-15 1.32E-16 1.32E-18 9.28E-19 4.40E-19 4.61E-19
 reduced coordinates (array xred) for    1 atoms
       0.000000000000      0.000000000000      0.000000000000
 rms dE/dt=  0.0000E+00; max dE/dt=  0.0000E+00; dE/dt below (all hartree)
    1       0.000000000000      0.000000000000      0.000000000000

 cartesian coordinates (angstrom) at end:
    1      0.00000000000000     0.00000000000000     0.00000000000000

 cartesian forces (hartree/bohr) at end:
    1     -0.00000000000000    -0.00000000000000    -0.00000000000000
 frms,max,avg= 0.0000000E+00 0.0000000E+00   0.000E+00  0.000E+00  0.000E+00 h/b

 cartesian forces (eV/Angstrom) at end:
    1     -0.00000000000000    -0.00000000000000    -0.00000000000000
 frms,max,avg= 0.0000000E+00 0.0000000E+00   0.000E+00  0.000E+00  0.000E+00 e/A
 length scales=  5.420000000000  5.420000000000  5.420000000000 bohr
              =  2.868140470558  2.868140470558  2.868140470558 angstroms
 prteigrs : about to open file t78o_DS8_EIG
 Fermi (or HOMO) energy (hartree) =   0.47246   Average Vxc (hartree)=  -0.52165
 Eigenvalues (hartree) for nkpt=   1  k points:
 kpt#   1, nband= 24, wtk=  1.00000, kpt=  0.0000  0.0000  0.0000 (reduced coord)
  -2.81160   -2.81159   -1.61139   -1.61139   -1.55810   -1.55810   -1.54587   -1.54587
   0.01741    0.02298    0.02386    0.07600    0.07845    0.10865    0.11333    0.44736
   0.49760    0.50616    0.61090    0.62766    1.20785    1.20785    1.20785    1.20785
      occupation numbers for kpt#   1
   1.00000    1.00000    1.00000    1.00000    1.00000    1.00000    1.00000    1.00000
   1.00000    1.00000    1.00000    1.00000    1.00000    1.00000    1.00000    1.00000
   0.00000    0.00000    0.00000    0.00000    0.00000    0.00000    0.00000    0.00000
 Total charge density [el/Bohr^3]
)     Maximum=    2.8109E+00  at reduced coord.    0.0000    0.0000    0.0000
)Next maximum=    2.7174E+00  at reduced coord.    0.0000    0.0000    0.9583
)     Minimum=    3.0139E-02  at reduced coord.    0.7500    0.5000    0.2500
)Next minimum=    3.0139E-02  at reduced coord.    0.5000    0.7500    0.2500
   Integrated=    1.6000E+01
 x component of magnetization [el/Bohr^3]
)     Maximum=    4.0606E-01  at reduced coord.    0.0000    0.0000    0.0000
)Next maximum=    3.9219E-01  at reduced coord.    0.9583    0.9583    0.9583
)     Minimum=    2.7412E-04  at reduced coord.    0.7500    0.5000    0.2500
)Next minimum=    2.7412E-04  at reduced coord.    0.7500    0.2500    0.5000
   Integrated=    2.3091E+00
 y component of magnetization [el/Bohr^3]
)     Maximum=    4.0606E-01  at reduced coord.    0.0000    0.0000    0.0000
)Next maximum=    3.9219E-01  at reduced coord.    0.9583    0.9583    0.9583
)     Minimum=    2.7412E-04  at reduced coord.    0.5000    0.7500    0.2500
)Next minimum=    2.7412E-04  at reduced coord.    0.7500    0.2500    0.5000
   Integrated=    2.3091E+00
 z component of magnetization [el/Bohr^3]
)     Maximum=    4.0606E-01  at reduced coord.    0.0000    0.0000    0.0000
)Next maximum=    3.9219E-01  at reduced coord.    0.9583    0.9583    0.9583
)     Minimum=    2.7412E-04  at reduced coord.    0.7500    0.5000    0.2500
)Next minimum=    2.7412E-04  at reduced coord.    0.5000    0.7500    0.2500
   Integrated=    2.3091E+00
 Magnetization (absolute value) [el/Bohr^3]
)     Maximum=    7.0332E-01  at reduced coord.    0.0000    0.0000    0.0000
)Next maximum=    6.7929E-01  at reduced coord.    0.9583    0.9583    0.9583
)     Minimum=    4.7493E-04  at reduced coord.    0.7500    0.5000    0.2500
)Next minimum=    4.7493E-04  at reduced coord.    0.5000    0.7500    0.2500
   Integrated=    3.9995E+00
 Relative magnetization (=zeta, between -1 and 1)
)     Maximum=    4.8384E-01  at reduced coord.    0.6250    0.6250    0.6250
)Next maximum=    4.8384E-01  at reduced coord.    0.3750    0.3750    0.3750
)     Minimum=    1.5758E-02  at reduced coord.    0.5000    0.7500    0.2500
)Next minimum=    1.5758E-02  at reduced coord.    0.7500    0.2500    0.5000

--- !EnergyTerms
iteration_state     : {dtset: 8, }
comment             : Components of total free energy in Hartree
kinetic             :  8.38600713645951E+00
hartree             :  2.41056383726741E+01
xc                  : -1.16284244420050E+01
Ewald energy        : -8.59449965935601E+01
psp_core            :  6.04605004258409E+00
local_psp           : -6.94999378738234E+01
spherical_terms     :  3.46719402879575E+00
internal            : -1.25068469328875E+02
'-kT*entropy'       : -6.02551808850852E-14
total_energy        : -1.25068469328875E+02
total_energy_eV     : -3.40328612769066E+03
...


--- !EnergyTermsDC
iteration_state     : {dtset: 8, }
comment             : '"Double-counting" decomposition of free energy'
band_energy         : -1.41658470172656E+01
Ewald energy        : -8.59449965935601E+01
psp_core            :  6.04605004258409E+00
xc_dc               : -2.04574541787411E+01
spherical_terms     : -1.05462216359334E+01
internal            : -1.25068469382916E+02
'-kT*entropy'       : -6.02551808850852E-14
total_energy_dc     : -1.25068469382916E+02
total_energy_dc_eV  : -3.40328612916119E+03
...


 Cartesian components of stress tensor (hartree/bohr^3)
  sigma(1 1)= -1.59290794E-04  sigma(3 2)= -8.86328304E-04
  sigma(2 2)= -1.59290794E-04  sigma(3 1)= -8.86328304E-04
  sigma(3 3)= -1.59290794E-04  sigma(2 1)= -8.86328304E-04

-Cartesian components of stress tensor (GPa)         [Pressure=  4.6865E+00 GPa]
- sigma(1 1)= -4.68649617E+00  sigma(3 2)= -2.60766746E+01
- sigma(2 2)= -4.68649617E+00  sigma(3 1)= -2.60766746E+01
- sigma(3 3)= -4.68649617E+00  sigma(2 1)= -2.60766746E+01

== END DATASET(S) ==============================================================
================================================================================
  
 -outvars: echo values of variables after computation  --------
            acell      5.4200000000E+00  5.4200000000E+00  5.4200000000E+00 Bohr
              amu      5.58470000E+01
      chksymbreak           0
             ecut      1.40000000E+01 Hartree
           etotal1    -1.2521102417E+02
           etotal2    -1.2521102417E+02
           etotal3    -1.2506846938E+02
           etotal4    -1.2506846938E+02
           etotal5    -1.2481727739E+02
           etotal6    -1.2481727670E+02
           etotal7    -1.2506846938E+02
           etotal8    -1.2506846938E+02
            fcart1     0.0000000000E+00  0.0000000000E+00  0.0000000000E+00
            fcart2     0.0000000000E+00  0.0000000000E+00  0.0000000000E+00
            fcart3    -0.0000000000E+00 -0.0000000000E+00 -0.0000000000E+00
            fcart4    -0.0000000000E+00 -0.0000000000E+00 -0.0000000000E+00
            fcart5    -0.0000000000E+00 -0.0000000000E+00 -0.0000000000E+00
            fcart6    -0.0000000000E+00 -0.0000000000E+00 -0.0000000000E+00
            fcart7    -0.0000000000E+00 -0.0000000000E+00 -0.0000000000E+00
            fcart8    -0.0000000000E+00 -0.0000000000E+00 -0.0000000000E+00
-          fftalg         512
           getden1          0
           getden2          0
           getden3          1
           getden4          2
           getden5          1
           getden6          2
           getden7          1
           getden8          2
           getwfk1          0
           getwfk2          0
           getwfk3          1
           getwfk4          2
           getwfk5          1
           getwfk6          2
           getwfk7          1
           getwfk8          2
           istwfk        1
              ixc           7
           jdtset        1    2    3    4    5    6    7    8
            jpawu      1.10247976E-01 Hartree
           kptopt           3
         kptrlatt        1    0    0      0    1    0      0    0    1
          kptrlen      4.69385769E+00
            lpawu           2
P           mkmem           1
            natom           1
            nband          24
           ndtset           8
            ngfft          16      16      16
          ngfftdg          24      24      24
             nkpt           1
            nline          12
           nspden           4
          nspinor           2
            nstep1         15
            nstep2         15
            nstep3         15
            nstep4         15
            nstep5         50
            nstep6         50
            nstep7         15
            nstep8         15
             nsym           6
           ntypat           1
              occ      1.000000  1.000000  1.000000  1.000000  1.000000  1.000000
                       1.000000  1.000000  1.000000  1.000000  1.000000  1.000000
                       1.000000  1.000000  1.000000  1.000000  0.000000  0.000000
                       0.000000  0.000000  0.000000  0.000000  0.000000  0.000000
           occopt           7
     optdcmagpawu1          1
     optdcmagpawu2          1
     optdcmagpawu3          1
     optdcmagpawu4          1
     optdcmagpawu5          3
     optdcmagpawu6          3
     optdcmagpawu7          3
     optdcmagpawu8          3
        pawcpxocc           2
        pawecutdg      3.00000000E+01 Hartree
        pawprtvol          -3
        pawspnorb           1
           prtvol           3
        ptgroupma          30
            rprim     -5.0000000000E-01  5.0000000000E-01  5.0000000000E-01
                       5.0000000000E-01 -5.0000000000E-01  5.0000000000E-01
                       5.0000000000E-01  5.0000000000E-01 -5.0000000000E-01
          spgroup         155
           spinat      1.0000000000E+00  1.0000000000E+00  1.0000000000E+00
           strten1    -2.6534354369E-04 -2.6534354369E-04 -2.6534354369E-04
                      -9.3505023174E-04 -9.3505023174E-04 -9.3505023174E-04
           strten2    -2.6534354324E-04 -2.6534354324E-04 -2.6534354324E-04
                      -9.3505023173E-04 -9.3505023173E-04 -9.3505023173E-04
           strten3    -1.5929080879E-04 -1.5929080879E-04 -1.5929080879E-04
                      -8.8632831678E-04 -8.8632831678E-04 -8.8632831678E-04
           strten4    -1.5929079413E-04 -1.5929079413E-04 -1.5929079413E-04
                      -8.8632830449E-04 -8.8632830449E-04 -8.8632830449E-04
           strten5    -4.4829700938E-04 -4.4829700938E-04 -4.4829700938E-04
                      -8.4674114995E-04 -8.4674114995E-04 -8.4674114995E-04
           strten6    -4.4609221056E-04 -4.4609221056E-04 -4.4609221056E-04
                      -8.4773409512E-04 -8.4773409512E-04 -8.4773409512E-04
           strten7    -1.5929080879E-04 -1.5929080879E-04 -1.5929080879E-04
                      -8.8632831678E-04 -8.8632831678E-04 -8.8632831678E-04
           strten8    -1.5929079413E-04 -1.5929079413E-04 -1.5929079413E-04
                      -8.8632830449E-04 -8.8632830449E-04 -8.8632830449E-04
           symafm        1   -1    1   -1    1   -1
           symrel      1  0  0   0  1  0   0  0  1       0 -1  0  -1  0  0   0  0 -1
                       0  1  0   0  0  1   1  0  0       0  0 -1   0 -1  0  -1  0  0
                       0  0  1   1  0  0   0  1  0      -1  0  0   0  0 -1   0 -1  0
           tolvrs      1.00000000E-15
           tsmear      5.06690467E-03 Hartree
            typat      1
            upawu      2.20495952E-01 Hartree
          usepawu1          1
          usepawu2         -1
          usepawu3          4
          usepawu4         -4
          usepawu5          1
          usepawu6         -1
          usepawu7          4
          usepawu8         -4
           useylm           1
            znucl       26.00000

================================================================================


- Timing analysis has been suppressed with timopt=0



================================================================================

 Suggested references for the acknowledgment of ABINIT usage.

 The users of ABINIT have little formal obligations with respect to the ABINIT group
 (those specified in the GNU General Public License, http://www.gnu.org/copyleft/gpl.txt).
 However, it is common practice in the scientific literature,
 to acknowledge the efforts of people that have made the research possible.
 In this spirit, please find below suggested citations of work written by ABINIT developers,
 corresponding to implementations inside of ABINIT that you have used in the present run.
 Note also that it will be of great value to readers of publications presenting these results,
 to read papers enabling them to understand the theoretical formalism and details
 of the ABINIT implementation.
 For information on why they are suggested, see also https://docs.abinit.org/theory/acknowledgments.
-
- [1] Gamma and beta cerium: DFT+U calculations of ground-state parameters.
- B. Amadon, F. Jollet and M. Torrent, Phys. Rev. B 77, 155104 (2008).
- Comment: DFT+U calculations, usepawu/=0. Strong suggestion to cite this paper.
- DOI and bibtex: see https://docs.abinit.org/theory/bibliography/#amadon2008a
-
- [2] Implementation of the Projector Augmented-Wave Method in the ABINIT code.
- M. Torrent, F. Jollet, F. Bottin, G. Zerah, and X. Gonze Comput. Mat. Science 42, 337, (2008).
- Comment: PAW calculations. Strong suggestion to cite this paper.
- DOI and bibtex: see https://docs.abinit.org/theory/bibliography/#torrent2008
-
- [3] The Abinit project: Impact, environment and recent developments.
- Computer Phys. Comm. 248, 107042 (2020).
- X.Gonze, B. Amadon, G. Antonius, F.Arnardi, L.Baguet, J.-M.Beuken,
- J.Bieder, F.Bottin, J.Bouchet, E.Bousquet, N.Brouwer, F.Bruneval,
- G.Brunin, T.Cavignac, J.-B. Charraud, Wei Chen, M.Cote, S.Cottenier,
- J.Denier, G.Geneste, Ph.Ghosez, M.Giantomassi, Y.Gillet, O.Gingras,
- D.R.Hamann, G.Hautier, Xu He, N.Helbig, N.Holzwarth, Y.Jia, F.Jollet,
- W.Lafargue-Dit-Hauret, K.Lejaeghere, M.A.L.Marques, A.Martin, C.Martins,
- H.P.C. Miranda, F.Naccarato, K. Persson, G.Petretto, V.Planes, Y.Pouillon,
- S.Prokhorenko, F.Ricci, G.-M.Rignanese, A.H.Romero, M.M.Schmitt, M.Torrent,
- M.J.van Setten, B.Van Troeye, M.J.Verstraete, G.Zerah and J.W.Zwanzig
- Comment: the fifth generic paper describing the ABINIT project.
- Note that a version of this paper, that is not formatted for Computer Phys. Comm. 
- is available at https://www.abinit.org/sites/default/files/ABINIT20.pdf .
- The licence allows the authors to put it on the Web.
- DOI and bibtex: see https://docs.abinit.org/theory/bibliography/#gonze2020
-
- [4] ABINIT: Overview, and focus on selected capabilities
- J. Chem. Phys. 152, 124102 (2020).
- A. Romero, D.C. Allan, B. Amadon, G. Antonius, T. Applencourt, L.Baguet,
- J.Bieder, F.Bottin, J.Bouchet, E.Bousquet, F.Bruneval,
- G.Brunin, D.Caliste, M.Cote,
- J.Denier, C. Dreyer, Ph.Ghosez, M.Giantomassi, Y.Gillet, O.Gingras,
- D.R.Hamann, G.Hautier, F.Jollet, G. Jomard,
- A.Martin, 
- H.P.C. Miranda, F.Naccarato, G.Petretto, N.A. Pike, V.Planes,
- S.Prokhorenko, T. Rangel, F.Ricci, G.-M.Rignanese, M.Royo, M.Stengel, M.Torrent,
- M.J.van Setten, B.Van Troeye, M.J.Verstraete, J.Wiktor, J.W.Zwanziger, and X.Gonze.
- Comment: a global overview of ABINIT, with focus on selected capabilities .
- Note that a version of this paper, that is not formatted for J. Chem. Phys 
- is available at https://www.abinit.org/sites/default/files/ABINIT20_JPC.pdf .
- The licence allows the authors to put it on the Web.
- DOI and bibtex: see https://docs.abinit.org/theory/bibliography/#romero2020
-
- [5] Recent developments in the ABINIT software package.
- Computer Phys. Comm. 205, 106 (2016).
- X.Gonze, F.Jollet, F.Abreu Araujo, D.Adams, B.Amadon, T.Applencourt,
- C.Audouze, J.-M.Beuken, J.Bieder, A.Bokhanchuk, E.Bousquet, F.Bruneval
- D.Caliste, M.Cote, F.Dahm, F.Da Pieve, M.Delaveau, M.Di Gennaro,
- B.Dorado, C.Espejo, G.Geneste, L.Genovese, A.Gerossier, M.Giantomassi,
- Y.Gillet, D.R.Hamann, L.He, G.Jomard, J.Laflamme Janssen, S.Le Roux,
- A.Levitt, A.Lherbier, F.Liu, I.Lukacevic, A.Martin, C.Martins,
- M.J.T.Oliveira, S.Ponce, Y.Pouillon, T.Rangel, G.-M.Rignanese,
- A.H.Romero, B.Rousseau, O.Rubel, A.A.Shukri, M.Stankovski, M.Torrent,
- M.J.Van Setten, B.Van Troeye, M.J.Verstraete, D.Waroquier, J.Wiktor,
- B.Xu, A.Zhou, J.W.Zwanziger.
- Comment: the fourth generic paper describing the ABINIT project.
- Note that a version of this paper, that is not formatted for Computer Phys. Comm. 
- is available at https://www.abinit.org/sites/default/files/ABINIT16.pdf .
- The licence allows the authors to put it on the Web.
- DOI and bibtex: see https://docs.abinit.org/theory/bibliography/#gonze2016
-
- Proc.   0 individual time (sec): cpu=         29.9  wall=         30.3

================================================================================

 Calculation completed.
.Delivered  28 WARNINGs and  25 COMMENTs to log file.
+Overall time at end (sec) : cpu=         29.9  wall=         30.3
