
.Version 9.7.2 of ABINIT 
.(MPI version, prepared for a x86_64_linux_gnu9.3 computer) 

.Copyright (C) 1998-2022 ABINIT group . 
 ABINIT comes with ABSOLUTELY NO WARRANTY.
 It is free software, and you are welcome to redistribute it
 under certain conditions (GNU General Public License,
 see ~abinit/COPYING or http://www.gnu.org/copyleft/gpl.txt).

 ABINIT is a project of the Universite Catholique de Louvain,
 Corning Inc. and other collaborators, see ~abinit/doc/developers/contributors.txt .
 Please read https://docs.abinit.org/theory/acknowledgments for suggested
 acknowledgments of the ABINIT effort.
 For more information, see https://www.abinit.org .

.Starting date : Thu 10 Feb 2022.
- ( at 14h29 )
  
- input  file    -> /home/buildbot/ABINIT/alps_gnu_9.3_openmpi/trunk__beuken/tests/TestBot_MPI1/v9_t79/t79.abi
- output file    -> t79.abo
- root for input  files -> t79i
- root for output files -> t79o


 invars1: COMMENT -
  With nspinor=2 and usepaw=1, pawspnorb=1 has been switched on by default.

 invars1: COMMENT -
  With nspinor=2 and usepaw=1, pawspnorb=1 has been switched on by default.

 DATASET    1 : space group P1 (#  1); Bravais aP (primitive triclinic)
================================================================================
 Values of the parameters that define the memory need for DATASET  1.
     intxc =       0    ionmov =       0      iscf =      17    lmnmax =      18
     lnmax =       6     mgfft =      30  mpssoang =       3    mqgrid =    3001
     natom =       4  nloc_mem =       2    nspden =       1   nspinor =       2
    nsppol =       1      nsym =       1    n1xccc =       1    ntypat =       2
    occopt =       7   xclevel =       1
-    mband =          50        mffmem =           1         mkmem =           8
       mpw =         277          nfft =        7680          nkpt =           8
 PAW method is used; the additional fine FFT grid is defined by:
   mgfftf=        32    nfftf =      8192
================================================================================
P This job should need less than                      13.657 Mbytes of memory.
  Rough estimation (10% accuracy) of disk space for files :
_ WF disk file :      1.693 Mbytes ; DEN or POT disk file :      0.065 Mbytes.
================================================================================


 DATASET    2 : space group P1 (#  1); Bravais aP (primitive triclinic)
================================================================================
 Values of the parameters that define the memory need for DATASET  2.
     intxc =       0    ionmov =       0      iscf =      17    lmnmax =      18
     lnmax =       6     mgfft =      30  mpssoang =       3    mqgrid =    3001
     natom =       4  nloc_mem =       2    nspden =       1   nspinor =       2
    nsppol =       1      nsym =       1    n1xccc =       1    ntypat =       2
    occopt =       7   xclevel =       1
-    mband =          50        mffmem =           1         mkmem =           8
       mpw =         277          nfft =        7680          nkpt =           8
 PAW method is used; the additional fine FFT grid is defined by:
   mgfftf=        32    nfftf =      8192
================================================================================
P This job should need less than                      13.657 Mbytes of memory.
  Rough estimation (10% accuracy) of disk space for files :
_ WF disk file :      1.693 Mbytes ; DEN or POT disk file :      0.065 Mbytes.
================================================================================

--------------------------------------------------------------------------------
------------- Echo of variables that govern the present computation ------------
--------------------------------------------------------------------------------
-
- outvars: echo of selected default values                                      
-   iomode0 =  0 , fftalg0 =312 , wfoptalg0 = 10
-
- outvars: echo of global parameters not present in the input file              
-  max_nthreads =    0
-
 -outvars: echo values of preprocessed input variables --------
            acell      7.9200000000E+00  7.9200000000E+00  7.9200000000E+00 Bohr
              amu      5.86900000E+01  1.59994000E+01
      chksymbreak           0
           diemix      5.00000000E-01
             ecut      8.00000000E+00 Hartree
-          fftalg         312
              ixc           7
           jdtset        1    2
            jpawu      3.50000000E-02  0.00000000E+00 Hartree
              kpt      2.50000000E-01  2.50000000E-01  2.50000000E-01
                      -2.50000000E-01  2.50000000E-01  2.50000000E-01
                       2.50000000E-01 -2.50000000E-01  2.50000000E-01
                      -2.50000000E-01 -2.50000000E-01  2.50000000E-01
                       2.50000000E-01  2.50000000E-01 -2.50000000E-01
                      -2.50000000E-01  2.50000000E-01 -2.50000000E-01
                       2.50000000E-01 -2.50000000E-01 -2.50000000E-01
                      -2.50000000E-01 -2.50000000E-01 -2.50000000E-01
           kptopt           4
         kptrlatt        2    0    0      0    2    0      0    0    2
          kptrlen      1.12005714E+01
            lpawu           2      -1
P           mkmem           8
            natom           4
            nband          50
           ndtset           2
            ngfft          16      16      30
          ngfftdg          16      16      32
             nkpt           8
          nspinor           2
            nstep           3
             nsym           1
           ntypat           2
              occ      1.000000  1.000000  1.000000  1.000000  1.000000  1.000000
                       1.000000  1.000000  1.000000  1.000000  1.000000  1.000000
                       1.000000  1.000000  1.000000  1.000000  1.000000  1.000000
                       1.000000  1.000000  1.000000  1.000000  1.000000  1.000000
                       1.000000  1.000000  1.000000  1.000000  1.000000  1.000000
                       1.000000  1.000000  1.000000  1.000000  1.000000  1.000000
                       1.000000  1.000000  1.000000  1.000000  1.000000  1.000000
                       1.000000  1.000000  1.000000  1.000000  1.000000  1.000000
                       0.000000  0.000000
                       1.000000  1.000000  1.000000  1.000000  1.000000  1.000000
                       1.000000  1.000000  1.000000  1.000000  1.000000  1.000000
                       1.000000  1.000000  1.000000  1.000000  1.000000  1.000000
                       1.000000  1.000000  1.000000  1.000000  1.000000  1.000000
                       1.000000  1.000000  1.000000  1.000000  1.000000  1.000000
                       1.000000  1.000000  1.000000  1.000000  1.000000  1.000000
                       1.000000  1.000000  1.000000  1.000000  1.000000  1.000000
                       1.000000  1.000000  1.000000  1.000000  1.000000  1.000000
                       0.000000  0.000000
                       1.000000  1.000000  1.000000  1.000000  1.000000  1.000000
                       1.000000  1.000000  1.000000  1.000000  1.000000  1.000000
                       1.000000  1.000000  1.000000  1.000000  1.000000  1.000000
                       1.000000  1.000000  1.000000  1.000000  1.000000  1.000000
                       1.000000  1.000000  1.000000  1.000000  1.000000  1.000000
                       1.000000  1.000000  1.000000  1.000000  1.000000  1.000000
                       1.000000  1.000000  1.000000  1.000000  1.000000  1.000000
                       1.000000  1.000000  1.000000  1.000000  1.000000  1.000000
                       0.000000  0.000000
                       1.000000  1.000000  1.000000  1.000000  1.000000  1.000000
                       1.000000  1.000000  1.000000  1.000000  1.000000  1.000000
                       1.000000  1.000000  1.000000  1.000000  1.000000  1.000000
                       1.000000  1.000000  1.000000  1.000000  1.000000  1.000000
                       1.000000  1.000000  1.000000  1.000000  1.000000  1.000000
                       1.000000  1.000000  1.000000  1.000000  1.000000  1.000000
                       1.000000  1.000000  1.000000  1.000000  1.000000  1.000000
                       1.000000  1.000000  1.000000  1.000000  1.000000  1.000000
                       0.000000  0.000000
                       1.000000  1.000000  1.000000  1.000000  1.000000  1.000000
                       1.000000  1.000000  1.000000  1.000000  1.000000  1.000000
                       1.000000  1.000000  1.000000  1.000000  1.000000  1.000000
                       1.000000  1.000000  1.000000  1.000000  1.000000  1.000000
                       1.000000  1.000000  1.000000  1.000000  1.000000  1.000000
                       1.000000  1.000000  1.000000  1.000000  1.000000  1.000000
                       1.000000  1.000000  1.000000  1.000000  1.000000  1.000000
                       1.000000  1.000000  1.000000  1.000000  1.000000  1.000000
                       0.000000  0.000000
                       1.000000  1.000000  1.000000  1.000000  1.000000  1.000000
                       1.000000  1.000000  1.000000  1.000000  1.000000  1.000000
                       1.000000  1.000000  1.000000  1.000000  1.000000  1.000000
                       1.000000  1.000000  1.000000  1.000000  1.000000  1.000000
                       1.000000  1.000000  1.000000  1.000000  1.000000  1.000000
                       1.000000  1.000000  1.000000  1.000000  1.000000  1.000000
                       1.000000  1.000000  1.000000  1.000000  1.000000  1.000000
                       1.000000  1.000000  1.000000  1.000000  1.000000  1.000000
                       0.000000  0.000000
                       1.000000  1.000000  1.000000  1.000000  1.000000  1.000000
                       1.000000  1.000000  1.000000  1.000000  1.000000  1.000000
                       1.000000  1.000000  1.000000  1.000000  1.000000  1.000000
                       1.000000  1.000000  1.000000  1.000000  1.000000  1.000000
                       1.000000  1.000000  1.000000  1.000000  1.000000  1.000000
                       1.000000  1.000000  1.000000  1.000000  1.000000  1.000000
                       1.000000  1.000000  1.000000  1.000000  1.000000  1.000000
                       1.000000  1.000000  1.000000  1.000000  1.000000  1.000000
                       0.000000  0.000000
                       1.000000  1.000000  1.000000  1.000000  1.000000  1.000000
                       1.000000  1.000000  1.000000  1.000000  1.000000  1.000000
                       1.000000  1.000000  1.000000  1.000000  1.000000  1.000000
                       1.000000  1.000000  1.000000  1.000000  1.000000  1.000000
                       1.000000  1.000000  1.000000  1.000000  1.000000  1.000000
                       1.000000  1.000000  1.000000  1.000000  1.000000  1.000000
                       1.000000  1.000000  1.000000  1.000000  1.000000  1.000000
                       1.000000  1.000000  1.000000  1.000000  1.000000  1.000000
                       0.000000  0.000000
           occopt           7
        optforces           1
        pawcpxocc           2
        pawecutdg      1.00000000E+01 Hartree
        pawprtvol           3
        pawspnorb           1
           prtden           0
           prteig           0
            prtwf           0
            rprim      0.0000000000E+00  5.0000000000E-01  5.0000000000E-01
                       5.0000000000E-01  0.0000000000E+00  5.0000000000E-01
                       1.0000000000E+00  1.0000000000E+00  0.0000000000E+00
           shiftk      5.00000000E-01  5.00000000E-01  5.00000000E-01
          spgroup           1
           spinat      0.0000000000E+00  0.0000000000E+00  1.0000000000E+00
                       0.0000000000E+00  0.0000000000E+00 -1.0000000000E+00
                       0.0000000000E+00  0.0000000000E+00  0.0000000000E+00
                       0.0000000000E+00  0.0000000000E+00  0.0000000000E+00
        spnorbscl      1.0000000000E+03
           tolvrs      1.00000000E-07
           tsmear      1.50000000E-02 Hartree
            typat      1  1  2  2
            upawu      3.00000000E-01  0.00000000E+00 Hartree
          usepawu1          1
          usepawu2         -1
           useylm           1
              wtk        0.12500    0.12500    0.12500    0.12500    0.12500    0.12500
                         0.12500    0.12500
           xangst      4.1910834920E-01  4.1910834920E-01 -7.4269235192E-34
                       2.0955417460E+00  2.0955417460E+00 -2.0880793867E-33
                       2.0955417460E+00  2.0955417460E+00  2.0955417460E+00
                       4.1910834920E+00  4.1910834920E+00  2.0955417460E+00
            xcart      7.9200000000E-01  7.9200000000E-01 -1.4034851461E-33
                       3.9600000000E+00  3.9600000000E+00 -3.9458981845E-33
                       3.9600000000E+00  3.9600000000E+00  3.9600000000E+00
                       7.9200000000E+00  7.9200000000E+00  3.9600000000E+00
             xred     -5.5982154939E-18  5.5982154939E-18  1.0000000000E-01
                      -2.7710718120E-17  2.7710718120E-17  5.0000000000E-01
                       5.0000000000E-01  5.0000000000E-01  2.5000000000E-01
                       5.0000000000E-01  5.0000000000E-01  7.5000000000E-01
            znucl       28.00000    8.00000

================================================================================

 chkinp: Checking input parameters for consistency, jdtset=   1.

 chkinp: Checking input parameters for consistency, jdtset=   2.

================================================================================
== DATASET  1 ==================================================================
-   mpi_nproc: 1, omp_nthreads: -1 (-1 if OMP is not activated)


--- !DatasetInfo
iteration_state: {dtset: 1, }
dimensions: {natom: 4, nkpt: 8, mband: 50, nsppol: 1, nspinor: 2, nspden: 1, mpw: 277, }
cutoff_energies: {ecut:   8.0, pawecutdg:  10.0, }
electrons: {nelect:   4.80000000E+01, charge:   0.00000000E+00, occopt:   7.00000000E+00, tsmear:   1.50000000E-02, }
meta: {optdriver: 0, ionmov: 0, optcell: 0, iscf: 17, paral_kgb: 0, }
...

 Exchange-correlation functional for the present dataset will be:
  LDA: Perdew-Wang 92 LSD fit to Ceperley-Alder data - ixc=7
 Citation for XC functional:
  J.P.Perdew and Y.Wang, PRB 45, 13244 (1992)

 Real(R)+Recip(G) space primitive vectors, cartesian coordinates (Bohr,Bohr^-1):
 R(1)=  0.0000000  3.9600000  3.9600000  G(1)= -0.1262626  0.1262626  0.1262626
 R(2)=  3.9600000  0.0000000  3.9600000  G(2)=  0.1262626 -0.1262626  0.1262626
 R(3)=  7.9200000  7.9200000  0.0000000  G(3)=  0.0631313  0.0631313 -0.0631313
 Unit cell volume ucvol=  2.4839654E+02 bohr^3
 Angles (23,13,12)=  6.00000000E+01  6.00000000E+01  6.00000000E+01 degrees

 Coarse grid specifications (used for wave-functions):

 getcut: wavevector=  0.0000  0.0000  0.0000  ngfft=  16  16  30
         ecut(hartree)=      8.000   => boxcut(ratio)=   2.10597

 Fine grid specifications (used for densities):

 getcut: wavevector=  0.0000  0.0000  0.0000  ngfft=  16  16  32
         ecut(hartree)=     10.000   => boxcut(ratio)=   2.00699

--- Pseudopotential description ------------------------------------------------
- pspini: atom type   1  psp file is /home/buildbot/ABINIT/alps_gnu_9.3_openmpi/trunk__beuken/tests/Psps_for_tests/28ni.paw
- pspatm: opening atomic psp file    /home/buildbot/ABINIT/alps_gnu_9.3_openmpi/trunk__beuken/tests/Psps_for_tests/28ni.paw
- Paw atomic data for element Ni - Generated by AtomPAW (N. Holzwarth) + AtomPAW2Abinit v3.0.5
- 28.00000  18.00000  20061204                znucl, zion, pspdat
    7    7    2    0       350   0.00000      pspcod,pspxc,lmax,lloc,mmax,r2well
 Pseudopotential format is: paw3
 basis_size (lnmax)=  5 (lmn_size= 13), orbitals=   0   0   1   1   2
 Spheres core radius: rc_sph= 2.30000000
 3 radial meshes are used:
  - mesh 1: r(i)=AA*exp(BB*(i-2)), size= 350 , AA= 0.11804E-04 BB= 0.35000E-01
  - mesh 2: r(i)=step*(i-1), size= 921 , step= 0.25000E-02
  - mesh 3: r(i)=AA*exp(BB*(i-2)), size= 391 , AA= 0.11804E-04 BB= 0.35000E-01
 Shapefunction is SIN type: shapef(r)=[sin(pi*r/rshp)/(pi*r/rshp)]**2
 Radius for shape functions = sphere core radius
 Radial grid used for partial waves is grid 1
 Radial grid used for projectors is grid  2
 Radial grid used for (t)core density is grid 1
 Radial grid used for Vloc is grid 3
 Compensation charge density is taken into account in XC energy/potential
 pspatm: atomic psp has been read  and splines computed

- pspini: atom type   2  psp file is /home/buildbot/ABINIT/alps_gnu_9.3_openmpi/trunk__beuken/tests/Psps_for_tests/8o.2.paw
- pspatm: opening atomic psp file    /home/buildbot/ABINIT/alps_gnu_9.3_openmpi/trunk__beuken/tests/Psps_for_tests/8o.2.paw
- Paw atomic data extracted from US-psp (D.Vanderbilt): Oxygen
-  8.00000   6.00000  20050722                znucl, zion, pspdat
    7   11    2    0       489   0.00000      pspcod,pspxc,lmax,lloc,mmax,r2well
 Pseudopotential format is: paw3
 basis_size (lnmax)=  6 (lmn_size= 18), orbitals=   0   0   1   1   2   2
 Spheres core radius: rc_sph= 1.21105161
 4 radial meshes are used:
  - mesh 1: r(i)=AA*[exp(BB*(i-1))-1], size= 489 , AA= 0.30984E-03 BB= 0.16949E-01
  - mesh 2: r(i)=AA*[exp(BB*(i-1))-1], size= 548 , AA= 0.30984E-03 BB= 0.16949E-01
  - mesh 3: r(i)=AA*[exp(BB*(i-1))-1], size= 509 , AA= 0.30984E-03 BB= 0.16949E-01
  - mesh 4: r(i)=AA*[exp(BB*(i-1))-1], size= 613 , AA= 0.30984E-03 BB= 0.16949E-01
 Shapefunction is SIN type: shapef(r)=[sin(pi*r/rshp)/(pi*r/rshp)]**2
 Radius for shape functions = sphere core radius
 Radial grid used for partial waves is grid 1
 Radial grid used for projectors is grid  2
 Radial grid used for (t)core density is grid 3
 Radial grid used for Vloc is grid 4
 Compensation charge density is taken into account in XC energy/potential
 pspatm: atomic psp has been read  and splines computed

   5.32753584E+03                                ecore*ucvol(ha*bohr**3)
--------------------------------------------------------------------------------

_setup2: Arith. and geom. avg. npw (full set) are     270.500     270.474


 ******************************************
 DFT+U Method used: FLL
 ******************************************

================================================================================

--- !BeginCycle
iteration_state: {dtset: 1, }
solver: {iscf: 17, nstep: 3, nline: 4, wfoptalg: 10, }
tolerances: {tolvrs: 1.00E-07, }
...

     iter   Etot(hartree)      deltaE(h)  residm     nres2    diffor    maxfor
 ETOT  1  -534.53884197012    -5.345E+02 2.162E+03 2.158E+02 2.298E+00 2.298E+00
 ETOT  2  -599.57667648644    -6.504E+01 4.241E+00 8.363E+01 2.119E+00 2.696E-01
 ETOT  3  -597.90719558133     1.669E+00 5.498E-01 3.142E+01 2.848E-01 4.094E-01

 Cartesian components of stress tensor (hartree/bohr^3)
  sigma(1 1)=  4.16666058E-01  sigma(3 2)= -2.88861309E-03
  sigma(2 2)=  4.16863788E-01  sigma(3 1)= -2.80340535E-03
  sigma(3 3)=  4.25820989E-01  sigma(2 1)= -3.23304347E-03


 scprqt:  WARNING -
  nstep=    3 was not enough SCF cycles to converge;
  density residual=  3.142E+01 exceeds tolvrs=  1.000E-07


--- !ResultsGS
iteration_state: {dtset: 1, }
comment   : Summary of ground state results
lattice_vectors:
- [  0.0000000,   3.9600000,   3.9600000, ]
- [  3.9600000,   0.0000000,   3.9600000, ]
- [  7.9200000,   7.9200000,   0.0000000, ]
lattice_lengths: [   5.60029,    5.60029,   11.20057, ]
lattice_angles: [ 60.000,  60.000,  60.000, ] # degrees, (23, 13, 12)
lattice_volume:   2.4839654E+02
convergence: {deltae:  1.669E+00, res2:  3.142E+01, residm:  5.498E-01, diffor:  2.848E-01, }
etotal    :  -5.97907196E+02
entropy   :   0.00000000E+00
fermie    :   9.01240594E-01
cartesian_stress_tensor: # hartree/bohr^3
- [  4.16666058E-01,  -3.23304347E-03,  -2.80340535E-03, ]
- [ -3.23304347E-03,   4.16863788E-01,  -2.88861309E-03, ]
- [ -2.80340535E-03,  -2.88861309E-03,   4.25820989E-01, ]
pressure_GPa:  -1.2350E+04
xred      :
- [ -5.5982E-18,   5.5982E-18,   1.0000E-01, Ni]
- [ -2.7711E-17,   2.7711E-17,   5.0000E-01, Ni]
- [  5.0000E-01,   5.0000E-01,   2.5000E-01,  O]
- [  5.0000E-01,   5.0000E-01,   7.5000E-01,  O]
cartesian_forces: # hartree/bohr
- [ -4.09417127E-01,  -3.10985683E-01,  -9.43288021E-02, ]
- [  1.27534499E-01,   4.64543133E-02,   5.67501681E-02, ]
- [  1.38977691E-01,   1.00344927E-01,   7.18276573E-02, ]
- [  1.42904937E-01,   1.64186442E-01,  -3.42490232E-02, ]
force_length_stats: {min:   1.47117753E-01, max:   5.22716368E-01, mean:   2.69009274E-01, }
...

 Integrated electronic density in atomic spheres:
 ------------------------------------------------
 Atom  Sphere_radius  Integrated_density
    1        2.30000         14.70692535
    2        2.30000         14.53942073
    3        1.21105          4.50360349
    4        1.21105          4.21428681

 PAW TEST:
 ==== Compensation charge inside spheres ============
 The following values must be close to each other ...
 Compensation charge over spherical meshes =     14.774476932904463
 Compensation charge over fine fft grid    =     11.780541536089068

 ==== Results concerning PAW augmentation regions ====

 Total pseudopotential strength Dij (hartree):
 Atom #  1 - Component up-up
   === REAL PART:
  -4.83323  -1.67420  -0.01241   0.00305  -0.01414  -0.00635   0.00165  -0.00680   0.00361   0.00019   0.00326  -0.00026 ...
  -1.67420  -0.79140  -0.00637   0.00167  -0.00685  -0.00329   0.00093  -0.00342   0.00175   0.00001   0.00202  -0.00019 ...
  -0.01241  -0.00637  -4.68084   0.00017   0.00318  -1.12244   0.00003   0.00127  -0.01098   0.00260   0.00709  -0.00014 ...
   0.00305   0.00167   0.00017  -4.67606  -0.00021   0.00003  -1.11991  -0.00012  -0.00014  -0.00977   0.00314  -0.01082 ...
  -0.01414  -0.00685   0.00318  -0.00021  -4.68102   0.00127  -0.00012  -1.12245  -0.00966  -0.00014   0.00791   0.00282 ...
  -0.00635  -0.00329  -1.12244   0.00003   0.00127  -0.46876  -0.00001   0.00059  -0.00422   0.00118   0.00316  -0.00008 ...
   0.00165   0.00093   0.00003  -1.11991  -0.00012  -0.00001  -0.46743  -0.00008  -0.00008  -0.00395   0.00142  -0.00418 ...
  -0.00680  -0.00342   0.00127  -0.00012  -1.12245   0.00059  -0.00008  -0.46877  -0.00392  -0.00008   0.00337   0.00124 ...
   0.00361   0.00175  -0.01098  -0.00014  -0.00966  -0.00422  -0.00008  -0.00392  -2.45919  -0.00042  -0.00289  -0.00000 ...
   0.00019   0.00001   0.00260  -0.00977  -0.00014   0.00118  -0.00395  -0.00008  -0.00042  -2.45658   0.00062   0.00243 ...
   0.00326   0.00202   0.00709   0.00314   0.00791   0.00316   0.00142   0.00337  -0.00289   0.00062  -2.45606   0.00007 ...
  -0.00026  -0.00019  -0.00014  -0.01082   0.00282  -0.00008  -0.00418   0.00124  -0.00000   0.00243   0.00007  -2.45677 ...
   ...  only 12  components have been written...
   === IMAGINARY PART:
  -0.00000  -0.00000  -0.00000  -0.00000  -0.00000  -0.00000  -0.00000  -0.00000  -0.00000  -0.00000  -0.00000  -0.00000 ...
   0.00000  -0.00000  -0.00000  -0.00000  -0.00000  -0.00000  -0.00000  -0.00000  -0.00000  -0.00000  -0.00000  -0.00000 ...
   0.00000   0.00000  -0.00000  -0.00000 -25.79541  -0.00000  -0.00000  -3.60294  -0.00000  -0.00000  -0.00000  -0.00000 ...
   0.00000   0.00000   0.00000  -0.00000  -0.00000  -0.00000  -0.00000  -0.00000  -0.00000  -0.00000  -0.00000  -0.00000 ...
   0.00000   0.00000  25.79541   0.00000  -0.00000   3.60294  -0.00000  -0.00000  -0.00000  -0.00000  -0.00000  -0.00000 ...
   0.00000   0.00000   0.00000   0.00000  -3.60294  -0.00000  -0.00000  -0.51037  -0.00000  -0.00000  -0.00000  -0.00000 ...
   0.00000   0.00000   0.00000   0.00000   0.00000   0.00000  -0.00000  -0.00000  -0.00000  -0.00000  -0.00000  -0.00000 ...
   0.00000   0.00000   3.60294   0.00000   0.00000   0.51037   0.00000  -0.00000  -0.00000  -0.00000  -0.00000  -0.00000 ...
   0.00000   0.00000   0.00000   0.00000   0.00000   0.00000   0.00000   0.00000  -0.00000  -0.00024   0.00032   0.00029 ...
   0.00000   0.00000   0.00000   0.00000   0.00000   0.00000   0.00000   0.00000   0.00024  -0.00000  -0.00068  -1.87975 ...
   0.00000   0.00000   0.00000   0.00000   0.00000   0.00000   0.00000   0.00000  -0.00032   0.00068  -0.00000   0.00007 ...
   0.00000   0.00000   0.00000   0.00000   0.00000   0.00000   0.00000   0.00000  -0.00029   1.87975  -0.00007  -0.00000 ...
   ...  only 12  components have been written...
 Atom #  1 - Component dwn-dwn
   === REAL PART:
  -4.83323  -1.67420  -0.01241   0.00305  -0.01414  -0.00635   0.00165  -0.00680   0.00361   0.00019   0.00326  -0.00026 ...
  -1.67420  -0.79140  -0.00637   0.00167  -0.00685  -0.00329   0.00093  -0.00342   0.00175   0.00001   0.00202  -0.00019 ...
  -0.01241  -0.00637  -4.68084   0.00017   0.00318  -1.12244   0.00003   0.00127  -0.01098   0.00260   0.00709  -0.00014 ...
   0.00305   0.00167   0.00017  -4.67606  -0.00021   0.00003  -1.11991  -0.00012  -0.00014  -0.00977   0.00314  -0.01082 ...
  -0.01414  -0.00685   0.00318  -0.00021  -4.68102   0.00127  -0.00012  -1.12245  -0.00966  -0.00014   0.00791   0.00282 ...
  -0.00635  -0.00329  -1.12244   0.00003   0.00127  -0.46876  -0.00001   0.00059  -0.00422   0.00118   0.00316  -0.00008 ...
   0.00165   0.00093   0.00003  -1.11991  -0.00012  -0.00001  -0.46743  -0.00008  -0.00008  -0.00395   0.00142  -0.00418 ...
  -0.00680  -0.00342   0.00127  -0.00012  -1.12245   0.00059  -0.00008  -0.46877  -0.00392  -0.00008   0.00337   0.00124 ...
   0.00361   0.00175  -0.01098  -0.00014  -0.00966  -0.00422  -0.00008  -0.00392  -2.43238   0.00015  -0.00243   0.00023 ...
   0.00019   0.00001   0.00260  -0.00977  -0.00014   0.00118  -0.00395  -0.00008   0.00015  -2.42820  -0.00036   0.00143 ...
   0.00326   0.00202   0.00709   0.00314   0.00791   0.00316   0.00142   0.00337  -0.00243  -0.00036  -2.42872   0.00022 ...
  -0.00026  -0.00019  -0.00014  -0.01082   0.00282  -0.00008  -0.00418   0.00124   0.00023   0.00143   0.00022  -2.42803 ...
   ...  only 12  components have been written...
   === IMAGINARY PART:
  -0.00000  -0.00000  -0.00000  -0.00000  -0.00000  -0.00000  -0.00000  -0.00000  -0.00000  -0.00000  -0.00000  -0.00000 ...
   0.00000  -0.00000  -0.00000  -0.00000  -0.00000  -0.00000  -0.00000  -0.00000  -0.00000  -0.00000  -0.00000  -0.00000 ...
   0.00000   0.00000  -0.00000  -0.00000  25.79541  -0.00000  -0.00000   3.60294  -0.00000  -0.00000  -0.00000  -0.00000 ...
   0.00000   0.00000   0.00000  -0.00000  -0.00000  -0.00000  -0.00000  -0.00000  -0.00000  -0.00000  -0.00000  -0.00000 ...
   0.00000   0.00000 -25.79541   0.00000  -0.00000  -3.60294  -0.00000  -0.00000  -0.00000  -0.00000  -0.00000  -0.00000 ...
   0.00000   0.00000   0.00000   0.00000   3.60294  -0.00000  -0.00000   0.51037  -0.00000  -0.00000  -0.00000  -0.00000 ...
   0.00000   0.00000   0.00000   0.00000   0.00000   0.00000  -0.00000  -0.00000  -0.00000  -0.00000  -0.00000  -0.00000 ...
   0.00000   0.00000  -3.60294   0.00000   0.00000  -0.51037   0.00000  -0.00000  -0.00000  -0.00000  -0.00000  -0.00000 ...
   0.00000   0.00000   0.00000   0.00000   0.00000   0.00000   0.00000   0.00000  -0.00000  -0.00061  -0.00020   0.00023 ...
   0.00000   0.00000   0.00000   0.00000   0.00000   0.00000   0.00000   0.00000   0.00061  -0.00000   0.00083   1.88036 ...
   0.00000   0.00000   0.00000   0.00000   0.00000   0.00000   0.00000   0.00000   0.00020  -0.00083  -0.00000  -0.00054 ...
   0.00000   0.00000   0.00000   0.00000   0.00000   0.00000   0.00000   0.00000  -0.00023  -1.88036   0.00054  -0.00000 ...
   ...  only 12  components have been written...
 Atom #  1 - Component up-dwn
   === REAL PART:
   0.00000   0.00000   0.00000   0.00000   0.00000   0.00000   0.00000   0.00000   0.00000   0.00000   0.00000   0.00000 ...
   0.00000   0.00000   0.00000   0.00000   0.00000   0.00000   0.00000   0.00000   0.00000   0.00000   0.00000   0.00000 ...
   0.00000   0.00000   0.00000   0.00000   0.00000   0.00000   0.00000   0.00000   0.00000   0.00000   0.00000   0.00000 ...
   0.00000   0.00000   0.00000   0.00000  25.79541   0.00000   0.00000   3.60294   0.00000   0.00000   0.00000   0.00000 ...
   0.00000   0.00000   0.00000 -25.79541   0.00000   0.00000  -3.60294   0.00000   0.00000   0.00000   0.00000   0.00000 ...
   0.00000   0.00000   0.00000   0.00000   0.00000   0.00000   0.00000   0.00000   0.00000   0.00000   0.00000   0.00000 ...
   0.00000   0.00000   0.00000   0.00000   3.60294   0.00000   0.00000   0.51037   0.00000   0.00000   0.00000   0.00000 ...
   0.00000   0.00000   0.00000  -3.60294   0.00000   0.00000  -0.51037   0.00000   0.00000   0.00000   0.00000   0.00000 ...
   0.00000   0.00000   0.00000   0.00000   0.00000   0.00000   0.00000   0.00000  -0.00139  -1.88035   0.00019  -0.00014 ...
   0.00000   0.00000   0.00000   0.00000   0.00000   0.00000   0.00000   0.00000   1.87994  -0.00003  -0.00033   0.00002 ...
   0.00000   0.00000   0.00000   0.00000   0.00000   0.00000   0.00000   0.00000  -0.00006  -0.00033   0.00027   3.25689 ...
   0.00000   0.00000   0.00000   0.00000   0.00000   0.00000   0.00000   0.00000   0.00030  -0.00004  -3.25700  -0.00020 ...
   ...  only 12  components have been written...
   === IMAGINARY PART:
  -0.00000  -0.00000  -0.00000  -0.00000  -0.00000  -0.00000  -0.00000  -0.00000  -0.00000  -0.00000  -0.00000  -0.00000 ...
   0.00000  -0.00000  -0.00000  -0.00000  -0.00000  -0.00000  -0.00000  -0.00000  -0.00000  -0.00000  -0.00000  -0.00000 ...
   0.00000   0.00000  -0.00000  25.79541  -0.00000  -0.00000   3.60294  -0.00000  -0.00000  -0.00000  -0.00000  -0.00000 ...
   0.00000   0.00000 -25.79541  -0.00000  -0.00000  -3.60294  -0.00000  -0.00000  -0.00000  -0.00000  -0.00000  -0.00000 ...
   0.00000   0.00000   0.00000   0.00000  -0.00000  -0.00000  -0.00000  -0.00000  -0.00000  -0.00000  -0.00000  -0.00000 ...
   0.00000   0.00000   0.00000   3.60294   0.00000  -0.00000   0.51037  -0.00000  -0.00000  -0.00000  -0.00000  -0.00000 ...
   0.00000   0.00000  -3.60294   0.00000   0.00000  -0.51037  -0.00000  -0.00000  -0.00000  -0.00000  -0.00000  -0.00000 ...
   0.00000   0.00000   0.00000   0.00000   0.00000   0.00000   0.00000  -0.00000  -0.00000  -0.00000  -0.00000  -0.00000 ...
   0.00000   0.00000   0.00000   0.00000   0.00000   0.00000   0.00000   0.00000  -0.00099   0.00002  -0.00012   1.88029 ...
   0.00000   0.00000   0.00000   0.00000   0.00000   0.00000   0.00000   0.00000  -0.00015   0.00010   3.25679  -0.00100 ...
   0.00000   0.00000   0.00000   0.00000   0.00000   0.00000   0.00000   0.00000   0.00018  -3.25712   0.00043  -0.00002 ...
   0.00000   0.00000   0.00000   0.00000   0.00000   0.00000   0.00000   0.00000  -1.87937   0.00025   0.00053  -0.00026 ...
   ...  only 12  components have been written...
 Atom #  1 - Component dwn-up
   === REAL PART:
   0.00000   0.00000   0.00000   0.00000   0.00000   0.00000   0.00000   0.00000   0.00000   0.00000   0.00000   0.00000 ...
   0.00000   0.00000   0.00000   0.00000   0.00000   0.00000   0.00000   0.00000   0.00000   0.00000   0.00000   0.00000 ...
   0.00000   0.00000   0.00000   0.00000   0.00000   0.00000   0.00000   0.00000   0.00000   0.00000   0.00000   0.00000 ...
   0.00000   0.00000   0.00000   0.00000 -25.79541   0.00000   0.00000  -3.60294   0.00000   0.00000   0.00000   0.00000 ...
   0.00000   0.00000   0.00000  25.79541   0.00000   0.00000   3.60294   0.00000   0.00000   0.00000   0.00000   0.00000 ...
   0.00000   0.00000   0.00000   0.00000   0.00000   0.00000   0.00000   0.00000   0.00000   0.00000   0.00000   0.00000 ...
   0.00000   0.00000   0.00000   0.00000  -3.60294   0.00000   0.00000  -0.51037   0.00000   0.00000   0.00000   0.00000 ...
   0.00000   0.00000   0.00000   3.60294   0.00000   0.00000   0.51037   0.00000   0.00000   0.00000   0.00000   0.00000 ...
   0.00000   0.00000   0.00000   0.00000   0.00000   0.00000   0.00000   0.00000  -0.00139   1.87994  -0.00006   0.00030 ...
   0.00000   0.00000   0.00000   0.00000   0.00000   0.00000   0.00000   0.00000  -1.88035  -0.00003  -0.00033  -0.00004 ...
   0.00000   0.00000   0.00000   0.00000   0.00000   0.00000   0.00000   0.00000   0.00019  -0.00033   0.00027  -3.25700 ...
   0.00000   0.00000   0.00000   0.00000   0.00000   0.00000   0.00000   0.00000  -0.00014   0.00002   3.25689  -0.00020 ...
   ...  only 12  components have been written...
   === IMAGINARY PART:
  -0.00000  -0.00000  -0.00000  -0.00000  -0.00000  -0.00000  -0.00000  -0.00000  -0.00000  -0.00000  -0.00000  -0.00000 ...
   0.00000  -0.00000  -0.00000  -0.00000  -0.00000  -0.00000  -0.00000  -0.00000  -0.00000  -0.00000  -0.00000  -0.00000 ...
   0.00000   0.00000  -0.00000  25.79541  -0.00000  -0.00000   3.60294  -0.00000  -0.00000  -0.00000  -0.00000  -0.00000 ...
   0.00000   0.00000 -25.79541  -0.00000  -0.00000  -3.60294  -0.00000  -0.00000  -0.00000  -0.00000  -0.00000  -0.00000 ...
   0.00000   0.00000   0.00000   0.00000  -0.00000  -0.00000  -0.00000  -0.00000  -0.00000  -0.00000  -0.00000  -0.00000 ...
   0.00000   0.00000   0.00000   3.60294   0.00000  -0.00000   0.51037  -0.00000  -0.00000  -0.00000  -0.00000  -0.00000 ...
   0.00000   0.00000  -3.60294   0.00000   0.00000  -0.51037  -0.00000  -0.00000  -0.00000  -0.00000  -0.00000  -0.00000 ...
   0.00000   0.00000   0.00000   0.00000   0.00000   0.00000   0.00000  -0.00000  -0.00000  -0.00000  -0.00000  -0.00000 ...
   0.00000   0.00000   0.00000   0.00000   0.00000   0.00000   0.00000   0.00000   0.00099   0.00015  -0.00018   1.87937 ...
   0.00000   0.00000   0.00000   0.00000   0.00000   0.00000   0.00000   0.00000  -0.00002  -0.00010   3.25712  -0.00025 ...
   0.00000   0.00000   0.00000   0.00000   0.00000   0.00000   0.00000   0.00000   0.00012  -3.25679  -0.00043  -0.00053 ...
   0.00000   0.00000   0.00000   0.00000   0.00000   0.00000   0.00000   0.00000  -1.88029   0.00100   0.00002   0.00026 ...
   ...  only 12  components have been written...
 Atom #  4 - Component up-up
   === REAL PART:
   0.64417   1.08462  -0.00092   0.00051  -0.00105  -0.00141   0.00079  -0.00161   0.00002  -0.00003   0.00006  -0.00007 ...
   1.08462   1.82316  -0.00144   0.00081  -0.00165  -0.00222   0.00125  -0.00254   0.00002  -0.00004   0.00009  -0.00011 ...
  -0.00092  -0.00144  -0.29327   0.00020  -0.00016  -0.33331   0.00027  -0.00022   0.00047  -0.00023  -0.00032   0.00001 ...
   0.00051   0.00081   0.00020  -0.29394   0.00044   0.00027  -0.33425   0.00061   0.00001   0.00039  -0.00033   0.00044 ...
  -0.00105  -0.00165  -0.00016   0.00044  -0.29332  -0.00022   0.00061  -0.33338   0.00041   0.00001  -0.00037  -0.00024 ...
  -0.00141  -0.00222  -0.33331   0.00027  -0.00022  -0.34513   0.00038  -0.00031   0.00068  -0.00033  -0.00047   0.00002 ...
   0.00079   0.00125   0.00027  -0.33425   0.00061   0.00038  -0.34645   0.00086   0.00002   0.00056  -0.00048   0.00064 ...
  -0.00161  -0.00254  -0.00022   0.00061  -0.33338  -0.00031   0.00086  -0.34524   0.00059   0.00002  -0.00053  -0.00034 ...
   0.00002   0.00002   0.00047   0.00001   0.00041   0.00068   0.00002   0.00059  -0.01591   0.00004   0.00001   0.00002 ...
  -0.00003  -0.00004  -0.00023   0.00039   0.00001  -0.00033   0.00056   0.00002   0.00004  -0.01596   0.00001  -0.00001 ...
   0.00006   0.00009  -0.00032  -0.00033  -0.00037  -0.00047  -0.00048  -0.00053   0.00001   0.00001  -0.01607   0.00003 ...
  -0.00007  -0.00011   0.00001   0.00044  -0.00024   0.00002   0.00064  -0.00034   0.00002  -0.00001   0.00003  -0.01597 ...
   ...  only 12  components have been written...
   === IMAGINARY PART:
  -0.00000  -0.00000  -0.00000  -0.00000  -0.00000  -0.00000  -0.00000  -0.00000  -0.00000  -0.00000  -0.00000  -0.00000 ...
   0.00000  -0.00000  -0.00000  -0.00000  -0.00000  -0.00000  -0.00000  -0.00000  -0.00000  -0.00000  -0.00000  -0.00000 ...
   0.00000   0.00000  -0.00000  -0.00000  -0.44457  -0.00000  -0.00000  -0.63881  -0.00000  -0.00000  -0.00000  -0.00000 ...
   0.00000   0.00000   0.00000  -0.00000  -0.00000  -0.00000  -0.00000  -0.00000  -0.00000  -0.00000  -0.00000  -0.00000 ...
   0.00000   0.00000   0.44457   0.00000  -0.00000   0.63881  -0.00000  -0.00000  -0.00000  -0.00000  -0.00000  -0.00000 ...
   0.00000   0.00000   0.00000   0.00000  -0.63881  -0.00000  -0.00000  -0.91918  -0.00000  -0.00000  -0.00000  -0.00000 ...
   0.00000   0.00000   0.00000   0.00000   0.00000   0.00000  -0.00000  -0.00000  -0.00000  -0.00000  -0.00000  -0.00000 ...
   0.00000   0.00000   0.63881   0.00000   0.00000   0.91918   0.00000  -0.00000  -0.00000  -0.00000  -0.00000  -0.00000 ...
   0.00000   0.00000   0.00000   0.00000   0.00000   0.00000   0.00000   0.00000  -0.00000  -0.00000  -0.00000  -0.00000 ...
   0.00000   0.00000   0.00000   0.00000   0.00000   0.00000   0.00000   0.00000   0.00000  -0.00000  -0.00000  -0.01807 ...
   0.00000   0.00000   0.00000   0.00000   0.00000   0.00000   0.00000   0.00000   0.00000   0.00000  -0.00000  -0.00000 ...
   0.00000   0.00000   0.00000   0.00000   0.00000   0.00000   0.00000   0.00000   0.00000   0.01807   0.00000  -0.00000 ...
   ...  only 12  components have been written...
 Atom #  4 - Component dwn-dwn
   === REAL PART:
   0.64417   1.08462  -0.00092   0.00051  -0.00105  -0.00141   0.00079  -0.00161   0.00002  -0.00003   0.00006  -0.00007 ...
   1.08462   1.82316  -0.00144   0.00081  -0.00165  -0.00222   0.00125  -0.00254   0.00002  -0.00004   0.00009  -0.00011 ...
  -0.00092  -0.00144  -0.29327   0.00020  -0.00016  -0.33331   0.00027  -0.00022   0.00047  -0.00023  -0.00032   0.00001 ...
   0.00051   0.00081   0.00020  -0.29394   0.00044   0.00027  -0.33425   0.00061   0.00001   0.00039  -0.00033   0.00044 ...
  -0.00105  -0.00165  -0.00016   0.00044  -0.29332  -0.00022   0.00061  -0.33338   0.00041   0.00001  -0.00037  -0.00024 ...
  -0.00141  -0.00222  -0.33331   0.00027  -0.00022  -0.34513   0.00038  -0.00031   0.00068  -0.00033  -0.00047   0.00002 ...
   0.00079   0.00125   0.00027  -0.33425   0.00061   0.00038  -0.34645   0.00086   0.00002   0.00056  -0.00048   0.00064 ...
  -0.00161  -0.00254  -0.00022   0.00061  -0.33338  -0.00031   0.00086  -0.34524   0.00059   0.00002  -0.00053  -0.00034 ...
   0.00002   0.00002   0.00047   0.00001   0.00041   0.00068   0.00002   0.00059  -0.01591   0.00004   0.00001   0.00002 ...
  -0.00003  -0.00004  -0.00023   0.00039   0.00001  -0.00033   0.00056   0.00002   0.00004  -0.01596   0.00001  -0.00001 ...
   0.00006   0.00009  -0.00032  -0.00033  -0.00037  -0.00047  -0.00048  -0.00053   0.00001   0.00001  -0.01607   0.00003 ...
  -0.00007  -0.00011   0.00001   0.00044  -0.00024   0.00002   0.00064  -0.00034   0.00002  -0.00001   0.00003  -0.01597 ...
   ...  only 12  components have been written...
   === IMAGINARY PART:
  -0.00000  -0.00000  -0.00000  -0.00000  -0.00000  -0.00000  -0.00000  -0.00000  -0.00000  -0.00000  -0.00000  -0.00000 ...
   0.00000  -0.00000  -0.00000  -0.00000  -0.00000  -0.00000  -0.00000  -0.00000  -0.00000  -0.00000  -0.00000  -0.00000 ...
   0.00000   0.00000  -0.00000  -0.00000   0.44457  -0.00000  -0.00000   0.63881  -0.00000  -0.00000  -0.00000  -0.00000 ...
   0.00000   0.00000   0.00000  -0.00000  -0.00000  -0.00000  -0.00000  -0.00000  -0.00000  -0.00000  -0.00000  -0.00000 ...
   0.00000   0.00000  -0.44457   0.00000  -0.00000  -0.63881  -0.00000  -0.00000  -0.00000  -0.00000  -0.00000  -0.00000 ...
   0.00000   0.00000   0.00000   0.00000   0.63881  -0.00000  -0.00000   0.91918  -0.00000  -0.00000  -0.00000  -0.00000 ...
   0.00000   0.00000   0.00000   0.00000   0.00000   0.00000  -0.00000  -0.00000  -0.00000  -0.00000  -0.00000  -0.00000 ...
   0.00000   0.00000  -0.63881   0.00000   0.00000  -0.91918   0.00000  -0.00000  -0.00000  -0.00000  -0.00000  -0.00000 ...
   0.00000   0.00000   0.00000   0.00000   0.00000   0.00000   0.00000   0.00000  -0.00000  -0.00000  -0.00000  -0.00000 ...
   0.00000   0.00000   0.00000   0.00000   0.00000   0.00000   0.00000   0.00000   0.00000  -0.00000  -0.00000   0.01807 ...
   0.00000   0.00000   0.00000   0.00000   0.00000   0.00000   0.00000   0.00000   0.00000   0.00000  -0.00000  -0.00000 ...
   0.00000   0.00000   0.00000   0.00000   0.00000   0.00000   0.00000   0.00000   0.00000  -0.01807   0.00000  -0.00000 ...
   ...  only 12  components have been written...
 Atom #  4 - Component up-dwn
   === REAL PART:
   0.00000   0.00000   0.00000   0.00000   0.00000   0.00000   0.00000   0.00000   0.00000   0.00000   0.00000   0.00000 ...
   0.00000   0.00000   0.00000   0.00000   0.00000   0.00000   0.00000   0.00000   0.00000   0.00000   0.00000   0.00000 ...
   0.00000   0.00000   0.00000   0.00000   0.00000   0.00000   0.00000   0.00000   0.00000   0.00000   0.00000   0.00000 ...
   0.00000   0.00000   0.00000   0.00000   0.44457   0.00000   0.00000   0.63881   0.00000   0.00000   0.00000   0.00000 ...
   0.00000   0.00000   0.00000  -0.44457   0.00000   0.00000  -0.63881   0.00000   0.00000   0.00000   0.00000   0.00000 ...
   0.00000   0.00000   0.00000   0.00000   0.00000   0.00000   0.00000   0.00000   0.00000   0.00000   0.00000   0.00000 ...
   0.00000   0.00000   0.00000   0.00000   0.63881   0.00000   0.00000   0.91918   0.00000   0.00000   0.00000   0.00000 ...
   0.00000   0.00000   0.00000  -0.63881   0.00000   0.00000  -0.91918   0.00000   0.00000   0.00000   0.00000   0.00000 ...
   0.00000   0.00000   0.00000   0.00000   0.00000   0.00000   0.00000   0.00000   0.00000  -0.01807   0.00000   0.00000 ...
   0.00000   0.00000   0.00000   0.00000   0.00000   0.00000   0.00000   0.00000   0.01807   0.00000   0.00000   0.00000 ...
   0.00000   0.00000   0.00000   0.00000   0.00000   0.00000   0.00000   0.00000   0.00000   0.00000   0.00000   0.03129 ...
   0.00000   0.00000   0.00000   0.00000   0.00000   0.00000   0.00000   0.00000   0.00000   0.00000  -0.03129   0.00000 ...
   ...  only 12  components have been written...
   === IMAGINARY PART:
  -0.00000  -0.00000  -0.00000  -0.00000  -0.00000  -0.00000  -0.00000  -0.00000  -0.00000  -0.00000  -0.00000  -0.00000 ...
   0.00000  -0.00000  -0.00000  -0.00000  -0.00000  -0.00000  -0.00000  -0.00000  -0.00000  -0.00000  -0.00000  -0.00000 ...
   0.00000   0.00000  -0.00000   0.44457  -0.00000  -0.00000   0.63881  -0.00000  -0.00000  -0.00000  -0.00000  -0.00000 ...
   0.00000   0.00000  -0.44457  -0.00000  -0.00000  -0.63881  -0.00000  -0.00000  -0.00000  -0.00000  -0.00000  -0.00000 ...
   0.00000   0.00000   0.00000   0.00000  -0.00000  -0.00000  -0.00000  -0.00000  -0.00000  -0.00000  -0.00000  -0.00000 ...
   0.00000   0.00000   0.00000   0.63881   0.00000  -0.00000   0.91918  -0.00000  -0.00000  -0.00000  -0.00000  -0.00000 ...
   0.00000   0.00000  -0.63881   0.00000   0.00000  -0.91918  -0.00000  -0.00000  -0.00000  -0.00000  -0.00000  -0.00000 ...
   0.00000   0.00000   0.00000   0.00000   0.00000   0.00000   0.00000  -0.00000  -0.00000  -0.00000  -0.00000  -0.00000 ...
   0.00000   0.00000   0.00000   0.00000   0.00000   0.00000   0.00000   0.00000  -0.00000  -0.00000  -0.00000   0.01807 ...
   0.00000   0.00000   0.00000   0.00000   0.00000   0.00000   0.00000   0.00000   0.00000  -0.00000   0.03129  -0.00000 ...
   0.00000   0.00000   0.00000   0.00000   0.00000   0.00000   0.00000   0.00000   0.00000  -0.03129  -0.00000  -0.00000 ...
   0.00000   0.00000   0.00000   0.00000   0.00000   0.00000   0.00000   0.00000  -0.01807   0.00000   0.00000  -0.00000 ...
   ...  only 12  components have been written...
 Atom #  4 - Component dwn-up
   === REAL PART:
   0.00000   0.00000   0.00000   0.00000   0.00000   0.00000   0.00000   0.00000   0.00000   0.00000   0.00000   0.00000 ...
   0.00000   0.00000   0.00000   0.00000   0.00000   0.00000   0.00000   0.00000   0.00000   0.00000   0.00000   0.00000 ...
   0.00000   0.00000   0.00000   0.00000   0.00000   0.00000   0.00000   0.00000   0.00000   0.00000   0.00000   0.00000 ...
   0.00000   0.00000   0.00000   0.00000  -0.44457   0.00000   0.00000  -0.63881   0.00000   0.00000   0.00000   0.00000 ...
   0.00000   0.00000   0.00000   0.44457   0.00000   0.00000   0.63881   0.00000   0.00000   0.00000   0.00000   0.00000 ...
   0.00000   0.00000   0.00000   0.00000   0.00000   0.00000   0.00000   0.00000   0.00000   0.00000   0.00000   0.00000 ...
   0.00000   0.00000   0.00000   0.00000  -0.63881   0.00000   0.00000  -0.91918   0.00000   0.00000   0.00000   0.00000 ...
   0.00000   0.00000   0.00000   0.63881   0.00000   0.00000   0.91918   0.00000   0.00000   0.00000   0.00000   0.00000 ...
   0.00000   0.00000   0.00000   0.00000   0.00000   0.00000   0.00000   0.00000   0.00000   0.01807   0.00000   0.00000 ...
   0.00000   0.00000   0.00000   0.00000   0.00000   0.00000   0.00000   0.00000  -0.01807   0.00000   0.00000   0.00000 ...
   0.00000   0.00000   0.00000   0.00000   0.00000   0.00000   0.00000   0.00000   0.00000   0.00000   0.00000  -0.03129 ...
   0.00000   0.00000   0.00000   0.00000   0.00000   0.00000   0.00000   0.00000   0.00000   0.00000   0.03129   0.00000 ...
   ...  only 12  components have been written...
   === IMAGINARY PART:
  -0.00000  -0.00000  -0.00000  -0.00000  -0.00000  -0.00000  -0.00000  -0.00000  -0.00000  -0.00000  -0.00000  -0.00000 ...
   0.00000  -0.00000  -0.00000  -0.00000  -0.00000  -0.00000  -0.00000  -0.00000  -0.00000  -0.00000  -0.00000  -0.00000 ...
   0.00000   0.00000  -0.00000   0.44457  -0.00000  -0.00000   0.63881  -0.00000  -0.00000  -0.00000  -0.00000  -0.00000 ...
   0.00000   0.00000  -0.44457  -0.00000  -0.00000  -0.63881  -0.00000  -0.00000  -0.00000  -0.00000  -0.00000  -0.00000 ...
   0.00000   0.00000   0.00000   0.00000  -0.00000  -0.00000  -0.00000  -0.00000  -0.00000  -0.00000  -0.00000  -0.00000 ...
   0.00000   0.00000   0.00000   0.63881   0.00000  -0.00000   0.91918  -0.00000  -0.00000  -0.00000  -0.00000  -0.00000 ...
   0.00000   0.00000  -0.63881   0.00000   0.00000  -0.91918  -0.00000  -0.00000  -0.00000  -0.00000  -0.00000  -0.00000 ...
   0.00000   0.00000   0.00000   0.00000   0.00000   0.00000   0.00000  -0.00000  -0.00000  -0.00000  -0.00000  -0.00000 ...
   0.00000   0.00000   0.00000   0.00000   0.00000   0.00000   0.00000   0.00000  -0.00000  -0.00000  -0.00000   0.01807 ...
   0.00000   0.00000   0.00000   0.00000   0.00000   0.00000   0.00000   0.00000   0.00000  -0.00000   0.03129  -0.00000 ...
   0.00000   0.00000   0.00000   0.00000   0.00000   0.00000   0.00000   0.00000   0.00000  -0.03129  -0.00000  -0.00000 ...
   0.00000   0.00000   0.00000   0.00000   0.00000   0.00000   0.00000   0.00000  -0.01807   0.00000   0.00000  -0.00000 ...
   ...  only 12  components have been written...


 Augmentation waves occupancies Rhoij:
 Atom #  1 - Component dens (n)
   === REAL PART:
   2.59300  -1.39051   0.00035  -0.00043   0.00115   0.00718   0.00301  -0.00327  -0.00123  -0.00244  -0.00102  -0.00108 ...
  -1.39051   3.20005   0.00116   0.00101  -0.00168  -0.01394  -0.01136   0.01452   0.00018   0.00479   0.00245   0.00190 ...
   0.00035   0.00116   0.94165   0.00353   0.00100  -0.98745  -0.00788  -0.00301  -0.00321   0.00152   0.00038   0.00041 ...
  -0.00043   0.00101   0.00353   0.93572   0.00295  -0.01019  -0.96775  -0.00601  -0.00005  -0.00371   0.00022  -0.00340 ...
   0.00115  -0.00168   0.00100   0.00295   0.94037  -0.00080  -0.00613  -0.98066  -0.00412   0.00027   0.00001   0.00127 ...
   0.00718  -0.01394  -0.98745  -0.01019  -0.00080   4.29443   0.02115   0.00160   0.02780  -0.01474  -0.00729  -0.00507 ...
   0.00301  -0.01136  -0.00788  -0.96775  -0.00613   0.02115   4.20091   0.01454   0.00065   0.03202  -0.00460   0.02764 ...
  -0.00327   0.01452  -0.00301  -0.00601  -0.98066   0.00160   0.01454   4.26237   0.03331  -0.00037  -0.00095  -0.01238 ...
  -0.00123   0.00018  -0.00321  -0.00005  -0.00412   0.02780   0.00065   0.03331   0.89116   0.00086   0.00213  -0.00108 ...
  -0.00244   0.00479   0.00152  -0.00371   0.00027  -0.01474   0.03202  -0.00037   0.00086   0.89355   0.00121  -0.00129 ...
  -0.00102   0.00245   0.00038   0.00022   0.00001  -0.00729  -0.00460  -0.00095   0.00213   0.00121   0.88847   0.00145 ...
  -0.00108   0.00190   0.00041  -0.00340   0.00127  -0.00507   0.02764  -0.01238  -0.00108  -0.00129   0.00145   0.89229 ...
   ...  only 12  components have been written...
   === IMAGINARY PART:
   0.00000   0.00004   0.00051  -0.00014  -0.00042  -0.00537   0.00756   0.00018  -0.00075  -0.00051   0.00083   0.00124 ...
  -0.00004   0.00000  -0.00221   0.00061   0.00114   0.01496  -0.02139  -0.00104   0.00265   0.00171  -0.00269  -0.00355 ...
  -0.00051   0.00221  -0.00000   0.00036   0.00036   0.00105  -0.00113  -0.00288  -0.00047   0.00023   0.00033   0.00093 ...
   0.00014  -0.00061  -0.00036  -0.00000   0.00000   0.00339  -0.00096  -0.00140   0.00049   0.00009   0.00026  -0.00029 ...
   0.00042  -0.00114  -0.00036  -0.00000  -0.00000   0.00091  -0.00038   0.00171  -0.00010   0.00006   0.00020  -0.00092 ...
   0.00537  -0.01496  -0.00105  -0.00339  -0.00091  -0.00000   0.01253   0.00929   0.00382   0.00096  -0.00119  -0.00691 ...
  -0.00756   0.02139   0.00113   0.00096   0.00038  -0.01253  -0.00000   0.00763  -0.00308   0.00055  -0.00164   0.00154 ...
  -0.00018   0.00104   0.00288   0.00140  -0.00171  -0.00929  -0.00763  -0.00000   0.00166  -0.00217  -0.00258   0.00606 ...
   0.00075  -0.00265   0.00047  -0.00049   0.00010  -0.00382   0.00308  -0.00166  -0.00000  -0.00161  -0.00014   0.00015 ...
   0.00051  -0.00171  -0.00023  -0.00009  -0.00006  -0.00096  -0.00055   0.00217   0.00161  -0.00000  -0.00007  -0.00072 ...
  -0.00083   0.00269  -0.00033  -0.00026  -0.00020   0.00119   0.00164   0.00258   0.00014   0.00007   0.00000  -0.00095 ...
  -0.00124   0.00355  -0.00093   0.00029   0.00092   0.00691  -0.00154  -0.00606  -0.00015   0.00072   0.00095  -0.00000 ...
   ...  only 12  components have been written...
 Atom #  1 - Component magn (x)
   === REAL PART:
   0.00254  -0.00743   0.00152  -0.00088   0.00044  -0.01160   0.00319  -0.00507  -0.00037   0.00072   0.00155   0.00074 ...
  -0.00743   0.02164  -0.00377   0.00158  -0.00064   0.03504  -0.00794   0.01454   0.00183  -0.00154  -0.00356  -0.00165 ...
   0.00152  -0.00377   0.00060  -0.00019  -0.00006  -0.00407   0.00290   0.00073  -0.00088   0.00039  -0.00008   0.00024 ...
  -0.00088   0.00158  -0.00019   0.00028   0.00023   0.00130  -0.00048  -0.00288  -0.00063   0.00088   0.00009   0.00033 ...
   0.00044  -0.00064  -0.00006   0.00023  -0.00000  -0.00068  -0.00287  -0.00125   0.00056  -0.00017   0.00014   0.00097 ...
  -0.01160   0.03504  -0.00407   0.00130  -0.00068   0.01984  -0.01818   0.00526   0.00810  -0.00191  -0.00063  -0.00176 ...
   0.00319  -0.00794   0.00290  -0.00048  -0.00287  -0.01818  -0.00401   0.03549   0.00275  -0.00867   0.00095  -0.00267 ...
  -0.00507   0.01454   0.00073  -0.00288  -0.00125   0.00526   0.03549   0.02523   0.00037   0.00157  -0.00365  -0.00921 ...
  -0.00037   0.00183  -0.00088  -0.00063   0.00056   0.00810   0.00275   0.00037   0.00115   0.00167  -0.00047  -0.00068 ...
   0.00072  -0.00154   0.00039   0.00088  -0.00017  -0.00191  -0.00867   0.00157   0.00167   0.00033   0.00073   0.00031 ...
   0.00155  -0.00356  -0.00008   0.00009   0.00014  -0.00063   0.00095  -0.00365  -0.00047   0.00073   0.00009  -0.00059 ...
   0.00074  -0.00165   0.00024   0.00033   0.00097  -0.00176  -0.00267  -0.00921  -0.00068   0.00031  -0.00059  -0.00023 ...
   ...  only 12  components have been written...
   === IMAGINARY PART:
   0.00000   0.00031   0.00108   0.00048   0.00044  -0.00671  -0.00951  -0.00356   0.00104  -0.00142  -0.00079   0.00052 ...
  -0.00031  -0.00000  -0.00293  -0.00233  -0.00066   0.01760   0.02502   0.01058  -0.00265   0.00297   0.00137  -0.00021 ...
  -0.00108   0.00293  -0.00000   0.90181   0.00126  -0.00434  -0.59873  -0.00477   0.00031  -0.00138  -0.00108  -0.00119 ...
  -0.00048   0.00233  -0.90181   0.00000  -0.00124   0.60516   0.00422   0.00657   0.00058   0.00105   0.00242  -0.00056 ...
  -0.00044   0.00066  -0.00126   0.00124  -0.00000  -0.00158  -0.00604  -0.00099   0.00097   0.00119   0.00004   0.00193 ...
   0.00671  -0.01760   0.00434  -0.60516   0.00158  -0.00000   0.38561  -0.00907  -0.00509   0.00459   0.00847   0.00260 ...
   0.00951  -0.02502   0.59873  -0.00422   0.00604  -0.38561   0.00000  -0.04018   0.00168  -0.00930  -0.01771   0.00198 ...
   0.00356  -0.01058   0.00477  -0.00657   0.00099   0.00907   0.04018   0.00000  -0.00755  -0.00770  -0.00219  -0.01841 ...
  -0.00104   0.00265  -0.00031  -0.00058  -0.00097   0.00509  -0.00168   0.00755   0.00000  -0.00004   0.00016   0.42524 ...
   0.00142  -0.00297   0.00138  -0.00105  -0.00119  -0.00459   0.00930   0.00770   0.00004   0.00000   0.73715   0.00098 ...
   0.00079  -0.00137   0.00108  -0.00242  -0.00004  -0.00847   0.01771   0.00219  -0.00016  -0.73715  -0.00000  -0.00097 ...
  -0.00052   0.00021   0.00119   0.00056  -0.00193  -0.00260  -0.00198   0.01841  -0.42524  -0.00098   0.00097  -0.00000 ...
   ...  only 12  components have been written...
 Atom #  1 - Component magn (y)
   === REAL PART:
  -0.00036   0.00103  -0.00066   0.00073  -0.00018   0.00684  -0.00711   0.00615  -0.00038   0.00144   0.00042   0.00150 ...
   0.00103  -0.00296   0.00156  -0.00236   0.00175  -0.01970   0.02075  -0.01832   0.00084  -0.00425  -0.00131  -0.00399 ...
  -0.00066   0.00156  -0.00009   0.00023  -0.00047   0.00026  -0.00105   0.00442   0.00109  -0.00027  -0.00047   0.00072 ...
   0.00073  -0.00236   0.00023   0.00049  -0.00050  -0.00041  -0.00241   0.00160  -0.00027   0.00082   0.00010   0.00117 ...
  -0.00018   0.00175  -0.00047  -0.00050   0.00057   0.00402   0.00327  -0.00521  -0.00037  -0.00009   0.00009   0.00035 ...
   0.00684  -0.01970   0.00026  -0.00041   0.00402  -0.00226  -0.00156  -0.04062  -0.00921   0.00069   0.00302  -0.00263 ...
  -0.00711   0.02075  -0.00105  -0.00241   0.00327  -0.00156   0.00541  -0.01443   0.00475  -0.00889  -0.00054  -0.01001 ...
   0.00615  -0.01832   0.00442   0.00160  -0.00521  -0.04062  -0.01443   0.04427   0.00505   0.00008  -0.00174  -0.00211 ...
  -0.00038   0.00084   0.00109  -0.00027  -0.00037  -0.00921   0.00475   0.00505  -0.00169   0.00002  -0.00047   0.00125 ...
   0.00144  -0.00425  -0.00027   0.00082  -0.00009   0.00069  -0.00889   0.00008   0.00002   0.00133  -0.00040   0.00030 ...
   0.00042  -0.00131  -0.00047   0.00010   0.00009   0.00302  -0.00054  -0.00174  -0.00047  -0.00040  -0.00018   0.00073 ...
   0.00150  -0.00399   0.00072   0.00117   0.00035  -0.00263  -0.01001  -0.00211   0.00125   0.00030   0.00073   0.00129 ...
   ...  only 12  components have been written...
   === IMAGINARY PART:
  -0.00000   0.00005  -0.00010   0.00061   0.00041   0.00102  -0.00082  -0.00187  -0.00037   0.00001   0.00039   0.00396 ...
  -0.00005  -0.00000  -0.00033  -0.00086  -0.00067  -0.00376   0.00555   0.00607   0.00119  -0.00007  -0.00042  -0.01060 ...
   0.00010   0.00033  -0.00000   0.00034   0.00181   0.00232  -0.00687  -0.00340  -0.00106   0.00052  -0.00027  -0.00099 ...
  -0.00061   0.00086  -0.00034  -0.00000   0.90117   0.00482  -0.00508  -0.60300  -0.00100   0.00124  -0.00227   0.00011 ...
  -0.00041   0.00067  -0.00181  -0.90117  -0.00000   0.00877   0.59426   0.00444   0.00113   0.00124   0.00134   0.00182 ...
  -0.00102   0.00376  -0.00232  -0.00482  -0.00877  -0.00000   0.05398   0.03616   0.01071  -0.00232   0.00168   0.00800 ...
   0.00082  -0.00555   0.00687   0.00508  -0.59426  -0.05398  -0.00000   0.36766  -0.00199  -0.00860   0.01693   0.00057 ...
   0.00187  -0.00607   0.00340   0.60300  -0.00444  -0.03616  -0.36766  -0.00000  -0.00894  -0.00492  -0.00919  -0.01196 ...
   0.00037  -0.00119   0.00106   0.00100  -0.00113  -0.01071   0.00199   0.00894  -0.00000  -0.42541  -0.00077  -0.00294 ...
  -0.00001   0.00007  -0.00052  -0.00124  -0.00124   0.00232   0.00860   0.00492   0.42541  -0.00000  -0.00113   0.00174 ...
  -0.00039   0.00042   0.00027   0.00227  -0.00134  -0.00168  -0.01693   0.00919   0.00077   0.00113  -0.00000   0.73874 ...
  -0.00396   0.01060   0.00099  -0.00011  -0.00182  -0.00800  -0.00057   0.01196   0.00294  -0.00174  -0.73874  -0.00000 ...
   ...  only 12  components have been written...
 Atom #  1 - Component magn (z)
   === REAL PART:
  -0.00016   0.00060  -0.00066  -0.00071   0.00029  -0.00066   0.00417  -0.00228  -0.00109   0.00180  -0.00185   0.00190 ...
   0.00060  -0.00212   0.00151   0.00177  -0.00067   0.00211  -0.01192   0.00600   0.00333  -0.00527   0.00498  -0.00462 ...
  -0.00066   0.00151   0.00005   0.00005   0.00011  -0.00092  -0.00093  -0.00049  -0.00032   0.00052   0.00016  -0.00032 ...
  -0.00071   0.00177   0.00005   0.00059  -0.00040  -0.00079  -0.00426   0.00226   0.00084  -0.00010  -0.00106   0.00017 ...
   0.00029  -0.00067   0.00011  -0.00040  -0.00061   0.00140   0.00276   0.00360   0.00039  -0.00058  -0.00098   0.00021 ...
  -0.00066   0.00211  -0.00092  -0.00079   0.00140   0.00502   0.00644  -0.01181   0.00396  -0.00485   0.00026  -0.00073 ...
   0.00417  -0.01192  -0.00093  -0.00426   0.00276   0.00644   0.01796  -0.01965  -0.00693   0.00136   0.00965  -0.00027 ...
  -0.00228   0.00600  -0.00049   0.00226   0.00360  -0.01181  -0.01965  -0.01533  -0.00325   0.00299   0.00892  -0.00312 ...
  -0.00109   0.00333  -0.00032   0.00084   0.00039   0.00396  -0.00693  -0.00325   0.00196  -0.00055   0.00095   0.00074 ...
   0.00180  -0.00527   0.00052  -0.00010  -0.00058  -0.00485   0.00136   0.00299  -0.00055   0.00135  -0.00136   0.00047 ...
  -0.00185   0.00498   0.00016  -0.00106  -0.00098   0.00026   0.00965   0.00892   0.00095  -0.00136   0.00481  -0.00007 ...
   0.00190  -0.00462  -0.00032   0.00017   0.00021  -0.00073  -0.00027  -0.00312   0.00074   0.00047  -0.00007   0.00140 ...
   ...  only 12  components have been written...
   === IMAGINARY PART:
  -0.00000  -0.00001  -0.00043  -0.00004   0.00123   0.00234   0.00076  -0.00540   0.00296  -0.00178  -0.00018  -0.00016 ...
   0.00001   0.00000   0.00089   0.00048  -0.00207  -0.01104  -0.00386   0.01842  -0.00811   0.00500  -0.00059  -0.00085 ...
   0.00043  -0.00089  -0.00000  -0.00223  -0.90362   0.00135   0.00784   0.60447   0.00185  -0.00077   0.00007   0.00080 ...
   0.00004  -0.00048   0.00223  -0.00000  -0.00169  -0.00472  -0.00174   0.00063   0.00098   0.00137  -0.00054  -0.00136 ...
  -0.00123   0.00207   0.90362   0.00169  -0.00000  -0.60336  -0.00742  -0.00238  -0.00159  -0.00045  -0.00248   0.00036 ...
  -0.00234   0.01104  -0.00135   0.00472   0.60336  -0.00000  -0.01605  -0.36854  -0.01488   0.00677  -0.00131  -0.00808 ...
  -0.00076   0.00386  -0.00784   0.00174   0.00742   0.01605   0.00000  -0.01212  -0.00849  -0.00989   0.00552   0.01318 ...
   0.00540  -0.01842  -0.60447  -0.00063   0.00238   0.36854   0.01212  -0.00000   0.00869   0.00513   0.02082  -0.00253 ...
  -0.00296   0.00811  -0.00185  -0.00098   0.00159   0.01488   0.00849  -0.00869   0.00000   0.00021  -0.00006   0.00063 ...
   0.00178  -0.00500   0.00077  -0.00137   0.00045  -0.00677   0.00989  -0.00513  -0.00021   0.00000  -0.00116  -0.42657 ...
   0.00018   0.00059  -0.00007   0.00054   0.00248   0.00131  -0.00552  -0.02082   0.00006   0.00116   0.00000  -0.00145 ...
   0.00016   0.00085  -0.00080   0.00136  -0.00036   0.00808  -0.01318   0.00253  -0.00063   0.42657   0.00145   0.00000 ...
   ...  only 12  components have been written...
 Atom #  4 - Component dens (n)
   === REAL PART:
   2.13496  -0.12023   0.03971  -0.02193   0.05478  -0.03425   0.01616  -0.04255   0.06803  -0.05025   0.10483  -0.06060 ...
  -0.12023   0.19069  -0.00365  -0.00287  -0.01894   0.00967  -0.00190   0.01718  -0.05822   0.02287  -0.12210   0.02033 ...
   0.03971  -0.00365   4.87459  -0.09999   0.10937  -2.32382   0.06487  -0.07397  -0.01555  -0.05838   0.04249   0.01862 ...
  -0.02193  -0.00287  -0.09999   4.57387   0.00765   0.05684  -2.13900  -0.00127  -0.01485   0.01502   0.15054   0.01800 ...
   0.05478  -0.01894   0.10937   0.00765   4.80140  -0.07223   0.00510  -2.28602  -0.01517   0.03712   0.02862  -0.01788 ...
  -0.03425   0.00967  -2.32382   0.05684  -0.07223   1.72110  -0.03074   0.04998   0.01454   0.01926  -0.00432  -0.00649 ...
   0.01616  -0.00190   0.06487  -2.13900   0.00510  -0.03074   1.60541   0.00034   0.01603   0.01053  -0.07904   0.00661 ...
  -0.04255   0.01718  -0.07397  -0.00127  -2.28602   0.04998   0.00034   1.70128   0.01419  -0.01452   0.00394  -0.00489 ...
   0.06803  -0.05822  -0.01555  -0.01485  -0.01517   0.01454   0.01603   0.01419   1.13139   0.04096  -0.10696   0.04442 ...
  -0.05025   0.02287  -0.05838   0.01502   0.03712   0.01926   0.01053  -0.01452   0.04096   1.23456  -0.18683   0.20667 ...
   0.10483  -0.12210   0.04249   0.15054   0.02862  -0.00432  -0.07904   0.00394  -0.10696  -0.18683   2.81691  -0.18312 ...
  -0.06060   0.02033   0.01862   0.01800  -0.01788  -0.00649   0.00661  -0.00489   0.04442   0.20667  -0.18312   1.24272 ...
   ...  only 12  components have been written...
   === IMAGINARY PART:
  -0.00000   0.00074   0.01435   0.01265  -0.00483  -0.00700  -0.00629   0.00074  -0.00139   0.00088   0.00077   0.00224 ...
  -0.00074  -0.00000  -0.00988  -0.00847  -0.00415   0.00618   0.00346   0.00394   0.00586  -0.00257   0.00027  -0.00405 ...
  -0.01435   0.00988  -0.00000   0.03588   0.01288   0.01662  -0.02366  -0.00277  -0.00922   0.01455   0.01089  -0.01623 ...
  -0.01265   0.00847  -0.03588  -0.00000  -0.06786   0.01467  -0.00572   0.03588   0.01629   0.03105  -0.00595   0.04076 ...
   0.00483   0.00415  -0.01288   0.06786   0.00000   0.00117  -0.02742  -0.00940  -0.01561  -0.00886   0.02686  -0.01094 ...
   0.00700  -0.00618  -0.01662  -0.01467  -0.00117   0.00000   0.01077  -0.00227   0.00426  -0.00798  -0.00523   0.00700 ...
   0.00629  -0.00346   0.02366   0.00572   0.02742  -0.01077  -0.00000  -0.01456  -0.01202  -0.01337   0.00301  -0.01949 ...
  -0.00074  -0.00394   0.00277  -0.03588   0.00940   0.00227   0.01456  -0.00000   0.00951   0.00638  -0.01101   0.00631 ...
   0.00139  -0.00586   0.00922  -0.01629   0.01561  -0.00426   0.01202  -0.00951   0.00000  -0.00165   0.00387   0.01280 ...
  -0.00088   0.00257  -0.01455  -0.03105   0.00886   0.00798   0.01337  -0.00638   0.00165   0.00000  -0.00693  -0.00312 ...
  -0.00077  -0.00027  -0.01089   0.00595  -0.02686   0.00523  -0.00301   0.01101  -0.00387   0.00693   0.00000  -0.00017 ...
  -0.00224   0.00405   0.01623  -0.04076   0.01094  -0.00700   0.01949  -0.00631  -0.01280   0.00312   0.00017  -0.00000 ...
   ...  only 12  components have been written...
 Atom #  4 - Component magn (x)
   === REAL PART:
   0.00107   0.00057   0.00485   0.01239   0.00518  -0.00177  -0.00541  -0.00398   0.00110   0.00018  -0.00198   0.00358 ...
   0.00057  -0.00124  -0.00601  -0.00619  -0.01027   0.00191   0.00145   0.00680  -0.00256  -0.00120   0.00033  -0.00316 ...
   0.00485  -0.00601  -0.05425   0.04376  -0.03623   0.01701  -0.03631   0.02236  -0.01094   0.01132  -0.00790   0.00522 ...
   0.01239  -0.00619   0.04376  -0.04780  -0.01507  -0.02407   0.02185   0.01075   0.00741   0.01175   0.00624   0.01249 ...
   0.00518  -0.01027  -0.03623  -0.01507   0.05140   0.01907   0.00536  -0.01786  -0.00569   0.00306  -0.01208  -0.02070 ...
  -0.00177   0.00191   0.01701  -0.02407   0.01907  -0.00379   0.01835  -0.01113   0.01140  -0.00541   0.00366  -0.00183 ...
  -0.00541   0.00145  -0.03631   0.02185   0.00536   0.01835  -0.00866  -0.00532  -0.00314  -0.00637  -0.00373  -0.00540 ...
  -0.00398   0.00680   0.02236   0.01075  -0.01786  -0.01113  -0.00532   0.00482  -0.00062  -0.00303   0.00648   0.00360 ...
   0.00110  -0.00256  -0.01094   0.00741  -0.00569   0.01140  -0.00314  -0.00062   0.00104   0.01125   0.00506   0.00189 ...
   0.00018  -0.00120   0.01132   0.01175   0.00306  -0.00541  -0.00637  -0.00303   0.01125   0.00896   0.00421   0.00673 ...
  -0.00198   0.00033  -0.00790   0.00624  -0.01208   0.00366  -0.00373   0.00648   0.00506   0.00421   0.00206  -0.00257 ...
   0.00358  -0.00316   0.00522   0.01249  -0.02070  -0.00183  -0.00540   0.00360   0.00189   0.00673  -0.00257   0.01252 ...
   ...  only 12  components have been written...
   === IMAGINARY PART:
  -0.00000   0.00070   0.02004   0.01302  -0.00600  -0.01618  -0.01460   0.00387   0.01783  -0.01949  -0.00514   0.01662 ...
  -0.00070   0.00000  -0.02724  -0.00326   0.00915   0.01661   0.00714  -0.00531  -0.01283   0.01489   0.00421  -0.01126 ...
  -0.02004   0.02724  -0.00000  -1.98669  -0.06991  -0.01370   0.88784   0.03298  -0.00257  -0.07069  -0.09906  -0.01780 ...
  -0.01302   0.00326   1.98669  -0.00000   0.02618  -0.92970   0.00864  -0.01395  -0.07254  -0.04923   0.08141   0.00662 ...
   0.00600  -0.00915   0.06991  -0.02618   0.00000  -0.02870   0.00031  -0.00808  -0.02107  -0.00870   0.02724  -0.01746 ...
   0.01618  -0.01661   0.01370   0.92970   0.02870   0.00000   0.17885  -0.01102   0.00402   0.05764   0.03784   0.02931 ...
   0.01460  -0.00714  -0.88784  -0.00864  -0.00031  -0.17885   0.00000  -0.00068   0.03914   0.04170  -0.02493  -0.00326 ...
  -0.00387   0.00531  -0.03298   0.01395   0.00808   0.01102   0.00068  -0.00000   0.01208   0.00439  -0.01832   0.00427 ...
  -0.01783   0.01283   0.00257   0.07254   0.02107  -0.00402  -0.03914  -0.01208   0.00000   0.05801  -0.08479  -0.01075 ...
   0.01949  -0.01489   0.07069   0.04923   0.00870  -0.05764  -0.04170  -0.00439  -0.05801   0.00000   0.06925  -0.03338 ...
   0.00514  -0.00421   0.09906  -0.08141  -0.02724  -0.03784   0.02493   0.01832   0.08479  -0.06925   0.00000   0.09779 ...
  -0.01662   0.01126   0.01780  -0.00662   0.01746  -0.02931   0.00326  -0.00427   0.01075   0.03338  -0.09779   0.00000 ...
   ...  only 12  components have been written...
 Atom #  4 - Component magn (y)
   === REAL PART:
  -0.00412   0.00049  -0.00641   0.01095   0.01741   0.00142  -0.00686  -0.00789   0.00315  -0.00230  -0.00059  -0.00141 ...
   0.00049   0.00309   0.00715  -0.00037  -0.01645  -0.00073   0.00285   0.00690  -0.00166   0.00236   0.00088  -0.00106 ...
  -0.00641   0.00715  -0.05871   0.02995  -0.05514   0.03540  -0.00536   0.02361   0.00029   0.02091  -0.00374   0.01617 ...
   0.01095  -0.00037   0.02995   0.02249  -0.00264  -0.01129   0.00213   0.00863   0.00719  -0.00981   0.02631  -0.02032 ...
   0.01741  -0.01645  -0.05514  -0.00264   0.05345   0.02436  -0.00983  -0.02500   0.00681  -0.02863  -0.00041  -0.03195 ...
   0.00142  -0.00073   0.03540  -0.01129   0.02436  -0.01956   0.00024  -0.01138  -0.00162  -0.01000   0.00408  -0.01166 ...
  -0.00686   0.00285  -0.00536   0.00213  -0.00983   0.00024  -0.00581   0.00153  -0.00396   0.00340  -0.01319   0.00929 ...
  -0.00789   0.00690   0.02361   0.00863  -0.02500  -0.01138   0.00153   0.01181  -0.00846   0.01361   0.00007   0.01392 ...
   0.00315  -0.00166   0.00029   0.00719   0.00681  -0.00162  -0.00396  -0.00846   0.00669  -0.00075  -0.00210  -0.00433 ...
  -0.00230   0.00236   0.02091  -0.00981  -0.02863  -0.01000   0.00340   0.01361  -0.00075  -0.00747  -0.00338  -0.00052 ...
  -0.00059   0.00088  -0.00374   0.02631  -0.00041   0.00408  -0.01319   0.00007  -0.00210  -0.00338   0.01698   0.00903 ...
  -0.00141  -0.00106   0.01617  -0.02032  -0.03195  -0.01166   0.00929   0.01392  -0.00433  -0.00052   0.00903   0.01429 ...
   ...  only 12  components have been written...
   === IMAGINARY PART:
  -0.00000   0.00080   0.00939  -0.01882  -0.00201  -0.00567   0.01828   0.00787  -0.01586  -0.01786  -0.00010   0.01897 ...
  -0.00080  -0.00000  -0.00905   0.00427  -0.00326   0.00413  -0.00727  -0.00393   0.00942   0.01239   0.00067  -0.01358 ...
  -0.00939   0.00905  -0.00000   0.01556  -0.05777   0.00846   0.00384   0.03677   0.01840   0.00176  -0.00517   0.02157 ...
   0.01882  -0.00427  -0.01556  -0.00000  -1.91393   0.00965   0.00686   0.88890   0.06477  -0.02009  -0.10987   0.06723 ...
   0.00201   0.00326   0.05777   1.91393  -0.00000  -0.03007  -0.85386   0.00084   0.00497   0.01422   0.08628   0.04639 ...
   0.00567  -0.00413  -0.00846  -0.00965   0.03007  -0.00000  -0.00153  -0.01568  -0.00759  -0.00491   0.00874  -0.01559 ...
  -0.01828   0.00727  -0.00384  -0.00686   0.85386   0.00153  -0.00000   0.19719  -0.03443   0.00674   0.03972  -0.05625 ...
  -0.00787   0.00393  -0.03677  -0.88890  -0.00084   0.01568  -0.19719  -0.00000  -0.00589  -0.02924  -0.03216  -0.04274 ...
   0.01586  -0.00942  -0.01840  -0.06477  -0.00497   0.00759   0.03443   0.00589  -0.00000   0.00284   0.09532  -0.06098 ...
   0.01786  -0.01239  -0.00176   0.02009  -0.01422   0.00491  -0.00674   0.02924  -0.00284  -0.00000   0.08610  -0.03286 ...
   0.00010  -0.00067   0.00517   0.10987  -0.08628  -0.00874  -0.03972   0.03216  -0.09532  -0.08610  -0.00000   0.07530 ...
  -0.01897   0.01358  -0.02157  -0.06723  -0.04639   0.01559   0.05625   0.04274   0.06098   0.03286  -0.07530  -0.00000 ...
   ...  only 12  components have been written...
 Atom #  4 - Component magn (z)
   === REAL PART:
  -0.00058  -0.00164  -0.00680   0.00905   0.00016   0.00415  -0.00502  -0.00030   0.00105   0.00061   0.00171   0.00358 ...
  -0.00164   0.00346   0.01388  -0.01040  -0.00623  -0.00823   0.00662   0.00354   0.00191  -0.00123  -0.00309  -0.00267 ...
  -0.00680   0.01388   0.07948   0.03281  -0.08155  -0.03851  -0.00503   0.05527   0.00939  -0.00336  -0.00980   0.00022 ...
   0.00905  -0.01040   0.03281  -0.02251  -0.00723  -0.02670   0.00972   0.00534   0.01728  -0.01253  -0.00065   0.04284 ...
   0.00016  -0.00623  -0.08155  -0.00723   0.01821   0.04978   0.00362  -0.01225  -0.00300   0.01711   0.01130  -0.00284 ...
   0.00415  -0.00823  -0.03851  -0.02670   0.04978   0.02015   0.00749  -0.03135  -0.00189   0.00151   0.00541  -0.00129 ...
  -0.00502   0.00662  -0.00503   0.00972   0.00362   0.00749  -0.00460  -0.00372  -0.00849   0.00456   0.00234  -0.02342 ...
  -0.00030   0.00354   0.05527   0.00534  -0.01225  -0.03135  -0.00372   0.00890   0.00093  -0.00632  -0.00398   0.00313 ...
   0.00105   0.00191   0.00939   0.01728  -0.00300  -0.00189  -0.00849   0.00093  -0.00525   0.00313   0.00119   0.00183 ...
   0.00061  -0.00123  -0.00336  -0.01253   0.01711   0.00151   0.00456  -0.00632   0.00313  -0.01615  -0.01273  -0.00680 ...
   0.00171  -0.00309  -0.00980  -0.00065   0.01130   0.00541   0.00234  -0.00398   0.00119  -0.01273  -0.00037  -0.00656 ...
   0.00358  -0.00267   0.00022   0.04284  -0.00284  -0.00129  -0.02342   0.00313   0.00183  -0.00680  -0.00656  -0.00428 ...
   ...  only 12  components have been written...
   === IMAGINARY PART:
  -0.00000  -0.00198   0.01445  -0.00397  -0.02393  -0.01294   0.00194   0.01467  -0.00202  -0.01171   0.00297   0.00941 ...
   0.00198  -0.00000  -0.01102   0.00493   0.02352   0.00833  -0.00289  -0.01219  -0.00080   0.00579  -0.00248  -0.00553 ...
  -0.01445   0.01102  -0.00000   0.03105   1.97567  -0.01304  -0.00434  -0.88390  -0.04956   0.01564   0.02743  -0.02083 ...
   0.00397  -0.00493  -0.03105   0.00000   0.01165   0.00464  -0.00128  -0.00991  -0.00668   0.03911  -0.01837   0.00733 ...
   0.02393  -0.02352  -1.97567  -0.01165   0.00000   0.87909  -0.00177   0.01425   0.05580   0.03817  -0.04281  -0.02772 ...
   0.01294  -0.00833   0.01304  -0.00464  -0.87909   0.00000  -0.00368  -0.20442   0.02852  -0.00773   0.00529   0.02651 ...
  -0.00194   0.00289   0.00434   0.00128   0.00177   0.00368  -0.00000  -0.00050   0.00565  -0.02611   0.00516  -0.00169 ...
  -0.01467   0.01219   0.88390   0.00991  -0.01425   0.20442   0.00050  -0.00000  -0.03185  -0.02862  -0.00156   0.01481 ...
   0.00202   0.00080   0.04956   0.00668  -0.05580  -0.02852  -0.00565   0.03185   0.00000  -0.05105   0.00070   0.03985 ...
   0.01171  -0.00579  -0.01564  -0.03911  -0.03817   0.00773   0.02611   0.02862   0.05105   0.00000  -0.01010   0.01793 ...
  -0.00297   0.00248  -0.02743   0.01837   0.04281  -0.00529  -0.00516   0.00156  -0.00070   0.01010   0.00000  -0.00887 ...
  -0.00941   0.00553   0.02083  -0.00733   0.02772  -0.02651   0.00169  -0.01481  -0.03985  -0.01793   0.00887   0.00000 ...
   ...  only 12  components have been written...

 "PAW+U" part of augmentation waves occupancies Rhoij:
 Atom #  1 - L=2 ONLY - Component dens (n)
   === REAL PART:
   0.89116   0.00086   0.00213  -0.00108  -0.00167
   0.00086   0.89355   0.00121  -0.00129  -0.00015
   0.00213   0.00121   0.88847   0.00145   0.00084
  -0.00108  -0.00129   0.00145   0.89229   0.00138
  -0.00167  -0.00015   0.00084   0.00138   0.89241
   === IMAGINARY PART:
  -0.00000  -0.00161  -0.00014   0.00015  -0.00070
   0.00161  -0.00000  -0.00007  -0.00072  -0.00097
   0.00014   0.00007   0.00000  -0.00095   0.00003
  -0.00015   0.00072   0.00095  -0.00000  -0.00047
   0.00070   0.00097  -0.00003   0.00047   0.00000
 Atom #  1 - L=2 ONLY - Component magn (x)
   === REAL PART:
   0.00115   0.00167  -0.00047  -0.00068   0.00012
   0.00167   0.00033   0.00073   0.00031  -0.00034
  -0.00047   0.00073   0.00009  -0.00059   0.00055
  -0.00068   0.00031  -0.00059  -0.00023   0.00083
   0.00012  -0.00034   0.00055   0.00083   0.00038
   === IMAGINARY PART:
   0.00000  -0.00004   0.00016   0.42524  -0.00087
   0.00004   0.00000   0.73715   0.00098   0.42675
  -0.00016  -0.73715  -0.00000  -0.00097   0.00078
  -0.42524  -0.00098   0.00097  -0.00000  -0.00228
   0.00087  -0.42675  -0.00078   0.00228  -0.00000
 Atom #  1 - L=2 ONLY - Component magn (y)
   === REAL PART:
  -0.00169   0.00002  -0.00047   0.00125   0.00062
   0.00002   0.00133  -0.00040   0.00030  -0.00019
  -0.00047  -0.00040  -0.00018   0.00073  -0.00188
   0.00125   0.00030   0.00073   0.00129  -0.00030
   0.00062  -0.00019  -0.00188  -0.00030  -0.00070
   === IMAGINARY PART:
  -0.00000  -0.42541  -0.00077  -0.00294   0.00062
   0.42541  -0.00000  -0.00113   0.00174   0.00088
   0.00077   0.00113  -0.00000   0.73874   0.00100
   0.00294  -0.00174  -0.73874  -0.00000   0.42761
  -0.00062  -0.00088  -0.00100  -0.42761  -0.00000
 Atom #  1 - L=2 ONLY - Component magn (z)
   === REAL PART:
   0.00196  -0.00055   0.00095   0.00074  -0.00052
  -0.00055   0.00135  -0.00136   0.00047  -0.00200
   0.00095  -0.00136   0.00481  -0.00007  -0.00047
   0.00074   0.00047  -0.00007   0.00140  -0.00021
  -0.00052  -0.00200  -0.00047  -0.00021   0.00119
   === IMAGINARY PART:
   0.00000   0.00021  -0.00006   0.00063  -0.85335
  -0.00021   0.00000  -0.00116  -0.42657   0.00147
   0.00006   0.00116   0.00000  -0.00145   0.00157
  -0.00063   0.42657   0.00145   0.00000  -0.00001
   0.85335  -0.00147  -0.00157   0.00001   0.00000
 Atom #  2 - L=2 ONLY - Component dens (n)
   === REAL PART:
   0.89106  -0.00110  -0.00295  -0.00017   0.00138
  -0.00110   0.88789   0.00223   0.00246   0.00046
  -0.00295   0.00223   0.88808   0.00205   0.00007
  -0.00017   0.00246   0.00205   0.88986   0.00092
   0.00138   0.00046   0.00007   0.00092   0.89355
   === IMAGINARY PART:
  -0.00000  -0.00105  -0.00252   0.00067  -0.00071
   0.00105  -0.00000  -0.00066  -0.00023  -0.00040
   0.00252   0.00066  -0.00000  -0.00016   0.00053
  -0.00067   0.00023   0.00016   0.00000  -0.00075
   0.00071   0.00040  -0.00053   0.00075  -0.00000
 Atom #  2 - L=2 ONLY - Component magn (x)
   === REAL PART:
   0.00002   0.00161   0.00097  -0.00057   0.00148
   0.00161   0.00152  -0.00114   0.00215  -0.00049
   0.00097  -0.00114   0.00030   0.00065   0.00038
  -0.00057   0.00215   0.00065  -0.00081  -0.00001
   0.00148  -0.00049   0.00038  -0.00001  -0.00006
   === IMAGINARY PART:
  -0.00000  -0.00002   0.00057   0.42690   0.00028
   0.00002  -0.00000   0.73946   0.00106   0.42857
  -0.00057  -0.73946  -0.00000   0.00185   0.00141
  -0.42690  -0.00106  -0.00185  -0.00000   0.00158
  -0.00028  -0.42857  -0.00141  -0.00158   0.00000
 Atom #  2 - L=2 ONLY - Component magn (y)
   === REAL PART:
  -0.00293   0.00122  -0.00018  -0.00102   0.00032
   0.00122   0.00004  -0.00045   0.00065   0.00254
  -0.00018  -0.00045  -0.00138  -0.00097  -0.00002
  -0.00102   0.00065  -0.00097   0.00229  -0.00113
   0.00032   0.00254  -0.00002  -0.00113   0.00213
   === IMAGINARY PART:
  -0.00000  -0.42818   0.00081   0.00271   0.00065
   0.42818  -0.00000   0.00186   0.00063  -0.00121
  -0.00081  -0.00186  -0.00000   0.73789  -0.00019
  -0.00271  -0.00063  -0.73789  -0.00000   0.42905
  -0.00065   0.00121   0.00019  -0.42905  -0.00000
 Atom #  2 - L=2 ONLY - Component magn (z)
   === REAL PART:
  -0.00172   0.00041  -0.00054   0.00166  -0.00090
   0.00041  -0.00320  -0.00187  -0.00122   0.00025
  -0.00054  -0.00187  -0.00413   0.00001  -0.00228
   0.00166  -0.00122   0.00001  -0.00238   0.00004
  -0.00090   0.00025  -0.00228   0.00004  -0.00342
   === IMAGINARY PART:
  -0.00000   0.00106   0.00070   0.00014  -0.85074
  -0.00106  -0.00000  -0.00066  -0.42967  -0.00050
  -0.00070   0.00066   0.00000  -0.00072  -0.00018
  -0.00014   0.42967   0.00072  -0.00000   0.00016
   0.85074   0.00050   0.00018  -0.00016  -0.00000

 ---------- DFT+U DATA --------------------------------------------------- 

 ====== For Atom     1, occupations for correlated orbitals. lpawu =   2

 => On atom   1, for  lpawu, local Mag. x is     0.16404634E-02
                             local Mag. y is     0.50539289E-04
                             local Mag. z is     0.10281021E-01
                             norm of Mag. is     0.10411199E-01
         (along mag axis)    occ. for majority spin is =      2.14658
         (along mag axis)    occ. for minority spin is =      2.13617

 == Occupation matrix for correlated orbitals:

 Occupation matrix for component up-up
  (  0.42902,  0.00000) (  0.00015, -0.00067) (  0.00148, -0.00010) ( -0.00016,  0.00037) ( -0.00105, -0.41025) (
  (  0.00015,  0.00067) (  0.42987,  0.00000) ( -0.00007, -0.00059) ( -0.00039, -0.20525) ( -0.00103,  0.00024) (
  (  0.00148,  0.00010) ( -0.00007,  0.00059) (  0.42909,  0.00000) (  0.00066, -0.00116) (  0.00018,  0.00077) (
  ( -0.00016, -0.00037) ( -0.00039,  0.20525) (  0.00066,  0.00116) (  0.42929,  0.00000) (  0.00056, -0.00023) (
  ( -0.00105,  0.41025) ( -0.00103, -0.00024) (  0.00018, -0.00077) (  0.00056,  0.00023) (  0.42925,  0.00000) (


 Occupation matrix for component dwn-dwn
  (  0.42713, -0.00000) (  0.00068, -0.00087) (  0.00057, -0.00003) ( -0.00088, -0.00023) ( -0.00055,  0.40957) (
  (  0.00068,  0.00087) (  0.42858, -0.00000) (  0.00123,  0.00052) ( -0.00085,  0.20456) (  0.00089, -0.00117) (
  (  0.00057,  0.00003) (  0.00123, -0.00052) (  0.42447,  0.00000) (  0.00073,  0.00024) (  0.00063, -0.00074) (
  ( -0.00088,  0.00023) ( -0.00085, -0.20456) (  0.00073, -0.00024) (  0.42795, -0.00000) (  0.00076, -0.00022) (
  ( -0.00055, -0.40957) (  0.00089,  0.00117) (  0.00063,  0.00074) (  0.00076,  0.00022) (  0.42810,  0.00000) (


 Occupation matrix for component up-dwn
  (  0.00055,  0.00081) ( -0.20354, -0.00003) ( -0.00059,  0.00030) ( -0.00174,  0.20367) (  0.00036, -0.00071) (
  (  0.20515,  0.00001) (  0.00016, -0.00064) ( -0.00019,  0.35428) (  0.00099,  0.00033) (  0.00026,  0.20509) (
  (  0.00014,  0.00015) (  0.00089, -0.35390) (  0.00004,  0.00008) (  0.35457, -0.00081) (  0.00075,  0.00128) (
  (  0.00109, -0.20487) ( -0.00069, -0.00062) ( -0.35514,  0.00012) ( -0.00011, -0.00062) (  0.20580, -0.00095) (
  ( -0.00024,  0.00012) ( -0.00058, -0.20490) ( -0.00022,  0.00053) ( -0.20500,  0.00124) (  0.00018,  0.00034) (


 Occupation matrix for component dwn-up
  (  0.00055, -0.00081) (  0.20515, -0.00001) (  0.00014, -0.00015) (  0.00109,  0.20487) ( -0.00024, -0.00012) (
  ( -0.20354,  0.00003) (  0.00016,  0.00064) (  0.00089,  0.35390) ( -0.00069,  0.00062) ( -0.00058,  0.20490) (
  ( -0.00059, -0.00030) ( -0.00019, -0.35428) (  0.00004, -0.00008) ( -0.35514, -0.00012) ( -0.00022, -0.00053) (
  ( -0.00174, -0.20367) (  0.00099, -0.00033) (  0.35457,  0.00081) ( -0.00011,  0.00062) ( -0.20500, -0.00124) (
[...]
    4      4.19108349203280     4.19108349203280     2.09554174601640

 cartesian forces (hartree/bohr) at end:
    1     -0.40941712519071    -0.31098568629397    -0.09432880076852
    2      0.12753449758921     0.04645431458626     0.05675016641131
    3      0.13897769141330     0.10034492841889     0.07182765744850
    4      0.14290493618819     0.16418644328882    -0.03424902309129
 frms,max,avg= 1.7747562E-01 4.0941713E-01  -7.406E-03 -2.290E-02 -3.068E-03 h/b

 cartesian forces (eV/Angstrom) at end:
    1    -21.05307328353561   -15.99152561248576    -4.85058155396568
    2      6.55808699422122     2.38877670020592     2.91821064337190
    3      7.14651963016431     5.15994325017567     3.69352634026619
    4      7.34846665915008     8.44280566210418    -1.76115542967241
 frms,max,avg= 9.1261626E+00 2.1053073E+01  -3.808E-01 -1.177E+00 -1.577E-01 e/A
 length scales=  7.920000000000  7.920000000000  7.920000000000 bohr
              =  4.191083492033  4.191083492033  4.191083492033 angstroms
 Fermi (or HOMO) energy (hartree) =   0.90124   Average Vxc (hartree)=  -0.57963
 Eigenvalues (hartree) for nkpt=   8  k points:
 kpt#   1, nband= 50, wtk=  0.12500, kpt=  0.2500  0.2500  0.2500 (reduced coord)
 -61.70215  -61.69957  -61.43314  -61.43154   -8.33122   -8.32734   -8.28529   -8.27711
  -8.25173   -8.24756   -8.20746   -8.20563   -6.40459   -6.40445   -6.38900   -6.38877
  -1.17683   -1.17367   -0.92209   -0.91987   -0.61715   -0.61661   -0.32375   -0.32182
  -0.04594   -0.02382    0.02870    0.04736    0.13708    0.14656    0.20816    0.22353
   0.28080    0.29119    0.39332    0.40399    0.42401    0.43017    0.52900    0.54567
   0.66135    0.66894    0.71311    0.72710    0.74994    0.78385    0.80895    0.85703
   0.94088    1.03774
      occupation numbers for kpt#   1
   1.00000    1.00000    1.00000    1.00000    1.00000    1.00000    1.00000    1.00000
   1.00000    1.00000    1.00000    1.00000    1.00000    1.00000    1.00000    1.00000
   1.00000    1.00000    1.00000    1.00000    1.00000    1.00000    1.00000    1.00000
   1.00000    1.00000    1.00000    1.00000    1.00000    1.00000    1.00000    1.00000
   1.00000    1.00000    1.00000    1.00000    1.00000    1.00000    1.00000    1.00000
   1.00000    1.00000    1.00000    1.00000    1.00000    1.00000    1.00000    0.99998
   0.00009    0.00000
 prteigrs : prtvol=0 or 1, do not print more k-points.


--- !EnergyTerms
iteration_state     : {dtset: 2, }
comment             : Components of total free energy in Hartree
kinetic             :  6.94367345370717E+01
hartree             :  3.32824433248023E+01
xc                  : -2.79069707598947E+01
Ewald energy        : -2.29529573731543E+02
psp_core            :  2.14477051759375E+01
local_psp           : -1.20275038342412E+02
spherical_terms     : -2.35283748916468E+02
internal            : -4.88828448712506E+02
'-kT*entropy'       : -2.04868147118589E-03
total_energy        : -4.88830497393977E+02
total_energy_eV     : -1.33017543070622E+04
...


--- !EnergyTermsDC
iteration_state     : {dtset: 2, }
comment             : '"Double-counting" decomposition of free energy'
band_energy         : -3.34813407783445E+02
Ewald energy        : -2.29529573731543E+02
psp_core            :  2.14477051759375E+01
xc_dc               : -2.45956185067613E+01
spherical_terms     : -3.04142520541551E+01
internal            : -5.97905146899967E+02
'-kT*entropy'       : -2.04868147118589E-03
total_energy_dc     : -5.97907195581438E+02
total_energy_dc_eV  : -1.62698822116226E+04
...


 Cartesian components of stress tensor (hartree/bohr^3)
  sigma(1 1)=  4.16666058E-01  sigma(3 2)= -2.88861310E-03
  sigma(2 2)=  4.16863788E-01  sigma(3 1)= -2.80340535E-03
  sigma(3 3)=  4.25820989E-01  sigma(2 1)= -3.23304347E-03

-Cartesian components of stress tensor (GPa)         [Pressure= -1.2350E+04 GPa]
- sigma(1 1)=  1.22587366E+04  sigma(3 2)= -8.49859171E+01
- sigma(2 2)=  1.22645540E+04  sigma(3 1)= -8.24790192E+01
- sigma(3 3)=  1.25280839E+04  sigma(2 1)= -9.51194070E+01

== END DATASET(S) ==============================================================
================================================================================
  
 -outvars: echo values of variables after computation  --------
            acell      7.9200000000E+00  7.9200000000E+00  7.9200000000E+00 Bohr
              amu      5.86900000E+01  1.59994000E+01
      chksymbreak           0
           diemix      5.00000000E-01
             ecut      8.00000000E+00 Hartree
           etotal1    -5.9790719558E+02
           etotal2    -5.9790719558E+02
            fcart1    -4.0941712657E-01 -3.1098568294E-01 -9.4328802123E-02
                       1.2753449860E-01  4.6454313285E-02  5.6750168082E-02
                       1.3897769142E-01  1.0034492735E-01  7.1827657287E-02
                       1.4290493655E-01  1.6418644231E-01 -3.4249023246E-02
            fcart2    -4.0941712519E-01 -3.1098568629E-01 -9.4328800769E-02
                       1.2753449759E-01  4.6454314586E-02  5.6750166411E-02
                       1.3897769141E-01  1.0034492842E-01  7.1827657448E-02
                       1.4290493619E-01  1.6418644329E-01 -3.4249023091E-02
-          fftalg         312
              ixc           7
           jdtset        1    2
            jpawu      3.50000000E-02  0.00000000E+00 Hartree
              kpt      2.50000000E-01  2.50000000E-01  2.50000000E-01
                      -2.50000000E-01  2.50000000E-01  2.50000000E-01
                       2.50000000E-01 -2.50000000E-01  2.50000000E-01
                      -2.50000000E-01 -2.50000000E-01  2.50000000E-01
                       2.50000000E-01  2.50000000E-01 -2.50000000E-01
                      -2.50000000E-01  2.50000000E-01 -2.50000000E-01
                       2.50000000E-01 -2.50000000E-01 -2.50000000E-01
                      -2.50000000E-01 -2.50000000E-01 -2.50000000E-01
           kptopt           4
         kptrlatt        2    0    0      0    2    0      0    0    2
          kptrlen      1.12005714E+01
            lpawu           2      -1
P           mkmem           8
            natom           4
            nband          50
           ndtset           2
            ngfft          16      16      30
          ngfftdg          16      16      32
             nkpt           8
          nspinor           2
            nstep           3
             nsym           1
           ntypat           2
              occ      1.000000  1.000000  1.000000  1.000000  1.000000  1.000000
                       1.000000  1.000000  1.000000  1.000000  1.000000  1.000000
                       1.000000  1.000000  1.000000  1.000000  1.000000  1.000000
                       1.000000  1.000000  1.000000  1.000000  1.000000  1.000000
                       1.000000  1.000000  1.000000  1.000000  1.000000  1.000000
                       1.000000  1.000000  1.000000  1.000000  1.000000  1.000000
                       1.000000  1.000000  1.000000  1.000000  1.000000  1.000000
                       1.000000  1.000000  1.000000  1.000000  1.000000  0.999985
                       0.000093  0.000000
                       1.000000  1.000000  1.000000  1.000000  1.000000  1.000000
                       1.000000  1.000000  1.000000  1.000000  1.000000  1.000000
                       1.000000  1.000000  1.000000  1.000000  1.000000  1.000000
                       1.000000  1.000000  1.000000  1.000000  1.000000  1.000000
                       1.000000  1.000000  1.000000  1.000000  1.000000  1.000000
                       1.000000  1.000000  1.000000  1.000000  1.000000  1.000000
                       1.000000  1.000000  1.000000  1.000000  1.000000  1.000000
                       1.000000  1.000000  1.000000  1.000000  1.000000  0.865599
                       0.411753  0.000000
                       1.000000  1.000000  1.000000  1.000000  1.000000  1.000000
                       1.000000  1.000000  1.000000  1.000000  1.000000  1.000000
                       1.000000  1.000000  1.000000  1.000000  1.000000  1.000000
                       1.000000  1.000000  1.000000  1.000000  1.000000  1.000000
                       1.000000  1.000000  1.000000  1.000000  1.000000  1.000000
                       1.000000  1.000000  1.000000  1.000000  1.000000  1.000000
                       1.000000  1.000000  1.000000  1.000000  1.000000  1.000000
                       1.000000  1.000000  1.000000  1.000000  0.998967  0.688514
                       0.000138  0.000000
                       1.000000  1.000000  1.000000  1.000000  1.000000  1.000000
                       1.000000  1.000000  1.000000  1.000000  1.000000  1.000000
                       1.000000  1.000000  1.000000  1.000000  1.000000  1.000000
                       1.000000  1.000000  1.000000  1.000000  1.000000  1.000000
                       1.000000  1.000000  1.000000  1.000000  1.000000  1.000000
                       1.000000  1.000000  1.000000  1.000000  1.000000  1.000000
                       1.000000  1.000000  1.000000  1.000000  1.000000  1.000000
                       1.000000  1.000000  1.000000  1.000000  1.000000  0.999998
                       0.024191  0.000000
                       1.000000  1.000000  1.000000  1.000000  1.000000  1.000000
                       1.000000  1.000000  1.000000  1.000000  1.000000  1.000000
                       1.000000  1.000000  1.000000  1.000000  1.000000  1.000000
                       1.000000  1.000000  1.000000  1.000000  1.000000  1.000000
                       1.000000  1.000000  1.000000  1.000000  1.000000  1.000000
                       1.000000  1.000000  1.000000  1.000000  1.000000  1.000000
                       1.000000  1.000000  1.000000  1.000000  1.000000  1.000000
                       1.000000  1.000000  1.000000  1.000000  1.000000  1.000000
                       0.014967  0.000000
                       1.000000  1.000000  1.000000  1.000000  1.000000  1.000000
                       1.000000  1.000000  1.000000  1.000000  1.000000  1.000000
                       1.000000  1.000000  1.000000  1.000000  1.000000  1.000000
                       1.000000  1.000000  1.000000  1.000000  1.000000  1.000000
                       1.000000  1.000000  1.000000  1.000000  1.000000  1.000000
                       1.000000  1.000000  1.000000  1.000000  1.000000  1.000000
                       1.000000  1.000000  1.000000  1.000000  1.000000  1.000000
                       1.000000  1.000000  1.000000  1.000000  1.000000  0.982139
                       0.145731  0.000000
                       1.000000  1.000000  1.000000  1.000000  1.000000  1.000000
                       1.000000  1.000000  1.000000  1.000000  1.000000  1.000000
                       1.000000  1.000000  1.000000  1.000000  1.000000  1.000000
                       1.000000  1.000000  1.000000  1.000000  1.000000  1.000000
                       1.000000  1.000000  1.000000  1.000000  1.000000  1.000000
                       1.000000  1.000000  1.000000  1.000000  1.000000  1.000000
                       1.000000  1.000000  1.000000  1.000000  1.000000  1.000000
                       1.000000  1.000000  1.000000  1.000000  1.000000  0.868086
                       0.000000  0.000000
                       1.000000  1.000000  1.000000  1.000000  1.000000  1.000000
                       1.000000  1.000000  1.000000  1.000000  1.000000  1.000000
                       1.000000  1.000000  1.000000  1.000000  1.000000  1.000000
                       1.000000  1.000000  1.000000  1.000000  1.000000  1.000000
                       1.000000  1.000000  1.000000  1.000000  1.000000  1.000000
                       1.000000  1.000000  1.000000  1.000000  1.000000  1.000000
                       1.000000  1.000000  1.000000  1.000000  1.000000  1.000000
                       1.000000  1.000000  1.000000  1.000000  1.000000  0.999841
                       0.000001  0.000000
           occopt           7
        optforces           1
        pawcpxocc           2
        pawecutdg      1.00000000E+01 Hartree
        pawprtvol           3
        pawspnorb           1
           prtden           0
           prteig           0
            prtwf           0
            rprim      0.0000000000E+00  5.0000000000E-01  5.0000000000E-01
                       5.0000000000E-01  0.0000000000E+00  5.0000000000E-01
                       1.0000000000E+00  1.0000000000E+00  0.0000000000E+00
           shiftk      5.00000000E-01  5.00000000E-01  5.00000000E-01
          spgroup           1
           spinat      0.0000000000E+00  0.0000000000E+00  1.0000000000E+00
                       0.0000000000E+00  0.0000000000E+00 -1.0000000000E+00
                       0.0000000000E+00  0.0000000000E+00  0.0000000000E+00
                       0.0000000000E+00  0.0000000000E+00  0.0000000000E+00
        spnorbscl      1.0000000000E+03
           strten1     4.1666605845E-01  4.1686378783E-01  4.2582098907E-01
                      -2.8886130883E-03 -2.8034053548E-03 -3.2330434733E-03
           strten2     4.1666605847E-01  4.1686378784E-01  4.2582098908E-01
                      -2.8886130966E-03 -2.8034053538E-03 -3.2330434734E-03
           tolvrs      1.00000000E-07
           tsmear      1.50000000E-02 Hartree
            typat      1  1  2  2
            upawu      3.00000000E-01  0.00000000E+00 Hartree
          usepawu1          1
          usepawu2         -1
           useylm           1
              wtk        0.12500    0.12500    0.12500    0.12500    0.12500    0.12500
                         0.12500    0.12500
           xangst      4.1910834920E-01  4.1910834920E-01 -7.4269235192E-34
                       2.0955417460E+00  2.0955417460E+00 -2.0880793867E-33
                       2.0955417460E+00  2.0955417460E+00  2.0955417460E+00
                       4.1910834920E+00  4.1910834920E+00  2.0955417460E+00
            xcart      7.9200000000E-01  7.9200000000E-01 -1.4034851461E-33
                       3.9600000000E+00  3.9600000000E+00 -3.9458981845E-33
                       3.9600000000E+00  3.9600000000E+00  3.9600000000E+00
                       7.9200000000E+00  7.9200000000E+00  3.9600000000E+00
             xred     -5.5982154939E-18  5.5982154939E-18  1.0000000000E-01
                      -2.7710718120E-17  2.7710718120E-17  5.0000000000E-01
                       5.0000000000E-01  5.0000000000E-01  2.5000000000E-01
                       5.0000000000E-01  5.0000000000E-01  7.5000000000E-01
            znucl       28.00000    8.00000

================================================================================


- Timing analysis has been suppressed with timopt=0



================================================================================

 Suggested references for the acknowledgment of ABINIT usage.

 The users of ABINIT have little formal obligations with respect to the ABINIT group
 (those specified in the GNU General Public License, http://www.gnu.org/copyleft/gpl.txt).
 However, it is common practice in the scientific literature,
 to acknowledge the efforts of people that have made the research possible.
 In this spirit, please find below suggested citations of work written by ABINIT developers,
 corresponding to implementations inside of ABINIT that you have used in the present run.
 Note also that it will be of great value to readers of publications presenting these results,
 to read papers enabling them to understand the theoretical formalism and details
 of the ABINIT implementation.
 For information on why they are suggested, see also https://docs.abinit.org/theory/acknowledgments.
-
- [1] Gamma and beta cerium: DFT+U calculations of ground-state parameters.
- B. Amadon, F. Jollet and M. Torrent, Phys. Rev. B 77, 155104 (2008).
- Comment: DFT+U calculations, usepawu/=0. Strong suggestion to cite this paper.
- DOI and bibtex: see https://docs.abinit.org/theory/bibliography/#amadon2008a
-
- [2] Implementation of the Projector Augmented-Wave Method in the ABINIT code.
- M. Torrent, F. Jollet, F. Bottin, G. Zerah, and X. Gonze Comput. Mat. Science 42, 337, (2008).
- Comment: PAW calculations. Strong suggestion to cite this paper.
- DOI and bibtex: see https://docs.abinit.org/theory/bibliography/#torrent2008
-
- [3] The Abinit project: Impact, environment and recent developments.
- Computer Phys. Comm. 248, 107042 (2020).
- X.Gonze, B. Amadon, G. Antonius, F.Arnardi, L.Baguet, J.-M.Beuken,
- J.Bieder, F.Bottin, J.Bouchet, E.Bousquet, N.Brouwer, F.Bruneval,
- G.Brunin, T.Cavignac, J.-B. Charraud, Wei Chen, M.Cote, S.Cottenier,
- J.Denier, G.Geneste, Ph.Ghosez, M.Giantomassi, Y.Gillet, O.Gingras,
- D.R.Hamann, G.Hautier, Xu He, N.Helbig, N.Holzwarth, Y.Jia, F.Jollet,
- W.Lafargue-Dit-Hauret, K.Lejaeghere, M.A.L.Marques, A.Martin, C.Martins,
- H.P.C. Miranda, F.Naccarato, K. Persson, G.Petretto, V.Planes, Y.Pouillon,
- S.Prokhorenko, F.Ricci, G.-M.Rignanese, A.H.Romero, M.M.Schmitt, M.Torrent,
- M.J.van Setten, B.Van Troeye, M.J.Verstraete, G.Zerah and J.W.Zwanzig
- Comment: the fifth generic paper describing the ABINIT project.
- Note that a version of this paper, that is not formatted for Computer Phys. Comm. 
- is available at https://www.abinit.org/sites/default/files/ABINIT20.pdf .
- The licence allows the authors to put it on the Web.
- DOI and bibtex: see https://docs.abinit.org/theory/bibliography/#gonze2020
-
- [4] ABINIT: Overview, and focus on selected capabilities
- J. Chem. Phys. 152, 124102 (2020).
- A. Romero, D.C. Allan, B. Amadon, G. Antonius, T. Applencourt, L.Baguet,
- J.Bieder, F.Bottin, J.Bouchet, E.Bousquet, F.Bruneval,
- G.Brunin, D.Caliste, M.Cote,
- J.Denier, C. Dreyer, Ph.Ghosez, M.Giantomassi, Y.Gillet, O.Gingras,
- D.R.Hamann, G.Hautier, F.Jollet, G. Jomard,
- A.Martin, 
- H.P.C. Miranda, F.Naccarato, G.Petretto, N.A. Pike, V.Planes,
- S.Prokhorenko, T. Rangel, F.Ricci, G.-M.Rignanese, M.Royo, M.Stengel, M.Torrent,
- M.J.van Setten, B.Van Troeye, M.J.Verstraete, J.Wiktor, J.W.Zwanziger, and X.Gonze.
- Comment: a global overview of ABINIT, with focus on selected capabilities .
- Note that a version of this paper, that is not formatted for J. Chem. Phys 
- is available at https://www.abinit.org/sites/default/files/ABINIT20_JPC.pdf .
- The licence allows the authors to put it on the Web.
- DOI and bibtex: see https://docs.abinit.org/theory/bibliography/#romero2020
-
- [5] Recent developments in the ABINIT software package.
- Computer Phys. Comm. 205, 106 (2016).
- X.Gonze, F.Jollet, F.Abreu Araujo, D.Adams, B.Amadon, T.Applencourt,
- C.Audouze, J.-M.Beuken, J.Bieder, A.Bokhanchuk, E.Bousquet, F.Bruneval
- D.Caliste, M.Cote, F.Dahm, F.Da Pieve, M.Delaveau, M.Di Gennaro,
- B.Dorado, C.Espejo, G.Geneste, L.Genovese, A.Gerossier, M.Giantomassi,
- Y.Gillet, D.R.Hamann, L.He, G.Jomard, J.Laflamme Janssen, S.Le Roux,
- A.Levitt, A.Lherbier, F.Liu, I.Lukacevic, A.Martin, C.Martins,
- M.J.T.Oliveira, S.Ponce, Y.Pouillon, T.Rangel, G.-M.Rignanese,
- A.H.Romero, B.Rousseau, O.Rubel, A.A.Shukri, M.Stankovski, M.Torrent,
- M.J.Van Setten, B.Van Troeye, M.J.Verstraete, D.Waroquier, J.Wiktor,
- B.Xu, A.Zhou, J.W.Zwanziger.
- Comment: the fourth generic paper describing the ABINIT project.
- Note that a version of this paper, that is not formatted for Computer Phys. Comm. 
- is available at https://www.abinit.org/sites/default/files/ABINIT16.pdf .
- The licence allows the authors to put it on the Web.
- DOI and bibtex: see https://docs.abinit.org/theory/bibliography/#gonze2016
-
- Proc.   0 individual time (sec): cpu=         18.9  wall=         19.0

================================================================================

 Calculation completed.
.Delivered   9 WARNINGs and   7 COMMENTs to log file.
+Overall time at end (sec) : cpu=         18.9  wall=         19.0
