  ABINIT 8.9.4
  
  Give name for formatted input file: 
t03.in
  Give name for formatted output file:
t03_x.out
  Give root name for generic input files:
t03_xi
  Give root name for generic output files:
t03_xo
  Give root name for generic temporary files:
t03_x

--- !COMMENT
src_file: m_dtfil.F90
src_line: 1157
message: |
    Output file t03_x.out
     already exists.
...


--- !COMMENT
src_file: m_dtfil.F90
src_line: 1181
message: |
    Renaming old t03_x.out to t03_x.out0030
...


.Version 8.9.4 of ABINIT 
.(sequential version, prepared for a x86_64_linux_gnu7.3 computer) 

.Copyright (C) 1998-2018 ABINIT group . 
 ABINIT comes with ABSOLUTELY NO WARRANTY.
 It is free software, and you are welcome to redistribute it
 under certain conditions (GNU General Public License,
 see ~abinit/COPYING or http://www.gnu.org/copyleft/gpl.txt).

 ABINIT is a project of the Universite Catholique de Louvain,
 Corning Inc. and other collaborators, see ~abinit/doc/developers/contributors.txt .
 Please read https://docs.abinit.org/theory/acknowledgments for suggested
 acknowledgments of the ABINIT effort.
 For more information, see https://www.abinit.org .

.Starting date : Mon 25 Feb 2019.
- ( at 17h45 )
  

 ++++++++++++++++++++++++++++++++++++++++++++++++++++++++++++++++++++++++++++++

 === Build Information === 
  Version       : 8.9.4
  Build target  : x86_64_linux_gnu7.3
  Build date    : 20190225

 === Compiler Suite === 
  C compiler       : gnu7.3
  C++ compiler     : gnu7.3
  Fortran compiler : gnu7.3
  CFLAGS           :  -g -O2 -mtune=native -march=native
  CXXFLAGS         :  -g -O2 -mtune=native -march=native
  FCFLAGS          :  -g -ffree-line-length-none  -fopenmp
  FC_LDFLAGS       : 

 === Optimizations === 
  Debug level        : basic
  Optimization level : standard
  Architecture       : intel_xeon

 === Multicore === 
  Parallel build : no
  Parallel I/O   : no
  openMP support : yes
  GPU support    : no

 === Connectors / Fallbacks === 
  Connectors on : yes
  Fallbacks on  : yes
  DFT flavor    : none
  FFT flavor    : none
  LINALG flavor : netlib
  MATH flavor   : none
  TIMER flavor  : abinit
  TRIO flavor   : none

 === Experimental features === 
  Bindings            : @enable_bindings@
  Exports             : no
  GW double-precision : no

 ++++++++++++++++++++++++++++++++++++++++++++++++++++++++++++++++++++++++++++++


 ++++++++++++++++++++++++++++++++++++++++++++++++++++++++++++++++++++++++++++++
 Default optimizations:
   -O2 -mtune=native -march=native


 Optimizations for 43_ptgroups:
   -O0


 ++++++++++++++++++++++++++++++++++++++++++++++++++++++++++++++++++++++++++++++


 ++++++++++++++++++++++++++++++++++++++++++++++++++++++++++++++++++++++++++++++
 CPP options activated during the build:

                    CC_GNU                   CXX_GNU                    FC_GNU
 
 HAVE_FC_ALLOCATABLE_DT...             HAVE_FC_ASYNC         HAVE_FC_BACKTRACE
 
  HAVE_FC_COMMAND_ARGUMENT      HAVE_FC_COMMAND_LINE        HAVE_FC_CONTIGUOUS
 
           HAVE_FC_CPUTIME              HAVE_FC_EXIT             HAVE_FC_FLUSH
 
             HAVE_FC_GAMMA            HAVE_FC_GETENV   HAVE_FC_IEEE_EXCEPTIONS
 
          HAVE_FC_INT_QUAD             HAVE_FC_IOMSG     HAVE_FC_ISO_C_BINDING
 
  HAVE_FC_ISO_FORTRAN_2008        HAVE_FC_LONG_LINES        HAVE_FC_MOVE_ALLOC
 
           HAVE_FC_PRIVATE         HAVE_FC_PROTECTED         HAVE_FC_STREAM_IO
 
            HAVE_FC_SYSTEM          HAVE_FORTRAN2003        HAVE_LIBPAW_ABINIT
 
      HAVE_LIBTETRA_ABINIT               HAVE_LINALG        HAVE_LINALG_SERIAL
 
         HAVE_OMP_COLLAPSE               HAVE_OPENMP             HAVE_OS_LINUX
 
         HAVE_TIMER_ABINIT              USE_MACROAVE                            
 ++++++++++++++++++++++++++++++++++++++++++++++++++++++++++++++++++++++++++++++

- input  file    -> t03.in
- output file    -> t03_x.out
- root for input  files -> t03_xi
- root for output files -> t03_xo

-instrng: 105 lines of input have been read from file t03.in


 Please give name of formatted atomic psp file
 iofn2 : for atom type 1, psp file is ../../../Psps_for_tests/ba.hpc.paw.xml
- inpspheads : Reading pseudopotential header in XML form from ../../../Psps_for_tests/ba.hpc.paw.xml

 inpspheads: deduce mpsang = 3, n1xccc = 1.
 invars1 : treat image number: 1

 symlatt : the Bravais lattice is cP (primitive cubic)
  xred   is defined in input file
 ingeo: takes atomic coordinates from input array xred

 symlatt : the Bravais lattice is cP (primitive cubic)

 symlatt : the Bravais lattice is cP (primitive cubic)
 symspgr : spgroup= 221  Pm -3 m   (=Oh^1)
 symspgr : optical characteristics = isotropic
 ingeo: angdeg(1:3)=   90.00000000   90.00000000   90.00000000
 inkpts: Sum of 1 k point weights is    1.000000
 inkpts: Sum of 1 k point weights is    1.000000
 chkneu : initialized the occupation numbers for occopt=    3, spin-unpolarized or antiferromagnetic case :
  2.00  2.00  2.00  2.00  2.00  2.00  2.00  2.00  2.00  2.00  2.00  2.00
  2.00  2.00  2.00  2.00  2.00  2.00  2.00  2.00  2.00  2.00  2.00  2.00
  2.00  2.00  2.00  2.00  2.00  2.00  2.00  2.00  2.00  2.00  2.00  2.00
  2.00  2.00  2.00  2.00  2.00  2.00  2.00  2.00  2.00  2.00  2.00  2.00
  2.00  2.00  2.00  2.00  2.00  2.00  2.00  2.00  2.00  2.00  2.00  2.00
  2.00  2.00  2.00  2.00  2.00  2.00  2.00  2.00  2.00  2.00  2.00  2.00
  2.00  2.00  2.00  2.00  2.00  2.00  2.00  2.00  2.00  2.00  2.00  2.00
  2.00  2.00  2.00  2.00  2.00  2.00  2.00  2.00  2.00  2.00  2.00  2.00
  2.00  2.00  2.00  2.00  2.00  2.00  2.00  2.00  2.00  2.00  2.00  2.00
  2.00  2.00  2.00  2.00  2.00  2.00  2.00  2.00  2.00  2.00  2.00  2.00
  2.00  2.00  2.00  2.00  2.00  2.00  2.00  2.00  2.00  2.00  2.00  2.00
  2.00  2.00  2.00  2.00  2.00  2.00  2.00  2.00  2.00  2.00  2.00  2.00
  2.00  2.00  2.00  2.00  2.00  2.00  2.00  2.00  2.00  2.00  2.00  0.00
  0.00  0.00  0.00  0.00  0.00  0.00  0.00  0.00  0.00  0.00  0.00  0.00
  0.00  0.00  0.00  0.00  0.00  0.00  0.00  0.00  0.00  0.00  0.00  0.00
  0.00  0.00  0.00  0.00  0.00  0.00  0.00  0.00  0.00  0.00  0.00  0.00
mpi_setup: mkmem  undefined in the input file.Use default mkmem  = nkpt
 mpi_setup: With nkpt_me=1 and mkmem  = 1, ground state wf handled in core.
mpi_setup: mkqmem undefined in the input file.Use default mkqmem = nkpt
 mpi_setup: With nkpt_me=1 and mkqmem = 1, ground state wf handled in core.
mpi_setup: mk1mem undefined in the input file.Use default mk1mem = nkpt
 mpi_setup: With nkpt_me=1 and mk1mem = 1, ground state wf handled in core.
getng is called for the coarse grid:
 For input ecut=  8.000000E+00 best grid ngfft=      40      40      40
       max ecut=  8.388398E+00

 ==== FFT mesh ====
  FFT mesh divisions ........................    40   40   40
  Augmented FFT divisions ...................    41   41   40
  FFT algorithm .............................   112
  FFT cache size ............................    16
 getmpw: optimal value of mpw= 3887
getng is called for the fine grid:
 Using supplied coarse mesh as initial guess.
 For input ecut=  1.000000E+01 best grid ngfft=      45      45      45
       max ecut=  1.014996E+01

 ==== FFT mesh ====
  FFT mesh divisions ........................    45   45   45
  Augmented FFT divisions ...................    45   45   45
  FFT algorithm .............................   112
  FFT cache size ............................    16

 Symmetries : space group Pm -3 m (#221); Bravais cP (primitive cubic)

 getdim_nloc : deduce lmnmax  =  18, lnmax  =   6,
                      lmnmaxso=  18, lnmaxso=   6.
memory : analysis of memory needs
================================================================================
 Values of the parameters that define the memory need of the present run
     intxc =       0    ionmov =       0      iscf =      17    lmnmax =      18
     lnmax =       6     mgfft =      40  mpssoang =       3    mqgrid =    3001
     natom =      31  nloc_mem =       2    nspden =       1   nspinor =       1
    nsppol =       1      nsym =      48    n1xccc =       1    ntypat =       1
    occopt =       3   xclevel =       1
-    mband =         192        mffmem =           1         mkmem =           1
       mpw =        3887          nfft =       64000          nkpt =           1
 PAW method is used; the additional fine FFT grid is defined by:
   mgfftf=        45    nfftf =     91125
================================================================================
P This job should need less than                      84.181 Mbytes of memory.
  Rough estimation (10% accuracy) of disk space for files :
_ WF disk file :     11.390 Mbytes ; DEN or POT disk file :      0.697 Mbytes.
================================================================================

 Biggest array : pawfgrtab%gylm(gr), with     21.0009 MBytes.
 memana : allocated an array of     21.001 Mbytes, for testing purposes.
 memana: allocated      84.181Mbytes, for testing purposes. 
 The job will continue.
--------------------------------------------------------------------------------
------------- Echo of variables that govern the present computation ------------
--------------------------------------------------------------------------------
-
- outvars: echo of selected default values                                      
-   iomode0 =  0 , fftalg0 =112 , wfoptalg0 = 10
-
- outvars: echo of global parameters not present in the input file              
-  max_nthreads =   12
-
 -outvars: echo values of preprocessed input variables --------
            acell      1.5340000000E+01  1.5340000000E+01  1.5340000000E+01 Bohr
              amu      1.37327000E+02
      chksymbreak           0
             ecut      8.00000000E+00 Hartree
-          fftalg         112
           istwfk        1
              ixc           7
           kptopt           0
P           mkmem           1
            natom          31
            nband         192
            ngfft          40      40      40
          ngfftdg          45      45      45
             nkpt           1
            nstep          40
             nsym          48
           ntypat           1
              occ      2.000000  2.000000  2.000000  2.000000  2.000000  2.000000
                       2.000000  2.000000  2.000000  2.000000  2.000000  2.000000
                       2.000000  2.000000  2.000000  2.000000  2.000000  2.000000
                       2.000000  2.000000  2.000000  2.000000  2.000000  2.000000
                       2.000000  2.000000  2.000000  2.000000  2.000000  2.000000
                       2.000000  2.000000  2.000000  2.000000  2.000000  2.000000
                       2.000000  2.000000  2.000000  2.000000  2.000000  2.000000
                       2.000000  2.000000  2.000000  2.000000  2.000000  2.000000
                       2.000000  2.000000  2.000000  2.000000  2.000000  2.000000
                       2.000000  2.000000  2.000000  2.000000  2.000000  2.000000
                       2.000000  2.000000  2.000000  2.000000  2.000000  2.000000
                       2.000000  2.000000  2.000000  2.000000  2.000000  2.000000
                       2.000000  2.000000  2.000000  2.000000  2.000000  2.000000
                       2.000000  2.000000  2.000000  2.000000  2.000000  2.000000
                       2.000000  2.000000  2.000000  2.000000  2.000000  2.000000
                       2.000000  2.000000  2.000000  2.000000  2.000000  2.000000
                       2.000000  2.000000  2.000000  2.000000  2.000000  2.000000
                       2.000000  2.000000  2.000000  2.000000  2.000000  2.000000
                       2.000000  2.000000  2.000000  2.000000  2.000000  2.000000
                       2.000000  2.000000  2.000000  2.000000  2.000000  2.000000
                       2.000000  2.000000  2.000000  2.000000  2.000000  2.000000
                       2.000000  2.000000  2.000000  2.000000  2.000000  2.000000
                       2.000000  2.000000  2.000000  2.000000  2.000000  2.000000
                       2.000000  2.000000  2.000000  2.000000  2.000000  2.000000
                       2.000000  2.000000  2.000000  2.000000  2.000000  2.000000
                       2.000000  2.000000  2.000000  2.000000  2.000000  0.000000
                       0.000000  0.000000  0.000000  0.000000  0.000000  0.000000
                       0.000000  0.000000  0.000000  0.000000  0.000000  0.000000
                       0.000000  0.000000  0.000000  0.000000  0.000000  0.000000
                       0.000000  0.000000  0.000000  0.000000  0.000000  0.000000
                       0.000000  0.000000  0.000000  0.000000  0.000000  0.000000
                       0.000000  0.000000  0.000000  0.000000  0.000000  0.000000
           occopt           3
        pawecutdg      1.00000000E+01 Hartree
         pawmixdg           1
           prtden           0
           prteig           0
            prtwf           0
          spgroup         221
           symrel      1  0  0   0  1  0   0  0  1      -1  0  0   0 -1  0   0  0 -1
                      -1  0  0   0  1  0   0  0 -1       1  0  0   0 -1  0   0  0  1
                      -1  0  0   0 -1  0   0  0  1       1  0  0   0  1  0   0  0 -1
                       1  0  0   0 -1  0   0  0 -1      -1  0  0   0  1  0   0  0  1
                       0  1  0   1  0  0   0  0  1       0 -1  0  -1  0  0   0  0 -1
                       0 -1  0   1  0  0   0  0 -1       0  1  0  -1  0  0   0  0  1
                       0 -1  0  -1  0  0   0  0  1       0  1  0   1  0  0   0  0 -1
                       0  1  0  -1  0  0   0  0 -1       0 -1  0   1  0  0   0  0  1
                       0  0  1   1  0  0   0  1  0       0  0 -1  -1  0  0   0 -1  0
                       0  0 -1   1  0  0   0 -1  0       0  0  1  -1  0  0   0  1  0
                       0  0 -1  -1  0  0   0  1  0       0  0  1   1  0  0   0 -1  0
                       0  0  1  -1  0  0   0 -1  0       0  0 -1   1  0  0   0  1  0
                       1  0  0   0  0  1   0  1  0      -1  0  0   0  0 -1   0 -1  0
                      -1  0  0   0  0  1   0 -1  0       1  0  0   0  0 -1   0  1  0
                      -1  0  0   0  0 -1   0  1  0       1  0  0   0  0  1   0 -1  0
                       1  0  0   0  0 -1   0 -1  0      -1  0  0   0  0  1   0  1  0
                       0  1  0   0  0  1   1  0  0       0 -1  0   0  0 -1  -1  0  0
                       0 -1  0   0  0  1  -1  0  0       0  1  0   0  0 -1   1  0  0
                       0 -1  0   0  0 -1   1  0  0       0  1  0   0  0  1  -1  0  0
                       0  1  0   0  0 -1  -1  0  0       0 -1  0   0  0  1   1  0  0
                       0  0  1   0  1  0   1  0  0       0  0 -1   0 -1  0  -1  0  0
                       0  0 -1   0  1  0  -1  0  0       0  0  1   0 -1  0   1  0  0
                       0  0 -1   0 -1  0   1  0  0       0  0  1   0  1  0  -1  0  0
                       0  0  1   0 -1  0  -1  0  0       0  0 -1   0  1  0   1  0  0
           timopt           0
           toldfe      1.00000000E-05 Hartree
           tsmear      2.00000000E-03 Hartree
            typat      1  1  1  1  1  1  1  1  1  1  1  1  1  1  1  1  1  1  1  1
                       1  1  1  1  1  1  1  1  1  1  1
           useylm           1
         wfoptalg         114
           xangst      2.0293945949E+00  2.0293945949E+00  0.0000000000E+00
                       2.0293945949E+00  0.0000000000E+00  2.0293945949E+00
                       0.0000000000E+00  2.0293945949E+00  2.0293945949E+00
                       0.0000000000E+00  0.0000000000E+00  4.0587891899E+00
                       2.0293945949E+00  2.0293945949E+00  4.0587891899E+00
                       2.0293945949E+00  0.0000000000E+00  6.0881837848E+00
                       0.0000000000E+00  2.0293945949E+00  6.0881837848E+00
                       0.0000000000E+00  4.0587891899E+00  0.0000000000E+00
                       2.0293945949E+00  6.0881837848E+00  0.0000000000E+00
                       2.0293945949E+00  4.0587891899E+00  2.0293945949E+00
                       0.0000000000E+00  6.0881837848E+00  2.0293945949E+00
                       0.0000000000E+00  4.0587891899E+00  4.0587891899E+00
                       2.0293945949E+00  6.0881837848E+00  4.0587891899E+00
                       2.0293945949E+00  4.0587891899E+00  6.0881837848E+00
                       0.0000000000E+00  6.0881837848E+00  6.0881837848E+00
                       4.0587891899E+00  0.0000000000E+00  0.0000000000E+00
                       6.0881837848E+00  2.0293945949E+00  0.0000000000E+00
                       6.0881837848E+00  0.0000000000E+00  2.0293945949E+00
                       4.0587891899E+00  2.0293945949E+00  2.0293945949E+00
                       4.0587891899E+00  0.0000000000E+00  4.0587891899E+00
                       6.0881837848E+00  2.0293945949E+00  4.0587891899E+00
                       6.0881837848E+00  0.0000000000E+00  6.0881837848E+00
                       4.0587891899E+00  2.0293945949E+00  6.0881837848E+00
                       4.0587891899E+00  4.0587891899E+00  0.0000000000E+00
                       6.0881837848E+00  6.0881837848E+00  0.0000000000E+00
                       6.0881837848E+00  4.0587891899E+00  2.0293945949E+00
                       4.0587891899E+00  6.0881837848E+00  2.0293945949E+00
                       4.0587891899E+00  4.0587891899E+00  4.0587891899E+00
                       6.0881837848E+00  6.0881837848E+00  4.0587891899E+00
                       6.0881837848E+00  4.0587891899E+00  6.0881837848E+00
                       4.0587891899E+00  6.0881837848E+00  6.0881837848E+00
            xcart      3.8350000000E+00  3.8350000000E+00  0.0000000000E+00
                       3.8350000000E+00  0.0000000000E+00  3.8350000000E+00
                       0.0000000000E+00  3.8350000000E+00  3.8350000000E+00
                       0.0000000000E+00  0.0000000000E+00  7.6700000000E+00
                       3.8350000000E+00  3.8350000000E+00  7.6700000000E+00
                       3.8350000000E+00  0.0000000000E+00  1.1505000000E+01
                       0.0000000000E+00  3.8350000000E+00  1.1505000000E+01
                       0.0000000000E+00  7.6700000000E+00  0.0000000000E+00
                       3.8350000000E+00  1.1505000000E+01  0.0000000000E+00
                       3.8350000000E+00  7.6700000000E+00  3.8350000000E+00
                       0.0000000000E+00  1.1505000000E+01  3.8350000000E+00
                       0.0000000000E+00  7.6700000000E+00  7.6700000000E+00
                       3.8350000000E+00  1.1505000000E+01  7.6700000000E+00
                       3.8350000000E+00  7.6700000000E+00  1.1505000000E+01
                       0.0000000000E+00  1.1505000000E+01  1.1505000000E+01
                       7.6700000000E+00  0.0000000000E+00  0.0000000000E+00
                       1.1505000000E+01  3.8350000000E+00  0.0000000000E+00
                       1.1505000000E+01  0.0000000000E+00  3.8350000000E+00
                       7.6700000000E+00  3.8350000000E+00  3.8350000000E+00
                       7.6700000000E+00  0.0000000000E+00  7.6700000000E+00
                       1.1505000000E+01  3.8350000000E+00  7.6700000000E+00
                       1.1505000000E+01  0.0000000000E+00  1.1505000000E+01
                       7.6700000000E+00  3.8350000000E+00  1.1505000000E+01
                       7.6700000000E+00  7.6700000000E+00  0.0000000000E+00
                       1.1505000000E+01  1.1505000000E+01  0.0000000000E+00
                       1.1505000000E+01  7.6700000000E+00  3.8350000000E+00
                       7.6700000000E+00  1.1505000000E+01  3.8350000000E+00
                       7.6700000000E+00  7.6700000000E+00  7.6700000000E+00
                       1.1505000000E+01  1.1505000000E+01  7.6700000000E+00
                       1.1505000000E+01  7.6700000000E+00  1.1505000000E+01
                       7.6700000000E+00  1.1505000000E+01  1.1505000000E+01
             xred      2.5000000000E-01  2.5000000000E-01  0.0000000000E+00
                       2.5000000000E-01  0.0000000000E+00  2.5000000000E-01
                       0.0000000000E+00  2.5000000000E-01  2.5000000000E-01
                       0.0000000000E+00  0.0000000000E+00  5.0000000000E-01
                       2.5000000000E-01  2.5000000000E-01  5.0000000000E-01
                       2.5000000000E-01  0.0000000000E+00  7.5000000000E-01
                       0.0000000000E+00  2.5000000000E-01  7.5000000000E-01
                       0.0000000000E+00  5.0000000000E-01  0.0000000000E+00
                       2.5000000000E-01  7.5000000000E-01  0.0000000000E+00
                       2.5000000000E-01  5.0000000000E-01  2.5000000000E-01
                       0.0000000000E+00  7.5000000000E-01  2.5000000000E-01
                       0.0000000000E+00  5.0000000000E-01  5.0000000000E-01
                       2.5000000000E-01  7.5000000000E-01  5.0000000000E-01
                       2.5000000000E-01  5.0000000000E-01  7.5000000000E-01
                       0.0000000000E+00  7.5000000000E-01  7.5000000000E-01
                       5.0000000000E-01  0.0000000000E+00  0.0000000000E+00
                       7.5000000000E-01  2.5000000000E-01  0.0000000000E+00
                       7.5000000000E-01  0.0000000000E+00  2.5000000000E-01
                       5.0000000000E-01  2.5000000000E-01  2.5000000000E-01
                       5.0000000000E-01  0.0000000000E+00  5.0000000000E-01
                       7.5000000000E-01  2.5000000000E-01  5.0000000000E-01
                       7.5000000000E-01  0.0000000000E+00  7.5000000000E-01
                       5.0000000000E-01  2.5000000000E-01  7.5000000000E-01
                       5.0000000000E-01  5.0000000000E-01  0.0000000000E+00
                       7.5000000000E-01  7.5000000000E-01  0.0000000000E+00
                       7.5000000000E-01  5.0000000000E-01  2.5000000000E-01
                       5.0000000000E-01  7.5000000000E-01  2.5000000000E-01
                       5.0000000000E-01  5.0000000000E-01  5.0000000000E-01
                       7.5000000000E-01  7.5000000000E-01  5.0000000000E-01
                       7.5000000000E-01  5.0000000000E-01  7.5000000000E-01
                       5.0000000000E-01  7.5000000000E-01  7.5000000000E-01
            znucl       56.00000

================================================================================

 chkinp: Checking input parameters for consistency.
 DATA TYPE INFORMATION: 
 REAL:      Data type name: REAL(DP) 
            Kind value:      8
            Precision:      15
            Smallest nonnegligible quantity relative to 1:  0.22204460E-15
            Smallest positive number:                       0.22250739-307
            Largest representable number:                   0.17976931+309
 INTEGER:   Data type name: INTEGER(default) 
            Kind value: 4
            Bit size:   32
            Largest representable number: 2147483647
 LOGICAL:   Data type name: LOGICAL 
            Kind value: 4
 CHARACTER: Data type name: CHARACTER             Kind value: 1

  ==== OpenMP parallelism is ON ====
- Max_threads:       12
- Num_threads:       12
- Num_procs:         12
- Dynamic:           F
- Nested:            F
 
  MPI-IO support is OFF

================================================================================
== DATASET  1 ==================================================================
-   nproc =    1


--- !COMMENT
src_file: m_xgScalapack.F90
src_line: 244
message: |
    xgScalapack in auto mode
...


 getdim_nloc : deduce lmnmax  =  18, lnmax  =   6,
                      lmnmaxso=  18, lnmaxso=   6.
 Exchange-correlation functional for the present dataset will be:
  LDA: Perdew-Wang 92 LSD fit to Ceperley-Alder data - ixc=7
 Citation for XC functional:
  J.P.Perdew and Y.Wang, PRB 45, 13244 (1992)

 Unit cell volume ucvol=  3.6097413E+03 bohr^3
 Angles (23,13,12)=  9.00000000E+01  9.00000000E+01  9.00000000E+01 degrees

 Coarse grid specifications (used for wave-functions):

 getcut: wavevector=  0.0000  0.0000  0.0000  ngfft=  40  40  40
         ecut(hartree)=      8.000   => boxcut(ratio)=   2.04797

 Fine grid specifications (used for densities):

 getcut: wavevector=  0.0000  0.0000  0.0000  ngfft=  45  45  45
         ecut(hartree)=     10.000   => boxcut(ratio)=   2.01494
- pspini: atom type   1  psp file is ../../../Psps_for_tests/ba.hpc.paw.xml
- pspatm: opening atomic psp file    ../../../Psps_for_tests/ba.hpc.paw.xml
- pspatm : Reading pseudopotential header in XML form from ../../../Psps_for_tests/ba.hpc.paw.xml
 Pseudopotential format is: paw10
 basis_size (lnmax)=  6 (lmn_size= 18), orbitals=   0   0   1   1   2   2
 Spheres core radius: rc_sph= 2.31518568
 1 radial meshes are used:
  - mesh 1: r(i)=AA*[exp(BB*(i-1))-1], size=1500 , AA= 0.15658E-03 BB= 0.87685E-02
 Shapefunction is SIN type: shapef(r)=[sin(pi*r/rshp)/(pi*r/rshp)]**2
 Radius for shape functions =  2.01210979
 mmax= 1500
 Radial grid used for partial waves is grid 1
 Radial grid used for projectors is grid 1
 Radial grid used for (t)core density is grid 1
 Radial grid used for Vloc is grid 1
 Radial grid used for pseudo valence density is grid 1
 Mesh size for Vloc has been set to 1341 to avoid numerical noise.
 Compensation charge density is not taken into account in XC energy/potential
 beta integral value:      -0.881134E+02
 pspatm: atomic psp has been read  and splines computed

   5.70955898E+05                                ecore*ucvol(ha*bohr**3)
 ==== Info on pseudopotentials ====
  PAW calculation
  Number of pseudopotentials ..    1
  Number of types of atoms   ..    1
  Scalar calculation (no spin-orbit term)
  Nonlocal part applied using real spherical harmonics
  Max number of non-local projectors over l and type   2
  Highest angular momentum +1 .......   3
  Max number of (l,n)   components ..   6
  Max number of (l,m,n) components ..  18

 Pseudo-Core Charge Info: 
   Number of radial points for pseudo-core charge ..    1
   XC core-correction treatment (optnlxccc) ........    1
   Radius for pseudo-core charge for each type ..... 

  - Atom type    1 has pseudo-core radius .. 80.0000

 Info on the Q-grid used for form factors in spline form: 
   Number of q-points for radial functions ffspl ..   3001
   Number of q-points for vlspl ...................   3001
   vloc is computed in Reciprocal Space

  XC functional for type 1 is 7

 wfconv:   192 bands initialized randomly with npw=  3887, for ikpt=     1
_setup2: Arith. and geom. avg. npw (full set) are    3887.000    3887.000
 initro: for itypat=  1, take pseudo charge density from pp file
 IREP, N          45          45
 IREP, N          45          45
 IREP, N          45          45

================================================================================
 FFT (fine) grid used in SCF cycle:

 getcut: wavevector=  0.0000  0.0000  0.0000  ngfft=  45  45  45
         ecut(hartree)=     10.000   => boxcut(ratio)=   2.01494
 IREP, N          45          45
 IREP, N          45          45
 IREP, N          45          45
 IREP, N          45          45
 IREP, N          45          45
 IREP, N          45          45
 IREP, N          45          45
 IREP, N          45          45
 IREP, N          45          45
 average electrostatic smooth potential [Ha] , [eV]      0.000000        0.000000

 ****** Psp strength Dij in Ha (atom      1) *****
   0.33615   0.05206   0.00347   0.00000   0.00347  -0.00021  -0.00000  -0.00021  -0.00060  -0.00000   0.00035   0.00000 ...
   0.05206   0.00679   0.00068   0.00000   0.00068   0.00029   0.00000   0.00029  -0.00015  -0.00000   0.00009   0.00000 ...
   0.00347   0.00068  -0.20099  -0.00000  -0.00084  -0.00031  -0.00000  -0.00042   0.00085   0.00000  -0.00049  -0.00000 ...
   0.00000   0.00000  -0.00000  -0.20015   0.00000  -0.00000   0.00011   0.00000  -0.00000   0.00068   0.00000   0.00068 ...
   0.00347   0.00068  -0.00084   0.00000  -0.20099  -0.00042   0.00000  -0.00031   0.00085  -0.00000  -0.00049   0.00000 ...
  -0.00021   0.00029  -0.00031  -0.00000  -0.00042  -1.17007  -0.00000  -0.00111   0.00049   0.00000  -0.00029  -0.00000 ...
  -0.00000   0.00000  -0.00000   0.00011   0.00000  -0.00000  -1.16896   0.00000  -0.00000   0.00032   0.00000   0.00032 ...
  -0.00021   0.00029  -0.00042   0.00000  -0.00031  -0.00111   0.00000  -1.17007   0.00049  -0.00000  -0.00029   0.00000 ...
  -0.00060  -0.00015   0.00085  -0.00000   0.00085   0.00049  -0.00000   0.00049  -0.03395  -0.00000   0.00015  -0.00000 ...
  -0.00000  -0.00000   0.00000   0.00068  -0.00000   0.00000   0.00032  -0.00000  -0.00000  -0.03381   0.00000  -0.00011 ...
   0.00035   0.00009  -0.00049   0.00000  -0.00049  -0.00029   0.00000  -0.00029   0.00015   0.00000  -0.03383  -0.00000 ...
   0.00000   0.00000  -0.00000   0.00068   0.00000  -0.00000   0.00032   0.00000  -0.00000  -0.00011  -0.00000  -0.03381 ...
   ...  only 12  components have been written...

 ****** Psp strength Dij in Ha (atom     31) *****
   0.35081   0.05411  -0.00007  -0.00007  -0.00000   0.00000   0.00000   0.00000   0.00000  -0.00000   0.00001   0.00000 ...
   0.05411   0.00714  -0.00001  -0.00001  -0.00000  -0.00001  -0.00001  -0.00000   0.00000  -0.00000   0.00000   0.00000 ...
  -0.00007  -0.00001  -0.19614  -0.00001   0.00000  -0.00071  -0.00000   0.00000  -0.00000  -0.00001   0.00001   0.00000 ...
  -0.00007  -0.00001  -0.00001  -0.19614   0.00000  -0.00000  -0.00071   0.00000   0.00000  -0.00001  -0.00002  -0.00000 ...
  -0.00000  -0.00000   0.00000   0.00000  -0.19617   0.00000   0.00000  -0.00073  -0.00002   0.00000   0.00000  -0.00002 ...
   0.00000  -0.00001  -0.00071  -0.00000   0.00000  -1.16581  -0.00001   0.00000  -0.00000  -0.00000   0.00001   0.00000 ...
   0.00000  -0.00001  -0.00000  -0.00071   0.00000  -0.00001  -1.16581   0.00000   0.00000  -0.00000  -0.00001  -0.00000 ...
   0.00000  -0.00000   0.00000   0.00000  -0.00073   0.00000   0.00000  -1.16585  -0.00001   0.00000  -0.00000  -0.00001 ...
   0.00000   0.00000  -0.00000   0.00000  -0.00002  -0.00000   0.00000  -0.00001  -0.03341   0.00000  -0.00000  -0.00000 ...
  -0.00000  -0.00000  -0.00001  -0.00001   0.00000  -0.00000  -0.00000   0.00000   0.00000  -0.03341  -0.00000   0.00000 ...
   0.00001   0.00000   0.00001  -0.00002   0.00000   0.00001  -0.00001  -0.00000  -0.00000  -0.00000  -0.03347  -0.00000 ...
   0.00000   0.00000   0.00000  -0.00000  -0.00002   0.00000  -0.00000  -0.00001  -0.00000   0.00000  -0.00000  -0.03341 ...
   ...  only 12  components have been written...


 ITER STEP NUMBER     1
 vtorho : nnsclo_now=2, note that nnsclo,dbl_nnsclo,istep=0 0 1
 IREP, N          45          45
 IREP, N          45          45
 IREP, N          45          45
 IREP, N          40          40
 IREP, N          40          40
 IREP, N          40          40
 non-scf iterations; kpt #     1  , k= (  0.00000  0.00000  0.00000  ), band residuals:
 You should try to get npband*bandpp=  192
 For information matrix size is   124384 and linalg will use 12 threads
 BLOCKDIM LOBPCG:          32
 nblock           6
 IBLOCK           1
 blockdim:          32
 spacedim:        3887
 blockdim*spacedim:      124384
 cprj_dum size          31
 SELECT_K_DEFAULT           1
 SPACEDIM        3887
 ithread, lastband           0           2
 thread, firstelt, lastelt, lastband, firstband, chunk           0           1        7774           2           1           2
 lastband-firstband+1           2
 NDAAAAAAAAAAAAAAAAAAAAAAAAAAAAAAT           2
 ithread, lastband           8          23
 ithread, lastband           3           8
 ithread, lastband           2           6
 ithread, lastband           7          20
 ithread, lastband          11          32
 ithread, lastband           9          26
 thread, firstelt, lastelt, lastband, firstband, chunk           8       77741       89401          23          21           2
 lastband-firstband+1           3
 NDAAAAAAAAAAAAAAAAAAAAAAAAAAAAAAT           3
 ithread, lastband          10          29
 thread, firstelt, lastelt, lastband, firstband, chunk          10      101063      112723          29          27           2
 lastband-firstband+1           3
 ithread, lastband           5          14
 NDAAAAAAAAAAAAAAAAAAAAAAAAAAAAAAT           3
 ithread, lastband           6          17
 thread, firstelt, lastelt, lastband, firstband, chunk           6       54419       66079          17          15           2
 lastband-firstband+1           3
 thread, firstelt, lastelt, lastband, firstband, chunk           3       23323       31096           8           7           2
 lastband-firstband+1           2
 NDAAAAAAAAAAAAAAAAAAAAAAAAAAAAAAT           3
 NDAAAAAAAAAAAAAAAAAAAAAAAAAAAAAAT           2
 thread, firstelt, lastelt, lastband, firstband, chunk           2       15549       23322           6           5           2
 ithread, lastband           4          11
 ithread, lastband           1           4
 thread, firstelt, lastelt, lastband, firstband, chunk           1        7775       15548           4           3           2
 lastband-firstband+1           2
 lastband-firstband+1           2
 thread, firstelt, lastelt, lastband, firstband, chunk           9       89402      101062          26          24           2
 lastband-firstband+1           3
 thread, firstelt, lastelt, lastband, firstband, chunk           5       42758       54418          14          12           2
 lastband-firstband+1           3
 thread, firstelt, lastelt, lastband, firstband, chunk           4       31097       42757          11           9           2
 lastband-firstband+1           3
 thread, firstelt, lastelt, lastband, firstband, chunk          11      112724      124384          32          30           2
 NDAAAAAAAAAAAAAAAAAAAAAAAAAAAAAAT           2
 lastband-firstband+1           3
 NDAAAAAAAAAAAAAAAAAAAAAAAAAAAAAAT           3
 thread, firstelt, lastelt, lastband, firstband, chunk           7       66080       77740          20          18           2
 lastband-firstband+1           3
 NDAAAAAAAAAAAAAAAAAAAAAAAAAAAAAAT           3
 NDAAAAAAAAAAAAAAAAAAAAAAAAAAAAAAT           3
 IREP, N          40          40
 NDAAAAAAAAAAAAAAAAAAAAAAAAAAAAAAT           2
 NDAAAAAAAAAAAAAAAAAAAAAAAAAAAAAAT           3
 NDAAAAAAAAAAAAAAAAAAAAAAAAAAAAAAT           3
 IREP, N          40          40
 IREP, N          40          40
 IREP, N          40          40
 IREP, N          40          40
 IREP, N          40          40
 blockdim:          32
 spacedim:        3887
 blockdim*spacedim:      124384
 cprj_dum size          31
 SELECT_K_DEFAULT           1
 SPACEDIM        3887
 ithread, lastband          10          29
 thread, firstelt, lastelt, lastband, firstband, chunk          10      101063      112723          29          27           2
 lastband-firstband+1           3
 NDAAAAAAAAAAAAAAAAAAAAAAAAAAAAAAT           3
 ithread, lastband           4          11
 thread, firstelt, lastelt, lastband, firstband, chunk           4       31097       42757          11           9           2
 lastband-firstband+1           3
 NDAAAAAAAAAAAAAAAAAAAAAAAAAAAAAAT           3
 ithread, lastband           7          20
 thread, firstelt, lastelt, lastband, firstband, chunk           7       66080       77740          20          18           2
 lastband-firstband+1           3
 ithread, lastband           3           8
 NDAAAAAAAAAAAAAAAAAAAAAAAAAAAAAAT           3
 thread, firstelt, lastelt, lastband, firstband, chunk           3       23323       31096           8           7           2
 lastband-firstband+1           2
 NDAAAAAAAAAAAAAAAAAAAAAAAAAAAAAAT           2
 ithread, lastband           9          26
 thread, firstelt, lastelt, lastband, firstband, chunk           9       89402      101062          26          24           2
 lastband-firstband+1           3
 NDAAAAAAAAAAAAAAAAAAAAAAAAAAAAAAT           3
 ithread, lastband           0           2
 thread, firstelt, lastelt, lastband, firstband, chunk           0           1        7774           2           1           2
 lastband-firstband+1           2
 NDAAAAAAAAAAAAAAAAAAAAAAAAAAAAAAT           2
 ithread, lastband          11          32
 thread, firstelt, lastelt, lastband, firstband, chunk          11      112724      124384          32          30           2
 lastband-firstband+1           3
 NDAAAAAAAAAAAAAAAAAAAAAAAAAAAAAAT           3
 ithread, lastband           2           6
 thread, firstelt, lastelt, lastband, firstband, chunk           2       15549       23322           6           5           2
 lastband-firstband+1           2
 NDAAAAAAAAAAAAAAAAAAAAAAAAAAAAAAT           2
 ithread, lastband           1           4
 thread, firstelt, lastelt, lastband, firstband, chunk           1        7775       15548           4           3           2
 lastband-firstband+1           2
 NDAAAAAAAAAAAAAAAAAAAAAAAAAAAAAAT           2
 ithread, lastband           8          23
 thread, firstelt, lastelt, lastband, firstband, chunk           8       77741       89401          23          21           2
 lastband-firstband+1           3
 NDAAAAAAAAAAAAAAAAAAAAAAAAAAAAAAT           3
 ithread, lastband           5          14
 thread, firstelt, lastelt, lastband, firstband, chunk           5       42758       54418          14          12           2
 lastband-firstband+1           3
 ithread, lastband           6          17
 thread, firstelt, lastelt, lastband, firstband, chunk           6       54419       66079          17          15           2
 lastband-firstband+1           3
 NDAAAAAAAAAAAAAAAAAAAAAAAAAAAAAAT           3
 NDAAAAAAAAAAAAAAAAAAAAAAAAAAAAAAT           3
 blockdim:          32
 spacedim:        3887
 blockdim*spacedim:      124384
 cprj_dum size          31
 SELECT_K_DEFAULT           1
 SPACEDIM        3887
 ithread, lastband           8          23
 ithread, lastband           1           4
 ithread, lastband           3           8
 ithread, lastband          10          29
 thread, firstelt, lastelt, lastband, firstband, chunk          10      101063      112723          29          27           2
 lastband-firstband+1           3
 thread, firstelt, lastelt, lastband, firstband, chunk           8       77741       89401          23          21           2
 lastband-firstband+1           3
 ithread, lastband           4          11
 NDAAAAAAAAAAAAAAAAAAAAAAAAAAAAAAT           3
 thread, firstelt, lastelt, lastband, firstband, chunk           4       31097       42757          11           9           2
 lastband-firstband+1           3
 ithread, lastband           6          17
 thread, firstelt, lastelt, lastband, firstband, chunk           6       54419       66079          17          15           2
 lastband-firstband+1           3
 NDAAAAAAAAAAAAAAAAAAAAAAAAAAAAAAT           3
 ithread, lastband           9          26
 thread, firstelt, lastelt, lastband, firstband, chunk           9       89402      101062          26          24           2
 lastband-firstband+1           3
 NDAAAAAAAAAAAAAAAAAAAAAAAAAAAAAAT           3
 ithread, lastband           5          14
 thread, firstelt, lastelt, lastband, firstband, chunk           5       42758       54418          14          12           2
 lastband-firstband+1           3
 thread, firstelt, lastelt, lastband, firstband, chunk           3       23323       31096           8           7           2
 lastband-firstband+1           2
 NDAAAAAAAAAAAAAAAAAAAAAAAAAAAAAAT           2
 thread, firstelt, lastelt, lastband, firstband, chunk           1        7775       15548           4           3           2
 lastband-firstband+1           2
 NDAAAAAAAAAAAAAAAAAAAAAAAAAAAAAAT           2
 ithread, lastband          11          32
 thread, firstelt, lastelt, lastband, firstband, chunk          11      112724      124384          32          30           2
 lastband-firstband+1           3
 NDAAAAAAAAAAAAAAAAAAAAAAAAAAAAAAT           3
 ithread, lastband           2           6
 thread, firstelt, lastelt, lastband, firstband, chunk           2       15549       23322           6           5           2
 lastband-firstband+1           2
 NDAAAAAAAAAAAAAAAAAAAAAAAAAAAAAAT           2
 ithread, lastband           7          20
 thread, firstelt, lastelt, lastband, firstband, chunk           7       66080       77740          20          18           2
 lastband-firstband+1           3
 NDAAAAAAAAAAAAAAAAAAAAAAAAAAAAAAT           3
 ithread, lastband           0           2
 thread, firstelt, lastelt, lastband, firstband, chunk           0           1        7774           2           1           2
 lastband-firstband+1           2
 NDAAAAAAAAAAAAAAAAAAAAAAAAAAAAAAT           2
 NDAAAAAAAAAAAAAAAAAAAAAAAAAAAAAAT           3
 NDAAAAAAAAAAAAAAAAAAAAAAAAAAAAAAT           3
 NDAAAAAAAAAAAAAAAAAAAAAAAAAAAAAAT           3
 blockdim:          32
 spacedim:        3887
 blockdim*spacedim:      124384
 cprj_dum size          31
 SELECT_K_DEFAULT           1
 SPACEDIM        3887
 ithread, lastband           0           2
 thread, firstelt, lastelt, lastband, firstband, chunk           0           1        7774           2           1           2
 ithread, lastband           6          17
 thread, firstelt, lastelt, lastband, firstband, chunk           6       54419       66079          17          15           2
 lastband-firstband+1           3
 NDAAAAAAAAAAAAAAAAAAAAAAAAAAAAAAT           3
 ithread, lastband          11          32
 thread, firstelt, lastelt, lastband, firstband, chunk          11      112724      124384          32          30           2
 lastband-firstband+1           3
 NDAAAAAAAAAAAAAAAAAAAAAAAAAAAAAAT           3
 ithread, lastband           2           6
 thread, firstelt, lastelt, lastband, firstband, chunk           2       15549       23322           6           5           2
 lastband-firstband+1           2
 NDAAAAAAAAAAAAAAAAAAAAAAAAAAAAAAT           2
 ithread, lastband           8          23
 thread, firstelt, lastelt, lastband, firstband, chunk           8       77741       89401          23          21           2
 lastband-firstband+1           3
 NDAAAAAAAAAAAAAAAAAAAAAAAAAAAAAAT           3
 ithread, lastband           9          26
 thread, firstelt, lastelt, lastband, firstband, chunk           9       89402      101062          26          24           2
 lastband-firstband+1           3
 NDAAAAAAAAAAAAAAAAAAAAAAAAAAAAAAT           3
 lastband-firstband+1           2
 NDAAAAAAAAAAAAAAAAAAAAAAAAAAAAAAT           2
 ithread, lastband           1           4
 ithread, lastband           3           8
 thread, firstelt, lastelt, lastband, firstband, chunk           3       23323       31096           8           7           2
 lastband-firstband+1           2
 NDAAAAAAAAAAAAAAAAAAAAAAAAAAAAAAT           2
 ithread, lastband           5          14
 thread, firstelt, lastelt, lastband, firstband, chunk           5       42758       54418          14          12           2
 lastband-firstband+1           3
 NDAAAAAAAAAAAAAAAAAAAAAAAAAAAAAAT           3
 ithread, lastband           7          20
 thread, firstelt, lastelt, lastband, firstband, chunk           7       66080       77740          20          18           2
 lastband-firstband+1           3
 NDAAAAAAAAAAAAAAAAAAAAAAAAAAAAAAT           3
 ithread, lastband           4          11
 thread, firstelt, lastelt, lastband, firstband, chunk           4       31097       42757          11           9           2
 lastband-firstband+1           3
 NDAAAAAAAAAAAAAAAAAAAAAAAAAAAAAAT           3
 ithread, lastband          10          29
 thread, firstelt, lastelt, lastband, firstband, chunk          10      101063      112723          29          27           2
 lastband-firstband+1           3
 NDAAAAAAAAAAAAAAAAAAAAAAAAAAAAAAT           3
 thread, firstelt, lastelt, lastband, firstband, chunk           1        7775       15548           4           3           2
 lastband-firstband+1           2
 NDAAAAAAAAAAAAAAAAAAAAAAAAAAAAAAT           2
 blockdim:          32
 spacedim:        3887
 blockdim*spacedim:      124384
 cprj_dum size          31
 SELECT_K_DEFAULT           1
 SPACEDIM        3887
 ithread, lastband           0           2
 ithread, lastband          11          32
 thread, firstelt, lastelt, lastband, firstband, chunk          11      112724      124384          32          30           2
 ithread, lastband           1           4
 ithread, lastband           7          20
 thread, firstelt, lastelt, lastband, firstband, chunk           7       66080       77740          20          18           2
 ithread, lastband           8          23
 thread, firstelt, lastelt, lastband, firstband, chunk           8       77741       89401          23          21           2
 lastband-firstband+1           3
 NDAAAAAAAAAAAAAAAAAAAAAAAAAAAAAAT           3
 ithread, lastband           3           8
 thread, firstelt, lastelt, lastband, firstband, chunk           3       23323       31096           8           7           2
 lastband-firstband+1           2
 NDAAAAAAAAAAAAAAAAAAAAAAAAAAAAAAT           2
 ithread, lastband           5          14
 thread, firstelt, lastelt, lastband, firstband, chunk           5       42758       54418          14          12           2
 lastband-firstband+1           3
 NDAAAAAAAAAAAAAAAAAAAAAAAAAAAAAAT           3
 thread, firstelt, lastelt, lastband, firstband, chunk           0           1        7774           2           1           2
 lastband-firstband+1           2
 NDAAAAAAAAAAAAAAAAAAAAAAAAAAAAAAT           2
 ithread, lastband           6          17
 thread, firstelt, lastelt, lastband, firstband, chunk           6       54419       66079          17          15           2
 lastband-firstband+1           3
 NDAAAAAAAAAAAAAAAAAAAAAAAAAAAAAAT           3
 lastband-firstband+1           3
 NDAAAAAAAAAAAAAAAAAAAAAAAAAAAAAAT           3
 thread, firstelt, lastelt, lastband, firstband, chunk           1        7775       15548           4           3           2
 lastband-firstband+1           2
 NDAAAAAAAAAAAAAAAAAAAAAAAAAAAAAAT           2
 lastband-firstband+1           3
 NDAAAAAAAAAAAAAAAAAAAAAAAAAAAAAAT           3
 ithread, lastband           9          26
 thread, firstelt, lastelt, lastband, firstband, chunk           9       89402      101062          26          24           2
 lastband-firstband+1           3
 NDAAAAAAAAAAAAAAAAAAAAAAAAAAAAAAT           3
 ithread, lastband          10          29
 thread, firstelt, lastelt, lastband, firstband, chunk          10      101063      112723          29          27           2
 lastband-firstband+1           3
 NDAAAAAAAAAAAAAAAAAAAAAAAAAAAAAAT           3
 ithread, lastband           4          11
 thread, firstelt, lastelt, lastband, firstband, chunk           4       31097       42757          11           9           2
 lastband-firstband+1           3
 NDAAAAAAAAAAAAAAAAAAAAAAAAAAAAAAT           3
 ithread, lastband           2           6
 thread, firstelt, lastelt, lastband, firstband, chunk           2       15549       23322           6           5           2
 lastband-firstband+1           2
 NDAAAAAAAAAAAAAAAAAAAAAAAAAAAAAAT           2
 IBLOCK           2
 blockdim:          32
 spacedim:        3887
 blockdim*spacedim:      124384
 cprj_dum size          31
 SELECT_K_DEFAULT           1
 SPACEDIM        3887
 ithread, lastband           4          11
 ithread, lastband          11          32
 thread, firstelt, lastelt, lastband, firstband, chunk          11      112724      124384          32          30           2
 ithread, lastband           9          26
 lastband-firstband+1           3
 thread, firstelt, lastelt, lastband, firstband, chunk           9       89402      101062          26          24           2
 thread, firstelt, lastelt, lastband, firstband, chunk           4       31097       42757          11           9           2
 ithread, lastband           6          17
 lastband-firstband+1           3
 thread, firstelt, lastelt, lastband, firstband, chunk           6       54419       66079          17          15           2
 lastband-firstband+1           3
 lastband-firstband+1           3
 NDAAAAAAAAAAAAAAAAAAAAAAAAAAAAAAT           3
 NDAAAAAAAAAAAAAAAAAAAAAAAAAAAAAAT           3
 NDAAAAAAAAAAAAAAAAAAAAAAAAAAAAAAT           3
 ithread, lastband           8          23
 thread, firstelt, lastelt, lastband, firstband, chunk           8       77741       89401          23          21           2
 lastband-firstband+1           3
 NDAAAAAAAAAAAAAAAAAAAAAAAAAAAAAAT           3
 ithread, lastband           7          20
 thread, firstelt, lastelt, lastband, firstband, chunk           7       66080       77740          20          18           2
 lastband-firstband+1           3
 NDAAAAAAAAAAAAAAAAAAAAAAAAAAAAAAT           3
 ithread, lastband          10          29
 thread, firstelt, lastelt, lastband, firstband, chunk          10      101063      112723          29          27           2
 lastband-firstband+1           3
 NDAAAAAAAAAAAAAAAAAAAAAAAAAAAAAAT           3
 ithread, lastband           1           4
 ithread, lastband           0           2
 NDAAAAAAAAAAAAAAAAAAAAAAAAAAAAAAT           3
 ithread, lastband           2           6
 thread, firstelt, lastelt, lastband, firstband, chunk           2       15549       23322           6           5           2
 lastband-firstband+1           2
 NDAAAAAAAAAAAAAAAAAAAAAAAAAAAAAAT           2
 thread, firstelt, lastelt, lastband, firstband, chunk           1        7775       15548           4           3           2
 lastband-firstband+1           2
 NDAAAAAAAAAAAAAAAAAAAAAAAAAAAAAAT           2
 thread, firstelt, lastelt, lastband, firstband, chunk           0           1        7774           2           1           2
 lastband-firstband+1           2
 NDAAAAAAAAAAAAAAAAAAAAAAAAAAAAAAT           2
 ithread, lastband           5          14
 thread, firstelt, lastelt, lastband, firstband, chunk           5       42758       54418          14          12           2
 lastband-firstband+1           3
 NDAAAAAAAAAAAAAAAAAAAAAAAAAAAAAAT           3
 ithread, lastband           3           8
 thread, firstelt, lastelt, lastband, firstband, chunk           3       23323       31096           8           7           2
 lastband-firstband+1           2
 NDAAAAAAAAAAAAAAAAAAAAAAAAAAAAAAT           2
 blockdim:          32
 spacedim:        3887
 blockdim*spacedim:      124384
 cprj_dum size          31
 SELECT_K_DEFAULT           1
 SPACEDIM        3887
 ithread, lastband           8          23
 ithread, lastband           7          20
 ithread, lastband           4          11
 thread, firstelt, lastelt, lastband, firstband, chunk           7       66080       77740          20          18           2
 thread, firstelt, lastelt, lastband, firstband, chunk           4       31097       42757          11           9           2
 lastband-firstband+1           3
 lastband-firstband+1           3
 NDAAAAAAAAAAAAAAAAAAAAAAAAAAAAAAT           3
 NDAAAAAAAAAAAAAAAAAAAAAAAAAAAAAAT           3
 ithread, lastband           6          17
 thread, firstelt, lastelt, lastband, firstband, chunk           6       54419       66079          17          15           2
 lastband-firstband+1           3
 thread, firstelt, lastelt, lastband, firstband, chunk           8       77741       89401          23          21           2
 ithread, lastband           2           6
 ithread, lastband           5          14
 thread, firstelt, lastelt, lastband, firstband, chunk           5       42758       54418          14          12           2
 lastband-firstband+1           3
 ithread, lastband          10          29
 NDAAAAAAAAAAAAAAAAAAAAAAAAAAAAAAT           3
 thread, firstelt, lastelt, lastband, firstband, chunk          10      101063      112723          29          27           2
 lastband-firstband+1           3
 ithread, lastband          11          32
 thread, firstelt, lastelt, lastband, firstband, chunk          11      112724      124384          32          30           2
 lastband-firstband+1           3
 NDAAAAAAAAAAAAAAAAAAAAAAAAAAAAAAT           3
 ithread, lastband           3           8
 thread, firstelt, lastelt, lastband, firstband, chunk           3       23323       31096           8           7           2
 lastband-firstband+1           2
 NDAAAAAAAAAAAAAAAAAAAAAAAAAAAAAAT           2
 ithread, lastband           9          26
 thread, firstelt, lastelt, lastband, firstband, chunk           9       89402      101062          26          24           2
 lastband-firstband+1           3
 NDAAAAAAAAAAAAAAAAAAAAAAAAAAAAAAT           3
 NDAAAAAAAAAAAAAAAAAAAAAAAAAAAAAAT           3
 thread, firstelt, lastelt, lastband, firstband, chunk           2       15549       23322           6           5           2
 lastband-firstband+1           2
 NDAAAAAAAAAAAAAAAAAAAAAAAAAAAAAAT           2
 NDAAAAAAAAAAAAAAAAAAAAAAAAAAAAAAT           3
 ithread, lastband           1           4
 thread, firstelt, lastelt, lastband, firstband, chunk           1        7775       15548           4           3           2
 lastband-firstband+1           2
 lastband-firstband+1           3
 NDAAAAAAAAAAAAAAAAAAAAAAAAAAAAAAT           2
 NDAAAAAAAAAAAAAAAAAAAAAAAAAAAAAAT           3
 ithread, lastband           0           2
 thread, firstelt, lastelt, lastband, firstband, chunk           0           1        7774           2           1           2
 lastband-firstband+1           2
 NDAAAAAAAAAAAAAAAAAAAAAAAAAAAAAAT           2
 blockdim:          32
 spacedim:        3887
 blockdim*spacedim:      124384
 cprj_dum size          31
 SELECT_K_DEFAULT           1
 SPACEDIM        3887
 ithread, lastband           8          23
 ithread, lastband           4          11
 thread, firstelt, lastelt, lastband, firstband, chunk           4       31097       42757          11           9           2
 lastband-firstband+1           3
 NDAAAAAAAAAAAAAAAAAAAAAAAAAAAAAAT           3
 thread, firstelt, lastelt, lastband, firstband, chunk           8       77741       89401          23          21           2
 lastband-firstband+1           3
 NDAAAAAAAAAAAAAAAAAAAAAAAAAAAAAAT           3
 ithread, lastband           0           2
 ithread, lastband          10          29
 ithread, lastband           5          14
 thread, firstelt, lastelt, lastband, firstband, chunk           0           1        7774           2           1           2
 ithread, lastband           9          26
 ithread, lastband           3           8
 ithread, lastband           1           4
 thread, firstelt, lastelt, lastband, firstband, chunk           3       23323       31096           8           7           2
 thread, firstelt, lastelt, lastband, firstband, chunk           1        7775       15548           4           3           2
 thread, firstelt, lastelt, lastband, firstband, chunk          10      101063      112723          29          27           2
 lastband-firstband+1           3
 NDAAAAAAAAAAAAAAAAAAAAAAAAAAAAAAT           3
 lastband-firstband+1           2
 thread, firstelt, lastelt, lastband, firstband, chunk           9       89402      101062          26          24           2
 lastband-firstband+1           3
 NDAAAAAAAAAAAAAAAAAAAAAAAAAAAAAAT           3
 lastband-firstband+1           2
 NDAAAAAAAAAAAAAAAAAAAAAAAAAAAAAAT           2
 ithread, lastband           2           6
 thread, firstelt, lastelt, lastband, firstband, chunk           2       15549       23322           6           5           2
 lastband-firstband+1           2
 NDAAAAAAAAAAAAAAAAAAAAAAAAAAAAAAT           2
 thread, firstelt, lastelt, lastband, firstband, chunk           5       42758       54418          14          12           2
 lastband-firstband+1           3
 NDAAAAAAAAAAAAAAAAAAAAAAAAAAAAAAT           3
 NDAAAAAAAAAAAAAAAAAAAAAAAAAAAAAAT           2
 ithread, lastband           7          20
 thread, firstelt, lastelt, lastband, firstband, chunk           7       66080       77740          20          18           2
 lastband-firstband+1           3
 NDAAAAAAAAAAAAAAAAAAAAAAAAAAAAAAT           3
 lastband-firstband+1           2
 NDAAAAAAAAAAAAAAAAAAAAAAAAAAAAAAT           2
 ithread, lastband           6          17
 thread, firstelt, lastelt, lastband, firstband, chunk           6       54419       66079          17          15           2
 lastband-firstband+1           3
 NDAAAAAAAAAAAAAAAAAAAAAAAAAAAAAAT           3
 ithread, lastband          11          32
 thread, firstelt, lastelt, lastband, firstband, chunk          11      112724      124384          32          30           2
 lastband-firstband+1           3
 NDAAAAAAAAAAAAAAAAAAAAAAAAAAAAAAT           3
 blockdim:          32
 spacedim:        3887
 blockdim*spacedim:      124384
 cprj_dum size          31
 SELECT_K_DEFAULT           1
 SPACEDIM        3887
 ithread, lastband           0           2
 thread, firstelt, lastelt, lastband, firstband, chunk           0           1        7774           2           1           2
 lastband-firstband+1           2
 NDAAAAAAAAAAAAAAAAAAAAAAAAAAAAAAT           2
 ithread, lastband          11          32
 ithread, lastband           8          23
 ithread, lastband           5          14
 ithread, lastband           3           8
 ithread, lastband           9          26
 ithread, lastband           1           4
 thread, firstelt, lastelt, lastband, firstband, chunk           1        7775       15548           4           3           2
 lastband-firstband+1           2
 NDAAAAAAAAAAAAAAAAAAAAAAAAAAAAAAT           2
 thread, firstelt, lastelt, lastband, firstband, chunk          11      112724      124384          32          30           2
 lastband-firstband+1           3
 NDAAAAAAAAAAAAAAAAAAAAAAAAAAAAAAT           3
 ithread, lastband           4          11
 thread, firstelt, lastelt, lastband, firstband, chunk           4       31097       42757          11           9           2
 lastband-firstband+1           3
 NDAAAAAAAAAAAAAAAAAAAAAAAAAAAAAAT           3
 ithread, lastband          10          29
 thread, firstelt, lastelt, lastband, firstband, chunk          10      101063      112723          29          27           2
 lastband-firstband+1           3
 NDAAAAAAAAAAAAAAAAAAAAAAAAAAAAAAT           3
 ithread, lastband           2           6
 thread, firstelt, lastelt, lastband, firstband, chunk           2       15549       23322           6           5           2
 lastband-firstband+1           2
 NDAAAAAAAAAAAAAAAAAAAAAAAAAAAAAAT           2
 ithread, lastband           7          20
 thread, firstelt, lastelt, lastband, firstband, chunk           7       66080       77740          20          18           2
 lastband-firstband+1           3
 NDAAAAAAAAAAAAAAAAAAAAAAAAAAAAAAT           3
 thread, firstelt, lastelt, lastband, firstband, chunk           3       23323       31096           8           7           2
 lastband-firstband+1           2
 NDAAAAAAAAAAAAAAAAAAAAAAAAAAAAAAT           2
 thread, firstelt, lastelt, lastband, firstband, chunk           5       42758       54418          14          12           2
 lastband-firstband+1           3
 NDAAAAAAAAAAAAAAAAAAAAAAAAAAAAAAT           3
 thread, firstelt, lastelt, lastband, firstband, chunk           9       89402      101062          26          24           2
 lastband-firstband+1           3
 NDAAAAAAAAAAAAAAAAAAAAAAAAAAAAAAT           3
 thread, firstelt, lastelt, lastband, firstband, chunk           8       77741       89401          23          21           2
 lastband-firstband+1           3
 NDAAAAAAAAAAAAAAAAAAAAAAAAAAAAAAT           3
 ithread, lastband           6          17
 thread, firstelt, lastelt, lastband, firstband, chunk           6       54419       66079          17          15           2
 lastband-firstband+1           3
 NDAAAAAAAAAAAAAAAAAAAAAAAAAAAAAAT           3
 blockdim:          32
 spacedim:        3887
 blockdim*spacedim:      124384
 cprj_dum size          31
 SELECT_K_DEFAULT           1
 SPACEDIM        3887
 ithread, lastband           0           2
 thread, firstelt, lastelt, lastband, firstband, chunk           0           1        7774           2           1           2
 lastband-firstband+1           2
 NDAAAAAAAAAAAAAAAAAAAAAAAAAAAAAAT           2
 ithread, lastband           3           8
 thread, firstelt, lastelt, lastband, firstband, chunk           3       23323       31096           8           7           2
 lastband-firstband+1           2
 NDAAAAAAAAAAAAAAAAAAAAAAAAAAAAAAT           2
 ithread, lastband           1           4
 ithread, lastband           8          23
 ithread, lastband           6          17
 thread, firstelt, lastelt, lastband, firstband, chunk           6       54419       66079          17          15           2
 lastband-firstband+1           3
 NDAAAAAAAAAAAAAAAAAAAAAAAAAAAAAAT           3
 ithread, lastband           9          26
 thread, firstelt, lastelt, lastband, firstband, chunk           9       89402      101062          26          24           2
 lastband-firstband+1           3
 NDAAAAAAAAAAAAAAAAAAAAAAAAAAAAAAT           3
 ithread, lastband           7          20
 thread, firstelt, lastelt, lastband, firstband, chunk           7       66080       77740          20          18           2
 lastband-firstband+1           3
 NDAAAAAAAAAAAAAAAAAAAAAAAAAAAAAAT           3
 ithread, lastband          10          29
 thread, firstelt, lastelt, lastband, firstband, chunk          10      101063      112723          29          27           2
 lastband-firstband+1           3
 NDAAAAAAAAAAAAAAAAAAAAAAAAAAAAAAT           3
 ithread, lastband           2           6
 thread, firstelt, lastelt, lastband, firstband, chunk           2       15549       23322           6           5           2
 lastband-firstband+1           2
 NDAAAAAAAAAAAAAAAAAAAAAAAAAAAAAAT           2
 thread, firstelt, lastelt, lastband, firstband, chunk           1        7775       15548           4           3           2
 lastband-firstband+1           2
 NDAAAAAAAAAAAAAAAAAAAAAAAAAAAAAAT           2
 ithread, lastband          11          32
 thread, firstelt, lastelt, lastband, firstband, chunk          11      112724      124384          32          30           2
 lastband-firstband+1           3
 NDAAAAAAAAAAAAAAAAAAAAAAAAAAAAAAT           3
 ithread, lastband           4          11
 thread, firstelt, lastelt, lastband, firstband, chunk           4       31097       42757          11           9           2
 lastband-firstband+1           3
 NDAAAAAAAAAAAAAAAAAAAAAAAAAAAAAAT           3
 thread, firstelt, lastelt, lastband, firstband, chunk           8       77741       89401          23          21           2
 lastband-firstband+1           3
 NDAAAAAAAAAAAAAAAAAAAAAAAAAAAAAAT           3
 ithread, lastband           5          14
 thread, firstelt, lastelt, lastband, firstband, chunk           5       42758       54418          14          12           2
 lastband-firstband+1           3
 NDAAAAAAAAAAAAAAAAAAAAAAAAAAAAAAT           3
 IBLOCK           3
 blockdim:          32
 spacedim:        3887
 blockdim*spacedim:      124384
 cprj_dum size          31
 SELECT_K_DEFAULT           1
 SPACEDIM        3887
 ithread, lastband           9          26
 thread, firstelt, lastelt, lastband, firstband, chunk           9       89402      101062          26          24           2
 lastband-firstband+1           3
 ithread, lastband           0           2
 thread, firstelt, lastelt, lastband, firstband, chunk           0           1        7774           2           1           2
 NDAAAAAAAAAAAAAAAAAAAAAAAAAAAAAAT           3
 lastband-firstband+1           2
 ithread, lastband          10          29
 thread, firstelt, lastelt, lastband, firstband, chunk          10      101063      112723          29          27           2
 lastband-firstband+1           3
 NDAAAAAAAAAAAAAAAAAAAAAAAAAAAAAAT           3
 NDAAAAAAAAAAAAAAAAAAAAAAAAAAAAAAT           2
 ithread, lastband           3           8
 thread, firstelt, lastelt, lastband, firstband, chunk           3       23323       31096           8           7           2
 lastband-firstband+1           2
 NDAAAAAAAAAAAAAAAAAAAAAAAAAAAAAAT           2
 ithread, lastband           1           4
 thread, firstelt, lastelt, lastband, firstband, chunk           1        7775       15548           4           3           2
 lastband-firstband+1           2
 NDAAAAAAAAAAAAAAAAAAAAAAAAAAAAAAT           2
 ithread, lastband           4          11
 ithread, lastband           6          17
 ithread, lastband           8          23
 ithread, lastband          11          32
 thread, firstelt, lastelt, lastband, firstband, chunk           8       77741       89401          23          21           2
 thread, firstelt, lastelt, lastband, firstband, chunk           4       31097       42757          11           9           2
 ithread, lastband           5          14
 thread, firstelt, lastelt, lastband, firstband, chunk           5       42758       54418          14          12           2
 lastband-firstband+1           3
 NDAAAAAAAAAAAAAAAAAAAAAAAAAAAAAAT           3
 ithread, lastband           2           6
 thread, firstelt, lastelt, lastband, firstband, chunk           2       15549       23322           6           5           2
 lastband-firstband+1           2
 NDAAAAAAAAAAAAAAAAAAAAAAAAAAAAAAT           2
 ithread, lastband           7          20
 thread, firstelt, lastelt, lastband, firstband, chunk           7       66080       77740          20          18           2
 lastband-firstband+1           3
 NDAAAAAAAAAAAAAAAAAAAAAAAAAAAAAAT           3
 thread, firstelt, lastelt, lastband, firstband, chunk          11      112724      124384          32          30           2
 lastband-firstband+1           3
 NDAAAAAAAAAAAAAAAAAAAAAAAAAAAAAAT           3
 lastband-firstband+1           3
 NDAAAAAAAAAAAAAAAAAAAAAAAAAAAAAAT           3
 lastband-firstband+1           3
 NDAAAAAAAAAAAAAAAAAAAAAAAAAAAAAAT           3
 thread, firstelt, lastelt, lastband, firstband, chunk           6       54419       66079          17          15           2
 lastband-firstband+1           3
 NDAAAAAAAAAAAAAAAAAAAAAAAAAAAAAAT           3
 blockdim:          32
 spacedim:        3887
 blockdim*spacedim:      124384
 cprj_dum size          31
 SELECT_K_DEFAULT           1
 SPACEDIM        3887
 ithread, lastband           1           4
 ithread, lastband           9          26
 ithread, lastband          11          32
 ithread, lastband           0           2
 thread, firstelt, lastelt, lastband, firstband, chunk          11      112724      124384          32          30           2
 thread, firstelt, lastelt, lastband, firstband, chunk           1        7775       15548           4           3           2
 lastband-firstband+1           3
 ithread, lastband           8          23
 thread, firstelt, lastelt, lastband, firstband, chunk           8       77741       89401          23          21           2
 lastband-firstband+1           3
 NDAAAAAAAAAAAAAAAAAAAAAAAAAAAAAAT           3
 ithread, lastband           3           8
 thread, firstelt, lastelt, lastband, firstband, chunk           3       23323       31096           8           7           2
 ithread, lastband          10          29
 thread, firstelt, lastelt, lastband, firstband, chunk          10      101063      112723          29          27           2
 lastband-firstband+1           3
 ithread, lastband           7          20
 thread, firstelt, lastelt, lastband, firstband, chunk           7       66080       77740          20          18           2
 lastband-firstband+1           3
 NDAAAAAAAAAAAAAAAAAAAAAAAAAAAAAAT           3
 lastband-firstband+1           2
 NDAAAAAAAAAAAAAAAAAAAAAAAAAAAAAAT           2
 NDAAAAAAAAAAAAAAAAAAAAAAAAAAAAAAT           3
 ithread, lastband           5          14
 thread, firstelt, lastelt, lastband, firstband, chunk           5       42758       54418          14          12           2
 lastband-firstband+1           3
 NDAAAAAAAAAAAAAAAAAAAAAAAAAAAAAAT           3
 lastband-firstband+1           2
 NDAAAAAAAAAAAAAAAAAAAAAAAAAAAAAAT           2
 NDAAAAAAAAAAAAAAAAAAAAAAAAAAAAAAT           3
 thread, firstelt, lastelt, lastband, firstband, chunk           9       89402      101062          26          24           2
 lastband-firstband+1           3
 NDAAAAAAAAAAAAAAAAAAAAAAAAAAAAAAT           3
 ithread, lastband           6          17
 thread, firstelt, lastelt, lastband, firstband, chunk           6       54419       66079          17          15           2
 lastband-firstband+1           3
 NDAAAAAAAAAAAAAAAAAAAAAAAAAAAAAAT           3
 ithread, lastband           4          11
 thread, firstelt, lastelt, lastband, firstband, chunk           4       31097       42757          11           9           2
 lastband-firstband+1           3
 NDAAAAAAAAAAAAAAAAAAAAAAAAAAAAAAT           3
 thread, firstelt, lastelt, lastband, firstband, chunk           0           1        7774           2           1           2
 lastband-firstband+1           2
 NDAAAAAAAAAAAAAAAAAAAAAAAAAAAAAAT           2
 ithread, lastband           2           6
 thread, firstelt, lastelt, lastband, firstband, chunk           2       15549       23322           6           5           2
 lastband-firstband+1           2
 NDAAAAAAAAAAAAAAAAAAAAAAAAAAAAAAT           2
 blockdim:          32
 spacedim:        3887
 blockdim*spacedim:      124384
 cprj_dum size          31
 SELECT_K_DEFAULT           1
 SPACEDIM        3887
 ithread, lastband           1           4
 ithread, lastband           8          23
 ithread, lastband           7          20
 thread, firstelt, lastelt, lastband, firstband, chunk           7       66080       77740          20          18           2
 lastband-firstband+1           3
 ithread, lastband           3           8
 thread, firstelt, lastelt, lastband, firstband, chunk           1        7775       15548           4           3           2
 thread, firstelt, lastelt, lastband, firstband, chunk           8       77741       89401          23          21           2
 lastband-firstband+1           3
 NDAAAAAAAAAAAAAAAAAAAAAAAAAAAAAAT           3
 ithread, lastband          11          32
 thread, firstelt, lastelt, lastband, firstband, chunk          11      112724      124384          32          30           2
 lastband-firstband+1           3
 NDAAAAAAAAAAAAAAAAAAAAAAAAAAAAAAT           3
 ithread, lastband           5          14
 thread, firstelt, lastelt, lastband, firstband, chunk           5       42758       54418          14          12           2
 ithread, lastband          10          29
 thread, firstelt, lastelt, lastband, firstband, chunk          10      101063      112723          29          27           2
 lastband-firstband+1           3
 NDAAAAAAAAAAAAAAAAAAAAAAAAAAAAAAT           3
 ithread, lastband           0           2
 ithread, lastband           6          17
 thread, firstelt, lastelt, lastband, firstband, chunk           6       54419       66079          17          15           2
 thread, firstelt, lastelt, lastband, firstband, chunk           3       23323       31096           8           7           2
 NDAAAAAAAAAAAAAAAAAAAAAAAAAAAAAAT           3
 lastband-firstband+1           2
 NDAAAAAAAAAAAAAAAAAAAAAAAAAAAAAAT           2
 lastband-firstband+1           2
 NDAAAAAAAAAAAAAAAAAAAAAAAAAAAAAAT           2
 ithread, lastband           2           6
 thread, firstelt, lastelt, lastband, firstband, chunk           2       15549       23322           6           5           2
 lastband-firstband+1           2
 NDAAAAAAAAAAAAAAAAAAAAAAAAAAAAAAT           2
 lastband-firstband+1           3
 NDAAAAAAAAAAAAAAAAAAAAAAAAAAAAAAT           3
 ithread, lastband           4          11
 thread, firstelt, lastelt, lastband, firstband, chunk           4       31097       42757          11           9           2
 lastband-firstband+1           3
 NDAAAAAAAAAAAAAAAAAAAAAAAAAAAAAAT           3
 thread, firstelt, lastelt, lastband, firstband, chunk           0           1        7774           2           1           2
 lastband-firstband+1           2
 NDAAAAAAAAAAAAAAAAAAAAAAAAAAAAAAT           2
 lastband-firstband+1           3
 NDAAAAAAAAAAAAAAAAAAAAAAAAAAAAAAT           3
 ithread, lastband           9          26
 thread, firstelt, lastelt, lastband, firstband, chunk           9       89402      101062          26          24           2
 lastband-firstband+1           3
 NDAAAAAAAAAAAAAAAAAAAAAAAAAAAAAAT           3
 blockdim:          32
 spacedim:        3887
 blockdim*spacedim:      124384
 cprj_dum size          31
 SELECT_K_DEFAULT           1
 SPACEDIM        3887
 ithread, lastband           0           2
 thread, firstelt, lastelt, lastband, firstband, chunk           0           1        7774           2           1           2
 lastband-firstband+1           2
 NDAAAAAAAAAAAAAAAAAAAAAAAAAAAAAAT           2
 ithread, lastband           7          20
 ithread, lastband          11          32
 thread, firstelt, lastelt, lastband, firstband, chunk          11      112724      124384          32          30           2
 ithread, lastband           9          26
 ithread, lastband           6          17
 ithread, lastband           2           6
 ithread, lastband           3           8
 thread, firstelt, lastelt, lastband, firstband, chunk           3       23323       31096           8           7           2
 lastband-firstband+1           2
 ithread, lastband           8          23
 NDAAAAAAAAAAAAAAAAAAAAAAAAAAAAAAT           2
 thread, firstelt, lastelt, lastband, firstband, chunk           8       77741       89401          23          21           2
 lastband-firstband+1           3
 ithread, lastband           4          11
 thread, firstelt, lastelt, lastband, firstband, chunk           4       31097       42757          11           9           2
 lastband-firstband+1           3
 NDAAAAAAAAAAAAAAAAAAAAAAAAAAAAAAT           3
 ithread, lastband           5          14
 thread, firstelt, lastelt, lastband, firstband, chunk           5       42758       54418          14          12           2
 lastband-firstband+1           3
 lastband-firstband+1           3
 NDAAAAAAAAAAAAAAAAAAAAAAAAAAAAAAT           3
 thread, firstelt, lastelt, lastband, firstband, chunk           7       66080       77740          20          18           2
 lastband-firstband+1           3
 NDAAAAAAAAAAAAAAAAAAAAAAAAAAAAAAT           3
 thread, firstelt, lastelt, lastband, firstband, chunk           6       54419       66079          17          15           2
 lastband-firstband+1           3
 NDAAAAAAAAAAAAAAAAAAAAAAAAAAAAAAT           3
 thread, firstelt, lastelt, lastband, firstband, chunk           2       15549       23322           6           5           2
 lastband-firstband+1           2
 NDAAAAAAAAAAAAAAAAAAAAAAAAAAAAAAT           2
 NDAAAAAAAAAAAAAAAAAAAAAAAAAAAAAAT           3
 ithread, lastband          10          29
 thread, firstelt, lastelt, lastband, firstband, chunk          10      101063      112723          29          27           2
 lastband-firstband+1           3
 NDAAAAAAAAAAAAAAAAAAAAAAAAAAAAAAT           3
 thread, firstelt, lastelt, lastband, firstband, chunk           9       89402      101062          26          24           2
 lastband-firstband+1           3
 NDAAAAAAAAAAAAAAAAAAAAAAAAAAAAAAT           3
 ithread, lastband           1           4
 thread, firstelt, lastelt, lastband, firstband, chunk           1        7775       15548           4           3           2
 lastband-firstband+1           2
 NDAAAAAAAAAAAAAAAAAAAAAAAAAAAAAAT           2
 NDAAAAAAAAAAAAAAAAAAAAAAAAAAAAAAT           3
 blockdim:          32
 spacedim:        3887
 blockdim*spacedim:      124384
 cprj_dum size          31
 SELECT_K_DEFAULT           1
 SPACEDIM        3887
 ithread, lastband           8          23
 ithread, lastband           1           4
 thread, firstelt, lastelt, lastband, firstband, chunk           8       77741       89401          23          21           2
 thread, firstelt, lastelt, lastband, firstband, chunk           1        7775       15548           4           3           2
 lastband-firstband+1           3
 lastband-firstband+1           2
 ithread, lastband           4          11
 ithread, lastband           2           6
 thread, firstelt, lastelt, lastband, firstband, chunk           2       15549       23322           6           5           2
 thread, firstelt, lastelt, lastband, firstband, chunk           4       31097       42757          11           9           2
 lastband-firstband+1           2
 lastband-firstband+1           3
 ithread, lastband           5          14
 ithread, lastband           3           8
 thread, firstelt, lastelt, lastband, firstband, chunk           3       23323       31096           8           7           2
 ithread, lastband           9          26
 ithread, lastband           6          17
 ithread, lastband           7          20
 thread, firstelt, lastelt, lastband, firstband, chunk           6       54419       66079          17          15           2
 thread, firstelt, lastelt, lastband, firstband, chunk           7       66080       77740          20          18           2
 NDAAAAAAAAAAAAAAAAAAAAAAAAAAAAAAT           2
 NDAAAAAAAAAAAAAAAAAAAAAAAAAAAAAAT           3
 ithread, lastband          10          29
 thread, firstelt, lastelt, lastband, firstband, chunk           5       42758       54418          14          12           2
 lastband-firstband+1           2
 lastband-firstband+1           3
 NDAAAAAAAAAAAAAAAAAAAAAAAAAAAAAAT           2
 ithread, lastband          11          32
 thread, firstelt, lastelt, lastband, firstband, chunk           9       89402      101062          26          24           2
 thread, firstelt, lastelt, lastband, firstband, chunk          11      112724      124384          32          30           2
 lastband-firstband+1           3
 lastband-firstband+1           3
 NDAAAAAAAAAAAAAAAAAAAAAAAAAAAAAAT           3
 NDAAAAAAAAAAAAAAAAAAAAAAAAAAAAAAT           3
 lastband-firstband+1           3
 thread, firstelt, lastelt, lastband, firstband, chunk          10      101063      112723          29          27           2
 lastband-firstband+1           3
 lastband-firstband+1           3
 NDAAAAAAAAAAAAAAAAAAAAAAAAAAAAAAT           3
 NDAAAAAAAAAAAAAAAAAAAAAAAAAAAAAAT           3
 NDAAAAAAAAAAAAAAAAAAAAAAAAAAAAAAT           3
 NDAAAAAAAAAAAAAAAAAAAAAAAAAAAAAAT           2
 NDAAAAAAAAAAAAAAAAAAAAAAAAAAAAAAT           3
 NDAAAAAAAAAAAAAAAAAAAAAAAAAAAAAAT           3
 ithread, lastband           0           2
 thread, firstelt, lastelt, lastband, firstband, chunk           0           1        7774           2           1           2
 lastband-firstband+1           2
 NDAAAAAAAAAAAAAAAAAAAAAAAAAAAAAAT           2
 IBLOCK           4
 blockdim:          32
 spacedim:        3887
 blockdim*spacedim:      124384
 cprj_dum size          31
 SELECT_K_DEFAULT           1
 SPACEDIM        3887
 ithread, lastband          10          29
 ithread, lastband           8          23
 ithread, lastband           1           4
 thread, firstelt, lastelt, lastband, firstband, chunk           8       77741       89401          23          21           2
 ithread, lastband           0           2
 lastband-firstband+1           3
 thread, firstelt, lastelt, lastband, firstband, chunk           0           1        7774           2           1           2
 thread, firstelt, lastelt, lastband, firstband, chunk          10      101063      112723          29          27           2
 ithread, lastband           7          20
 thread, firstelt, lastelt, lastband, firstband, chunk           7       66080       77740          20          18           2
[...]
                      -7.8342350528E-19  2.7979410903E-19  2.7979410903E-19
                      -2.5368103250E-02  2.5368103250E-02  2.7979410903E-19
                       6.1948075949E-03  2.7979410903E-19  6.1948075949E-03
                      -7.8342350528E-19  2.5368103250E-02 -2.5368103250E-02
                      -7.8342350528E-19  2.7979410903E-19  2.7979410903E-19
                       6.1948075949E-03 -6.1948075949E-03  2.7979410903E-19
                       6.1948075949E-03  2.7979410903E-19 -6.1948075949E-03
                      -7.8342350528E-19  2.5368103250E-02  2.5368103250E-02
                      -7.8342350528E-19  2.7979410903E-19  2.7979410903E-19
                       2.5368103250E-02 -2.5368103250E-02  2.7979410903E-19
                       2.5368103250E-02  2.7979410903E-19 -2.5368103250E-02
                      -7.8342350528E-19  6.1948075949E-03  6.1948075949E-03
                      -7.8342350528E-19  2.7979410903E-19  2.7979410903E-19
                      -6.1948075949E-03  6.1948075949E-03  2.7979410903E-19
                       2.5368103250E-02  2.7979410903E-19  2.5368103250E-02
                      -7.8342350528E-19  6.1948075949E-03 -6.1948075949E-03
                      -7.8342350528E-19  2.7979410903E-19  2.7979410903E-19
                       2.5368103250E-02  2.5368103250E-02  2.7979410903E-19
                      -6.1948075949E-03  2.7979410903E-19  6.1948075949E-03
                      -7.8342350528E-19 -6.1948075949E-03  6.1948075949E-03
                      -7.8342350528E-19  2.7979410903E-19  2.7979410903E-19
                      -6.1948075949E-03 -6.1948075949E-03  2.7979410903E-19
                      -6.1948075949E-03  2.7979410903E-19 -6.1948075949E-03
                      -7.8342350528E-19 -6.1948075949E-03 -6.1948075949E-03
-          fftalg         112
           istwfk        1
              ixc           7
           kptopt           0
P           mkmem           1
            natom          31
            nband         192
            ngfft          40      40      40
          ngfftdg          45      45      45
             nkpt           1
            nstep          40
             nsym          48
           ntypat           1
              occ      2.000000  2.000000  2.000000  2.000000  2.000000  2.000000
                       2.000000  2.000000  2.000000  2.000000  2.000000  2.000000
                       2.000000  2.000000  2.000000  2.000000  2.000000  2.000000
                       2.000000  2.000000  2.000000  2.000000  2.000000  2.000000
                       2.000000  2.000000  2.000000  2.000000  2.000000  2.000000
                       2.000000  2.000000  2.000000  2.000000  2.000000  2.000000
                       2.000000  2.000000  2.000000  2.000000  2.000000  2.000000
                       2.000000  2.000000  2.000000  2.000000  2.000000  2.000000
                       2.000000  2.000000  2.000000  2.000000  2.000000  2.000000
                       2.000000  2.000000  2.000000  2.000000  2.000000  2.000000
                       2.000000  2.000000  2.000000  2.000000  2.000000  2.000000
                       2.000000  2.000000  2.000000  2.000000  2.000000  2.000000
                       2.000000  2.000000  2.000000  2.000000  2.000000  2.000000
                       2.000000  2.000000  2.000000  2.000000  2.000000  2.000000
                       2.000000  2.000000  2.000000  2.000000  2.000000  2.000000
                       2.000000  2.000000  2.000000  2.000000  2.000000  2.000000
                       2.000000  2.000000  2.000000  2.000000  2.000000  2.000000
                       2.000000  2.000000  2.000000  2.000000  2.000000  2.000000
                       2.000000  2.000000  2.000000  2.000000  2.000000  2.000000
                       2.000000  2.000000  2.000000  2.000000  2.000000  2.000000
                       2.000000  2.000000  2.000000  2.000000  2.000000  2.000000
                       2.000000  2.000000  2.000000  2.000000  2.000000  2.000000
                       2.000000  2.000000  2.000000  2.000000  2.000000  1.999998
                       1.999998  1.999998  1.999990  1.996320  1.996320  1.996320
                       1.989031  1.989031  1.971588  1.971588  1.971588  1.911542
                       1.893314  1.893314  1.893314  0.824997  0.824997  0.647722
                       0.647722  0.647722  0.309902  0.309902  0.309902  0.003880
                       0.000000  0.000000  0.000000  0.000000  0.000000  0.000000
                       0.000000  0.000000  0.000000  0.000000  0.000000  0.000000
                       0.000000  0.000000  0.000000  0.000000  0.000000  0.000000
                       0.000000  0.000000  0.000000  0.000000  0.000000  0.000000
                       0.000000  0.000000  0.000000  0.000000  0.000000  0.000000
           occopt           3
        pawecutdg      1.00000000E+01 Hartree
         pawmixdg           1
           prtden           0
           prteig           0
            prtwf           0
          spgroup         221
           strten     -4.3356964944E-03 -4.3356964944E-03 -4.3356964944E-03
                       0.0000000000E+00  0.0000000000E+00  0.0000000000E+00
           symrel      1  0  0   0  1  0   0  0  1      -1  0  0   0 -1  0   0  0 -1
                      -1  0  0   0  1  0   0  0 -1       1  0  0   0 -1  0   0  0  1
                      -1  0  0   0 -1  0   0  0  1       1  0  0   0  1  0   0  0 -1
                       1  0  0   0 -1  0   0  0 -1      -1  0  0   0  1  0   0  0  1
                       0  1  0   1  0  0   0  0  1       0 -1  0  -1  0  0   0  0 -1
                       0 -1  0   1  0  0   0  0 -1       0  1  0  -1  0  0   0  0  1
                       0 -1  0  -1  0  0   0  0  1       0  1  0   1  0  0   0  0 -1
                       0  1  0  -1  0  0   0  0 -1       0 -1  0   1  0  0   0  0  1
                       0  0  1   1  0  0   0  1  0       0  0 -1  -1  0  0   0 -1  0
                       0  0 -1   1  0  0   0 -1  0       0  0  1  -1  0  0   0  1  0
                       0  0 -1  -1  0  0   0  1  0       0  0  1   1  0  0   0 -1  0
                       0  0  1  -1  0  0   0 -1  0       0  0 -1   1  0  0   0  1  0
                       1  0  0   0  0  1   0  1  0      -1  0  0   0  0 -1   0 -1  0
                      -1  0  0   0  0  1   0 -1  0       1  0  0   0  0 -1   0  1  0
                      -1  0  0   0  0 -1   0  1  0       1  0  0   0  0  1   0 -1  0
                       1  0  0   0  0 -1   0 -1  0      -1  0  0   0  0  1   0  1  0
                       0  1  0   0  0  1   1  0  0       0 -1  0   0  0 -1  -1  0  0
                       0 -1  0   0  0  1  -1  0  0       0  1  0   0  0 -1   1  0  0
                       0 -1  0   0  0 -1   1  0  0       0  1  0   0  0  1  -1  0  0
                       0  1  0   0  0 -1  -1  0  0       0 -1  0   0  0  1   1  0  0
                       0  0  1   0  1  0   1  0  0       0  0 -1   0 -1  0  -1  0  0
                       0  0 -1   0  1  0  -1  0  0       0  0  1   0 -1  0   1  0  0
                       0  0 -1   0 -1  0   1  0  0       0  0  1   0  1  0  -1  0  0
                       0  0  1   0 -1  0  -1  0  0       0  0 -1   0  1  0   1  0  0
           timopt           0
           toldfe      1.00000000E-05 Hartree
           tsmear      2.00000000E-03 Hartree
            typat      1  1  1  1  1  1  1  1  1  1  1  1  1  1  1  1  1  1  1  1
                       1  1  1  1  1  1  1  1  1  1  1
           useylm           1
         wfoptalg         114
           xangst      2.0293945949E+00  2.0293945949E+00  0.0000000000E+00
                       2.0293945949E+00  0.0000000000E+00  2.0293945949E+00
                       0.0000000000E+00  2.0293945949E+00  2.0293945949E+00
                       0.0000000000E+00  0.0000000000E+00  4.0587891899E+00
                       2.0293945949E+00  2.0293945949E+00  4.0587891899E+00
                       2.0293945949E+00  0.0000000000E+00  6.0881837848E+00
                       0.0000000000E+00  2.0293945949E+00  6.0881837848E+00
                       0.0000000000E+00  4.0587891899E+00  0.0000000000E+00
                       2.0293945949E+00  6.0881837848E+00  0.0000000000E+00
                       2.0293945949E+00  4.0587891899E+00  2.0293945949E+00
                       0.0000000000E+00  6.0881837848E+00  2.0293945949E+00
                       0.0000000000E+00  4.0587891899E+00  4.0587891899E+00
                       2.0293945949E+00  6.0881837848E+00  4.0587891899E+00
                       2.0293945949E+00  4.0587891899E+00  6.0881837848E+00
                       0.0000000000E+00  6.0881837848E+00  6.0881837848E+00
                       4.0587891899E+00  0.0000000000E+00  0.0000000000E+00
                       6.0881837848E+00  2.0293945949E+00  0.0000000000E+00
                       6.0881837848E+00  0.0000000000E+00  2.0293945949E+00
                       4.0587891899E+00  2.0293945949E+00  2.0293945949E+00
                       4.0587891899E+00  0.0000000000E+00  4.0587891899E+00
                       6.0881837848E+00  2.0293945949E+00  4.0587891899E+00
                       6.0881837848E+00  0.0000000000E+00  6.0881837848E+00
                       4.0587891899E+00  2.0293945949E+00  6.0881837848E+00
                       4.0587891899E+00  4.0587891899E+00  0.0000000000E+00
                       6.0881837848E+00  6.0881837848E+00  0.0000000000E+00
                       6.0881837848E+00  4.0587891899E+00  2.0293945949E+00
                       4.0587891899E+00  6.0881837848E+00  2.0293945949E+00
                       4.0587891899E+00  4.0587891899E+00  4.0587891899E+00
                       6.0881837848E+00  6.0881837848E+00  4.0587891899E+00
                       6.0881837848E+00  4.0587891899E+00  6.0881837848E+00
                       4.0587891899E+00  6.0881837848E+00  6.0881837848E+00
            xcart      3.8350000000E+00  3.8350000000E+00  0.0000000000E+00
                       3.8350000000E+00  0.0000000000E+00  3.8350000000E+00
                       0.0000000000E+00  3.8350000000E+00  3.8350000000E+00
                       0.0000000000E+00  0.0000000000E+00  7.6700000000E+00
                       3.8350000000E+00  3.8350000000E+00  7.6700000000E+00
                       3.8350000000E+00  0.0000000000E+00  1.1505000000E+01
                       0.0000000000E+00  3.8350000000E+00  1.1505000000E+01
                       0.0000000000E+00  7.6700000000E+00  0.0000000000E+00
                       3.8350000000E+00  1.1505000000E+01  0.0000000000E+00
                       3.8350000000E+00  7.6700000000E+00  3.8350000000E+00
                       0.0000000000E+00  1.1505000000E+01  3.8350000000E+00
                       0.0000000000E+00  7.6700000000E+00  7.6700000000E+00
                       3.8350000000E+00  1.1505000000E+01  7.6700000000E+00
                       3.8350000000E+00  7.6700000000E+00  1.1505000000E+01
                       0.0000000000E+00  1.1505000000E+01  1.1505000000E+01
                       7.6700000000E+00  0.0000000000E+00  0.0000000000E+00
                       1.1505000000E+01  3.8350000000E+00  0.0000000000E+00
                       1.1505000000E+01  0.0000000000E+00  3.8350000000E+00
                       7.6700000000E+00  3.8350000000E+00  3.8350000000E+00
                       7.6700000000E+00  0.0000000000E+00  7.6700000000E+00
                       1.1505000000E+01  3.8350000000E+00  7.6700000000E+00
                       1.1505000000E+01  0.0000000000E+00  1.1505000000E+01
                       7.6700000000E+00  3.8350000000E+00  1.1505000000E+01
                       7.6700000000E+00  7.6700000000E+00  0.0000000000E+00
                       1.1505000000E+01  1.1505000000E+01  0.0000000000E+00
                       1.1505000000E+01  7.6700000000E+00  3.8350000000E+00
                       7.6700000000E+00  1.1505000000E+01  3.8350000000E+00
                       7.6700000000E+00  7.6700000000E+00  7.6700000000E+00
                       1.1505000000E+01  1.1505000000E+01  7.6700000000E+00
                       1.1505000000E+01  7.6700000000E+00  1.1505000000E+01
                       7.6700000000E+00  1.1505000000E+01  1.1505000000E+01
             xred      2.5000000000E-01  2.5000000000E-01  0.0000000000E+00
                       2.5000000000E-01  0.0000000000E+00  2.5000000000E-01
                       0.0000000000E+00  2.5000000000E-01  2.5000000000E-01
                       0.0000000000E+00  0.0000000000E+00  5.0000000000E-01
                       2.5000000000E-01  2.5000000000E-01  5.0000000000E-01
                       2.5000000000E-01  0.0000000000E+00  7.5000000000E-01
                       0.0000000000E+00  2.5000000000E-01  7.5000000000E-01
                       0.0000000000E+00  5.0000000000E-01  0.0000000000E+00
                       2.5000000000E-01  7.5000000000E-01  0.0000000000E+00
                       2.5000000000E-01  5.0000000000E-01  2.5000000000E-01
                       0.0000000000E+00  7.5000000000E-01  2.5000000000E-01
                       0.0000000000E+00  5.0000000000E-01  5.0000000000E-01
                       2.5000000000E-01  7.5000000000E-01  5.0000000000E-01
                       2.5000000000E-01  5.0000000000E-01  7.5000000000E-01
                       0.0000000000E+00  7.5000000000E-01  7.5000000000E-01
                       5.0000000000E-01  0.0000000000E+00  0.0000000000E+00
                       7.5000000000E-01  2.5000000000E-01  0.0000000000E+00
                       7.5000000000E-01  0.0000000000E+00  2.5000000000E-01
                       5.0000000000E-01  2.5000000000E-01  2.5000000000E-01
                       5.0000000000E-01  0.0000000000E+00  5.0000000000E-01
                       7.5000000000E-01  2.5000000000E-01  5.0000000000E-01
                       7.5000000000E-01  0.0000000000E+00  7.5000000000E-01
                       5.0000000000E-01  2.5000000000E-01  7.5000000000E-01
                       5.0000000000E-01  5.0000000000E-01  0.0000000000E+00
                       7.5000000000E-01  7.5000000000E-01  0.0000000000E+00
                       7.5000000000E-01  5.0000000000E-01  2.5000000000E-01
                       5.0000000000E-01  7.5000000000E-01  2.5000000000E-01
                       5.0000000000E-01  5.0000000000E-01  5.0000000000E-01
                       7.5000000000E-01  7.5000000000E-01  5.0000000000E-01
                       7.5000000000E-01  5.0000000000E-01  7.5000000000E-01
                       5.0000000000E-01  7.5000000000E-01  7.5000000000E-01
            znucl       56.00000

================================================================================
  

================================================================================

 Suggested references for the acknowledgment of ABINIT usage.

 The users of ABINIT have little formal obligations with respect to the ABINIT group
 (those specified in the GNU General Public License, http://www.gnu.org/copyleft/gpl.txt).
 However, it is common practice in the scientific literature,
 to acknowledge the efforts of people that have made the research possible.
 In this spirit, please find below suggested citations of work written by ABINIT developers,
 corresponding to implementations inside of ABINIT that you have used in the present run.
 Note also that it will be of great value to readers of publications presenting these results,
 to read papers enabling them to understand the theoretical formalism and details
 of the ABINIT implementation.
 For information on why they are suggested, see also https://docs.abinit.org/theory/acknowledgments.
-
- [1] Implementation of the Projector Augmented-Wave Method in the ABINIT code.
- M. Torrent, F. Jollet, F. Bottin, G. Zerah, and X. Gonze Comput. Mat. Science 42, 337, (2008).
- Comment : PAW calculations. Strong suggestion to cite this paper.
- DOI and bibtex : see https://docs.abinit.org/theory/bibliography/#torrent2008
-
- [2] Recent developments in the ABINIT software package.
- Computer Phys. Comm. 205, 106 (2016).
- X.Gonze, F.Jollet, F.Abreu Araujo, D.Adams, B.Amadon, T.Applencourt,
- C.Audouze, J.-M.Beuken, J.Bieder, A.Bokhanchuk, E.Bousquet, F.Bruneval
- D.Caliste, M.Cote, F.Dahm, F.Da Pieve, M.Delaveau, M.Di Gennaro,
- B.Dorado, C.Espejo, G.Geneste, L.Genovese, A.Gerossier, M.Giantomassi,
- Y.Gillet, D.R.Hamann, L.He, G.Jomard, J.Laflamme Janssen, S.Le Roux,
- A.Levitt, A.Lherbier, F.Liu, I.Lukacevic, A.Martin, C.Martins,
- M.J.T.Oliveira, S.Ponce, Y.Pouillon, T.Rangel, G.-M.Rignanese,
- A.H.Romero, B.Rousseau, O.Rubel, A.A.Shukri, M.Stankovski, M.Torrent,
- M.J.Van Setten, B.Van Troeye, M.J.Verstraete, D.Waroquier, J.Wiktor,
- B.Xu, A.Zhou, J.W.Zwanziger.
- Comment : the fourth generic paper describing the ABINIT project.
- Note that a version of this paper, that is not formatted for Computer Phys. Comm. 
- is available at https://www.abinit.org/about/ABINIT16.pdf .
- The licence allows the authors to put it on the Web.
- DOI and bibtex : see https://docs.abinit.org/theory/bibliography/#gonze2016
-
- [3] ABINIT : First-principles approach of materials and nanosystem properties.
- Computer Phys. Comm. 180, 2582-2615 (2009).
- X. Gonze, B. Amadon, P.-M. Anglade, J.-M. Beuken, F. Bottin, P. Boulanger, F. Bruneval,
- D. Caliste, R. Caracas, M. Cote, T. Deutsch, L. Genovese, Ph. Ghosez, M. Giantomassi
- S. Goedecker, D.R. Hamann, P. Hermet, F. Jollet, G. Jomard, S. Leroux, M. Mancini, S. Mazevet,
- M.J.T. Oliveira, G. Onida, Y. Pouillon, T. Rangel, G.-M. Rignanese, D. Sangalli, R. Shaltaf,
- M. Torrent, M.J. Verstraete, G. Zerah, J.W. Zwanziger
- Comment : the third generic paper describing the ABINIT project.
- Note that a version of this paper, that is not formatted for Computer Phys. Comm. 
- is available at https://www.abinit.org/about/ABINIT_CPC_v10.pdf .
- The licence allows the authors to put it on the Web.
- DOI and bibtex : see https://docs.abinit.org/theory/bibliography/#gonze2009
-
- [4] A brief introduction to the ABINIT software package.
- Z. Kristallogr. 220, 558-562 (2005).
- X. Gonze, G.-M. Rignanese, M. Verstraete, J.-M. Beuken, Y. Pouillon, R. Caracas, F. Jollet,
- M. Torrent, G. Zerah, M. Mikami, Ph. Ghosez, M. Veithen, J.-Y. Raty, V. Olevano, F. Bruneval,
- L. Reining, R. Godby, G. Onida, D.R. Hamann, and D.C. Allan.
- Comment : the second generic paper describing the ABINIT project. Note that this paper
- should be cited especially if you are using the GW part of ABINIT, as several authors
- of this part are not in the list of authors of the first or third paper.
- The .pdf of the latter paper is available at https://www.abinit.org/about/zfk_0505-06_558-562.pdf.
- Note that it should not redistributed (Copyright by Oldenburg Wissenshaftverlag,
- the licence allows the authors to put it on the Web).
- DOI and bibtex : see https://docs.abinit.org/theory/bibliography/#gonze2005
-
- And optionally:
-
- [5] First-principles computation of material properties : the ABINIT software project. 
- X. Gonze, J.-M. Beuken, R. Caracas, F. Detraux, M. Fuchs, G.-M. Rignanese, L. Sindic,
- M. Verstraete, G. Zerah, F. Jollet, M. Torrent, A. Roy, M. Mikami, Ph. Ghosez, J.-Y. Raty, D.C. Allan.
- Computational Materials Science 25, 478-492 (2002). http://dx.doi.org/10.1016/S0927-0256(02)00325-7
- Comment : the original paper describing the ABINIT project.
- DOI and bibtex : see https://docs.abinit.org/theory/bibliography/#gonze2002

 Calculation completed.
.Delivered   0 WARNINGs and   6 COMMENTs to log file.

--- !FinalSummary
program: abinit
version: 8.9.4
start_datetime: Mon Feb 25 17:45:15 2019
end_datetime: Mon Feb 25 17:47:26 2019
overall_cpu_time:        1002.4
overall_wall_time:         130.7
exit_requested_by_user: no 
timelimit: 0
pseudos: 
    Ba  : ce3b7093966dc4149014117c18eb5b71
usepaw: 1
mpi_procs: 1
omp_threads: 12
num_warnings: 0
num_comments: 6
...
