
.Version 8.11.12 of ABINIT 
.(MPI version, prepared for a x86_64_linux_gnu9.2 computer) 

.Copyright (C) 1998-2020 ABINIT group . 
 ABINIT comes with ABSOLUTELY NO WARRANTY.
 It is free software, and you are welcome to redistribute it
 under certain conditions (GNU General Public License,
 see ~abinit/COPYING or http://www.gnu.org/copyleft/gpl.txt).

 ABINIT is a project of the Universite Catholique de Louvain,
 Corning Inc. and other collaborators, see ~abinit/doc/developers/contributors.txt .
 Please read https://docs.abinit.org/theory/acknowledgments for suggested
 acknowledgments of the ABINIT effort.
 For more information, see https://www.abinit.org .

.Starting date : Mon 25 Nov 2019.
- ( at 08h45 )
  
- input  file    -> t06.in
- output file    -> t06_MPI2.out
- root for input  files -> t06_MPI2i
- root for output files -> t06_MPI2o


 DATASET    1 : space group R3 c (#161); Bravais hR (rhombohedral)
================================================================================
 Values of the parameters that define the memory need for DATASET  1.
     intxc =       0    ionmov =       0      iscf =       7    lmnmax =       3
     lnmax =       3     mgfft =      16  mpssoang =       3    mqgrid =    3001
     natom =      10  nloc_mem =       1    nspden =       1   nspinor =       1
    nsppol =       1      nsym =       6    n1xccc =       0    ntypat =       3
    occopt =       1   xclevel =       1
-    mband =          34        mffmem =           1         mkmem =           5
       mpw =         175          nfft =        4096          nkpt =          10
================================================================================
P This job should need less than                       2.684 Mbytes of memory.
  Rough estimation (10% accuracy) of disk space for files :
_ WF disk file :      0.910 Mbytes ; DEN or POT disk file :      0.033 Mbytes.
================================================================================


 DATASET    2 : space group Cc (#  9); Bravais mC (1-face-center monocl.)
================================================================================
 Values of the parameters that define the memory need for DATASET  2.
     intxc =       0    ionmov =       0      iscf =       7    lmnmax =       3
     lnmax =       3     mgfft =      16  mpssoang =       3    mqgrid =    3001
     natom =      10  nloc_mem =       1    nspden =       1   nspinor =       1
    nsppol =       1      nsym =       2    n1xccc =       0    ntypat =       3
    occopt =       1   xclevel =       1
-    mband =          34        mffmem =           1         mkmem =          10
       mpw =         175          nfft =        4096          nkpt =          20
================================================================================
P This job should need less than                       3.261 Mbytes of memory.
  Rough estimation (10% accuracy) of disk space for files :
_ WF disk file :      1.818 Mbytes ; DEN or POT disk file :      0.033 Mbytes.
================================================================================

--------------------------------------------------------------------------------
------------- Echo of variables that govern the present computation ------------
--------------------------------------------------------------------------------
-
- outvars: echo of selected default values                                      
-   iomode0 =  0 , fftalg0 =312 , wfoptalg0 =  0
-
- outvars: echo of global parameters not present in the input file              
-  max_nthreads =    0
-
 -outvars: echo values of preprocessed input variables --------
            acell      1.0260157145E+01  1.0260157145E+01  1.0260157145E+01 Bohr
              amu      9.29063800E+01  6.94100000E+00  1.59994000E+01
         berryopt1         -1
         berryopt2          4
           diemac      6.00000000E+00
             ecut      3.00000000E+00 Hartree
           efield1     0.00000000E+00  0.00000000E+00  0.00000000E+00
           efield2     1.00000000E-04  0.00000000E+00  0.00000000E+00
-          fftalg         312
           getwfk1          0
           getwfk2          1
              ixc           7
           jdtset        1    2
              kpt1     1.25000000E-01  1.25000000E-01  1.25000000E-01
                       3.75000000E-01  1.25000000E-01  1.25000000E-01
                      -3.75000000E-01  1.25000000E-01  1.25000000E-01
                      -1.25000000E-01  1.25000000E-01  1.25000000E-01
                       3.75000000E-01  3.75000000E-01  1.25000000E-01
                      -3.75000000E-01  3.75000000E-01  1.25000000E-01
                      -1.25000000E-01  3.75000000E-01  1.25000000E-01
                      -3.75000000E-01 -3.75000000E-01  1.25000000E-01
                       3.75000000E-01  3.75000000E-01  3.75000000E-01
                      -3.75000000E-01  3.75000000E-01  3.75000000E-01
              kpt2     1.25000000E-01  1.25000000E-01  1.25000000E-01
                       3.75000000E-01  1.25000000E-01  1.25000000E-01
                      -3.75000000E-01  1.25000000E-01  1.25000000E-01
                      -1.25000000E-01  1.25000000E-01  1.25000000E-01
                       1.25000000E-01  3.75000000E-01  1.25000000E-01
                       3.75000000E-01  3.75000000E-01  1.25000000E-01
                      -3.75000000E-01  3.75000000E-01  1.25000000E-01
                      -1.25000000E-01  3.75000000E-01  1.25000000E-01
                       1.25000000E-01 -3.75000000E-01  1.25000000E-01
                       3.75000000E-01 -3.75000000E-01  1.25000000E-01
                      -3.75000000E-01 -3.75000000E-01  1.25000000E-01
                      -1.25000000E-01 -3.75000000E-01  1.25000000E-01
                       1.25000000E-01 -1.25000000E-01  1.25000000E-01
                       3.75000000E-01 -1.25000000E-01  1.25000000E-01
                       1.25000000E-01  3.75000000E-01  3.75000000E-01
                       3.75000000E-01  3.75000000E-01  3.75000000E-01
                      -3.75000000E-01  3.75000000E-01  3.75000000E-01
                      -1.25000000E-01  3.75000000E-01  3.75000000E-01
                       1.25000000E-01 -3.75000000E-01  3.75000000E-01
                       3.75000000E-01 -3.75000000E-01  3.75000000E-01
         kptrlatt        4    0    0      0    4    0      0    0    4
          kptrlen      3.83021364E+01
P           mkmem1          5
P           mkmem2         10
            natom          10
            nband1         34
            nband2         34
           ndtset           2
            ngfft          16      16      16
             nkpt1         10
             nkpt2         20
            nstep1         12
            nstep2          5
             nsym1          6
             nsym2          2
           ntypat           3
              occ1     2.000000  2.000000  2.000000  2.000000  2.000000  2.000000
                       2.000000  2.000000  2.000000  2.000000  2.000000  2.000000
                       2.000000  2.000000  2.000000  2.000000  2.000000  2.000000
                       2.000000  2.000000  2.000000  2.000000  2.000000  2.000000
                       2.000000  2.000000  2.000000  2.000000  2.000000  2.000000
                       2.000000  2.000000  2.000000  2.000000
              occ2     2.000000  2.000000  2.000000  2.000000  2.000000  2.000000
                       2.000000  2.000000  2.000000  2.000000  2.000000  2.000000
                       2.000000  2.000000  2.000000  2.000000  2.000000  2.000000
                       2.000000  2.000000  2.000000  2.000000  2.000000  2.000000
                       2.000000  2.000000  2.000000  2.000000  2.000000  2.000000
                       2.000000  2.000000  2.000000  2.000000
            rfdir1          1       1       1
            rfdir2          0       0       0
            rprim      5.3882578138E-01  0.0000000000E+00  8.4241722283E-01
                      -2.6941289069E-01  4.6663681489E-01  8.4241722283E-01
                      -2.6941289069E-01 -4.6663681489E-01  8.4241722283E-01
           shiftk      5.00000000E-01  5.00000000E-01  5.00000000E-01
          spgroup1        161
          spgroup2          9
           symafm1       1    1    1    1    1    1
           symafm2       1    1
           symrel1     1  0  0   0  1  0   0  0  1       0  1  0   1  0  0   0  0  1
                       0  0  1   1  0  0   0  1  0       1  0  0   0  0  1   0  1  0
                       0  1  0   0  0  1   1  0  0       0  0  1   0  1  0   1  0  0
           symrel2     1  0  0   0  1  0   0  0  1       1  0  0   0  0  1   0  1  0
            tnons1     0.0000000  0.0000000  0.0000000     0.5000000  0.5000000  0.5000000
                       0.0000000  0.0000000  0.0000000     0.5000000  0.5000000  0.5000000
                       0.0000000  0.0000000  0.0000000     0.5000000  0.5000000  0.5000000
            tnons2     0.0000000  0.0000000  0.0000000     0.5000000  0.5000000  0.5000000
           toldfe      1.00000000E-10 Hartree
            typat      1  1  2  2  3  3  3  3  3  3
              wtk1       0.03125    0.09375    0.09375    0.09375    0.09375    0.18750
                         0.18750    0.09375    0.03125    0.09375
              wtk2       0.03125    0.03125    0.03125    0.03125    0.06250    0.06250
                         0.06250    0.06250    0.06250    0.06250    0.06250    0.06250
                         0.06250    0.06250    0.03125    0.03125    0.03125    0.03125
                         0.06250    0.06250
           xangst     -8.0051872436E-20 -5.7153926059E-20 -8.5303879162E-03
                      -6.3928213646E-17 -1.6872105684E-18  6.8522519267E+00
                      -8.3470766842E-17 -1.9915158838E-16  3.8847380230E+00
                      -3.0462038644E-16 -1.0431386073E-17  1.0745520338E+01
                       1.4079003709E+00  6.5979245129E-01  5.4571231627E+00
                      -1.2753472095E+00  8.8938126151E-01  5.4571231627E+00
                      -1.3255316138E-01 -1.5491737128E+00  5.4571231627E+00
                       1.3302083189E+00 -9.8440349033E-01  7.7440506009E+00
                       1.8741427077E-01  1.6441959416E+00  7.7440506009E+00
                      -1.5176225896E+00 -6.5979245129E-01  7.7440506009E+00
            xcart     -1.5127611533E-19 -1.0800526767E-19 -1.6120096969E-02
                      -1.2080681596E-16 -3.1883659028E-18  1.2948879535E+01
                      -1.5773688943E-16 -3.7634196097E-16  7.3410909615E+00
                      -5.7564910487E-16 -1.9712462865E-17  2.0306090593E+01
                       2.6605461233E+00  1.2468270375E+00  1.0312468251E+01
                      -2.4100569502E+00  1.6806870120E+00  1.0312468251E+01
                      -2.5048917306E-01 -2.9275140495E+00  1.0312468251E+01
                       2.5137294223E+00 -1.8602530010E+00  1.4634134795E+01
                       3.5416164515E-01  3.1070800385E+00  1.4634134795E+01
                      -2.8678910675E+00 -1.2468270375E+00  1.4634134795E+01
             xred     -6.2167749428E-04 -6.2167749428E-04 -6.2167749428E-04
                       4.9937832251E-01  4.9937832251E-01  4.9937832251E-01
                       2.8311188469E-01  2.8311188469E-01  2.8311188469E-01
                       7.8311188469E-01  7.8311188469E-01  7.8311188469E-01
                       7.1853575943E-01  3.6749800127E-01  1.0707868171E-01
                       1.0707868171E-01  7.1853575943E-01  3.6749800127E-01
                       3.6749800127E-01  1.0707868171E-01  7.1853575943E-01
                       8.6749800127E-01  2.1853575943E-01  6.0707868171E-01
                       6.0707868171E-01  8.6749800127E-01  2.1853575943E-01
                       2.1853575943E-01  6.0707868171E-01  8.6749800127E-01
            znucl       41.00000    3.00000    8.00000

================================================================================

 chkinp: Checking input parameters for consistency, jdtset=   1.

 chkinp: Checking input parameters for consistency, jdtset=   2.

================================================================================
== DATASET  1 ==================================================================
-   nproc =    2

 Exchange-correlation functional for the present dataset will be:
  LDA: Perdew-Wang 92 LSD fit to Ceperley-Alder data - ixc=7
 Citation for XC functional:
  J.P.Perdew and Y.Wang, PRB 45, 13244 (1992)

 Real(R)+Recip(G) space primitive vectors, cartesian coordinates (Bohr,Bohr^-1):
 R(1)=  5.5284372  0.0000000  8.6433331  G(1)=  0.1205886  0.0000000  0.0385654
 R(2)= -2.7642186  4.7877671  8.6433331  G(2)= -0.0602943  0.1044328  0.0385654
 R(3)= -2.7642186 -4.7877671  8.6433331  G(3)= -0.0602943 -0.1044328  0.0385654
 Unit cell volume ucvol=  6.8633776E+02 bohr^3
 Angles (23,13,12)=  5.56324109E+01  5.56324109E+01  5.56324109E+01 degrees

 getcut: wavevector=  0.0000  0.0000  0.0000  ngfft=  16  16  16
         ecut(hartree)=      3.000   => boxcut(ratio)=   2.00793

--- Pseudopotential description ------------------------------------------------
- pspini: atom type   1  psp file is /home/buildbot/bb/ABINIT/abiref_gnu_9.2_openmpi/trunk__gonze3/tests/Psps_for_tests/41nb_001023.pspfhi
- pspatm: opening atomic psp file    /home/buildbot/bb/ABINIT/abiref_gnu_9.2_openmpi/trunk__gonze3/tests/Psps_for_tests/41nb_001023.pspfhi
- Nb, fhi98PP: TM-type, LDA Perdew/Wang, l = 2 local
- 41.00000  13.00000      1023                znucl, zion, pspdat
    6    7    2    2       539   0.00000      pspcod,pspxc,lmax,lloc,mmax,r2well
    1.20000000000000    0.00000000000000    0.00000000000000   rchrg,fchrg,qchrg
  1.024700          amesh (Hamman grid)
  pspatm : epsatm=   19.94110200
         --- l  ekb(1:nproj) -->
             0   15.574102
             1    9.959063
 pspatm: atomic psp has been read  and splines computed

- pspini: atom type   2  psp file is /home/buildbot/bb/ABINIT/abiref_gnu_9.2_openmpi/trunk__gonze3/tests/Psps_for_tests/03li.pspfhi
- pspatm: opening atomic psp file    /home/buildbot/bb/ABINIT/abiref_gnu_9.2_openmpi/trunk__gonze3/tests/Psps_for_tests/03li.pspfhi
- Li, fhi98PP: TM-type, LDA PedewWang, l = 2 local
-  3.00000   3.00000      1023                znucl, zion, pspdat
    6    7    2    2       433   0.00000      pspcod,pspxc,lmax,lloc,mmax,r2well
    0.80000000000000    0.00000000000000    0.00000000000000   rchrg,fchrg,qchrg
  1.024700          amesh (Hamman grid)
  pspatm : epsatm=    0.69307674
         --- l  ekb(1:nproj) -->
             0   -5.775081
             1   -1.038282
 pspatm: atomic psp has been read  and splines computed

- pspini: atom type   3  psp file is /home/buildbot/bb/ABINIT/abiref_gnu_9.2_openmpi/trunk__gonze3/tests/Psps_for_tests/08o_001023.pspfhi
- pspatm: opening atomic psp file    /home/buildbot/bb/ABINIT/abiref_gnu_9.2_openmpi/trunk__gonze3/tests/Psps_for_tests/08o_001023.pspfhi
- O, fhi98PP: TM-type, LDA PerdewWang, l=2 local
-  8.00000   6.00000      1023                znucl, zion, pspdat
    6    7    2    2       473   0.00000      pspcod,pspxc,lmax,lloc,mmax,r2well
    1.20000000000000    0.00000000000000    0.00000000000000   rchrg,fchrg,qchrg
  1.024700          amesh (Hamman grid)
  pspatm : epsatm=    2.60350195
         --- l  ekb(1:nproj) -->
             0    4.939348
             1   -3.218107
 pspatm: atomic psp has been read  and splines computed

   3.86847710E+03                                ecore*ucvol(ha*bohr**3)
--------------------------------------------------------------------------------

_setup2: Arith. and geom. avg. npw (full set) are     170.000     169.973
  initberry: for direction 1, nkstr =   4, nstr =     16
  initberry: for direction 2, nkstr =   4, nstr =     16
  initberry: for direction 3, nkstr =   4, nstr =     16

================================================================================

     iter   Etot(hartree)      deltaE(h)  residm     vres2
 ETOT  1  -190.11425405630    -1.901E+02 1.247E-02 5.521E+02
 ETOT  2  -192.73423318639    -2.620E+00 6.199E-04 5.409E+01
 ETOT  3  -192.95112457012    -2.169E-01 4.880E-03 1.940E+00
 ETOT  4  -192.95876768028    -7.643E-03 1.178E-04 3.046E-02
 ETOT  5  -192.95889523543    -1.276E-04 3.804E-06 1.237E-03
 ETOT  6  -192.95889929313    -4.058E-06 6.113E-08 1.531E-05
 ETOT  7  -192.95889935286    -5.973E-08 9.165E-10 2.868E-07
 ETOT  8  -192.95889935379    -9.247E-10 7.512E-12 1.819E-09
 ETOT  9  -192.95889935380    -8.384E-12 1.134E-13 1.975E-11
 ETOT 10  -192.95889935380     5.684E-14 3.447E-15 2.339E-13

 At SCF step   10, etot is converged : 
  for the second time, diff in etot=  5.684E-14 < toldfe=  1.000E-10

 Computing the polarization (Berry phase) for reciprocal vector:
  0.25000  0.00000  0.00000 (in reduced coordinates)
  0.03015 -0.00000  0.00964 (in cartesian coordinates - atomic units)
 Number of strings:    16
 Number of k points in string:    4

 Summary of the results
 Electronic Berry phase     9.686838225E-01
            Ionic phase     9.998570024E-01
            Total phase     1.968540825E+00
    Remapping in [-1,1]    -3.145917512E-02

           Polarization    -3.620407887E-04 (a.u. of charge)/bohr^2
           Polarization    -2.071407737E-02 C/m^2


 Computing the polarization (Berry phase) for reciprocal vector:
  0.00000  0.25000  0.00000 (in reduced coordinates)
 -0.01507  0.02611  0.00964 (in cartesian coordinates - atomic units)
 Number of strings:    16
 Number of k points in string:    4

 Summary of the results
 Electronic Berry phase     9.686838234E-01
            Ionic phase     9.998570024E-01
            Total phase     1.968540826E+00
    Remapping in [-1,1]    -3.145917416E-02

           Polarization    -3.620407777E-04 (a.u. of charge)/bohr^2
           Polarization    -2.071407674E-02 C/m^2


 Computing the polarization (Berry phase) for reciprocal vector:
  0.00000  0.00000  0.25000 (in reduced coordinates)
 -0.01507 -0.02611  0.00964 (in cartesian coordinates - atomic units)
 Number of strings:    16
 Number of k points in string:    4

 Summary of the results
 Electronic Berry phase     9.686838215E-01
            Ionic phase     9.998570024E-01
            Total phase     1.968540824E+00
    Remapping in [-1,1]    -3.145917610E-02

           Polarization    -3.620407999E-04 (a.u. of charge)/bohr^2
           Polarization    -2.071407801E-02 C/m^2


 Polarization in cartesian coordinates (a.u.):
 (the sum of the electronic and ionic Berry phase has been folded into [-1, 1])
     Electronic berry phase:        0.672362043E-13   0.135105188E-10   0.365970985E-01
     Ionic:                        -0.510990869E-17  -0.259838139E-17   0.377748285E-01  
     Total:                         0.672312561E-13   0.135105145E-10  -0.118853490E-02

 Polarization in cartesian coordinates (C/m^2):
 (the sum of the electronic and ionic Berry phase has been folded into [-1, 1])
     Electronic berry phase:        0.384690339E-11   0.773001110E-09   0.209389426E+01
     Ionic:                        -0.292362207E-15  -0.148665771E-15   0.216127780E+01  
     Total:                         0.384662028E-11   0.773000864E-09  -0.680017409E-01

 Cartesian components of stress tensor (hartree/bohr^3)
  sigma(1 1)=  2.57352350E-02  sigma(3 2)=  0.00000000E+00
  sigma(2 2)=  2.57352350E-02  sigma(3 1)=  0.00000000E+00
  sigma(3 3)=  2.64170223E-02  sigma(2 1)=  0.00000000E+00

 Integrated electronic density in atomic spheres:
 ------------------------------------------------
 Atom  Sphere_radius  Integrated_density
    1        2.00000          8.18046338
    2        2.00000          8.18046338
    3        2.00000          2.60986067
    4        2.00000          2.60986067
    5        2.00000          5.48664981
    6        2.00000          5.48664981
    7        2.00000          5.48664981
    8        2.00000          5.48664981
    9        2.00000          5.48664981
   10        2.00000          5.48664981
================================================================================

 ----iterations are completed or convergence reached----

 Mean square residual over all n,k,spin=   22.697E-17; max=  34.473E-16
 reduced coordinates (array xred) for   10 atoms
      -0.000621677490     -0.000621677490     -0.000621677490
       0.499378322510      0.499378322510      0.499378322510
       0.283111884692      0.283111884692      0.283111884692
       0.783111884692      0.783111884692      0.783111884692
       0.718535759432      0.367498001272      0.107078681712
       0.107078681712      0.718535759432      0.367498001272
       0.367498001272      0.107078681712      0.718535759432
       0.867498001272      0.218535759432      0.607078681712
       0.607078681712      0.867498001272      0.218535759432
       0.218535759432      0.607078681712      0.867498001272
 rms dE/dt=  4.9718E-01; max dE/dt=  7.7877E-01; dE/dt below (all hartree)
    1       0.778766433124      0.778766433124      0.778766433124
    2       0.778766433124      0.778766433124      0.778766433124
    3       0.225812967370      0.225812967370      0.225812967370
    4       0.225812967370      0.225812967370      0.225812967370
    5      -0.100909119589     -0.734655307030     -0.169095665354
    6      -0.169095665354     -0.100909119589     -0.734655307030
    7      -0.734655307030     -0.169095665354     -0.100909119589
    8      -0.734655307030     -0.100909119589     -0.169095665354
    9      -0.169095665354     -0.734655307030     -0.100909119589
   10      -0.100909119589     -0.169095665354     -0.734655307030

 cartesian coordinates (angstrom) at end:
    1      0.00000000000000    -0.00000000000000    -0.00853038785745
    2      0.00000000000000    -0.00000000000000     6.85225192666191
    3      0.00000000000000    -0.00000000000000     3.88473802305216
    4     -0.00000000000000     0.00000000000000    10.74552033757152
    5      1.40790037085701     0.65979245129279     5.45712316277572
    6     -1.27534720947327     0.88938126151331     5.45712316277572
    7     -0.13255316138375    -1.54917371280610     5.45712316277572
    8      1.33020831885815    -0.98440349032753     7.74405060094884
    9      0.18741427076863     1.64419594162032     7.74405060094884
   10     -1.51762258962679    -0.65979245129279     7.74405060094884

 cartesian forces (hartree/bohr) at end:
    1      0.00000000000000     0.00000000000000    -0.09010211263452
    2      0.00000000000000    -0.00000000000000    -0.09010211263452
    3     -0.00000000000000    -0.00000000000000    -0.02612754864015
    4     -0.00000000000000     0.00000000000000    -0.02612754864015
    5     -0.04232255331127     0.05906298653595     0.03874322042489
    6     -0.02998877010788    -0.06618389958855     0.03874322042489
    7      0.07231132341915     0.00712091305260     0.03874322042489
    8      0.07231132341915    -0.00712091305260     0.03874322042489
    9     -0.02998877010788     0.06618389958855     0.03874322042489
   10     -0.04232255331127    -0.05906298653595     0.03874322042489
 frms,max,avg= 4.4078003E-02 9.0102113E-02   0.000E+00  0.000E+00  1.867E-06 h/b

 cartesian forces (eV/Angstrom) at end:
    1      0.00000000000000     0.00000000000000    -4.63323652964533
    2      0.00000000000000    -0.00000000000000    -4.63323652964533
    3     -0.00000000000000    -0.00000000000000    -1.34353245723160
    4     -0.00000000000000     0.00000000000000    -1.34353245723160
    5     -2.17631301082830     3.03714062597320     1.99225632895898
    6     -1.54208443154441    -3.40331266695051     1.99225632895898
    7      3.71839744237271     0.36617204097731     1.99225632895898
    8      3.71839744237271    -0.36617204097731     1.99225632895898
    9     -1.54208443154441     3.40331266695051     1.99225632895898
   10     -2.17631301082830    -3.03714062597320     1.99225632895898
 frms,max,avg= 2.2665819E+00 4.6332365E+00   0.000E+00  0.000E+00  9.601E-05 e/A
 length scales= 10.260157145000 10.260157145000 10.260157145000 bohr
              =  5.429441317686  5.429441317686  5.429441317686 angstroms
 prteigrs : about to open file t06_MPI2o_DS1_EIG
 Fermi (or HOMO) energy (hartree) =   0.48826   Average Vxc (hartree)=  -0.47107
 Eigenvalues (hartree) for nkpt=  10  k points:
 kpt#   1, nband= 34, wtk=  0.03125, kpt=  0.1250  0.1250  0.1250 (reduced coord)
  -1.91253   -1.90586   -0.91617   -0.91617   -0.90450   -0.87518   -0.87518   -0.82171
  -0.77605   -0.77605   -0.73282   -0.71535   -0.71535   -0.65746   -0.44954   -0.41088
   0.18423    0.18961    0.18961    0.20220    0.20220    0.23297    0.30276    0.30276
   0.30579    0.37634    0.37634    0.39918    0.40978    0.40978    0.44373    0.45512
   0.46319    0.46319
 prteigrs : prtvol=0 or 1, do not print more k-points.


--------------------------------------------------------------------------------
 Components of total free energy (in Hartree) :

    Kinetic energy  =  6.60748095347012E+01
    Hartree energy  =  2.34852651116219E+01
    XC energy       = -3.09209004094314E+01
    Ewald energy    = -1.67783490845544E+02
    PspCore energy  =  5.63640426658385E+00
    Loc. psp. energy= -1.06760185968429E+02
    NL   psp  energy=  1.73091989566999E+01
    >>>>>>>>> Etotal= -1.92958899353797E+02

 Other information on the energy :
    Total energy(eV)= -5.25067867951929E+03 ; Band energy (Ha)=  -1.6869444432E+01
--------------------------------------------------------------------------------



 Cartesian components of stress tensor (hartree/bohr^3)
  sigma(1 1)=  2.57352350E-02  sigma(3 2)=  0.00000000E+00
  sigma(2 2)=  2.57352350E-02  sigma(3 1)=  0.00000000E+00
  sigma(3 3)=  2.64170223E-02  sigma(2 1)=  0.00000000E+00

-Cartesian components of stress tensor (GPa)         [Pressure= -7.6384E+02 GPa]
- sigma(1 1)=  7.57156627E+02  sigma(3 2)=  0.00000000E+00
- sigma(2 2)=  7.57156627E+02  sigma(3 1)=  0.00000000E+00
- sigma(3 3)=  7.77215497E+02  sigma(2 1)=  0.00000000E+00

================================================================================
== DATASET  2 ==================================================================
-   nproc =    2

 mkfilename : getwfk/=0, take file _WFK from output of DATASET   1.

 Exchange-correlation functional for the present dataset will be:
  LDA: Perdew-Wang 92 LSD fit to Ceperley-Alder data - ixc=7
 Citation for XC functional:
  J.P.Perdew and Y.Wang, PRB 45, 13244 (1992)

 Real(R)+Recip(G) space primitive vectors, cartesian coordinates (Bohr,Bohr^-1):
 R(1)=  5.5284372  0.0000000  8.6433331  G(1)=  0.1205886  0.0000000  0.0385654
 R(2)= -2.7642186  4.7877671  8.6433331  G(2)= -0.0602943  0.1044328  0.0385654
 R(3)= -2.7642186 -4.7877671  8.6433331  G(3)= -0.0602943 -0.1044328  0.0385654
 Unit cell volume ucvol=  6.8633776E+02 bohr^3
 Angles (23,13,12)=  5.56324109E+01  5.56324109E+01  5.56324109E+01 degrees

 getcut: wavevector=  0.0000  0.0000  0.0000  ngfft=  16  16  16
         ecut(hartree)=      3.000   => boxcut(ratio)=   2.00793
--------------------------------------------------------------------------------

-inwffil : will read wavefunctions from disk file t06_MPI2o_DS1_WFK
_setup2: Arith. and geom. avg. npw (full set) are     170.000     169.973
  initberry: for direction 1, nkstr =   4, nstr =     16
  initberry: for direction 2, nkstr =   4, nstr =     16
  initberry: for direction 3, nkstr =   4, nstr =     16

 initberry: COMMENT - 
  As a rough estimate,
  to be below the critical field, the bandgap of your system
  should be larger than    0.06 eV.


================================================================================

     iter   Etot(hartree)      deltaE(h)  residm     vres2
 ETOT  1  -192.95713718756    -1.930E+02 7.732E-05 5.740E-01
 ETOT  2  -192.95882790146    -1.691E-03 1.473E-07 2.020E-02
 ETOT  3  -192.95889428652    -6.639E-05 2.704E-06 2.276E-03
 ETOT  4  -192.95890272043    -8.434E-06 2.305E-07 2.440E-05
 ETOT  5  -192.95890279792    -7.749E-08 1.275E-07 5.704E-07

 Computing the polarization (Berry phase) for reciprocal vector:
  0.25000  0.00000  0.00000 (in reduced coordinates)
  0.03015 -0.00000  0.00964 (in cartesian coordinates - atomic units)
 Number of strings:    16
 Number of k points in string:    4

 Summary of the results
 Electronic Berry phase     9.763503265E-01
            Ionic phase     9.998570024E-01
            Total phase     1.976207329E+00
    Remapping in [-1,1]    -2.379267107E-02

           Polarization    -2.738125639E-04 (a.u. of charge)/bohr^2
           Polarization    -1.566612053E-02 C/m^2


 Computing the polarization (Berry phase) for reciprocal vector:
  0.00000  0.25000  0.00000 (in reduced coordinates)
 -0.01507  0.02611  0.00964 (in cartesian coordinates - atomic units)
 Number of strings:    16
 Number of k points in string:    4

 Summary of the results
 Electronic Berry phase     9.648519793E-01
            Ionic phase     9.998570024E-01
            Total phase     1.964708982E+00
    Remapping in [-1,1]    -3.529101829E-02

           Polarization    -4.061386875E-04 (a.u. of charge)/bohr^2
           Polarization    -2.323712813E-02 C/m^2


 Computing the polarization (Berry phase) for reciprocal vector:
  0.00000  0.00000  0.25000 (in reduced coordinates)
 -0.01507 -0.02611  0.00964 (in cartesian coordinates - atomic units)
 Number of strings:    16
 Number of k points in string:    4

 Summary of the results
 Electronic Berry phase     9.648519786E-01
            Ionic phase     9.998570024E-01
            Total phase     1.964708981E+00
    Remapping in [-1,1]    -3.529101901E-02

           Polarization    -4.061386958E-04 (a.u. of charge)/bohr^2
           Polarization    -2.323712861E-02 C/m^2


 Polarization in cartesian coordinates (a.u.):
 (the sum of the electronic and ionic Berry phase has been folded into [-1, 1])
     Electronic berry phase:        0.926189635E-04   0.505027523E-11   0.365971340E-01
     Ionic:                        -0.526246911E-17  -0.985316457E-17   0.377748285E-01  
     Total:                         0.926189635E-04   0.505026715E-11  -0.118849943E-02

 Polarization in cartesian coordinates (C/m^2):
 (the sum of the electronic and ionic Berry phase has been folded into [-1, 1])
     Electronic berry phase:        0.529917191E-02   0.288950292E-09   0.209389629E+01
     Ionic:                        -0.301090915E-15  -0.563746461E-15   0.216127780E+01  
     Total:                         0.529917191E-02   0.288949830E-09  -0.679997112E-01

 Stress tensor under a constant electric field:

 Cartesian components of Maxwell stress tensor (hartree/bohr^3)
 Maxstr(1 1)=  3.16628699E-11 Maxstr(3 2)=  0.00000000E+00
 Maxstr(2 2)= -3.16628699E-11 Maxstr(3 1)=  0.00000000E+00
 Maxstr(3 3)= -3.16628699E-11 Maxstr(2 1)=  0.00000000E+00


 Cartesian components of stress tensor (hartree/bohr^3)
  sigma(1 1)=  2.57346487E-02  sigma(3 2)=  0.00000000E+00
  sigma(2 2)=  2.57359154E-02  sigma(3 1)= -1.02852568E-07
  sigma(3 3)=  2.64169727E-02  sigma(2 1)=  0.00000000E+00


 scprqt:  WARNING -
  nstep=    5 was not enough SCF cycles to converge;
  maximum energy difference=  7.749E-08 exceeds toldfe=  1.000E-10

 Integrated electronic density in atomic spheres:
 ------------------------------------------------
 Atom  Sphere_radius  Integrated_density
    1        2.00000          8.18045893
    2        2.00000          8.18045893
    3        2.00000          2.60986899
    4        2.00000          2.60986899
    5        2.00000          5.48683942
    6        2.00000          5.48667104
    7        2.00000          5.48644574
    8        2.00000          5.48644574
    9        2.00000          5.48667104
   10        2.00000          5.48683942
================================================================================

 ----iterations are completed or convergence reached----

 Mean square residual over all n,k,spin=   15.133E-09; max=  12.753E-08
 reduced coordinates (array xred) for   10 atoms
      -0.000621677490     -0.000621677490     -0.000621677490
       0.499378322510      0.499378322510      0.499378322510
       0.283111884692      0.283111884692      0.283111884692
       0.783111884692      0.783111884692      0.783111884692
       0.718535759432      0.367498001272      0.107078681712
       0.107078681712      0.718535759432      0.367498001272
       0.367498001272      0.107078681712      0.718535759432
       0.867498001272      0.218535759432      0.607078681712
       0.607078681712      0.867498001272      0.218535759432
       0.218535759432      0.607078681712      0.867498001272
 rms dE/dt=  4.9716E-01; max dE/dt=  7.8231E-01; dE/dt below (all hartree)
    1       0.773824934596      0.782307548808      0.779971471070
    2       0.773824934596      0.779971471070      0.782307548808
    3       0.225151662519      0.226051589378      0.226251767994
    4       0.225151662519      0.226251767994      0.226051589378
    5      -0.100650382809     -0.738854538979     -0.172736998356
    6      -0.166814180146     -0.101518576074     -0.733480505476
    7      -0.731591811812     -0.167445141301     -0.100767602647
    8      -0.731591811812     -0.100767602647     -0.167445141301
    9      -0.166814180146     -0.733480505476     -0.101518576074
   10      -0.100650382809     -0.172736998356     -0.738854538979

 cartesian coordinates (angstrom) at end:
    1      0.00000000000000    -0.00000000000000    -0.00853038785745
    2     -0.00000000000000     0.00000000000000     6.85225192666191
    3     -0.00000000000000    -0.00000000000000     3.88473802305216
    4     -0.00000000000000    -0.00000000000000    10.74552033757152
    5      1.40790037085701     0.65979245129279     5.45712316277572
    6     -1.27534720947327     0.88938126151331     5.45712316277572
    7     -0.13255316138375    -1.54917371280610     5.45712316277572
    8      1.33020831885815    -0.98440349032753     7.74405060094884
    9      0.18741427076863     1.64419594162032     7.74405060094884
   10     -1.51762258962679    -0.65979245129279     7.74405060094884

 cartesian forces (hartree/bohr) at end:
    1      0.00088279539866    -0.00024396317882    -0.09009503175737
    2      0.00088279539866     0.00024396317882    -0.09009503175737
    3      0.00012133135888     0.00002090521685    -0.02612862289931
    4      0.00012133135888    -0.00002090521685    -0.02612862289931
    5     -0.04282575473863     0.05912124949462     0.03903516375791
    6     -0.03022906341047    -0.06599756449543     0.03863297869259
    7      0.07205069139155     0.00696332318927     0.03855551220618
    8      0.07205069139155    -0.00696332318927     0.03855551220618
    9     -0.03022906341047     0.06599756449543     0.03863297869259
   10     -0.04282575473863    -0.05912124949462     0.03903516375791
 frms,max,avg= 4.4077269E-02 9.0095032E-02  -7.408E-07  0.000E+00  2.320E-06 h/b

 cartesian forces (eV/Angstrom) at end:
    1      0.04539516077592    -0.01254508999780    -4.63287241633320
    2      0.04539516077591     0.01254508999780    -4.63287241633320
    3      0.00623910880368     0.00107498938177    -1.34358769785413
    4      0.00623910880368    -0.00107498938177    -1.34358769785413
    5     -2.20218866642441     3.04013662751577     2.00726865747832
    6     -1.55444080893478    -3.39373093201700     1.98658747163441
    7      3.70499520577960     0.35806844506670     1.98260398507461
    8      3.70499520577959    -0.35806844506670     1.98260398507461
    9     -1.55444080893478     3.39373093201700     1.98658747163441
   10     -2.20218866642441    -3.04013662751577     2.00726865747832
 frms,max,avg= 2.2665441E+00 4.6328724E+00  -3.809E-05  0.000E+00  1.193E-04 e/A
 length scales= 10.260157145000 10.260157145000 10.260157145000 bohr
              =  5.429441317686  5.429441317686  5.429441317686 angstroms
 prteigrs : about to open file t06_MPI2o_DS2_EIG
 Fermi (or HOMO) energy (hartree) =   0.48826   Average Vxc (hartree)=  -0.47107
 Eigenvalues (hartree) for nkpt=  20  k points:
 kpt#   1, nband= 34, wtk=  0.03125, kpt=  0.1250  0.1250  0.1250 (reduced coord)
  -1.91252   -1.90585   -0.91617   -0.91616   -0.90450   -0.87518   -0.87517   -0.82171
  -0.77605   -0.77605   -0.73282   -0.71535   -0.71535   -0.65746   -0.44955   -0.41088
   0.18424    0.18961    0.18962    0.20220    0.20221    0.23297    0.30275    0.30276
   0.30579    0.37634    0.37634    0.39918    0.40977    0.40979    0.44373    0.45512
   0.46319    0.46320
 prteigrs : prtvol=0 or 1, do not print more k-points.


--------------------------------------------------------------------------------
 Components of total free energy (in Hartree) :

    Kinetic energy  =  6.60748099636635E+01
    Hartree energy  =  2.34852337216851E+01
    XC energy       = -3.09209018392801E+01
    Ewald energy    = -1.67783490845544E+02
    PspCore energy  =  5.63640426658385E+00
    Loc. psp. energy= -1.06760141906206E+02
    NL   psp  energy=  1.73091904710497E+01
    Electric energy = -6.62987435974577E-06
    Kohn-Sham energy= -1.92958896168048E+02
    >>>>>>>>> Etotal= -1.92958902797923E+02

 Other information on the energy :
    Total energy(eV)= -5.25067877323870E+03 ; Band energy (Ha)=  -1.6869350832E+01
--------------------------------------------------------------------------------



Constant unreduced E calculation  - final values:
 (a. u.)
       E:   1.000000000E-04   0.000000000E+00   0.000000000E+00  
       P:   9.261896354E-05   5.050267151E-12  -1.188499426E-03

    ebar:   5.528437191E-04  -2.764218595E-04  -2.764218595E-04  
    pbar:  -1.226547929E-01  -1.323064838E-01  -1.323064844E-01

       e:   6.586192089E-04  -3.293096045E-04  -3.293096045E-04  
       p:  -2.379267107E-02  -3.529101829E-02  -3.529101901E-02

 (S.I.), that is V/m for E, and C/m^2 for P
-      E:   5.142206319E+07   0.000000000E+00   0.000000000E+00  
       P:   5.299171908E-03   2.889498305E-10  -6.799971119E-02  


 Please check: COMMENT - 
  As a rough estimate,
  to be below the critical field, the bandgap of your system
  should be larger than    0.06 eV.

--------------------------------------------------------------------------------

 Cartesian components of stress tensor (hartree/bohr^3)
  sigma(1 1)=  2.57346487E-02  sigma(3 2)=  0.00000000E+00
  sigma(2 2)=  2.57359154E-02  sigma(3 1)= -1.02852568E-07
  sigma(3 3)=  2.64169727E-02  sigma(2 1)=  0.00000000E+00

-Cartesian components of stress tensor (GPa)         [Pressure= -7.6384E+02 GPa]
- sigma(1 1)=  7.57139378E+02  sigma(3 2)=  0.00000000E+00
- sigma(2 2)=  7.57176645E+02  sigma(3 1)= -3.02602651E-03
- sigma(3 3)=  7.77214038E+02  sigma(2 1)=  0.00000000E+00

== END DATASET(S) ==============================================================
================================================================================
  
 -outvars: echo values of variables after computation  --------
            acell      1.0260157145E+01  1.0260157145E+01  1.0260157145E+01 Bohr
              amu      9.29063800E+01  6.94100000E+00  1.59994000E+01
         berryopt1         -1
         berryopt2          4
           diemac      6.00000000E+00
             ecut      3.00000000E+00 Hartree
           efield1     0.00000000E+00  0.00000000E+00  0.00000000E+00
           efield2     1.00000000E-04  0.00000000E+00  0.00000000E+00
           etotal1    -1.9295889935E+02
           etotal2    -1.9295890280E+02
            fcart1     8.5624981437E-18  2.3798647364E-17 -9.0102112635E-02
                       1.6236042398E-18 -3.9569282513E-18 -9.0102112635E-02
                      -1.4376725664E-18 -3.2174053074E-18 -2.6127548640E-02
                      -1.4988926238E-18  3.1506345923E-18 -2.6127548640E-02
                      -4.2322553311E-02  5.9062986536E-02  3.8743220425E-02
                      -2.9988770108E-02 -6.6183899589E-02  3.8743220425E-02
                       7.2311323419E-02  7.1209130526E-03  3.8743220425E-02
                       7.2311323419E-02 -7.1209130526E-03  3.8743220425E-02
                      -2.9988770108E-02  6.6183899589E-02  3.8743220425E-02
                      -4.2322553311E-02 -5.9062986536E-02  3.8743220425E-02
            fcart2     8.8279539866E-04 -2.4396317882E-04 -9.0095031757E-02
                       8.8279539866E-04  2.4396317882E-04 -9.0095031757E-02
                       1.2133135888E-04  2.0905216847E-05 -2.6128622899E-02
                       1.2133135888E-04 -2.0905216847E-05 -2.6128622899E-02
                      -4.2825754739E-02  5.9121249495E-02  3.9035163758E-02
                      -3.0229063410E-02 -6.5997564495E-02  3.8632978693E-02
                       7.2050691392E-02  6.9633231893E-03  3.8555512206E-02
                       7.2050691392E-02 -6.9633231893E-03  3.8555512206E-02
                      -3.0229063410E-02  6.5997564495E-02  3.8632978693E-02
                      -4.2825754739E-02 -5.9121249495E-02  3.9035163758E-02
-          fftalg         312
           getwfk1          0
           getwfk2          1
              ixc           7
           jdtset        1    2
              kpt1     1.25000000E-01  1.25000000E-01  1.25000000E-01
                       3.75000000E-01  1.25000000E-01  1.25000000E-01
                      -3.75000000E-01  1.25000000E-01  1.25000000E-01
                      -1.25000000E-01  1.25000000E-01  1.25000000E-01
                       3.75000000E-01  3.75000000E-01  1.25000000E-01
                      -3.75000000E-01  3.75000000E-01  1.25000000E-01
                      -1.25000000E-01  3.75000000E-01  1.25000000E-01
                      -3.75000000E-01 -3.75000000E-01  1.25000000E-01
                       3.75000000E-01  3.75000000E-01  3.75000000E-01
                      -3.75000000E-01  3.75000000E-01  3.75000000E-01
              kpt2     1.25000000E-01  1.25000000E-01  1.25000000E-01
                       3.75000000E-01  1.25000000E-01  1.25000000E-01
                      -3.75000000E-01  1.25000000E-01  1.25000000E-01
                      -1.25000000E-01  1.25000000E-01  1.25000000E-01
                       1.25000000E-01  3.75000000E-01  1.25000000E-01
                       3.75000000E-01  3.75000000E-01  1.25000000E-01
                      -3.75000000E-01  3.75000000E-01  1.25000000E-01
                      -1.25000000E-01  3.75000000E-01  1.25000000E-01
                       1.25000000E-01 -3.75000000E-01  1.25000000E-01
                       3.75000000E-01 -3.75000000E-01  1.25000000E-01
                      -3.75000000E-01 -3.75000000E-01  1.25000000E-01
                      -1.25000000E-01 -3.75000000E-01  1.25000000E-01
                       1.25000000E-01 -1.25000000E-01  1.25000000E-01
                       3.75000000E-01 -1.25000000E-01  1.25000000E-01
                       1.25000000E-01  3.75000000E-01  3.75000000E-01
                       3.75000000E-01  3.75000000E-01  3.75000000E-01
                      -3.75000000E-01  3.75000000E-01  3.75000000E-01
                      -1.25000000E-01  3.75000000E-01  3.75000000E-01
                       1.25000000E-01 -3.75000000E-01  3.75000000E-01
                       3.75000000E-01 -3.75000000E-01  3.75000000E-01
         kptrlatt        4    0    0      0    4    0      0    0    4
          kptrlen      3.83021364E+01
P           mkmem1          5
P           mkmem2         10
            natom          10
            nband1         34
            nband2         34
           ndtset           2
            ngfft          16      16      16
             nkpt1         10
             nkpt2         20
            nstep1         12
            nstep2          5
             nsym1          6
             nsym2          2
           ntypat           3
              occ1     2.000000  2.000000  2.000000  2.000000  2.000000  2.000000
                       2.000000  2.000000  2.000000  2.000000  2.000000  2.000000
                       2.000000  2.000000  2.000000  2.000000  2.000000  2.000000
                       2.000000  2.000000  2.000000  2.000000  2.000000  2.000000
                       2.000000  2.000000  2.000000  2.000000  2.000000  2.000000
                       2.000000  2.000000  2.000000  2.000000
              occ2     2.000000  2.000000  2.000000  2.000000  2.000000  2.000000
                       2.000000  2.000000  2.000000  2.000000  2.000000  2.000000
                       2.000000  2.000000  2.000000  2.000000  2.000000  2.000000
                       2.000000  2.000000  2.000000  2.000000  2.000000  2.000000
                       2.000000  2.000000  2.000000  2.000000  2.000000  2.000000
                       2.000000  2.000000  2.000000  2.000000
            rfdir1          1       1       1
            rfdir2          0       0       0
            rprim      5.3882578138E-01  0.0000000000E+00  8.4241722283E-01
                      -2.6941289069E-01  4.6663681489E-01  8.4241722283E-01
                      -2.6941289069E-01 -4.6663681489E-01  8.4241722283E-01
           shiftk      5.00000000E-01  5.00000000E-01  5.00000000E-01
          spgroup1        161
          spgroup2          9
           strten1     2.5735234990E-02  2.5735234990E-02  2.6417022261E-02
                       0.0000000000E+00  0.0000000000E+00  0.0000000000E+00
           strten2     2.5734648705E-02  2.5735915408E-02  2.6416972672E-02
                       0.0000000000E+00 -1.0285256778E-07  0.0000000000E+00
           symafm1       1    1    1    1    1    1
           symafm2       1    1
           symrel1     1  0  0   0  1  0   0  0  1       0  1  0   1  0  0   0  0  1
                       0  0  1   1  0  0   0  1  0       1  0  0   0  0  1   0  1  0
                       0  1  0   0  0  1   1  0  0       0  0  1   0  1  0   1  0  0
           symrel2     1  0  0   0  1  0   0  0  1       1  0  0   0  0  1   0  1  0
            tnons1     0.0000000  0.0000000  0.0000000     0.5000000  0.5000000  0.5000000
                       0.0000000  0.0000000  0.0000000     0.5000000  0.5000000  0.5000000
                       0.0000000  0.0000000  0.0000000     0.5000000  0.5000000  0.5000000
            tnons2     0.0000000  0.0000000  0.0000000     0.5000000  0.5000000  0.5000000
           toldfe      1.00000000E-10 Hartree
            typat      1  1  2  2  3  3  3  3  3  3
              wtk1       0.03125    0.09375    0.09375    0.09375    0.09375    0.18750
                         0.18750    0.09375    0.03125    0.09375
              wtk2       0.03125    0.03125    0.03125    0.03125    0.06250    0.06250
                         0.06250    0.06250    0.06250    0.06250    0.06250    0.06250
                         0.06250    0.06250    0.03125    0.03125    0.03125    0.03125
                         0.06250    0.06250
           xangst      1.1978836860E-20 -1.1413845308E-20 -8.5303878575E-03
                       8.6745272971E-18 -4.7968896693E-17  6.8522519267E+00
                       8.8218982671E-17 -1.4026389730E-16  3.8847380231E+00
                      -3.9563706303E-16  4.9352250991E-16  1.0745520338E+01
                       1.4079003709E+00  6.5979245129E-01  5.4571231628E+00
                      -1.2753472095E+00  8.8938126151E-01  5.4571231628E+00
                      -1.3255316138E-01 -1.5491737128E+00  5.4571231628E+00
                       1.3302083189E+00 -9.8440349033E-01  7.7440506009E+00
                       1.8741427077E-01  1.6441959416E+00  7.7440506009E+00
                      -1.5176225896E+00 -6.5979245129E-01  7.7440506009E+00
            xcart      2.2636721056E-20 -2.1569041756E-20 -1.6120096858E-02
                       1.6392480924E-17 -9.0648077647E-17  1.2948879535E+01
                       1.6670971697E-16 -2.6506035222E-16  7.3410909616E+00
                      -7.4764569715E-16  9.3262238415E-16  2.0306090593E+01
                       2.6605461233E+00  1.2468270375E+00  1.0312468251E+01
                      -2.4100569502E+00  1.6806870120E+00  1.0312468251E+01
                      -2.5048917306E-01 -2.9275140495E+00  1.0312468251E+01
                       2.5137294223E+00 -1.8602530010E+00  1.4634134795E+01
                       3.5416164515E-01  3.1070800385E+00  1.4634134795E+01
                      -2.8678910675E+00 -1.2468270375E+00  1.4634134795E+01
             xred     -6.2167749000E-04 -6.2167749000E-04 -6.2167749000E-04
                       4.9937832251E-01  4.9937832251E-01  4.9937832251E-01
                       2.8311188469E-01  2.8311188469E-01  2.8311188469E-01
                       7.8311188469E-01  7.8311188469E-01  7.8311188469E-01
                       7.1853575943E-01  3.6749800127E-01  1.0707868171E-01
                       1.0707868171E-01  7.1853575943E-01  3.6749800127E-01
                       3.6749800127E-01  1.0707868171E-01  7.1853575943E-01
                       8.6749800127E-01  2.1853575943E-01  6.0707868171E-01
                       6.0707868171E-01  8.6749800127E-01  2.1853575943E-01
                       2.1853575943E-01  6.0707868171E-01  8.6749800127E-01
            znucl       41.00000    3.00000    8.00000

================================================================================


- Timing analysis has been suppressed with timopt=0



================================================================================

 Suggested references for the acknowledgment of ABINIT usage.

 The users of ABINIT have little formal obligations with respect to the ABINIT group
 (those specified in the GNU General Public License, http://www.gnu.org/copyleft/gpl.txt).
 However, it is common practice in the scientific literature,
 to acknowledge the efforts of people that have made the research possible.
 In this spirit, please find below suggested citations of work written by ABINIT developers,
 corresponding to implementations inside of ABINIT that you have used in the present run.
 Note also that it will be of great value to readers of publications presenting these results,
 to read papers enabling them to understand the theoretical formalism and details
 of the ABINIT implementation.
 For information on why they are suggested, see also https://docs.abinit.org/theory/acknowledgments.
-
- [1] Recent developments in the ABINIT software package.
- Computer Phys. Comm. 205, 106 (2016).
- X.Gonze, F.Jollet, F.Abreu Araujo, D.Adams, B.Amadon, T.Applencourt,
- C.Audouze, J.-M.Beuken, J.Bieder, A.Bokhanchuk, E.Bousquet, F.Bruneval
- D.Caliste, M.Cote, F.Dahm, F.Da Pieve, M.Delaveau, M.Di Gennaro,
- B.Dorado, C.Espejo, G.Geneste, L.Genovese, A.Gerossier, M.Giantomassi,
- Y.Gillet, D.R.Hamann, L.He, G.Jomard, J.Laflamme Janssen, S.Le Roux,
- A.Levitt, A.Lherbier, F.Liu, I.Lukacevic, A.Martin, C.Martins,
- M.J.T.Oliveira, S.Ponce, Y.Pouillon, T.Rangel, G.-M.Rignanese,
- A.H.Romero, B.Rousseau, O.Rubel, A.A.Shukri, M.Stankovski, M.Torrent,
- M.J.Van Setten, B.Van Troeye, M.J.Verstraete, D.Waroquier, J.Wiktor,
- B.Xu, A.Zhou, J.W.Zwanziger.
- Comment: the fourth generic paper describing the ABINIT project.
- Note that a version of this paper, that is not formatted for Computer Phys. Comm. 
- is available at https://www.abinit.org/about/ABINIT16.pdf .
- The licence allows the authors to put it on the Web.
- DOI and bibtex: see https://docs.abinit.org/theory/bibliography/#gonze2016
-
- [2] Ab initio pseudopotentials for electronic structure calculations of poly-atomic systems, 
- using density-functional theory.
- M. Fuchs, M. Scheffler, Comput. Phys. Commun. 119, 67 (1999).
- Comment: Some pseudopotential generated using the FHI code were used.
- DOI and bibtex: see https://docs.abinit.org/theory/bibliography/#fuchs1999
-
- [3] ABINIT: First-principles approach of materials and nanosystem properties.
- Computer Phys. Comm. 180, 2582-2615 (2009).
- X. Gonze, B. Amadon, P.-M. Anglade, J.-M. Beuken, F. Bottin, P. Boulanger, F. Bruneval,
- D. Caliste, R. Caracas, M. Cote, T. Deutsch, L. Genovese, Ph. Ghosez, M. Giantomassi
- S. Goedecker, D.R. Hamann, P. Hermet, F. Jollet, G. Jomard, S. Leroux, M. Mancini, S. Mazevet,
- M.J.T. Oliveira, G. Onida, Y. Pouillon, T. Rangel, G.-M. Rignanese, D. Sangalli, R. Shaltaf,
- M. Torrent, M.J. Verstraete, G. Zerah, J.W. Zwanziger
- Comment: the third generic paper describing the ABINIT project.
- Note that a version of this paper, that is not formatted for Computer Phys. Comm. 
- is available at https://www.abinit.org/about/ABINIT_CPC_v10.pdf .
- The licence allows the authors to put it on the Web.
- DOI and bibtex: see https://docs.abinit.org/theory/bibliography/#gonze2009
-
- [4] A brief introduction to the ABINIT software package.
- Z. Kristallogr. 220, 558-562 (2005).
- X. Gonze, G.-M. Rignanese, M. Verstraete, J.-M. Beuken, Y. Pouillon, R. Caracas, F. Jollet,
- M. Torrent, G. Zerah, M. Mikami, Ph. Ghosez, M. Veithen, J.-Y. Raty, V. Olevano, F. Bruneval,
- L. Reining, R. Godby, G. Onida, D.R. Hamann, and D.C. Allan.
- Comment: the second generic paper describing the ABINIT project. Note that this paper
- should be cited especially if you are using the GW part of ABINIT, as several authors
- of this part are not in the list of authors of the first or third paper.
- The .pdf of the latter paper is available at https://www.abinit.org/about/zfk_0505-06_558-562.pdf.
- Note that it should not redistributed (Copyright by Oldenburg Wissenshaftverlag,
- the licence allows the authors to put it on the Web).
- DOI and bibtex: see https://docs.abinit.org/theory/bibliography/#gonze2005
-
- And optionally:
-
- [5] First-principles computation of material properties: the ABINIT software project. 
- X. Gonze, J.-M. Beuken, R. Caracas, F. Detraux, M. Fuchs, G.-M. Rignanese, L. Sindic,
- M. Verstraete, G. Zerah, F. Jollet, M. Torrent, A. Roy, M. Mikami, Ph. Ghosez, J.-Y. Raty, D.C. Allan.
- Computational Materials Science 25, 478-492 (2002). http://dx.doi.org/10.1016/S0927-0256(02)00325-7
- Comment: the original paper describing the ABINIT project.
- DOI and bibtex : see https://docs.abinit.org/theory/bibliography/#gonze2002
-
- Proc.   0 individual time (sec): cpu=         75.1  wall=        185.1

================================================================================

 Calculation completed.
.Delivered   1 WARNINGs and   2 COMMENTs to log file.
+Overall time at end (sec) : cpu=        148.6  wall=        370.2
