
.Version 10.5.8.4 of ABINIT, released Oct 2025.
.(MPI version, prepared for a x86_64_linux_gnu13.2 computer) 

.Copyright (C) 1998-2025 ABINIT group . 
 ABINIT comes with ABSOLUTELY NO WARRANTY.
 It is free software, and you are welcome to redistribute it
 under certain conditions (GNU General Public License,
 see ~abinit/COPYING or http://www.gnu.org/copyleft/gpl.txt).

 ABINIT is a project of the Universite Catholique de Louvain,
 Corning Inc. and other collaborators, see ~abinit/doc/developers/contributors.txt .
 Please read https://docs.abinit.org/theory/acknowledgments for suggested
 acknowledgments of the ABINIT effort.
 For more information, see https://www.abinit.org .

.Starting date : Fri 14 Nov 2025.
- ( at 22h46 )
  
- input  file    -> /home/buildbot/ABINIT3/eos_gnu_13.2_mpichT/trunk_libxc7/tests/TestBot_MPI4/paral_t103_MPI4/t103.abi
- output file    -> t103_MPI4.abo
- root for input  files -> t103_MPI4i
- root for output files -> t103_MPI4o

- inpspheads : Reading pseudopotential header in XML form from 
-   /home/buildbot/ABINIT3/eos_gnu_13.2_mpichT/trunk_libxc7/tests/Pspdir/V.GGA_PBE-JTH.xml
 DATASET    1 : space group Im -3 m (#229); Bravais cI (body-center cubic)
================================================================================
 Values of the parameters that define the memory need for DATASET  1.
     intxc =       0    ionmov =       0      iscf =      17    lmnmax =      18
     lnmax =       6     mgfft =      18  mpssoang =       3    mqgrid =    3001
     natom =       1  nloc_mem =       2    nspden =       2   nspinor =       1
    nsppol =       2      nsym =      48    n1xccc =       1    ntypat =       1
    occopt =       3   xclevel =       2
-    mband =          20        mffmem =           1         mkmem =          10
       mpw =         268          nfft =        5832          nkpt =          20
 PAW method is used; the additional fine FFT grid is defined by:
   mgfftf=        27    nfftf =     19683
================================================================================
P This job should need less than                      14.718 Mbytes of memory.
  Rough estimation (10% accuracy) of disk space for files :
_ WF disk file :      3.273 Mbytes ; DEN or POT disk file :      0.302 Mbytes.
================================================================================

 DATASET    2 : space group Im -3 m (#229); Bravais cI (body-center cubic)
================================================================================
 Values of the parameters that define the memory need for DATASET  2.
     intxc =       0    ionmov =       0      iscf =      17    lmnmax =      18
     lnmax =       6     mgfft =      18  mpssoang =       3    mqgrid =    3001
     natom =       1  nloc_mem =       2    nspden =       2   nspinor =       1
    nsppol =       2      nsym =      48    n1xccc =       1    ntypat =       1
    occopt =       3   xclevel =       2
-    mband =          20        mffmem =           1         mkmem =          10
       mpw =         268          nfft =        5832          nkpt =          20
 PAW method is used; the additional fine FFT grid is defined by:
   mgfftf=        27    nfftf =     19683
================================================================================
P This job should need less than                      14.718 Mbytes of memory.
  Rough estimation (10% accuracy) of disk space for files :
_ WF disk file :      3.273 Mbytes ; DEN or POT disk file :      0.302 Mbytes.
================================================================================

--------------------------------------------------------------------------------
------------- Echo of variables that govern the present computation ------------
--------------------------------------------------------------------------------
-
- outvars: echo of selected default values
-   iomode0 =  0 , fftalg0 =512 , wfoptalg0 = 10
-
- outvars: echo of global parameters not present in the input file
-  max_nthreads =    0
-
 -outvars: echo values of preprocessed input variables --------
            acell      5.7220900000E+00  5.7220900000E+00  5.7220900000E+00 Bohr
              amu      5.09415000E+01
        dmftbandf1          0
        dmftbandf2         10
        dmftbandi1          0
        dmftbandi2          5
          dmft_dc1          1
          dmft_dc2          5
        dmft_iter1         10
        dmft_iter2          1
        dmft_mxsf1     6.0000000000E-01
        dmft_mxsf2     8.0000000000E-01
        dmft_nwli1          0
        dmft_nwli2    1000000
        dmft_nwlo1          0
        dmft_nwlo2       2001
        dmftqmc_l1          0
        dmftqmc_l2        500
        dmftqmc_n1     0.0000000000E+00
        dmftqmc_n2     1.0000000000E+06
    dmftqmc_therm1          0
    dmftqmc_therm2      50000
 dmft_wanorthnorm1          3
 dmft_wanorthnorm2          2
             ecut      1.50000000E+01 Hartree
-          fftalg         512
           getden          -1
              ixc     -101130
           jdtset        1    2
            jpawu1     0.00000000E+00 Hartree
            jpawu2     3.30743929E-02 Hartree
              kpt     -4.16666667E-02 -4.16666667E-02  1.25000000E-01
                      -4.16666667E-02 -4.16666667E-02  2.91666667E-01
                      -4.16666667E-02 -4.16666667E-02  4.58333333E-01
                      -1.25000000E-01 -1.25000000E-01  4.16666667E-02
                      -1.25000000E-01 -1.25000000E-01  3.75000000E-01
                      -4.16666667E-02 -2.08333333E-01  4.58333333E-01
                      -1.25000000E-01 -1.25000000E-01 -4.58333333E-01
                      -4.16666667E-02 -2.08333333E-01 -3.75000000E-01
                      -1.25000000E-01 -2.91666667E-01  4.16666667E-02
                      -2.08333333E-01 -2.08333333E-01  1.25000000E-01
                      -2.08333333E-01 -2.08333333E-01 -3.75000000E-01
                      -1.25000000E-01 -2.91666667E-01 -2.91666667E-01
                      -1.25000000E-01 -4.58333333E-01  4.16666667E-02
                      -2.91666667E-01 -2.91666667E-01  4.16666667E-02
                      -2.08333333E-01 -3.75000000E-01  1.25000000E-01
                      -2.91666667E-01 -2.91666667E-01  2.08333333E-01
                      -3.75000000E-01 -3.75000000E-01  1.25000000E-01
                      -2.91666667E-01 -4.58333333E-01  2.08333333E-01
                      -3.75000000E-01 -3.75000000E-01  2.91666667E-01
                      -4.58333333E-01 -4.58333333E-01  3.75000000E-01
         kptrlatt        6    0    6      0    6    6     -6   -6    0
          kptrlen      3.43325400E+01
            lpawu           2
P           mkmem          10
            natom           1
            nband          20
           ndtset           2
            ngfft          18      18      18
          ngfftdg          27      27      27
             nkpt          20
            nline1          5
            nline2         10
           nnsclo1          5
           nnsclo2         10
           nspden           2
           nsppol           2
            nstep1         30
            nstep2          1
             nsym          48
           ntypat           1
              occ      1.000000  1.000000  1.000000  1.000000  1.000000  1.000000
                       1.000000  0.000000  0.000000  0.000000  0.000000  0.000000
                       0.000000  0.000000  0.000000  0.000000  0.000000  0.000000
                       0.000000  0.000000
                       1.000000  1.000000  1.000000  1.000000  1.000000  1.000000
                       1.000000  0.000000  0.000000  0.000000  0.000000  0.000000
                       0.000000  0.000000  0.000000  0.000000  0.000000  0.000000
                       0.000000  0.000000
                       1.000000  1.000000  1.000000  1.000000  1.000000  1.000000
                       1.000000  0.000000  0.000000  0.000000  0.000000  0.000000
                       0.000000  0.000000  0.000000  0.000000  0.000000  0.000000
                       0.000000  0.000000
                       1.000000  1.000000  1.000000  1.000000  1.000000  1.000000
                       1.000000  0.000000  0.000000  0.000000  0.000000  0.000000
                       0.000000  0.000000  0.000000  0.000000  0.000000  0.000000
                       0.000000  0.000000
                       1.000000  1.000000  1.000000  1.000000  1.000000  1.000000
                       1.000000  0.000000  0.000000  0.000000  0.000000  0.000000
                       0.000000  0.000000  0.000000  0.000000  0.000000  0.000000
                       0.000000  0.000000
                       1.000000  1.000000  1.000000  1.000000  1.000000  1.000000
                       1.000000  0.000000  0.000000  0.000000  0.000000  0.000000
                       0.000000  0.000000  0.000000  0.000000  0.000000  0.000000
                       0.000000  0.000000
                       1.000000  1.000000  1.000000  1.000000  1.000000  1.000000
                       1.000000  0.000000  0.000000  0.000000  0.000000  0.000000
                       0.000000  0.000000  0.000000  0.000000  0.000000  0.000000
                       0.000000  0.000000
                       1.000000  1.000000  1.000000  1.000000  1.000000  1.000000
                       1.000000  0.000000  0.000000  0.000000  0.000000  0.000000
                       0.000000  0.000000  0.000000  0.000000  0.000000  0.000000
                       0.000000  0.000000
                       1.000000  1.000000  1.000000  1.000000  1.000000  1.000000
                       1.000000  0.000000  0.000000  0.000000  0.000000  0.000000
                       0.000000  0.000000  0.000000  0.000000  0.000000  0.000000
                       0.000000  0.000000
                       1.000000  1.000000  1.000000  1.000000  1.000000  1.000000
                       1.000000  0.000000  0.000000  0.000000  0.000000  0.000000
                       0.000000  0.000000  0.000000  0.000000  0.000000  0.000000
                       0.000000  0.000000
                       1.000000  1.000000  1.000000  1.000000  1.000000  1.000000
                       1.000000  0.000000  0.000000  0.000000  0.000000  0.000000
                       0.000000  0.000000  0.000000  0.000000  0.000000  0.000000
                       0.000000  0.000000
                       1.000000  1.000000  1.000000  1.000000  1.000000  1.000000
                       1.000000  0.000000  0.000000  0.000000  0.000000  0.000000
                       0.000000  0.000000  0.000000  0.000000  0.000000  0.000000
                       0.000000  0.000000
                       1.000000  1.000000  1.000000  1.000000  1.000000  1.000000
                       1.000000  0.000000  0.000000  0.000000  0.000000  0.000000
                       0.000000  0.000000  0.000000  0.000000  0.000000  0.000000
                       0.000000  0.000000
                       1.000000  1.000000  1.000000  1.000000  1.000000  1.000000
                       1.000000  0.000000  0.000000  0.000000  0.000000  0.000000
                       0.000000  0.000000  0.000000  0.000000  0.000000  0.000000
                       0.000000  0.000000
                       1.000000  1.000000  1.000000  1.000000  1.000000  1.000000
                       1.000000  0.000000  0.000000  0.000000  0.000000  0.000000
                       0.000000  0.000000  0.000000  0.000000  0.000000  0.000000
                       0.000000  0.000000
                       1.000000  1.000000  1.000000  1.000000  1.000000  1.000000
                       1.000000  0.000000  0.000000  0.000000  0.000000  0.000000
                       0.000000  0.000000  0.000000  0.000000  0.000000  0.000000
                       0.000000  0.000000
                       1.000000  1.000000  1.000000  1.000000  1.000000  1.000000
                       1.000000  0.000000  0.000000  0.000000  0.000000  0.000000
                       0.000000  0.000000  0.000000  0.000000  0.000000  0.000000
                       0.000000  0.000000
                       1.000000  1.000000  1.000000  1.000000  1.000000  1.000000
                       1.000000  0.000000  0.000000  0.000000  0.000000  0.000000
                       0.000000  0.000000  0.000000  0.000000  0.000000  0.000000
                       0.000000  0.000000
                       1.000000  1.000000  1.000000  1.000000  1.000000  1.000000
                       1.000000  0.000000  0.000000  0.000000  0.000000  0.000000
                       0.000000  0.000000  0.000000  0.000000  0.000000  0.000000
                       0.000000  0.000000
                       1.000000  1.000000  1.000000  1.000000  1.000000  1.000000
                       1.000000  0.000000  0.000000  0.000000  0.000000  0.000000
                       0.000000  0.000000  0.000000  0.000000  0.000000  0.000000
                       0.000000  0.000000
                       1.000000  1.000000  1.000000  1.000000  1.000000  1.000000
                       0.000000  0.000000  0.000000  0.000000  0.000000  0.000000
                       0.000000  0.000000  0.000000  0.000000  0.000000  0.000000
                       0.000000  0.000000
                       1.000000  1.000000  1.000000  1.000000  1.000000  1.000000
                       0.000000  0.000000  0.000000  0.000000  0.000000  0.000000
                       0.000000  0.000000  0.000000  0.000000  0.000000  0.000000
                       0.000000  0.000000
                       1.000000  1.000000  1.000000  1.000000  1.000000  1.000000
                       0.000000  0.000000  0.000000  0.000000  0.000000  0.000000
                       0.000000  0.000000  0.000000  0.000000  0.000000  0.000000
                       0.000000  0.000000
                       1.000000  1.000000  1.000000  1.000000  1.000000  1.000000
                       0.000000  0.000000  0.000000  0.000000  0.000000  0.000000
                       0.000000  0.000000  0.000000  0.000000  0.000000  0.000000
                       0.000000  0.000000
                       1.000000  1.000000  1.000000  1.000000  1.000000  1.000000
                       0.000000  0.000000  0.000000  0.000000  0.000000  0.000000
                       0.000000  0.000000  0.000000  0.000000  0.000000  0.000000
                       0.000000  0.000000
                       1.000000  1.000000  1.000000  1.000000  1.000000  1.000000
                       0.000000  0.000000  0.000000  0.000000  0.000000  0.000000
                       0.000000  0.000000  0.000000  0.000000  0.000000  0.000000
                       0.000000  0.000000
                       1.000000  1.000000  1.000000  1.000000  1.000000  1.000000
                       0.000000  0.000000  0.000000  0.000000  0.000000  0.000000
                       0.000000  0.000000  0.000000  0.000000  0.000000  0.000000
                       0.000000  0.000000
                       1.000000  1.000000  1.000000  1.000000  1.000000  1.000000
                       0.000000  0.000000  0.000000  0.000000  0.000000  0.000000
                       0.000000  0.000000  0.000000  0.000000  0.000000  0.000000
                       0.000000  0.000000
                       1.000000  1.000000  1.000000  1.000000  1.000000  1.000000
                       0.000000  0.000000  0.000000  0.000000  0.000000  0.000000
                       0.000000  0.000000  0.000000  0.000000  0.000000  0.000000
                       0.000000  0.000000
                       1.000000  1.000000  1.000000  1.000000  1.000000  1.000000
                       0.000000  0.000000  0.000000  0.000000  0.000000  0.000000
                       0.000000  0.000000  0.000000  0.000000  0.000000  0.000000
                       0.000000  0.000000
                       1.000000  1.000000  1.000000  1.000000  1.000000  1.000000
                       0.000000  0.000000  0.000000  0.000000  0.000000  0.000000
                       0.000000  0.000000  0.000000  0.000000  0.000000  0.000000
                       0.000000  0.000000
                       1.000000  1.000000  1.000000  1.000000  1.000000  1.000000
                       0.000000  0.000000  0.000000  0.000000  0.000000  0.000000
                       0.000000  0.000000  0.000000  0.000000  0.000000  0.000000
                       0.000000  0.000000
                       1.000000  1.000000  1.000000  1.000000  1.000000  1.000000
                       0.000000  0.000000  0.000000  0.000000  0.000000  0.000000
                       0.000000  0.000000  0.000000  0.000000  0.000000  0.000000
                       0.000000  0.000000
                       1.000000  1.000000  1.000000  1.000000  1.000000  1.000000
                       0.000000  0.000000  0.000000  0.000000  0.000000  0.000000
                       0.000000  0.000000  0.000000  0.000000  0.000000  0.000000
                       0.000000  0.000000
                       1.000000  1.000000  1.000000  1.000000  1.000000  1.000000
                       0.000000  0.000000  0.000000  0.000000  0.000000  0.000000
                       0.000000  0.000000  0.000000  0.000000  0.000000  0.000000
                       0.000000  0.000000
                       1.000000  1.000000  1.000000  1.000000  1.000000  1.000000
                       0.000000  0.000000  0.000000  0.000000  0.000000  0.000000
                       0.000000  0.000000  0.000000  0.000000  0.000000  0.000000
                       0.000000  0.000000
                       1.000000  1.000000  1.000000  1.000000  1.000000  1.000000
                       0.000000  0.000000  0.000000  0.000000  0.000000  0.000000
                       0.000000  0.000000  0.000000  0.000000  0.000000  0.000000
                       0.000000  0.000000
                       1.000000  1.000000  1.000000  1.000000  1.000000  1.000000
                       0.000000  0.000000  0.000000  0.000000  0.000000  0.000000
                       0.000000  0.000000  0.000000  0.000000  0.000000  0.000000
                       0.000000  0.000000
                       1.000000  1.000000  1.000000  1.000000  1.000000  1.000000
                       0.000000  0.000000  0.000000  0.000000  0.000000  0.000000
                       0.000000  0.000000  0.000000  0.000000  0.000000  0.000000
                       0.000000  0.000000
                       1.000000  1.000000  1.000000  1.000000  1.000000  1.000000
                       0.000000  0.000000  0.000000  0.000000  0.000000  0.000000
                       0.000000  0.000000  0.000000  0.000000  0.000000  0.000000
                       0.000000  0.000000
           occopt           3
        optforces1          2
        optforces2          0
-      paral_atom           0
        pawecutdg      3.00000000E+01 Hartree
        pawprtvol           3
           prtden          -1
           prtvol           4
            prtwf           0
            rprim     -5.0000000000E-01  5.0000000000E-01  5.0000000000E-01
                       5.0000000000E-01 -5.0000000000E-01  5.0000000000E-01
                       5.0000000000E-01  5.0000000000E-01 -5.0000000000E-01
           shiftk      5.00000000E-01  5.00000000E-01 -5.00000000E-01
          spgroup         229
           spinat      0.0000000000E+00  0.0000000000E+00  5.0000000000E-01
           symrel      1  0  0   0  1  0   0  0  1      -1  0  0   0 -1  0   0  0 -1
                      -1 -1 -1   0  0  1   0  1  0       1  1  1   0  0 -1   0 -1  0
                       0  1  0   1  0  0  -1 -1 -1       0 -1  0  -1  0  0   1  1  1
                       0  0  1  -1 -1 -1   1  0  0       0  0 -1   1  1  1  -1  0  0
                       0  1  0   1  0  0   0  0  1       0 -1  0  -1  0  0   0  0 -1
                      -1 -1 -1   0  0  1   1  0  0       1  1  1   0  0 -1  -1  0  0
                       1  0  0   0  1  0  -1 -1 -1      -1  0  0   0 -1  0   1  1  1
                       0  0  1  -1 -1 -1   0  1  0       0  0 -1   1  1  1   0 -1  0
                      -1 -1 -1   1  0  0   0  0  1       1  1  1  -1  0  0   0  0 -1
                       0  1  0   0  0  1   1  0  0       0 -1  0   0  0 -1  -1  0  0
                       1  0  0  -1 -1 -1   0  1  0      -1  0  0   1  1  1   0 -1  0
                       0  0  1   0  1  0  -1 -1 -1       0  0 -1   0 -1  0   1  1  1
                       1  0  0  -1 -1 -1   0  0  1      -1  0  0   1  1  1   0  0 -1
                       0  1  0   0  0  1  -1 -1 -1       0 -1  0   0  0 -1   1  1  1
                      -1 -1 -1   1  0  0   0  1  0       1  1  1  -1  0  0   0 -1  0
                       0  0  1   0  1  0   1  0  0       0  0 -1   0 -1  0  -1  0  0
                       0  1  0  -1 -1 -1   0  0  1       0 -1  0   1  1  1   0  0 -1
                       1  0  0   0  0  1  -1 -1 -1      -1  0  0   0  0 -1   1  1  1
                      -1 -1 -1   0  1  0   1  0  0       1  1  1   0 -1  0  -1  0  0
                       0  0  1   1  0  0   0  1  0       0  0 -1  -1  0  0   0 -1  0
                      -1 -1 -1   0  1  0   0  0  1       1  1  1   0 -1  0   0  0 -1
                       1  0  0   0  0  1   0  1  0      -1  0  0   0  0 -1   0 -1  0
                       0  1  0  -1 -1 -1   1  0  0       0 -1  0   1  1  1  -1  0  0
                       0  0  1   1  0  0  -1 -1 -1       0  0 -1  -1  0  0   1  1  1
           tolvrs      1.00000000E-12
           tsmear      3.80017850E-03 Hartree
            typat      1
            upawu1     0.00000000E+00 Hartree
            upawu2     8.45234484E-02 Hartree
          usedmft1          0
          usedmft2          1
          usepawu1          4
          usepawu2         14
           useylm           1
              wtk        0.01852    0.05556    0.05556    0.05556    0.01852    0.05556
                         0.05556    0.05556    0.11111    0.05556    0.01852    0.01852
                         0.05556    0.05556    0.11111    0.05556    0.01852    0.05556
                         0.05556    0.01852
            znucl       23.00000

================================================================================

 chkinp: Checking input parameters for consistency, jdtset=   1.

 chkinp: Checking input parameters for consistency, jdtset=   2.

================================================================================
== DATASET  1 ==================================================================
-   mpi_nproc: 4, omp_nthreads: -1 (-1 if OMP is not activated)


--- !DatasetInfo
iteration_state: {dtset: 1, }
dimensions: {natom: 1, nkpt: 20, mband: 20, nsppol: 2, nspinor: 1, nspden: 2, mpw: 268, }
cutoff_energies: {ecut:  15.0, pawecutdg:  30.0, }
electrons: {nelect:   1.30000000E+01, charge:   0.00000000E+00, occopt:   3.00000000E+00, tsmear:   3.80017850E-03, }
meta: {optdriver: 0, ionmov: 0, optcell: 0, iscf: 17, paral_kgb: 0, }
...

 Real(R)+Recip(G) space primitive vectors, cartesian coordinates (Bohr,Bohr^-1):
 R(1)= -2.8610450  2.8610450  2.8610450  G(1)=  0.0000000  0.1747613  0.1747613
 R(2)=  2.8610450 -2.8610450  2.8610450  G(2)=  0.1747613  0.0000000  0.1747613
 R(3)=  2.8610450  2.8610450 -2.8610450  G(3)=  0.1747613  0.1747613  0.0000000
 Unit cell volume ucvol=  9.3677234E+01 bohr^3
 Angles (23,13,12)=  1.09471221E+02  1.09471221E+02  1.09471221E+02 degrees

 Coarse grid specifications (used for wave-functions):

 getcut: wavevector=  0.0000  0.0000  0.0000  ngfft=  18  18  18
         ecut(hartree)=     15.000   => boxcut(ratio)=   2.08342

 Fine grid specifications (used for densities):

 getcut: wavevector=  0.0000  0.0000  0.0000  ngfft=  27  27  27
         ecut(hartree)=     30.000   => boxcut(ratio)=   2.13110

--- Pseudopotential description ------------------------------------------------
- pspini: atom type   1  psp file is /home/buildbot/ABINIT3/eos_gnu_13.2_mpichT/trunk_libxc7/tests/Pspdir/V.GGA_PBE-JTH.xml
- pspatm: opening atomic psp file    /home/buildbot/ABINIT3/eos_gnu_13.2_mpichT/trunk_libxc7/tests/Pspdir/V.GGA_PBE-JTH.xml
- pspatm : Reading pseudopotential header in XML form from /home/buildbot/ABINIT3/eos_gnu_13.2_mpichT/trunk_libxc7/tests/Pspdir/V.GGA_PBE-JTH.xml
 Pseudopotential format is: paw10
 basis_size (lnmax)=  6 (lmn_size= 18), orbitals=   0   0   1   1   2   2
 Spheres core radius: rc_sph= 2.20000000
 1 radial meshes are used:
  - mesh 1: r(i)=AA*[exp(BB*(i-1))-1], size= 910 , AA= 0.60796E-03 BB= 0.13983E-01
 Shapefunction is BESSEL type: shapef(r,l)=aa(1,l)*jl(q(1,l)*r)+aa(2,l)*jl(q(2,l)*r)
 Radius for shape functions =  2.02290427
 mmax=  910
 Radial grid used for partial waves is grid 1
 Radial grid used for projectors is grid 1
 Radial grid used for (t)core density is grid 1
 Radial grid used for Vloc is grid 1
 Radial grid used for pseudo valence density is grid 1
 Mesh size for Vloc has been set to  744 to avoid numerical noise.
 Compensation charge density is not taken into account in XC energy/potential
 pspatm: atomic psp has been read  and splines computed

   2.95802100E+02                                ecore*ucvol(ha*bohr**3)
--------------------------------------------------------------------------------

P newkpt: treating     20 bands with npw=     252 for ikpt=   1 by node    0
P newkpt: treating     20 bands with npw=     264 for ikpt=   2 by node    0
P newkpt: treating     20 bands with npw=     261 for ikpt=   3 by node    0
P newkpt: treating     20 bands with npw=     261 for ikpt=   4 by node    0
P newkpt: treating     20 bands with npw=     261 for ikpt=   5 by node    0
P newkpt: treating     20 bands with npw=     260 for ikpt=   6 by node    0
P newkpt: treating     20 bands with npw=     259 for ikpt=   7 by node    0
P newkpt: treating     20 bands with npw=     261 for ikpt=   8 by node    0
P newkpt: treating     20 bands with npw=     260 for ikpt=   9 by node    0
P newkpt: treating     20 bands with npw=     261 for ikpt=  10 by node    0
P newkpt: treating     20 bands with npw=     264 for ikpt=  11 by node    1
P newkpt: treating     20 bands with npw=     258 for ikpt=  12 by node    1
P newkpt: treating     20 bands with npw=     268 for ikpt=  13 by node    1
P newkpt: treating     20 bands with npw=     262 for ikpt=  14 by node    1
P newkpt: treating     20 bands with npw=     261 for ikpt=  15 by node    1
P newkpt: treating     20 bands with npw=     256 for ikpt=  16 by node    1
P newkpt: treating     20 bands with npw=     267 for ikpt=  17 by node    1
P newkpt: treating     20 bands with npw=     257 for ikpt=  18 by node    1
P newkpt: treating     20 bands with npw=     253 for ikpt=  19 by node    1
P newkpt: treating     20 bands with npw=     251 for ikpt=  20 by node    1
P newkpt: treating     20 bands with npw=     252 for ikpt=   1 by node    3
P newkpt: treating     20 bands with npw=     264 for ikpt=   2 by node    3
P newkpt: treating     20 bands with npw=     261 for ikpt=   3 by node    3
P newkpt: treating     20 bands with npw=     261 for ikpt=   4 by node    3
P newkpt: treating     20 bands with npw=     261 for ikpt=   5 by node    3
P newkpt: treating     20 bands with npw=     260 for ikpt=   6 by node    3
P newkpt: treating     20 bands with npw=     259 for ikpt=   7 by node    3
P newkpt: treating     20 bands with npw=     261 for ikpt=   8 by node    3
P newkpt: treating     20 bands with npw=     260 for ikpt=   9 by node    3
P newkpt: treating     20 bands with npw=     261 for ikpt=  10 by node    3
P newkpt: treating     20 bands with npw=     264 for ikpt=  11 by node    2
P newkpt: treating     20 bands with npw=     258 for ikpt=  12 by node    2
P newkpt: treating     20 bands with npw=     268 for ikpt=  13 by node    2
P newkpt: treating     20 bands with npw=     262 for ikpt=  14 by node    2
P newkpt: treating     20 bands with npw=     261 for ikpt=  15 by node    2
P newkpt: treating     20 bands with npw=     256 for ikpt=  16 by node    2
P newkpt: treating     20 bands with npw=     267 for ikpt=  17 by node    2
P newkpt: treating     20 bands with npw=     257 for ikpt=  18 by node    2
P newkpt: treating     20 bands with npw=     253 for ikpt=  19 by node    2
P newkpt: treating     20 bands with npw=     251 for ikpt=  20 by node    2
_setup2: Arith. and geom. avg. npw (full set) are     260.148     260.123


 ******************************************
 DFT+U Method used: FLL with no spin polarization in the xc functional
 ******************************************

================================================================================

--- !BeginCycle
iteration_state: {dtset: 1, }
solver: {iscf: 17, nstep: 30, nline: 5, wfoptalg: 10, }
tolerances: {tolvrs: 1.00E-12, }
...

     iter   Etot(hartree)      deltaE(h)  residm     nres2   difmagsph maxmagsph
 ETOT  1  -72.086731735946    -7.209E+01 1.355E-03 5.913E+00 0.000E+00 0.000E+00
 ETOT  2  -72.078254176151     8.478E-03 1.223E-05 1.322E+00 0.000E+00 0.000E+00
 ETOT  3  -72.074909776830     3.344E-03 9.550E-07 1.313E-01 0.000E+00 0.000E+00
 ETOT  4  -72.074787219237     1.226E-04 6.318E-08 3.560E-03 0.000E+00 0.000E+00
 ETOT  5  -72.074782876183     4.343E-06 3.225E-09 1.170E-04 0.000E+00 0.000E+00
 ETOT  6  -72.074782877492    -1.309E-09 8.437E-11 1.240E-06 0.000E+00 0.000E+00
 ETOT  7  -72.074782876636     8.559E-10 5.750E-12 2.172E-07 0.000E+00 0.000E+00
 ETOT  8  -72.074782876457     1.788E-10 4.885E-13 9.263E-09 0.000E+00 0.000E+00
 ETOT  9  -72.074782876393     6.376E-11 2.453E-14 2.831E-12 0.000E+00 0.000E+00
 ETOT 10  -72.074782876395    -1.648E-12 1.858E-15 6.008E-13 0.000E+00 0.000E+00

 At SCF step   10       nres2   =  6.01E-13 < tolvrs=  1.00E-12 =>converged.

 Cartesian components of stress tensor (hartree/bohr^3)
  sigma(1 1)=  1.58325731E-04  sigma(3 2)=  0.00000000E+00
  sigma(2 2)=  1.58325731E-04  sigma(3 1)=  0.00000000E+00
  sigma(3 3)=  1.58325731E-04  sigma(2 1)=  0.00000000E+00


--- !ResultsGS
iteration_state: {dtset: 1, }
comment   : Summary of ground state results
lattice_vectors:
- [ -2.8610450,   2.8610450,   2.8610450, ]
- [  2.8610450,  -2.8610450,   2.8610450, ]
- [  2.8610450,   2.8610450,  -2.8610450, ]
lattice_lengths: [   4.95548,    4.95548,    4.95548, ]
lattice_angles: [109.471, 109.471, 109.471, ] # degrees, (23, 13, 12)
lattice_volume:   9.3677234E+01
convergence: {deltae: -1.648E-12, res2:  6.008E-13, residm:  1.858E-15, diffor: null, }
etotal    :  -7.20747829E+01
entropy   :   0.00000000E+00
fermie    :   3.59738296E-01
cartesian_stress_tensor: # hartree/bohr^3
- [  1.58325731E-04,   0.00000000E+00,   0.00000000E+00, ]
- [  0.00000000E+00,   1.58325731E-04,   0.00000000E+00, ]
- [  0.00000000E+00,   0.00000000E+00,   1.58325731E-04, ]
pressure_GPa:  -4.6581E+00
xred      :
- [  0.0000E+00,   0.0000E+00,   0.0000E+00,  V]
cartesian_forces: # hartree/bohr
- [ -0.00000000E+00,  -0.00000000E+00,  -0.00000000E+00, ]
force_length_stats: {min:   0.00000000E+00, max:   0.00000000E+00, mean:   0.00000000E+00, }
...

 Integrated electronic and magnetization densities in atomic spheres:
 ------------------------------------------------------------------------------------------------------------
 Radius=ratsph(iatom), smearing ratsm=  0.0000. Diff(up-dn)=approximate z local magnetic moment.
    Atom    Radius    up_density   dn_density  Total(up+dn)  Diff(up-dn)
    1  V   2.20000     5.592263     5.592263     11.184526    -0.000000
 ------------------------------------------------------------------------------------------------------------
  Sum:                 5.592263     5.592263     11.184526    -0.000000
 Total magnetization (from the atomic spheres):               -0.000000
 Total magnetization (exact up - dn):                         -0.000000


 PAW TEST:
 ==== Compensation charge inside spheres ============
 The following values must be close to each other ...
 Compensation charge over spherical meshes =      5.091440670084282
 Compensation charge over fine fft grid    =      5.091441448851549

 ==== Results concerning PAW augmentation regions ====

 Total pseudopotential strength Dij (hartree):
 Atom #  1 - Spin component 1
  -0.53708   0.06951   0.00000   0.00000   0.00000   0.00000   0.00000   0.00000   0.00000   0.00000   0.00000   0.00000 ...
   0.06951   0.02148   0.00000   0.00000   0.00000   0.00000   0.00000   0.00000   0.00000   0.00000   0.00000   0.00000 ...
   0.00000   0.00000  -1.00490   0.00000   0.00000   0.21557   0.00000   0.00000   0.00000   0.00000   0.00000   0.00000 ...
   0.00000   0.00000   0.00000  -1.00490   0.00000   0.00000   0.21557   0.00000   0.00000   0.00000   0.00000   0.00000 ...
   0.00000   0.00000   0.00000   0.00000  -1.00490   0.00000   0.00000   0.21557   0.00000   0.00000   0.00000   0.00000 ...
   0.00000   0.00000   0.21557   0.00000   0.00000   0.18804   0.00000   0.00000   0.00000   0.00000   0.00000   0.00000 ...
   0.00000   0.00000   0.00000   0.21557   0.00000   0.00000   0.18804   0.00000   0.00000   0.00000   0.00000   0.00000 ...
   0.00000   0.00000   0.00000   0.00000   0.21557   0.00000   0.00000   0.18804   0.00000   0.00000   0.00000   0.00000 ...
   0.00000   0.00000   0.00000   0.00000   0.00000   0.00000   0.00000   0.00000   0.00057   0.00000   0.00000   0.00000 ...
   0.00000   0.00000   0.00000   0.00000   0.00000   0.00000   0.00000   0.00000   0.00000   0.00057   0.00000   0.00000 ...
   0.00000   0.00000   0.00000   0.00000   0.00000   0.00000   0.00000   0.00000   0.00000   0.00000   0.00049   0.00000 ...
   0.00000   0.00000   0.00000   0.00000   0.00000   0.00000   0.00000   0.00000   0.00000   0.00000   0.00000   0.00057 ...
   ...  only 12  components have been written...
 Atom #  1 - Spin component 2
  -0.53708   0.06951   0.00000   0.00000   0.00000   0.00000   0.00000   0.00000   0.00000   0.00000   0.00000   0.00000 ...
   0.06951   0.02148   0.00000   0.00000   0.00000   0.00000   0.00000   0.00000   0.00000   0.00000   0.00000   0.00000 ...
   0.00000   0.00000  -1.00490   0.00000   0.00000   0.21557   0.00000   0.00000   0.00000   0.00000   0.00000   0.00000 ...
   0.00000   0.00000   0.00000  -1.00490   0.00000   0.00000   0.21557   0.00000   0.00000   0.00000   0.00000   0.00000 ...
   0.00000   0.00000   0.00000   0.00000  -1.00490   0.00000   0.00000   0.21557   0.00000   0.00000   0.00000   0.00000 ...
   0.00000   0.00000   0.21557   0.00000   0.00000   0.18804   0.00000   0.00000   0.00000   0.00000   0.00000   0.00000 ...
   0.00000   0.00000   0.00000   0.21557   0.00000   0.00000   0.18804   0.00000   0.00000   0.00000   0.00000   0.00000 ...
   0.00000   0.00000   0.00000   0.00000   0.21557   0.00000   0.00000   0.18804   0.00000   0.00000   0.00000   0.00000 ...
   0.00000   0.00000   0.00000   0.00000   0.00000   0.00000   0.00000   0.00000   0.00057   0.00000   0.00000   0.00000 ...
   0.00000   0.00000   0.00000   0.00000   0.00000   0.00000   0.00000   0.00000   0.00000   0.00057   0.00000   0.00000 ...
   0.00000   0.00000   0.00000   0.00000   0.00000   0.00000   0.00000   0.00000   0.00000   0.00000   0.00049   0.00000 ...
   0.00000   0.00000   0.00000   0.00000   0.00000   0.00000   0.00000   0.00000   0.00000   0.00000   0.00000   0.00057 ...
   ...  only 12  components have been written...


 Augmentation waves occupancies Rhoij:
 Atom #  1 - Spin component 1
   0.99832  -0.01440   0.00000   0.00000   0.00000   0.00000   0.00000   0.00000   0.00000   0.00000   0.00000   0.00000 ...
  -0.01440   0.63909   0.00000   0.00000   0.00000   0.00000   0.00000   0.00000   0.00000   0.00000   0.00000   0.00000 ...
   0.00000   0.00000   0.99871   0.00000   0.00000  -0.00454   0.00000   0.00000   0.00000   0.00000   0.00000   0.00000 ...
   0.00000   0.00000   0.00000   0.99871   0.00000   0.00000  -0.00454   0.00000   0.00000   0.00000   0.00000   0.00000 ...
   0.00000   0.00000   0.00000   0.00000   0.99871   0.00000   0.00000  -0.00454   0.00000   0.00000   0.00000   0.00000 ...
   0.00000   0.00000  -0.00454   0.00000   0.00000   0.05985   0.00000   0.00000   0.00000   0.00000   0.00000   0.00000 ...
   0.00000   0.00000   0.00000  -0.00454   0.00000   0.00000   0.05985   0.00000   0.00000   0.00000   0.00000   0.00000 ...
   0.00000   0.00000   0.00000   0.00000  -0.00454   0.00000   0.00000   0.05985   0.00000   0.00000   0.00000   0.00000 ...
   0.00000   0.00000   0.00000   0.00000   0.00000   0.00000   0.00000   0.00000   0.42135   0.00000   0.00000   0.00000 ...
   0.00000   0.00000   0.00000   0.00000   0.00000   0.00000   0.00000   0.00000   0.00000   0.42135   0.00000   0.00000 ...
   0.00000   0.00000   0.00000   0.00000   0.00000   0.00000   0.00000   0.00000   0.00000   0.00000   0.33256   0.00000 ...
   0.00000   0.00000   0.00000   0.00000   0.00000   0.00000   0.00000   0.00000   0.00000   0.00000   0.00000   0.42135 ...
   ...  only 12  components have been written...
 Atom #  1 - Spin component 2
   0.99832  -0.01440   0.00000   0.00000   0.00000   0.00000   0.00000   0.00000   0.00000   0.00000   0.00000   0.00000 ...
  -0.01440   0.63909   0.00000   0.00000   0.00000   0.00000   0.00000   0.00000   0.00000   0.00000   0.00000   0.00000 ...
   0.00000   0.00000   0.99871   0.00000   0.00000  -0.00454   0.00000   0.00000   0.00000   0.00000   0.00000   0.00000 ...
   0.00000   0.00000   0.00000   0.99871   0.00000   0.00000  -0.00454   0.00000   0.00000   0.00000   0.00000   0.00000 ...
   0.00000   0.00000   0.00000   0.00000   0.99871   0.00000   0.00000  -0.00454   0.00000   0.00000   0.00000   0.00000 ...
   0.00000   0.00000  -0.00454   0.00000   0.00000   0.05985   0.00000   0.00000   0.00000   0.00000   0.00000   0.00000 ...
   0.00000   0.00000   0.00000  -0.00454   0.00000   0.00000   0.05985   0.00000   0.00000   0.00000   0.00000   0.00000 ...
   0.00000   0.00000   0.00000   0.00000  -0.00454   0.00000   0.00000   0.05985   0.00000   0.00000   0.00000   0.00000 ...
   0.00000   0.00000   0.00000   0.00000   0.00000   0.00000   0.00000   0.00000   0.42135   0.00000   0.00000   0.00000 ...
   0.00000   0.00000   0.00000   0.00000   0.00000   0.00000   0.00000   0.00000   0.00000   0.42135   0.00000   0.00000 ...
   0.00000   0.00000   0.00000   0.00000   0.00000   0.00000   0.00000   0.00000   0.00000   0.00000   0.33256   0.00000 ...
   0.00000   0.00000   0.00000   0.00000   0.00000   0.00000   0.00000   0.00000   0.00000   0.00000   0.00000   0.42135 ...
   ...  only 12  components have been written...

 "PAW+U" part of augmentation waves occupancies Rhoij:
 Atom #  1 - L=2 ONLY - Spin component 1
   0.42135   0.00000   0.00000   0.00000   0.00000   0.03957   0.00000   0.00000   0.00000   0.00000
   0.00000   0.42135   0.00000   0.00000   0.00000   0.00000   0.03957   0.00000   0.00000   0.00000
   0.00000   0.00000   0.33256   0.00000   0.00000   0.00000   0.00000   0.03722   0.00000   0.00000
   0.00000   0.00000   0.00000   0.42135   0.00000   0.00000   0.00000   0.00000   0.03957   0.00000
   0.00000   0.00000   0.00000   0.00000   0.33256   0.00000   0.00000   0.00000   0.00000   0.03722
   0.03957   0.00000   0.00000   0.00000   0.00000   0.00408   0.00000   0.00000   0.00000   0.00000
   0.00000   0.03957   0.00000   0.00000   0.00000   0.00000   0.00408   0.00000   0.00000   0.00000
   0.00000   0.00000   0.03722   0.00000   0.00000   0.00000   0.00000   0.00442   0.00000   0.00000
   0.00000   0.00000   0.00000   0.03957   0.00000   0.00000   0.00000   0.00000   0.00408   0.00000
   0.00000   0.00000   0.00000   0.00000   0.03722   0.00000   0.00000   0.00000   0.00000   0.00442
 Atom #  1 - L=2 ONLY - Spin component 2
   0.42135   0.00000   0.00000   0.00000   0.00000   0.03957   0.00000   0.00000   0.00000   0.00000
   0.00000   0.42135   0.00000   0.00000   0.00000   0.00000   0.03957   0.00000   0.00000   0.00000
   0.00000   0.00000   0.33256   0.00000   0.00000   0.00000   0.00000   0.03722   0.00000   0.00000
   0.00000   0.00000   0.00000   0.42135   0.00000   0.00000   0.00000   0.00000   0.03957   0.00000
   0.00000   0.00000   0.00000   0.00000   0.33256   0.00000   0.00000   0.00000   0.00000   0.03722
   0.03957   0.00000   0.00000   0.00000   0.00000   0.00408   0.00000   0.00000   0.00000   0.00000
   0.00000   0.03957   0.00000   0.00000   0.00000   0.00000   0.00408   0.00000   0.00000   0.00000
   0.00000   0.00000   0.03722   0.00000   0.00000   0.00000   0.00000   0.00442   0.00000   0.00000
   0.00000   0.00000   0.00000   0.03957   0.00000   0.00000   0.00000   0.00000   0.00408   0.00000
   0.00000   0.00000   0.00000   0.00000   0.03722   0.00000   0.00000   0.00000   0.00000   0.00442

 ---------- DFT+U DATA --------------------------------------------------- 

 ====== For Atom     1, occupations for correlated orbitals. lpawu =   2

 Atom   1. Occ. for lpawu and for spin  1 =   1.39067
 Atom   1. Occ. for lpawu and for spin  2 =   1.39067
 => On atom   1,  local Mag. for lpawu is        0.000000

 == Occupation matrix for correlated orbitals:

 Occupation matrix for spin  1
     0.30658    0.00000    0.00000    0.00000    0.00000
     0.00000    0.30658    0.00000    0.00000    0.00000
     0.00000    0.00000    0.23547    0.00000    0.00000
     0.00000    0.00000    0.00000    0.30658    0.00000
     0.00000    0.00000    0.00000    0.00000    0.23547


 Occupation matrix for spin  2
     0.30658    0.00000    0.00000    0.00000    0.00000
     0.00000    0.30658    0.00000    0.00000    0.00000
     0.00000    0.00000    0.23547    0.00000    0.00000
     0.00000    0.00000    0.00000    0.30658    0.00000
     0.00000    0.00000    0.00000    0.00000    0.23547



================================================================================

 ----iterations are completed or convergence reached----

 Mean square residual over all n,k,spin=   48.868E-19; max=  18.582E-16
  -0.0417 -0.0417  0.1250    1  2.40176E-22 kpt; spin; max resid(k); each band:
  1.16E-29 6.12E-30 2.51E-29 8.88E-30 1.84E-30 5.17E-30 2.56E-30 2.60E-30
  5.08E-30 5.64E-30 2.30E-30 5.29E-30 2.18E-30 4.70E-30 6.34E-30 4.56E-30
  6.89E-30 8.92E-30 1.10E-25 2.40E-22
  -0.0417 -0.0417  0.2917    1  1.36728E-24 kpt; spin; max resid(k); each band:
  1.20E-29 3.59E-30 2.29E-29 5.10E-30 3.06E-30 1.88E-30 4.29E-30 4.49E-30
  3.61E-30 3.30E-30 4.26E-30 2.95E-30 2.63E-30 6.48E-30 2.25E-29 7.32E-30
  4.61E-30 3.96E-30 3.55E-27 1.37E-24
  -0.0417 -0.0417  0.4583    1  1.00977E-25 kpt; spin; max resid(k); each band:
  1.00E-29 7.24E-30 3.95E-30 3.67E-30 2.65E-30 2.61E-30 3.60E-30 2.59E-30
  2.35E-30 2.37E-30 7.07E-30 2.59E-30 5.84E-30 4.91E-30 1.12E-28 7.72E-28
  4.10E-30 7.83E-30 6.26E-29 1.01E-25
  -0.1250 -0.1250  0.0417    1  5.59839E-29 kpt; spin; max resid(k); each band:
  7.53E-30 1.41E-29 1.08E-29 6.45E-30 3.32E-30 1.17E-30 9.18E-31 1.65E-30
  7.00E-30 2.28E-30 2.11E-30 2.04E-30 4.11E-30 2.79E-30 3.80E-29 3.43E-30
  1.51E-29 1.95E-30 1.75E-29 5.60E-29
  -0.1250 -0.1250  0.3750    1  8.04589E-23 kpt; spin; max resid(k); each band:
  8.21E-30 3.25E-30 5.48E-30 6.11E-30 2.82E-30 3.07E-30 9.51E-30 2.40E-30
  2.50E-30 1.75E-30 2.29E-30 3.01E-30 3.38E-30 1.74E-30 1.94E-30 3.57E-30
  3.03E-30 3.15E-30 3.41E-30 8.05E-23
  -0.0417 -0.2083  0.4583    1  6.43403E-27 kpt; spin; max resid(k); each band:
  1.95E-29 3.11E-30 7.33E-30 4.89E-30 2.54E-30 3.63E-30 2.35E-30 6.07E-30
  4.46E-30 3.44E-30 2.86E-30 2.65E-30 2.92E-30 5.09E-30 1.37E-27 9.67E-30
  5.97E-30 7.25E-30 7.25E-30 6.43E-27
  -0.1250 -0.1250 -0.4583    1  7.80735E-29 kpt; spin; max resid(k); each band:
  1.15E-29 5.47E-30 9.50E-30 4.53E-30 1.62E-30 1.87E-30 1.93E-30 3.29E-30
  1.96E-30 2.36E-30 7.81E-30 2.29E-30 5.40E-30 5.26E-30 3.87E-30 4.14E-30
  7.81E-29 2.84E-30 7.68E-29 4.10E-30
  -0.0417 -0.2083 -0.3750    1  2.16732E-23 kpt; spin; max resid(k); each band:
  9.61E-30 4.78E-30 7.69E-30 3.43E-30 2.95E-30 1.75E-30 2.40E-30 1.17E-30
  1.73E-30 1.62E-30 1.47E-30 3.00E-30 2.36E-30 1.59E-29 2.50E-30 5.85E-30
  7.62E-30 2.89E-30 2.17E-23 2.94E-24
  -0.1250 -0.2917  0.0417    1  4.59659E-22 kpt; spin; max resid(k); each band:
  8.71E-30 3.46E-30 3.78E-30 9.66E-30 1.75E-30 2.01E-30 1.33E-30 2.10E-30
  3.83E-30 2.05E-30 2.46E-30 5.16E-30 8.93E-30 2.09E-29 3.12E-30 8.19E-29
  4.88E-30 7.08E-30 3.01E-29 4.60E-22
  -0.2083 -0.2083  0.1250    1  6.13672E-25 kpt; spin; max resid(k); each band:
  1.60E-29 6.09E-30 3.55E-30 8.05E-30 3.65E-30 1.41E-30 1.55E-30 2.65E-30
  2.66E-30 1.63E-30 3.33E-30 7.92E-30 5.44E-30 6.74E-30 4.18E-30 2.54E-30
  5.55E-30 4.56E-30 1.03E-29 6.14E-25
  -0.2083 -0.2083 -0.3750    1  1.57960E-24 kpt; spin; max resid(k); each band:
  1.19E-29 6.96E-30 4.63E-30 6.93E-30 1.43E-30 4.03E-30 6.56E-31 4.73E-30
  3.92E-30 3.32E-30 3.00E-30 2.58E-30 3.31E-30 4.23E-30 7.33E-30 2.93E-30
  7.72E-30 2.31E-29 8.45E-28 1.58E-24
  -0.1250 -0.2917 -0.2917    1  9.62638E-17 kpt; spin; max resid(k); each band:
  1.05E-29 7.06E-30 1.06E-29 7.46E-30 1.36E-30 2.78E-30 1.36E-30 1.85E-30
  1.75E-30 2.22E-30 4.55E-30 4.51E-30 1.08E-30 2.84E-30 3.13E-30 2.78E-30
  2.34E-30 2.87E-30 1.84E-30 9.63E-17
  -0.1250 -0.4583  0.0417    1  9.03177E-20 kpt; spin; max resid(k); each band:
  1.13E-29 1.18E-29 6.68E-30 8.42E-30 2.41E-30 1.12E-30 4.01E-30 3.76E-30
  2.72E-30 3.18E-30 2.94E-30 4.01E-30 4.54E-30 6.67E-30 2.50E-30 2.46E-29
  5.24E-30 7.61E-30 9.83E-27 9.03E-20
  -0.2917 -0.2917  0.0417    1  4.46827E-22 kpt; spin; max resid(k); each band:
  8.06E-30 3.67E-30 6.98E-30 3.86E-30 2.57E-30 1.74E-30 1.74E-30 3.84E-30
  2.89E-30 2.08E-30 1.73E-30 3.02E-30 2.57E-30 3.53E-30 1.97E-29 5.71E-30
  2.87E-30 5.18E-30 3.97E-28 4.47E-22
  -0.2083 -0.3750  0.1250    1  1.46833E-19 kpt; spin; max resid(k); each band:
  6.30E-30 1.23E-29 4.45E-30 6.78E-30 3.28E-30 2.17E-30 6.40E-31 2.93E-30
  1.75E-30 4.49E-30 2.68E-30 6.68E-30 5.92E-30 1.57E-29 9.54E-30 1.11E-29
  8.56E-30 3.46E-29 3.72E-26 1.47E-19
  -0.2917 -0.2917  0.2083    1  2.96478E-26 kpt; spin; max resid(k); each band:
  5.92E-30 1.52E-29 9.26E-30 8.29E-30 3.99E-30 2.06E-30 2.81E-30 5.55E-31
  3.68E-30 2.92E-30 1.39E-30 4.06E-30 3.44E-30 3.64E-30 1.15E-28 8.92E-30
  9.80E-30 5.90E-30 4.58E-29 2.96E-26
  -0.3750 -0.3750  0.1250    1  9.27059E-23 kpt; spin; max resid(k); each band:
  9.70E-30 1.35E-29 1.11E-29 5.19E-30 3.13E-30 6.33E-30 1.71E-30 4.01E-30
  3.31E-30 4.28E-30 3.77E-30 3.15E-30 6.61E-30 1.01E-29 1.05E-29 3.17E-29
  6.44E-30 4.89E-30 3.21E-30 9.27E-23
  -0.2917 -0.4583  0.2083    1  1.85822E-15 kpt; spin; max resid(k); each band:
  1.04E-29 2.42E-29 5.43E-30 5.66E-30 4.14E-30 1.07E-30 1.26E-30 1.40E-30
  3.57E-30 2.33E-30 3.49E-30 2.27E-30 1.57E-30 2.67E-30 2.33E-30 1.52E-27
  9.30E-30 8.29E-30 7.74E-28 1.86E-15
  -0.3750 -0.3750  0.2917    1  2.57839E-27 kpt; spin; max resid(k); each band:
  8.25E-30 1.15E-29 1.11E-29 8.52E-30 3.24E-30 1.05E-30 1.43E-30 2.01E-30
  1.35E-30 6.26E-31 1.58E-30 2.18E-30 2.29E-30 3.32E-30 3.06E-30 2.77E-30
  9.32E-30 5.79E-30 1.87E-29 2.58E-27
  -0.4583 -0.4583  0.3750    1  4.27157E-22 kpt; spin; max resid(k); each band:
  3.00E-29 1.65E-29 1.01E-29 1.54E-29 3.23E-30 3.29E-30 1.05E-30 2.25E-30
  1.35E-30 2.72E-30 4.27E-30 9.80E-30 1.14E-30 2.74E-30 1.41E-30 7.21E-30
  1.82E-29 7.98E-29 6.22E-30 4.27E-22
  -0.0417 -0.0417  0.1250    2  2.40514E-22 kpt; spin; max resid(k); each band:
  1.17E-29 8.29E-30 9.85E-30 1.50E-29 1.20E-30 2.66E-30 2.17E-30 3.88E-30
  6.16E-30 3.13E-30 5.53E-30 3.02E-30 1.84E-30 9.04E-30 5.43E-30 7.07E-30
  4.78E-30 5.34E-30 1.10E-25 2.41E-22
  -0.0417 -0.0417  0.2917    2  1.35918E-24 kpt; spin; max resid(k); each band:
  1.21E-29 8.49E-30 9.74E-30 9.58E-30 8.02E-30 2.09E-30 4.98E-30 2.02E-30
  3.06E-30 1.37E-30 9.89E-31 3.03E-30 6.78E-30 5.64E-30 7.83E-30 4.43E-30
  7.17E-30 3.61E-30 3.65E-27 1.36E-24
  -0.0417 -0.0417  0.4583    2  1.00546E-25 kpt; spin; max resid(k); each band:
  1.08E-29 4.60E-30 3.92E-30 9.39E-30 1.90E-30 1.09E-30 3.39E-30 2.25E-30
  9.76E-31 2.85E-30 3.71E-30 2.69E-30 4.36E-30 1.89E-30 1.11E-28 7.44E-28
  5.15E-30 6.62E-30 6.82E-29 1.01E-25
  -0.1250 -0.1250  0.0417    2  5.77433E-29 kpt; spin; max resid(k); each band:
  1.73E-29 4.44E-30 5.38E-30 9.86E-30 1.94E-30 1.41E-30 1.84E-30 2.30E-30
  5.28E-30 1.33E-30 3.88E-30 2.21E-30 4.81E-30 4.41E-30 3.80E-29 2.92E-30
  1.02E-29 4.72E-30 2.28E-29 5.77E-29
  -0.1250 -0.1250  0.3750    2  8.04869E-23 kpt; spin; max resid(k); each band:
  1.14E-29 5.65E-30 5.64E-30 3.58E-30 2.40E-30 1.23E-30 1.26E-30 2.27E-30
  2.60E-30 3.37E-30 3.73E-30 1.68E-30 3.69E-30 3.92E-30 6.75E-30 4.37E-30
  2.50E-30 2.61E-30 7.17E-30 8.05E-23
  -0.0417 -0.2083  0.4583    2  6.42199E-27 kpt; spin; max resid(k); each band:
  1.09E-29 6.05E-30 6.99E-30 8.41E-30 3.16E-30 3.81E-30 3.04E-30 1.66E-30
  1.93E-30 1.71E-30 1.87E-30 5.69E-30 5.67E-30 2.37E-30 1.40E-27 2.64E-30
  5.71E-30 5.13E-30 1.28E-29 6.42E-27
  -0.1250 -0.1250 -0.4583    2  7.73255E-29 kpt; spin; max resid(k); each band:
  1.08E-29 2.19E-29 8.12E-30 1.03E-29 1.97E-30 2.25E-30 8.68E-31 2.81E-30
  1.53E-30 2.29E-30 3.01E-30 4.21E-30 2.82E-30 4.28E-30 2.92E-30 1.32E-29
  7.11E-29 1.01E-29 7.73E-29 6.52E-30
  -0.0417 -0.2083 -0.3750    2  2.16508E-23 kpt; spin; max resid(k); each band:
  9.73E-30 1.01E-29 2.81E-30 3.34E-30 1.21E-30 1.68E-30 1.19E-30 7.77E-31
  2.01E-30 1.78E-30 1.39E-30 4.65E-30 4.35E-30 1.62E-29 1.80E-30 5.84E-30
  9.48E-30 3.17E-30 2.17E-23 2.94E-24
  -0.1250 -0.2917  0.0417    2  4.59933E-22 kpt; spin; max resid(k); each band:
  5.74E-30 6.56E-30 1.23E-29 6.04E-30 1.11E-30 2.18E-30 1.72E-30 4.75E-30
  2.55E-30 1.55E-30 2.84E-30 5.36E-30 1.31E-29 2.50E-29 4.58E-30 8.02E-29
  3.52E-30 5.08E-30 2.99E-29 4.60E-22
  -0.2083 -0.2083  0.1250    2  6.13209E-25 kpt; spin; max resid(k); each band:
  5.90E-30 5.88E-30 4.62E-30 1.05E-29 2.97E-30 2.32E-30 3.45E-30 1.30E-30
  1.45E-30 2.15E-30 4.47E-30 2.33E-30 4.64E-30 4.28E-30 4.82E-30 3.79E-30
  4.59E-30 2.19E-30 6.08E-30 6.13E-25
  -0.2083 -0.2083 -0.3750    2  1.57590E-24 kpt; spin; max resid(k); each band:
  1.06E-29 3.54E-30 4.04E-30 5.53E-30 1.64E-30 2.08E-30 2.92E-30 1.24E-30
  2.78E-30 4.71E-30 2.17E-30 2.09E-30 2.53E-30 4.48E-30 3.16E-30 3.68E-30
  6.56E-30 3.10E-29 8.43E-28 1.58E-24
  -0.1250 -0.2917 -0.2917    2  9.62637E-17 kpt; spin; max resid(k); each band:
  7.09E-30 5.47E-30 1.50E-29 5.78E-30 2.08E-30 1.97E-30 2.38E-30 1.22E-30
  3.22E-30 2.09E-30 4.43E-30 3.25E-30 4.08E-30 3.98E-30 2.66E-30 5.08E-30
  8.39E-30 4.33E-30 4.33E-30 9.63E-17
  -0.1250 -0.4583  0.0417    2  9.02974E-20 kpt; spin; max resid(k); each band:
  9.11E-30 1.51E-29 1.41E-29 6.31E-30 1.67E-30 2.25E-30 1.75E-30 6.80E-30
  2.22E-30 1.75E-30 1.71E-30 4.68E-30 5.43E-30 9.52E-30 1.17E-30 1.96E-28
  4.50E-30 7.79E-30 9.85E-27 9.03E-20
  -0.2917 -0.2917  0.0417    2  4.46239E-22 kpt; spin; max resid(k); each band:
  1.31E-29 3.33E-30 1.63E-29 3.73E-30 1.18E-30 1.29E-30 2.29E-30 2.00E-30
  2.75E-30 2.90E-30 4.33E-30 1.69E-30 4.13E-30 7.33E-30 2.24E-29 5.20E-30
  3.86E-30 5.51E-30 3.61E-28 4.46E-22
  -0.2083 -0.3750  0.1250    2  1.46902E-19 kpt; spin; max resid(k); each band:
  1.15E-29 1.11E-29 4.65E-30 7.18E-30 3.38E-30 1.87E-30 8.69E-31 8.25E-31
  3.00E-30 3.17E-30 2.84E-30 3.65E-30 4.87E-30 1.56E-29 7.54E-30 3.71E-30
  4.31E-30 2.95E-29 3.73E-26 1.47E-19
  -0.2917 -0.2917  0.2083    2  2.95624E-26 kpt; spin; max resid(k); each band:
  1.71E-29 4.93E-30 1.45E-29 1.18E-29 3.41E-30 1.31E-30 2.89E-30 2.45E-30
  3.02E-30 3.27E-30 2.77E-30 2.96E-30 3.20E-30 4.51E-30 1.05E-28 2.80E-30
  1.34E-29 5.37E-30 3.61E-29 2.96E-26
  -0.3750 -0.3750  0.1250    2  9.26533E-23 kpt; spin; max resid(k); each band:
  1.66E-29 2.07E-29 1.72E-29 1.18E-29 4.78E-30 2.36E-30 2.16E-30 4.87E-30
  3.35E-30 6.37E-30 1.72E-30 3.46E-30 6.64E-30 1.01E-29 1.12E-29 2.25E-29
  7.40E-30 8.61E-30 9.04E-30 9.27E-23
  -0.2917 -0.4583  0.2083    2  1.85822E-15 kpt; spin; max resid(k); each band:
  1.05E-29 1.83E-29 1.62E-29 1.39E-29 4.82E-30 1.47E-30 2.32E-30 1.61E-30
  5.59E-31 2.42E-30 2.58E-30 3.27E-30 4.34E-30 5.32E-30 5.62E-30 1.49E-27
  5.24E-30 1.09E-29 8.17E-28 1.86E-15
  -0.3750 -0.3750  0.2917    2  2.50848E-27 kpt; spin; max resid(k); each band:
  5.33E-30 9.52E-30 8.69E-30 1.25E-29 1.66E-30 5.61E-31 5.06E-30 5.82E-30
  3.72E-30 2.39E-30 2.28E-30 2.32E-30 3.04E-30 1.12E-30 4.81E-30 4.93E-30
  4.76E-30 2.04E-30 1.80E-29 2.51E-27
  -0.4583 -0.4583  0.3750    2  4.27368E-22 kpt; spin; max resid(k); each band:
  3.36E-29 1.00E-29 1.62E-29 4.84E-30 3.12E-30 5.75E-30 2.82E-30 2.72E-30
  4.43E-30 1.94E-30 2.28E-30 1.18E-30 4.24E-30 2.40E-30 3.12E-30 6.86E-30
  5.04E-30 8.39E-29 7.19E-30 4.27E-22
 reduced coordinates (array xred) for    1 atoms
       0.000000000000      0.000000000000      0.000000000000
 rms dE/dt=  0.0000E+00; max dE/dt=  0.0000E+00; dE/dt below (all hartree)
    1       0.000000000000      0.000000000000      0.000000000000

 cartesian coordinates (angstrom) at end:
    1      0.00000000000000     0.00000000000000     0.00000000000000

 cartesian forces (hartree/bohr) at end:
    1     -0.00000000000000    -0.00000000000000    -0.00000000000000
 frms,max,avg= 0.0000000E+00 0.0000000E+00   0.000E+00  0.000E+00  0.000E+00 h/b

 cartesian forces (eV/Angstrom) at end:
    1     -0.00000000000000    -0.00000000000000    -0.00000000000000
 frms,max,avg= 0.0000000E+00 0.0000000E+00   0.000E+00  0.000E+00  0.000E+00 e/A
 length scales=  5.722090000000  5.722090000000  5.722090000000 bohr
              =  3.027999613501  3.027999613501  3.027999613501 angstroms
 prteigrs : about to open file t103_MPI4o_DS1_EIG
 Fermi (or HOMO) energy (hartree) =   0.35974   Average Vxc (hartree)=  -0.44558
 Magnetization (Bohr magneton)=  5.96145355E-12
 Total spin up =  6.50000000E+00   Total spin down =  6.50000000E+00
 Eigenvalues (hartree) for nkpt=  20  k points, SPIN UP:
 kpt#   1, nband= 20, wtk=  0.01852, kpt= -0.0417 -0.0417  0.1250 (reduced coord)
  -1.98339   -1.00768   -1.00467   -1.00467    0.13413    0.36939    0.36939    0.38665
   0.44173    0.44173    1.08545    1.08545    1.11868    1.34732    1.34732    1.35483
   1.46235    1.46235    1.59997    1.61965
      occupation numbers for kpt#   1
   1.00000    1.00000    1.00000    1.00000    1.00000    0.07303    0.07303    0.00084
   0.00000    0.00000    0.00000    0.00000    0.00000    0.00000    0.00000    0.00000
   0.00000    0.00000    0.00000    0.00000
 kpt#   2, nband= 20, wtk=  0.05556, kpt= -0.0417 -0.0417  0.2917 (reduced coord)
  -1.98070   -1.02025   -1.00890   -1.00483    0.20124    0.34373    0.35325    0.43408
   0.43962    0.44814    0.93739    1.01602    1.16584    1.17103    1.36101    1.36413
   1.46549    1.57904    1.68800    1.82755
      occupation numbers for kpt#   2
   1.00000    1.00000    1.00000    1.00000    1.00000    0.98541    0.84635    0.00000
   0.00000    0.00000    0.00000    0.00000    0.00000    0.00000    0.00000    0.00000
   0.00000    0.00000    0.00000    0.00000
 kpt#   3, nband= 20, wtk=  0.05556, kpt= -0.0417 -0.0417  0.4583 (reduced coord)
  -1.97798   -1.03203   -1.01343   -1.00499    0.24928    0.32227    0.38475    0.44438
   0.45571    0.50569    0.75569    0.93847    1.05715    1.19683    1.34057    1.43643
   1.52920    1.79207    1.80268    1.88306
      occupation numbers for kpt#   3
   1.00000    1.00000    1.00000    1.00000    1.00000    0.99995    0.00138    0.00000
   0.00000    0.00000    0.00000    0.00000    0.00000    0.00000    0.00000    0.00000
   0.00000    0.00000    0.00000    0.00000
 kpt#   4, nband= 20, wtk=  0.05556, kpt= -0.1250 -0.1250  0.0417 (reduced coord)
  -1.98188   -1.01362   -1.00727   -1.00571    0.17074    0.36198    0.36408    0.40729
   0.42016    0.45337    1.01434    1.06220    1.13275    1.24858    1.28133    1.38153
   1.50661    1.50873    1.65038    1.71993
      occupation numbers for kpt#   4
   1.00000    1.00000    1.00000    1.00000    1.00000    0.35644    0.24209    0.00000
   0.00000    0.00000    0.00000    0.00000    0.00000    0.00000    0.00000    0.00000
   0.00000    0.00000    0.00000    0.00000
 kpt#   5, nband= 20, wtk=  0.01852, kpt= -0.1250 -0.1250  0.3750 (reduced coord)
  -1.97978   -1.02396   -1.00795   -1.00795    0.23193    0.33343    0.33343    0.44508
   0.44508    0.47731    0.93489    0.93489    1.03570    1.21833    1.44404    1.44404
   1.54386    1.54386    1.58439    1.92978
      occupation numbers for kpt#   5
   1.00000    1.00000    1.00000    1.00000    1.00000    0.99902    0.99902    0.00000
   0.00000    0.00000    0.00000    0.00000    0.00000    0.00000    0.00000    0.00000
   0.00000    0.00000    0.00000    0.00000
 kpt#   6, nband= 20, wtk=  0.05556, kpt= -0.0417 -0.2083  0.4583 (reduced coord)
  -1.97833   -1.02783   -1.01348   -1.00734    0.26864    0.32249    0.33538    0.43902
   0.45765    0.52146    0.84737    0.86422    1.01757    1.23095    1.37701    1.49532
   1.56088    1.67161    1.70560    1.88071
      occupation numbers for kpt#   6
   1.00000    1.00000    1.00000    1.00000    1.00000    0.99994    0.99836    0.00000
   0.00000    0.00000    0.00000    0.00000    0.00000    0.00000    0.00000    0.00000
   0.00000    0.00000    0.00000    0.00000
 kpt#   7, nband= 20, wtk=  0.05556, kpt= -0.1250 -0.1250 -0.4583 (reduced coord)
  -1.97767   -1.02939   -1.01501   -1.00864    0.28018    0.31641    0.34703    0.44999
   0.45673    0.56544    0.76107    0.87494    0.92416    1.28726    1.45608    1.50292
   1.52276    1.76615    1.79195    1.81516
      occupation numbers for kpt#   7
   1.00000    1.00000    1.00000    1.00000    1.00000    0.99999    0.96590    0.00000
   0.00000    0.00000    0.00000    0.00000    0.00000    0.00000    0.00000    0.00000
   0.00000    0.00000    0.00000    0.00000
 kpt#   8, nband= 20, wtk=  0.05556, kpt= -0.0417 -0.2083 -0.3750 (reduced coord)
  -1.97715   -1.02931   -1.01861   -1.00804    0.28425    0.31819    0.35172    0.44805
   0.46036    0.60448    0.71413    0.81749    0.97951    1.26297    1.36716    1.52310
   1.68413    1.68721    1.85462    1.87982
      occupation numbers for kpt#   8
   1.00000    1.00000    1.00000    1.00000    1.00000    0.99998    0.89198    0.00000
   0.00000    0.00000    0.00000    0.00000    0.00000    0.00000    0.00000    0.00000
   0.00000    0.00000    0.00000    0.00000
 kpt#   9, nband= 20, wtk=  0.11111, kpt= -0.1250 -0.2917  0.0417 (reduced coord)
  -1.97881   -1.02678   -1.01241   -1.00611    0.24312    0.33619    0.35144    0.42800
   0.46017    0.47717    0.84492    0.95855    1.09128    1.20087    1.31037    1.38358
   1.57819    1.66147    1.76405    1.89326
      occupation numbers for kpt#   9
   1.00000    1.00000    1.00000    1.00000    1.00000    0.99797    0.89874    0.00000
   0.00000    0.00000    0.00000    0.00000    0.00000    0.00000    0.00000    0.00000
   0.00000    0.00000    0.00000    0.00000
 kpt#  10, nband= 20, wtk=  0.05556, kpt= -0.2083 -0.2083  0.1250 (reduced coord)
  -1.97939   -1.02056   -1.01189   -1.00914    0.22920    0.34974    0.36686    0.39813
   0.43434    0.47139    0.95130    0.97653    1.08828    1.13742    1.32068    1.41949
   1.52998    1.66634    1.72300    1.81449
      occupation numbers for kpt#  10
   1.00000    1.00000    1.00000    1.00000    1.00000    0.93283    0.13293    0.00004
   0.00000    0.00000    0.00000    0.00000    0.00000    0.00000    0.00000    0.00000
   0.00000    0.00000    0.00000    0.00000
 kpt#  11, nband= 20, wtk=  0.01852, kpt= -0.2083 -0.2083 -0.3750 (reduced coord)
  -1.97729   -1.02586   -1.01507   -1.01507    0.31479    0.31479    0.32144    0.45734
   0.45734    0.62950    0.78577    0.78577    0.81860    1.41721    1.51410    1.51410
   1.57148    1.71855    1.71855    1.87020
      occupation numbers for kpt#  11
   1.00000    1.00000    1.00000    1.00000    0.99999    0.99999    0.99996    0.00000
   0.00000    0.00000    0.00000    0.00000    0.00000    0.00000    0.00000    0.00000
   0.00000    0.00000    0.00000    0.00000
 kpt#  12, nband= 20, wtk=  0.01852, kpt= -0.1250 -0.2917 -0.2917 (reduced coord)
  -1.97710   -1.02264   -1.02264   -1.01179    0.30344    0.32636    0.32636    0.45732
   0.45732    0.69240    0.69240    0.75460    0.87691    1.40891    1.40891    1.61828
   1.66093    1.66093    1.71388    1.90336
      occupation numbers for kpt#  12
   1.00000    1.00000    1.00000    1.00000    1.00000    0.99985    0.99985    0.00000
   0.00000    0.00000    0.00000    0.00000    0.00000    0.00000    0.00000    0.00000
   0.00000    0.00000    0.00000    0.00000
 kpt#  13, nband= 20, wtk=  0.05556, kpt= -0.1250 -0.4583  0.0417 (reduced coord)
  -1.97727   -1.03320   -1.01509   -1.00614    0.25752    0.32628    0.37712    0.43716
   0.47881    0.52961    0.71777    0.91778    1.03222    1.21679    1.34168    1.37279
   1.64904    1.70894    1.89398    1.93661
      occupation numbers for kpt#  13
   1.00000    1.00000    1.00000    1.00000    1.00000    0.99985    0.01022    0.00000
   0.00000    0.00000    0.00000    0.00000    0.00000    0.00000    0.00000    0.00000
   0.00000    0.00000    0.00000    0.00000
 kpt#  14, nband= 20, wtk=  0.05556, kpt= -0.2917 -0.2917  0.0417 (reduced coord)
  -1.97692   -1.02874   -1.02003   -1.00785    0.29333    0.31529    0.34149    0.43875
   0.46302    0.58777    0.76510    0.78795    1.08281    1.18574    1.27292    1.56421
   1.61799    1.67801    1.86137    1.92446
      occupation numbers for kpt#  14
   1.00000    1.00000    1.00000    1.00000    1.00000    0.99999    0.99185    0.00000
   0.00000    0.00000    0.00000    0.00000    0.00000    0.00000    0.00000    0.00000
   0.00000    0.00000    0.00000    0.00000
 kpt#  15, nband= 20, wtk=  0.11111, kpt= -0.2083 -0.3750  0.1250 (reduced coord)
  -1.97688   -1.03004   -1.01685   -1.00930    0.27348    0.32997    0.35204    0.42143
   0.48016    0.53749    0.76562    0.89765    1.03171    1.19380    1.28804    1.44363
   1.56257    1.73080    1.86556    1.98297
      occupation numbers for kpt#  15
   1.00000    1.00000    1.00000    1.00000    1.00000    0.99960    0.88357    0.00000
   0.00000    0.00000    0.00000    0.00000    0.00000    0.00000    0.00000    0.00000
   0.00000    0.00000    0.00000    0.00000
 kpt#  16, nband= 20, wtk=  0.05556, kpt= -0.2917 -0.2917  0.2083 (reduced coord)
  -1.97675   -1.02529   -1.01740   -1.01379    0.27578    0.31492    0.38306    0.40911
   0.45998    0.51676    0.88114    0.88526    1.02397    1.05994    1.39205    1.48957
   1.54557    1.58893    1.83690    1.95967
      occupation numbers for kpt#  16
   1.00000    1.00000    1.00000    1.00000    1.00000    0.99999    0.00216    0.00000
   0.00000    0.00000    0.00000    0.00000    0.00000    0.00000    0.00000    0.00000
   0.00000    0.00000    0.00000    0.00000
 kpt#  17, nband= 20, wtk=  0.01852, kpt= -0.3750 -0.3750  0.1250 (reduced coord)
  -1.97591   -1.02582   -1.02582   -1.00999    0.30881    0.30881    0.33103    0.45709
   0.45709    0.68668    0.68668    0.75271    1.14463    1.14463    1.19401    1.47732
   1.70293    1.76058    1.76058    2.06807
      occupation numbers for kpt#  17
   1.00000    1.00000    1.00000    1.00000    1.00000    1.00000    0.99948    0.00000
   0.00000    0.00000    0.00000    0.00000    0.00000    0.00000    0.00000    0.00000
   0.00000    0.00000    0.00000    0.00000
 kpt#  18, nband= 20, wtk=  0.05556, kpt= -0.2917 -0.4583  0.2083 (reduced coord)
  -1.97542   -1.02922   -1.02085   -1.01368    0.28372    0.30356    0.37239    0.42785
   0.48998    0.62294    0.71604    0.83474    1.01094    1.12413    1.31010    1.42063
   1.58078    1.80619    1.89140    2.05486
      occupation numbers for kpt#  18
   1.00000    1.00000    1.00000    1.00000    1.00000    1.00000    0.03459    0.00000
   0.00000    0.00000    0.00000    0.00000    0.00000    0.00000    0.00000    0.00000
   0.00000    0.00000    0.00000    0.00000
 kpt#  19, nband= 20, wtk=  0.05556, kpt= -0.3750 -0.3750  0.2917 (reduced coord)
  -1.97468   -1.02653   -1.02230   -1.01848    0.27822    0.28117    0.41264    0.44474
   0.48137    0.61219    0.79139    0.79662    0.99404    1.02866    1.28489    1.47423
   1.67380    1.70252    1.91958    2.00166
      occupation numbers for kpt#  19
   1.00000    1.00000    1.00000    1.00000    1.00000    1.00000    0.00000    0.00000
   0.00000    0.00000    0.00000    0.00000    0.00000    0.00000    0.00000    0.00000
   0.00000    0.00000    0.00000    0.00000
 kpt#  20, nband= 20, wtk=  0.01852, kpt= -0.4583 -0.4583  0.3750 (reduced coord)
  -1.97357   -1.02518   -1.02518   -1.02233    0.26210    0.26210    0.45578    0.48445
   0.48445    0.71860    0.71860    0.73590    0.98510    0.98510    1.17611    1.52254
   1.77946    1.86860    1.86860    2.03085
      occupation numbers for kpt#  20
   1.00000    1.00000    1.00000    1.00000    1.00000    1.00000    0.00000    0.00000
   0.00000    0.00000    0.00000    0.00000    0.00000    0.00000    0.00000    0.00000
   0.00000    0.00000    0.00000    0.00000
 Eigenvalues (hartree) for nkpt=  20  k points, SPIN DOWN:
 kpt#   1, nband= 20, wtk=  0.01852, kpt= -0.0417 -0.0417  0.1250 (reduced coord)
  -1.98339   -1.00768   -1.00467   -1.00467    0.13413    0.36939    0.36939    0.38665
   0.44173    0.44173    1.08545    1.08545    1.11868    1.34732    1.34732    1.35483
   1.46235    1.46235    1.59997    1.61965
      occupation numbers for kpt#   1
   1.00000    1.00000    1.00000    1.00000    1.00000    0.07303    0.07303    0.00084
   0.00000    0.00000    0.00000    0.00000    0.00000    0.00000    0.00000    0.00000
   0.00000    0.00000    0.00000    0.00000
 kpt#   2, nband= 20, wtk=  0.05556, kpt= -0.0417 -0.0417  0.2917 (reduced coord)
  -1.98070   -1.02025   -1.00890   -1.00483    0.20124    0.34373    0.35325    0.43408
   0.43962    0.44814    0.93739    1.01602    1.16584    1.17103    1.36101    1.36413
   1.46549    1.57904    1.68800    1.82755
      occupation numbers for kpt#   2
   1.00000    1.00000    1.00000    1.00000    1.00000    0.98541    0.84635    0.00000
   0.00000    0.00000    0.00000    0.00000    0.00000    0.00000    0.00000    0.00000
   0.00000    0.00000    0.00000    0.00000
 kpt#   3, nband= 20, wtk=  0.05556, kpt= -0.0417 -0.0417  0.4583 (reduced coord)
  -1.97798   -1.03203   -1.01343   -1.00499    0.24928    0.32227    0.38475    0.44438
   0.45571    0.50569    0.75569    0.93847    1.05715    1.19683    1.34057    1.43643
   1.52920    1.79207    1.80268    1.88306
      occupation numbers for kpt#   3
   1.00000    1.00000    1.00000    1.00000    1.00000    0.99995    0.00138    0.00000
   0.00000    0.00000    0.00000    0.00000    0.00000    0.00000    0.00000    0.00000
   0.00000    0.00000    0.00000    0.00000
 kpt#   4, nband= 20, wtk=  0.05556, kpt= -0.1250 -0.1250  0.0417 (reduced coord)
  -1.98188   -1.01362   -1.00727   -1.00571    0.17074    0.36198    0.36408    0.40729
   0.42016    0.45337    1.01434    1.06220    1.13275    1.24858    1.28133    1.38153
   1.50661    1.50873    1.65038    1.71993
      occupation numbers for kpt#   4
   1.00000    1.00000    1.00000    1.00000    1.00000    0.35644    0.24209    0.00000
   0.00000    0.00000    0.00000    0.00000    0.00000    0.00000    0.00000    0.00000
   0.00000    0.00000    0.00000    0.00000
 kpt#   5, nband= 20, wtk=  0.01852, kpt= -0.1250 -0.1250  0.3750 (reduced coord)
  -1.97978   -1.02396   -1.00795   -1.00795    0.23193    0.33343    0.33343    0.44508
   0.44508    0.47731    0.93489    0.93489    1.03570    1.21833    1.44404    1.44404
   1.54386    1.54386    1.58439    1.92978
      occupation numbers for kpt#   5
   1.00000    1.00000    1.00000    1.00000    1.00000    0.99902    0.99902    0.00000
   0.00000    0.00000    0.00000    0.00000    0.00000    0.00000    0.00000    0.00000
   0.00000    0.00000    0.00000    0.00000
 kpt#   6, nband= 20, wtk=  0.05556, kpt= -0.0417 -0.2083  0.4583 (reduced coord)
  -1.97833   -1.02783   -1.01348   -1.00734    0.26864    0.32249    0.33538    0.43902
   0.45765    0.52146    0.84737    0.86422    1.01757    1.23095    1.37701    1.49532
   1.56088    1.67161    1.70560    1.88071
      occupation numbers for kpt#   6
   1.00000    1.00000    1.00000    1.00000    1.00000    0.99994    0.99836    0.00000
   0.00000    0.00000    0.00000    0.00000    0.00000    0.00000    0.00000    0.00000
   0.00000    0.00000    0.00000    0.00000
 kpt#   7, nband= 20, wtk=  0.05556, kpt= -0.1250 -0.1250 -0.4583 (reduced coord)
  -1.97767   -1.02939   -1.01501   -1.00864    0.28018    0.31641    0.34703    0.44999
   0.45673    0.56544    0.76107    0.87494    0.92416    1.28726    1.45608    1.50292
   1.52276    1.76615    1.79195    1.81516
      occupation numbers for kpt#   7
   1.00000    1.00000    1.00000    1.00000    1.00000    0.99999    0.96590    0.00000
   0.00000    0.00000    0.00000    0.00000    0.00000    0.00000    0.00000    0.00000
   0.00000    0.00000    0.00000    0.00000
 kpt#   8, nband= 20, wtk=  0.05556, kpt= -0.0417 -0.2083 -0.3750 (reduced coord)
  -1.97715   -1.02931   -1.01861   -1.00804    0.28425    0.31819    0.35172    0.44805
   0.46036    0.60448    0.71413    0.81749    0.97951    1.26297    1.36716    1.52310
   1.68413    1.68721    1.85462    1.87982
      occupation numbers for kpt#   8
   1.00000    1.00000    1.00000    1.00000    1.00000    0.99998    0.89198    0.00000
   0.00000    0.00000    0.00000    0.00000    0.00000    0.00000    0.00000    0.00000
   0.00000    0.00000    0.00000    0.00000
 kpt#   9, nband= 20, wtk=  0.11111, kpt= -0.1250 -0.2917  0.0417 (reduced coord)
  -1.97881   -1.02678   -1.01241   -1.00611    0.24312    0.33619    0.35144    0.42800
   0.46017    0.47717    0.84492    0.95855    1.09128    1.20087    1.31037    1.38358
   1.57819    1.66147    1.76405    1.89326
      occupation numbers for kpt#   9
   1.00000    1.00000    1.00000    1.00000    1.00000    0.99797    0.89874    0.00000
   0.00000    0.00000    0.00000    0.00000    0.00000    0.00000    0.00000    0.00000
   0.00000    0.00000    0.00000    0.00000
 kpt#  10, nband= 20, wtk=  0.05556, kpt= -0.2083 -0.2083  0.1250 (reduced coord)
  -1.97939   -1.02056   -1.01189   -1.00914    0.22920    0.34974    0.36686    0.39813
   0.43434    0.47139    0.95130    0.97653    1.08828    1.13742    1.32068    1.41949
   1.52998    1.66634    1.72300    1.81449
      occupation numbers for kpt#  10
   1.00000    1.00000    1.00000    1.00000    1.00000    0.93283    0.13293    0.00004
   0.00000    0.00000    0.00000    0.00000    0.00000    0.00000    0.00000    0.00000
   0.00000    0.00000    0.00000    0.00000
 kpt#  11, nband= 20, wtk=  0.01852, kpt= -0.2083 -0.2083 -0.3750 (reduced coord)
  -1.97729   -1.02586   -1.01507   -1.01507    0.31479    0.31479    0.32144    0.45734
   0.45734    0.62950    0.78577    0.78577    0.81860    1.41721    1.51410    1.51410
   1.57148    1.71855    1.71855    1.87020
      occupation numbers for kpt#  11
   1.00000    1.00000    1.00000    1.00000    0.99999    0.99999    0.99996    0.00000
   0.00000    0.00000    0.00000    0.00000    0.00000    0.00000    0.00000    0.00000
   0.00000    0.00000    0.00000    0.00000
 kpt#  12, nband= 20, wtk=  0.01852, kpt= -0.1250 -0.2917 -0.2917 (reduced coord)
  -1.97710   -1.02264   -1.02264   -1.01179    0.30344    0.32636    0.32636    0.45732
   0.45732    0.69240    0.69240    0.75460    0.87691    1.40891    1.40891    1.61828
   1.66093    1.66093    1.71388    1.90336
      occupation numbers for kpt#  12
   1.00000    1.00000    1.00000    1.00000    1.00000    0.99985    0.99985    0.00000
   0.00000    0.00000    0.00000    0.00000    0.00000    0.00000    0.00000    0.00000
   0.00000    0.00000    0.00000    0.00000
 kpt#  13, nband= 20, wtk=  0.05556, kpt= -0.1250 -0.4583  0.0417 (reduced coord)
  -1.97727   -1.03320   -1.01509   -1.00614    0.25752    0.32628    0.37712    0.43716
   0.47881    0.52961    0.71777    0.91778    1.03222    1.21679    1.34168    1.37279
   1.64904    1.70894    1.89398    1.93661
      occupation numbers for kpt#  13
   1.00000    1.00000    1.00000    1.00000    1.00000    0.99985    0.01022    0.00000
   0.00000    0.00000    0.00000    0.00000    0.00000    0.00000    0.00000    0.00000
   0.00000    0.00000    0.00000    0.00000
 kpt#  14, nband= 20, wtk=  0.05556, kpt= -0.2917 -0.2917  0.0417 (reduced coord)
  -1.97692   -1.02874   -1.02003   -1.00785    0.29333    0.31529    0.34149    0.43875
   0.46302    0.58777    0.76510    0.78795    1.08281    1.18574    1.27292    1.56421
   1.61799    1.67801    1.86137    1.92446
      occupation numbers for kpt#  14
   1.00000    1.00000    1.00000    1.00000    1.00000    0.99999    0.99185    0.00000
   0.00000    0.00000    0.00000    0.00000    0.00000    0.00000    0.00000    0.00000
   0.00000    0.00000    0.00000    0.00000
 kpt#  15, nband= 20, wtk=  0.11111, kpt= -0.2083 -0.3750  0.1250 (reduced coord)
  -1.97688   -1.03004   -1.01685   -1.00930    0.27348    0.32997    0.35204    0.42143
   0.48016    0.53749    0.76562    0.89765    1.03171    1.19380    1.28804    1.44363
   1.56257    1.73080    1.86556    1.98297
      occupation numbers for kpt#  15
   1.00000    1.00000    1.00000    1.00000    1.00000    0.99960    0.88357    0.00000
   0.00000    0.00000    0.00000    0.00000    0.00000    0.00000    0.00000    0.00000
   0.00000    0.00000    0.00000    0.00000
 kpt#  16, nband= 20, wtk=  0.05556, kpt= -0.2917 -0.2917  0.2083 (reduced coord)
  -1.97675   -1.02529   -1.01740   -1.01379    0.27578    0.31492    0.38306    0.40911
   0.45998    0.51676    0.88114    0.88526    1.02397    1.05994    1.39205    1.48957
   1.54557    1.58893    1.83690    1.95967
      occupation numbers for kpt#  16
   1.00000    1.00000    1.00000    1.00000    1.00000    0.99999    0.00216    0.00000
   0.00000    0.00000    0.00000    0.00000    0.00000    0.00000    0.00000    0.00000
   0.00000    0.00000    0.00000    0.00000
 kpt#  17, nband= 20, wtk=  0.01852, kpt= -0.3750 -0.3750  0.1250 (reduced coord)
  -1.97591   -1.02582   -1.02582   -1.00999    0.30881    0.30881    0.33103    0.45709
   0.45709    0.68668    0.68668    0.75271    1.14463    1.14463    1.19401    1.47732
   1.70293    1.76058    1.76058    2.06807
      occupation numbers for kpt#  17
   1.00000    1.00000    1.00000    1.00000    1.00000    1.00000    0.99948    0.00000
   0.00000    0.00000    0.00000    0.00000    0.00000    0.00000    0.00000    0.00000
   0.00000    0.00000    0.00000    0.00000
 kpt#  18, nband= 20, wtk=  0.05556, kpt= -0.2917 -0.4583  0.2083 (reduced coord)
  -1.97542   -1.02922   -1.02085   -1.01368    0.28372    0.30356    0.37239    0.42785
   0.48998    0.62294    0.71604    0.83474    1.01094    1.12413    1.31010    1.42063
   1.58078    1.80619    1.89140    2.05486
      occupation numbers for kpt#  18
   1.00000    1.00000    1.00000    1.00000    1.00000    1.00000    0.03459    0.00000
   0.00000    0.00000    0.00000    0.00000    0.00000    0.00000    0.00000    0.00000
   0.00000    0.00000    0.00000    0.00000
 kpt#  19, nband= 20, wtk=  0.05556, kpt= -0.3750 -0.3750  0.2917 (reduced coord)
  -1.97468   -1.02653   -1.02230   -1.01848    0.27822    0.28117    0.41264    0.44474
   0.48137    0.61219    0.79139    0.79662    0.99404    1.02866    1.28489    1.47423
   1.67380    1.70252    1.91958    2.00166
      occupation numbers for kpt#  19
   1.00000    1.00000    1.00000    1.00000    1.00000    1.00000    0.00000    0.00000
   0.00000    0.00000    0.00000    0.00000    0.00000    0.00000    0.00000    0.00000
   0.00000    0.00000    0.00000    0.00000
 kpt#  20, nband= 20, wtk=  0.01852, kpt= -0.4583 -0.4583  0.3750 (reduced coord)
  -1.97357   -1.02518   -1.02518   -1.02233    0.26210    0.26210    0.45578    0.48445
   0.48445    0.71860    0.71860    0.73590    0.98510    0.98510    1.17611    1.52254
   1.77946    1.86860    1.86860    2.03085
      occupation numbers for kpt#  20
   1.00000    1.00000    1.00000    1.00000    1.00000    1.00000    0.00000    0.00000
   0.00000    0.00000    0.00000    0.00000    0.00000    0.00000    0.00000    0.00000
   0.00000    0.00000    0.00000    0.00000
 Total charge density [el/Bohr^3]
)     Maximum=    1.9986E+00  at reduced coord.    0.0000    0.0000    0.0000
)Next maximum=    1.9450E+00  at reduced coord.    0.9630    0.9630    0.9630
)     Minimum=    3.3639E-02  at reduced coord.    0.5185    0.4815    0.0000
)Next minimum=    3.3639E-02  at reduced coord.    0.4815    0.5185    0.0000
   Integrated=    1.3000E+01
 Spin up density      [el/Bohr^3]
)     Maximum=    9.9930E-01  at reduced coord.    0.0000    0.0000    0.0000
)Next maximum=    9.7248E-01  at reduced coord.    0.9630    0.9630    0.9630
)     Minimum=    1.6819E-02  at reduced coord.    0.5185    0.4815    0.0000
)Next minimum=    1.6819E-02  at reduced coord.    0.4815    0.5185    0.0000
   Integrated=    6.5000E+00
 Spin down density    [el/Bohr^3]
)     Maximum=    9.9930E-01  at reduced coord.    0.0000    0.0000    0.0000
)Next maximum=    9.7248E-01  at reduced coord.    0.9630    0.9630    0.9630
)     Minimum=    1.6819E-02  at reduced coord.    0.5185    0.4815    0.0000
)Next minimum=    1.6819E-02  at reduced coord.    0.4815    0.5185    0.0000
   Integrated=    6.5000E+00
 Magnetization (spin up - spin down) [el/Bohr^3]
)     Maximum=    0.0000E+00  at reduced coord.    0.9630    0.9630    0.9630
)Next maximum=    0.0000E+00  at reduced coord.    0.9259    0.9630    0.9630
)     Minimum=    0.0000E+00  at reduced coord.    0.0000    0.0000    0.0000
)Next minimum=    0.0000E+00  at reduced coord.    0.0370    0.0000    0.0000
   Integrated=    0.0000E+00
 Relative magnetization (=zeta, between -1 and 1)
)     Maximum=    0.0000E+00  at reduced coord.    0.9630    0.9630    0.9630
)Next maximum=    0.0000E+00  at reduced coord.    0.9259    0.9630    0.9630
)     Minimum=    0.0000E+00  at reduced coord.    0.0000    0.0000    0.0000
)Next minimum=    0.0000E+00  at reduced coord.    0.0370    0.0000    0.0000

--- !EnergyTerms
iteration_state     : {dtset: 1, }
comment             : Components of total free energy in Hartree
kinetic             :  9.89361719782287E+00
hartree             :  1.38086474345285E+01
xc                  : -3.81354197994382E+00
Ewald energy        : -5.37417668165815E+01
psp_core            :  3.15767330369733E+00
local_psp           : -4.32960673856631E+01
PAW spherical_terms :  1.91865333700096E+00
internal            : -7.20727849091388E+01
'-kT*entropy'       : -1.99789946748579E-03
total_energy        : -7.20747828086063E+01
total_energy_eV     : -1.96125458163111E+03
...


--- !EnergyTermsDC
iteration_state     : {dtset: 1, }
comment             : '"Double-counting" decomposition of free energy'
band_energy         : -8.54943903853010E+00
Ewald energy        : -5.37417668165815E+01
psp_core            :  3.15767330369733E+00
xc_dc               : -1.28219624173856E+01
PAW spherical_terms : -1.17290008127554E-01
internal            : -7.20727849769274E+01
'-kT*entropy'       : -1.99789946748579E-03
total_energy_dc     : -7.20747828763949E+01
total_energy_dc_eV  : -1.96125458347574E+03
...


--- !EnergyTermsWithPAWCore
iteration_state     : {dtset: 1, }
comment             : 'Components of total free energy, including PAW core contributions'
Total energy        : -9.49314499993991E+02
Total energy DC     : -9.49314500061780E+02
Total energy (eV)   : -2.58321612632005E+04
Total energy DC (eV): -2.58321612650451E+04
...


 Cartesian components of stress tensor (hartree/bohr^3)
  sigma(1 1)=  1.58325731E-04  sigma(3 2)=  0.00000000E+00
  sigma(2 2)=  1.58325731E-04  sigma(3 1)=  0.00000000E+00
  sigma(3 3)=  1.58325731E-04  sigma(2 1)=  0.00000000E+00

-Cartesian components of stress tensor (GPa)         [Pressure= -4.6581E+00 GPa]
- sigma(1 1)=  4.65810305E+00  sigma(3 2)=  0.00000000E+00
[...]
                       0.000000  0.000000  0.000000  0.000000  0.000000  0.000000
                       0.000000  0.000000
                       1.000000  1.000000  1.000000  1.000000  0.969486  0.958806
                       0.942894  0.024430  0.020531  0.007146  0.000000  0.000000
                       0.000000  0.000000  0.000000  0.000000  0.000000  0.000000
                       0.000000  0.000000
                       1.000000  1.000000  1.000000  1.000000  0.992642  0.948510
                       0.931250  0.032349  0.021700  0.023566  0.000000  0.000000
                       0.000000  0.000000  0.000000  0.000000  0.000000  0.000000
                       0.000000  0.000000
                       1.000000  1.000000  1.000000  1.000000  0.997846  0.932335
                       0.627918  0.055481  0.042130  0.015449  0.000000  0.000000
                       0.000000  0.000000  0.000000  0.000000  0.000000  0.000000
                       0.000000  0.000000
                       1.000000  1.000000  1.000000  1.000000  0.960035  0.960035
                       0.978560  0.018886  0.018886  0.006597  0.000000  0.000000
                       0.000000  0.000000  0.000000  0.000000  0.000000  0.000000
                       0.000000  0.000000
                       1.000000  1.000000  1.000000  1.000000  0.963946  0.971922
                       0.954844  0.019604  0.019662  0.003866  0.000000  0.000000
                       0.000000  0.000000  0.000000  0.000000  0.000000  0.000000
                       0.000000  0.000000
                       1.000000  1.000000  1.000000  1.000000  0.974602  0.954389
                       0.086631  0.028503  0.018292  0.013599  0.000000  0.000000
                       0.000000  0.000000  0.000000  0.000000  0.000000  0.000000
                       0.000000  0.000000
                       1.000000  1.000000  1.000000  1.000000  0.977584  0.961973
                       0.955409  0.030992  0.023090  0.007718  0.000000  0.000000
                       0.000000  0.000000  0.000000  0.000000  0.000000  0.000000
                       0.000000  0.000000
                       1.000000  1.000000  1.000000  1.000000  0.979993  0.967441
                       0.915687  0.039153  0.024320  0.009178  0.000000  0.000000
                       0.000000  0.000000  0.000000  0.000000  0.000000  0.000000
                       0.000000  0.000000
                       1.000000  1.000000  1.000000  1.000000  0.989613  0.964002
                       0.142436  0.056607  0.031958  0.008744  0.000000  0.000000
                       0.000000  0.000000  0.000000  0.000000  0.000000  0.000000
                       0.000000  0.000000
                       1.000000  1.000000  1.000000  1.000000  0.977280  0.965112
                       0.951297  0.028797  0.030605  0.003053  0.000000  0.000000
                       0.000000  0.000000  0.000000  0.000000  0.000000  0.000000
                       0.000000  0.000000
                       1.000000  1.000000  1.000000  1.000000  0.970860  0.978129
                       0.406713  0.042258  0.024922  0.003086  0.000000  0.000000
                       0.000000  0.000000  0.000000  0.000000  0.000000  0.000000
                       0.000000  0.000000
                       1.000000  1.000000  1.000000  1.000000  0.980489  0.971672
                       0.055375  0.037812  0.027145  0.002840  0.000000  0.000000
                       0.000000  0.000000  0.000000  0.000000  0.000000  0.000000
                       0.000000  0.000000
                       1.000000  1.000000  1.000000  1.000000  0.977101  0.974800
                       0.034392  0.026426  0.027138  0.000714  0.000000  0.000000
                       0.000000  0.000000  0.000000  0.000000  0.000000  0.000000
                       0.000000  0.000000
                       1.000000  1.000000  1.000000  1.000000  0.999981  0.097734
                       0.097734  0.054039  0.017571  0.017571  0.000000  0.000000
                       0.000000  0.000000  0.000000  0.000000  0.000000  0.000000
                       0.000000  0.000000
                       1.000000  1.000000  1.000000  1.000000  0.998407  0.788377
                       0.481795  0.021185  0.027514  0.016825  0.000000  0.000000
                       0.000000  0.000000  0.000000  0.000000  0.000000  0.000000
                       0.000000  0.000000
                       1.000000  1.000000  1.000000  1.000000  0.977077  0.933516
                       0.020290  0.020620  0.015867  0.015548  0.000000  0.000000
                       0.000000  0.000000  0.000000  0.000000  0.000000  0.000000
                       0.000000  0.000000
                       1.000000  1.000000  1.000000  1.000000  0.999738  0.182880
                       0.145375  0.039526  0.022061  0.016104  0.000000  0.000000
                       0.000000  0.000000  0.000000  0.000000  0.000000  0.000000
                       0.000000  0.000000
                       1.000000  1.000000  1.000000  1.000000  0.997984  0.909190
                       0.909190  0.018060  0.018060  0.019440  0.000000  0.000000
                       0.000000  0.000000  0.000000  0.000000  0.000000  0.000000
                       0.000000  0.000000
                       1.000000  1.000000  1.000000  1.000000  0.988353  0.939211
                       0.912972  0.020617  0.016250  0.012694  0.000000  0.000000
                       0.000000  0.000000  0.000000  0.000000  0.000000  0.000000
                       0.000000  0.000000
                       1.000000  1.000000  1.000000  1.000000  0.971101  0.940187
                       0.838859  0.018329  0.015869  0.008286  0.000000  0.000000
                       0.000000  0.000000  0.000000  0.000000  0.000000  0.000000
                       0.000000  0.000000
                       1.000000  1.000000  1.000000  1.000000  0.959826  0.939791
                       0.741885  0.019438  0.016769  0.004964  0.000000  0.000000
                       0.000000  0.000000  0.000000  0.000000  0.000000  0.000000
                       0.000000  0.000000
                       1.000000  1.000000  1.000000  1.000000  0.990765  0.894633
                       0.628623  0.024470  0.017410  0.017803  0.000000  0.000000
                       0.000000  0.000000  0.000000  0.000000  0.000000  0.000000
                       0.000000  0.000000
                       1.000000  1.000000  1.000000  1.000000  0.997612  0.645325
                       0.117050  0.036399  0.029426  0.013489  0.000000  0.000000
                       0.000000  0.000000  0.000000  0.000000  0.000000  0.000000
                       0.000000  0.000000
                       1.000000  1.000000  1.000000  1.000000  0.942030  0.942030
                       0.972242  0.016009  0.016009  0.004571  0.000000  0.000000
                       0.000000  0.000000  0.000000  0.000000  0.000000  0.000000
                       0.000000  0.000000
                       1.000000  1.000000  1.000000  1.000000  0.949069  0.961440
                       0.929329  0.016405  0.016441  0.002451  0.000000  0.000000
                       0.000000  0.000000  0.000000  0.000000  0.000000  0.000000
                       0.000000  0.000000
                       1.000000  1.000000  1.000000  1.000000  0.968389  0.927288
                       0.023079  0.022095  0.014434  0.009972  0.000000  0.000000
                       0.000000  0.000000  0.000000  0.000000  0.000000  0.000000
                       0.000000  0.000000
                       1.000000  1.000000  1.000000  1.000000  0.970424  0.950212
                       0.888580  0.023365  0.018029  0.005864  0.000000  0.000000
                       0.000000  0.000000  0.000000  0.000000  0.000000  0.000000
                       0.000000  0.000000
                       1.000000  1.000000  1.000000  1.000000  0.975848  0.955727
                       0.534290  0.028379  0.018165  0.007584  0.000000  0.000000
                       0.000000  0.000000  0.000000  0.000000  0.000000  0.000000
                       0.000000  0.000000
                       1.000000  1.000000  1.000000  1.000000  0.989019  0.957167
                       0.057099  0.037440  0.023091  0.007869  0.000000  0.000000
                       0.000000  0.000000  0.000000  0.000000  0.000000  0.000000
                       0.000000  0.000000
                       1.000000  1.000000  1.000000  1.000000  0.974208  0.957686
                       0.914847  0.021340  0.022505  0.002265  0.000000  0.000000
                       0.000000  0.000000  0.000000  0.000000  0.000000  0.000000
                       0.000000  0.000000
                       1.000000  1.000000  1.000000  1.000000  0.965660  0.976018
                       0.081833  0.029739  0.018264  0.002699  0.000000  0.000000
                       0.000000  0.000000  0.000000  0.000000  0.000000  0.000000
                       0.000000  0.000000
                       1.000000  1.000000  1.000000  1.000000  0.978733  0.967750
                       0.036721  0.026789  0.019761  0.002538  0.000000  0.000000
                       0.000000  0.000000  0.000000  0.000000  0.000000  0.000000
                       0.000000  0.000000
                       1.000000  1.000000  1.000000  1.000000  0.974523  0.971663
                       0.024578  0.019236  0.019721  0.000581  0.000000  0.000000
                       0.000000  0.000000  0.000000  0.000000  0.000000  0.000000
                       0.000000  0.000000
           occopt           3
        optforces1          2
        optforces2          0
-      paral_atom           0
        pawecutdg      3.00000000E+01 Hartree
        pawprtvol           3
           prtden          -1
           prtvol           4
            prtwf           0
            rprim     -5.0000000000E-01  5.0000000000E-01  5.0000000000E-01
                       5.0000000000E-01 -5.0000000000E-01  5.0000000000E-01
                       5.0000000000E-01  5.0000000000E-01 -5.0000000000E-01
           shiftk      5.00000000E-01  5.00000000E-01 -5.00000000E-01
          spgroup         229
           spinat      0.0000000000E+00  0.0000000000E+00  5.0000000000E-01
           strten1     1.5832573141E-04  1.5832573141E-04  1.5832573141E-04
                       0.0000000000E+00  0.0000000000E+00  0.0000000000E+00
           strten2     8.7403683523E-04  8.7403683523E-04  8.7403683523E-04
                       0.0000000000E+00  0.0000000000E+00  0.0000000000E+00
           symrel      1  0  0   0  1  0   0  0  1      -1  0  0   0 -1  0   0  0 -1
                      -1 -1 -1   0  0  1   0  1  0       1  1  1   0  0 -1   0 -1  0
                       0  1  0   1  0  0  -1 -1 -1       0 -1  0  -1  0  0   1  1  1
                       0  0  1  -1 -1 -1   1  0  0       0  0 -1   1  1  1  -1  0  0
                       0  1  0   1  0  0   0  0  1       0 -1  0  -1  0  0   0  0 -1
                      -1 -1 -1   0  0  1   1  0  0       1  1  1   0  0 -1  -1  0  0
                       1  0  0   0  1  0  -1 -1 -1      -1  0  0   0 -1  0   1  1  1
                       0  0  1  -1 -1 -1   0  1  0       0  0 -1   1  1  1   0 -1  0
                      -1 -1 -1   1  0  0   0  0  1       1  1  1  -1  0  0   0  0 -1
                       0  1  0   0  0  1   1  0  0       0 -1  0   0  0 -1  -1  0  0
                       1  0  0  -1 -1 -1   0  1  0      -1  0  0   1  1  1   0 -1  0
                       0  0  1   0  1  0  -1 -1 -1       0  0 -1   0 -1  0   1  1  1
                       1  0  0  -1 -1 -1   0  0  1      -1  0  0   1  1  1   0  0 -1
                       0  1  0   0  0  1  -1 -1 -1       0 -1  0   0  0 -1   1  1  1
                      -1 -1 -1   1  0  0   0  1  0       1  1  1  -1  0  0   0 -1  0
                       0  0  1   0  1  0   1  0  0       0  0 -1   0 -1  0  -1  0  0
                       0  1  0  -1 -1 -1   0  0  1       0 -1  0   1  1  1   0  0 -1
                       1  0  0   0  0  1  -1 -1 -1      -1  0  0   0  0 -1   1  1  1
                      -1 -1 -1   0  1  0   1  0  0       1  1  1   0 -1  0  -1  0  0
                       0  0  1   1  0  0   0  1  0       0  0 -1  -1  0  0   0 -1  0
                      -1 -1 -1   0  1  0   0  0  1       1  1  1   0 -1  0   0  0 -1
                       1  0  0   0  0  1   0  1  0      -1  0  0   0  0 -1   0 -1  0
                       0  1  0  -1 -1 -1   1  0  0       0 -1  0   1  1  1  -1  0  0
                       0  0  1   1  0  0  -1 -1 -1       0  0 -1  -1  0  0   1  1  1
           tolvrs      1.00000000E-12
           tsmear      3.80017850E-03 Hartree
            typat      1
            upawu1     0.00000000E+00 Hartree
            upawu2     8.45234484E-02 Hartree
          usedmft1          0
          usedmft2          1
          usepawu1          4
          usepawu2         14
           useylm           1
              wtk        0.01852    0.05556    0.05556    0.05556    0.01852    0.05556
                         0.05556    0.05556    0.11111    0.05556    0.01852    0.01852
                         0.05556    0.05556    0.11111    0.05556    0.01852    0.05556
                         0.05556    0.01852
            znucl       23.00000

================================================================================


- Timing analysis has been suppressed with timopt=0



================================================================================

 Suggested references for the acknowledgment of ABINIT usage.

 The users of ABINIT have little formal obligations with respect to the ABINIT group
 (those specified in the GNU General Public License, http://www.gnu.org/copyleft/gpl.txt).
 However, it is common practice in the scientific literature,
 to acknowledge the efforts of people that have made the research possible.
 In this spirit, please find below suggested citations of work written by ABINIT developers,
 corresponding to implementations inside of ABINIT that you have used in the present run.
 Note also that it will be of great value to readers of publications presenting these results,
 to read papers enabling them to understand the theoretical formalism and details
 of the ABINIT implementation.
 For information on why they are suggested, see also https://docs.abinit.org/theory/acknowledgments.
-
- [1] A self-consistent DFT + DMFT scheme in the projector augmented wave method: 
- applications to cerium, Ce2O3 and Pu2O3 with the Hubbard I solver and comparison to DFT + U,
- B. Amadon,  J. Phys.: Condens. Matter 24 075604 (2012).
- Comment : Describes the self-consistent implementation of DFT+DMFT in PAW
- DOI and bibtex: see https://docs.abinit.org/theory/bibliography/#amadon2012
-
- [2] Plane-wave based electronic structure calculations for correlated materials.
- using dynamical mean-field theory and projected local orbitals,
- B. Amadon, F. Lechermann, A. Georges, F. Jollet, T.O. Wehling, A.I. Lichenstein,
- Phys. Rev. B 77, 205112 (2008).
- Comment: to be cited in case the computation of overlap operator for Wannier90 interface within PAW is used,
- i.e. prtwant=2 and usepaw=1. The paper describes also the DFT+DMFT implementation on Wannier functions
- DOI and bibtex: see https://docs.abinit.org/theory/bibliography/#amadon2008
-
- [3] Gamma and beta cerium: DFT+U calculations of ground-state parameters.
- B. Amadon, F. Jollet and M. Torrent, Phys. Rev. B 77, 155104 (2008).
- Comment: DFT+U calculations, usepawu/=0. Strong suggestion to cite this paper.
- DOI and bibtex: see https://docs.abinit.org/theory/bibliography/#amadon2008a
-
- [4] Implementation of the Projector Augmented-Wave Method in the ABINIT code.
- M. Torrent, F. Jollet, F. Bottin, G. Zerah, and X. Gonze Comput. Mat. Science 42, 337, (2008).
- Comment: PAW calculations. Strong suggestion to cite this paper.
- DOI and bibtex: see https://docs.abinit.org/theory/bibliography/#torrent2008
-
- [5] Libxc: A library of exchange and correlation functionals for density functional theory.
- M.A.L. Marques, M.J.T. Oliveira, T. Burnus, Computer Physics Communications 183, 2227 (2012).
- Comment: to be cited when LibXC is used (negative value of ixc)
- Strong suggestion to cite this paper.
- DOI and bibtex: see https://docs.abinit.org/theory/bibliography/#marques2012
-
- [6] The Abinit project: Impact, environment and recent developments.
- Computer Phys. Comm. 248, 107042 (2020).
- X.Gonze, B. Amadon, G. Antonius, F.Arnardi, L.Baguet, J.-M.Beuken,
- J.Bieder, F.Bottin, J.Bouchet, E.Bousquet, N.Brouwer, F.Bruneval,
- G.Brunin, T.Cavignac, J.-B. Charraud, Wei Chen, M.Cote, S.Cottenier,
- J.Denier, G.Geneste, Ph.Ghosez, M.Giantomassi, Y.Gillet, O.Gingras,
- D.R.Hamann, G.Hautier, Xu He, N.Helbig, N.Holzwarth, Y.Jia, F.Jollet,
- W.Lafargue-Dit-Hauret, K.Lejaeghere, M.A.L.Marques, A.Martin, C.Martins,
- H.P.C. Miranda, F.Naccarato, K. Persson, G.Petretto, V.Planes, Y.Pouillon,
- S.Prokhorenko, F.Ricci, G.-M.Rignanese, A.H.Romero, M.M.Schmitt, M.Torrent,
- M.J.van Setten, B.Van Troeye, M.J.Verstraete, G.Zerah and J.W.Zwanzig
- Comment: the fifth generic paper describing the ABINIT project.
- Note that a version of this paper, that is not formatted for Computer Phys. Comm. 
- is available at https://www.abinit.org/sites/default/files/ABINIT20.pdf .
- The licence allows the authors to put it on the Web.
- DOI and bibtex: see https://docs.abinit.org/theory/bibliography/#gonze2020
-
- [7] ABINIT: Overview, and focus on selected capabilities
- J. Chem. Phys. 152, 124102 (2020).
- A. Romero, D.C. Allan, B. Amadon, G. Antonius, T. Applencourt, L.Baguet,
- J.Bieder, F.Bottin, J.Bouchet, E.Bousquet, F.Bruneval,
- G.Brunin, D.Caliste, M.Cote,
- J.Denier, C. Dreyer, Ph.Ghosez, M.Giantomassi, Y.Gillet, O.Gingras,
- D.R.Hamann, G.Hautier, F.Jollet, G. Jomard,
- A.Martin, 
- H.P.C. Miranda, F.Naccarato, G.Petretto, N.A. Pike, V.Planes,
- S.Prokhorenko, T. Rangel, F.Ricci, G.-M.Rignanese, M.Royo, M.Stengel, M.Torrent,
- M.J.van Setten, B.Van Troeye, M.J.Verstraete, J.Wiktor, J.W.Zwanziger, and X.Gonze.
- Comment: a global overview of ABINIT, with focus on selected capabilities .
- Note that a version of this paper, that is not formatted for J. Chem. Phys 
- is available at https://www.abinit.org/sites/default/files/ABINIT20_JPC.pdf .
- The licence allows the authors to put it on the Web.
- DOI and bibtex: see https://docs.abinit.org/theory/bibliography/#romero2020
-
- [8] Recent developments in the ABINIT software package.
- Computer Phys. Comm. 205, 106 (2016).
- X.Gonze, F.Jollet, F.Abreu Araujo, D.Adams, B.Amadon, T.Applencourt,
- C.Audouze, J.-M.Beuken, J.Bieder, A.Bokhanchuk, E.Bousquet, F.Bruneval
- D.Caliste, M.Cote, F.Dahm, F.Da Pieve, M.Delaveau, M.Di Gennaro,
- B.Dorado, C.Espejo, G.Geneste, L.Genovese, A.Gerossier, M.Giantomassi,
- Y.Gillet, D.R.Hamann, L.He, G.Jomard, J.Laflamme Janssen, S.Le Roux,
- A.Levitt, A.Lherbier, F.Liu, I.Lukacevic, A.Martin, C.Martins,
- M.J.T.Oliveira, S.Ponce, Y.Pouillon, T.Rangel, G.-M.Rignanese,
- A.H.Romero, B.Rousseau, O.Rubel, A.A.Shukri, M.Stankovski, M.Torrent,
- M.J.Van Setten, B.Van Troeye, M.J.Verstraete, D.Waroquier, J.Wiktor,
- B.Xu, A.Zhou, J.W.Zwanziger.
- Comment: the fourth generic paper describing the ABINIT project.
- Note that a version of this paper, that is not formatted for Computer Phys. Comm. 
- is available at https://www.abinit.org/sites/default/files/ABINIT16.pdf .
- The licence allows the authors to put it on the Web.
- DOI and bibtex: see https://docs.abinit.org/theory/bibliography/#gonze2016
-
- Proc.   0 individual time (sec): cpu=         22.2  wall=         22.3

================================================================================

 Calculation completed.
.Delivered   1 WARNINGs and   0 COMMENTs to log file.
+Overall time at end (sec) : cpu=         88.8  wall=         89.0
