
.Version 10.4.0.1 of ABINIT, released Apr 2025.
.(MPI version, prepared for a x86_64_linux_gnu14.2 computer) 

.Copyright (C) 1998-2025 ABINIT group . 
 ABINIT comes with ABSOLUTELY NO WARRANTY.
 It is free software, and you are welcome to redistribute it
 under certain conditions (GNU General Public License,
 see ~abinit/COPYING or http://www.gnu.org/copyleft/gpl.txt).

 ABINIT is a project of the Universite Catholique de Louvain,
 Corning Inc. and other collaborators, see ~abinit/doc/developers/contributors.txt .
 Please read https://docs.abinit.org/theory/acknowledgments for suggested
 acknowledgments of the ABINIT effort.
 For more information, see https://www.abinit.org .

.Starting date : Mon 19 May 2025.
- ( at 23h12 )
  
- input  file    -> /opt/ABINIT/atlas_gnu_14.2_triqs/castiel_dmft_triqs/tests/TestBot_MPI1_OMP1/paral_t106_MPI1/t106.abi
- output file    -> t106_MPI1.abo
- root for input  files -> t106_MPI1i
- root for output files -> t106_MPI1o

 DATASET    1 : the unit cell is not primitive
================================================================================
 Values of the parameters that define the memory need for DATASET  1.
     intxc =       0    ionmov =       0      iscf =      17    lmnmax =      18
     lnmax =       6     mgfft =      24  mpssoang =       3    mqgrid =    3001
     natom =       4  nloc_mem =       2    nspden =       1   nspinor =       1
    nsppol =       1      nsym =      24    n1xccc =       1    ntypat =       2
    occopt =       3   xclevel =       1
-    mband =          34        mffmem =           1         mkmem =           5
       mpw =         100          nfft =        3456          nkpt =           5
 PAW method is used; the additional fine FFT grid is defined by:
   mgfftf=        32    nfftf =      8192
================================================================================
P This job should need less than                       5.594 Mbytes of memory.
  Rough estimation (10% accuracy) of disk space for files :
_ WF disk file :      0.261 Mbytes ; DEN or POT disk file :      0.065 Mbytes.
================================================================================

 DATASET    2 : the unit cell is not primitive
================================================================================
 Values of the parameters that define the memory need for DATASET  2.
     intxc =       0    ionmov =       0      iscf =      17    lmnmax =      18
     lnmax =       6     mgfft =      24  mpssoang =       3    mqgrid =    3001
     natom =       4  nloc_mem =       2    nspden =       1   nspinor =       1
    nsppol =       1      nsym =      24    n1xccc =       1    ntypat =       2
    occopt =       3   xclevel =       1
-    mband =          34        mffmem =           1         mkmem =           5
       mpw =         100          nfft =        3456          nkpt =           5
 PAW method is used; the additional fine FFT grid is defined by:
   mgfftf=        32    nfftf =      8192
================================================================================
P This job should need less than                       5.594 Mbytes of memory.
  Rough estimation (10% accuracy) of disk space for files :
_ WF disk file :      0.261 Mbytes ; DEN or POT disk file :      0.065 Mbytes.
================================================================================

--------------------------------------------------------------------------------
------------- Echo of variables that govern the present computation ------------
--------------------------------------------------------------------------------
-
- outvars: echo of selected default values
-   iomode0 =  0 , fftalg0 =512 , wfoptalg0 = 10
-
- outvars: echo of global parameters not present in the input file
-  max_nthreads =    0
-
 -outvars: echo values of preprocessed input variables --------
            acell      7.9270000000E+00  7.9270000000E+00  7.9270000000E+00 Bohr
              amu      5.86900000E+01  1.59994000E+01
          chkprim           0
      chksymbreak           0
        dmatpuopt           1
        dmftbandf1          0
        dmftbandf2         34
        dmftbandi1          0
        dmftbandi2          9
  dmftctqmc_basis1          1
  dmftctqmc_basis2          2
   dmftctqmc_meas1          1
   dmftctqmc_meas2         10
          dmft_dc1          1
          dmft_dc2          8
        dmft_iter1         10
        dmft_iter2          1
        dmft_mxsf1     6.0000000000E-01
        dmft_mxsf2     3.0000000000E-01
        dmft_nwli1          0
        dmft_nwli2        500
        dmftqmc_l1          0
        dmftqmc_l2         50
        dmftqmc_n1     0.0000000000E+00
        dmftqmc_n2     1.0000000000E+05
    dmftqmc_therm1          0
    dmftqmc_therm2       1000
        dmft_solv1          5
        dmft_solv2          7
  dmft_triqs_nleg1          0
  dmft_triqs_nleg2         10
             ecut      4.00000000E+00 Hartree
-          fftalg         512
           getwfk          -1
              ixc           7
           jdtset        1    2
            jpawu1     0.00000000E+00  0.00000000E+00 Hartree
            jpawu2     1.00000000E-01  0.00000000E+00 Hartree
              kpt      2.50000000E-01  2.50000000E-01  1.66666667E-01
                      -2.50000000E-01  2.50000000E-01  1.66666667E-01
                      -2.50000000E-01 -2.50000000E-01  1.66666667E-01
                       2.50000000E-01  2.50000000E-01  5.00000000E-01
                      -2.50000000E-01  2.50000000E-01  5.00000000E-01
         kptrlatt        2    0    0      0    2    0      0    0    3
          kptrlen      1.12104709E+01
            lpawu           2      -1
P           mkmem           5
            natom           4
            nband          34
           ndtset           2
            ngfft          12      12      24
          ngfftdg          16      16      32
             nkpt           5
            nline1          4
            nline2         10
           nnsclo1          0
           nnsclo2          5
            nstep1        100
            nstep2          2
             nsym          24
           ntypat           2
              occ      2.000000  2.000000  2.000000  2.000000  2.000000  2.000000
                       2.000000  2.000000  2.000000  2.000000  2.000000  2.000000
                       2.000000  2.000000  2.000000  2.000000  2.000000  2.000000
                       2.000000  2.000000  2.000000  2.000000  2.000000  2.000000
                       0.000000  0.000000  0.000000  0.000000  0.000000  0.000000
                       0.000000  0.000000  0.000000  0.000000
                       2.000000  2.000000  2.000000  2.000000  2.000000  2.000000
                       2.000000  2.000000  2.000000  2.000000  2.000000  2.000000
                       2.000000  2.000000  2.000000  2.000000  2.000000  2.000000
                       2.000000  2.000000  2.000000  2.000000  2.000000  2.000000
                       0.000000  0.000000  0.000000  0.000000  0.000000  0.000000
                       0.000000  0.000000  0.000000  0.000000
                       2.000000  2.000000  2.000000  2.000000  2.000000  2.000000
                       2.000000  2.000000  2.000000  2.000000  2.000000  2.000000
                       2.000000  2.000000  2.000000  2.000000  2.000000  2.000000
                       2.000000  2.000000  2.000000  2.000000  2.000000  2.000000
                       0.000000  0.000000  0.000000  0.000000  0.000000  0.000000
                       0.000000  0.000000  0.000000  0.000000
                       2.000000  2.000000  2.000000  2.000000  2.000000  2.000000
                       2.000000  2.000000  2.000000  2.000000  2.000000  2.000000
                       2.000000  2.000000  2.000000  2.000000  2.000000  2.000000
                       2.000000  2.000000  2.000000  2.000000  2.000000  2.000000
                       0.000000  0.000000  0.000000  0.000000  0.000000  0.000000
                       0.000000  0.000000  0.000000  0.000000
                       2.000000  2.000000  2.000000  2.000000  2.000000  2.000000
                       2.000000  2.000000  2.000000  2.000000  2.000000  2.000000
                       2.000000  2.000000  2.000000  2.000000  2.000000  2.000000
                       2.000000  2.000000  2.000000  2.000000  2.000000  2.000000
                       0.000000  0.000000  0.000000  0.000000  0.000000  0.000000
                       0.000000  0.000000  0.000000  0.000000
           occopt           3
        optforces1          2
        optforces2          0
        pawecutdg      8.00000000E+00 Hartree
        pawprtvol          -1
           prtvol           4
            rprim      0.0000000000E+00  5.0000000000E-01  5.0000000000E-01
                       5.0000000000E-01  0.0000000000E+00  5.0000000000E-01
                       1.0000000000E+00  1.0000000000E+00  0.0000000000E+00
           shiftk      5.00000000E-01  5.00000000E-01  5.00000000E-01
           symrel      1  0  0   0  1  0   0  0  1       1  0  0   0  1  0   0  0  1
                      -1  0  0   0 -1  0   0  0 -1      -1  0  0   0 -1  0   0  0 -1
                       0  1  0   1  0  0   0  0  1       0  1  0   1  0  0   0  0  1
                       0 -1  0  -1  0  0   0  0 -1       0 -1  0  -1  0  0   0  0 -1
                       0 -1  0   1 -1  0   0 -2  1       0 -1  0   1 -1  0   0 -2  1
                       0  1  0  -1  1  0   0  2 -1       0  1  0  -1  1  0   0  2 -1
                       1 -1  0   0 -1  0   0 -2  1       1 -1  0   0 -1  0   0 -2  1
                      -1  1  0   0  1  0   0  2 -1      -1  1  0   0  1  0   0  2 -1
                      -1  1  0  -1  0  0  -2  0  1      -1  1  0  -1  0  0  -2  0  1
                       1 -1  0   1  0  0   2  0 -1       1 -1  0   1  0  0   2  0 -1
                      -1  0  0  -1  1  0  -2  0  1      -1  0  0  -1  1  0  -2  0  1
                       1  0  0   1 -1  0   2  0 -1       1  0  0   1 -1  0   2  0 -1
            tnons      0.0000000  0.0000000  0.0000000    -0.0000000  0.0000000  0.5000000
                       0.0000000  0.0000000  0.0000000    -0.0000000  0.0000000  0.5000000
                       0.0000000  0.0000000  0.0000000    -0.0000000  0.0000000  0.5000000
                       0.0000000  0.0000000  0.0000000    -0.0000000  0.0000000  0.5000000
                       0.0000000  0.0000000  0.0000000    -0.0000000  0.0000000  0.5000000
                       0.0000000  0.0000000  0.0000000    -0.0000000  0.0000000  0.5000000
                       0.0000000  0.0000000  0.0000000    -0.0000000  0.0000000  0.5000000
                       0.0000000  0.0000000  0.0000000    -0.0000000  0.0000000  0.5000000
                       0.0000000  0.0000000  0.0000000    -0.0000000  0.0000000  0.5000000
                       0.0000000  0.0000000  0.0000000    -0.0000000  0.0000000  0.5000000
                       0.0000000  0.0000000  0.0000000    -0.0000000  0.0000000  0.5000000
                       0.0000000  0.0000000  0.0000000    -0.0000000  0.0000000  0.5000000
           tolvrs      1.00000000E-05
           tsmear      8.27500000E-03 Hartree
            typat      1  1  2  2
            upawu1     0.00000000E+00  0.00000000E+00 Hartree
            upawu2     2.00000000E-01  0.00000000E+00 Hartree
          usedmft1          0
          usedmft2          1
          usepawu1          4
          usepawu2         14
           useylm           1
              wtk        0.16667    0.33333    0.16667    0.16667    0.16667
           xangst      0.0000000000E+00  0.0000000000E+00  0.0000000000E+00
                       2.0973938662E+00  2.0973938662E+00 -9.5376629560E-34
                       2.0973938662E+00  2.0973938662E+00  2.0973938662E+00
                       4.1947877325E+00  4.1947877325E+00  2.0973938662E+00
            xcart      0.0000000000E+00  0.0000000000E+00  0.0000000000E+00
                       3.9635000000E+00  3.9635000000E+00 -1.8023570935E-33
                       3.9635000000E+00  3.9635000000E+00  3.9635000000E+00
                       7.9270000000E+00  7.9270000000E+00  3.9635000000E+00
             xred      0.0000000000E+00  0.0000000000E+00  0.0000000000E+00
                      -1.9935406297E-17  1.9935406297E-17  5.0000000000E-01
                       5.0000000000E-01  5.0000000000E-01  2.5000000000E-01
                       5.0000000000E-01  5.0000000000E-01  7.5000000000E-01
            znucl       28.00000    8.00000

================================================================================

 chkinp: Checking input parameters for consistency, jdtset=   1.

 chkinp: Checking input parameters for consistency, jdtset=   2.

================================================================================
== DATASET  1 ==================================================================
-   mpi_nproc: 1, omp_nthreads: -1 (-1 if OMP is not activated)


--- !DatasetInfo
iteration_state: {dtset: 1, }
dimensions: {natom: 4, nkpt: 5, mband: 34, nsppol: 1, nspinor: 1, nspden: 1, mpw: 100, }
cutoff_energies: {ecut:   4.0, pawecutdg:   8.0, }
electrons: {nelect:   4.80000000E+01, charge:   0.00000000E+00, occopt:   3.00000000E+00, tsmear:   8.27500000E-03, }
meta: {optdriver: 0, ionmov: 0, optcell: 0, iscf: 17, paral_kgb: 0, }
...

 Exchange-correlation functional for the present dataset will be:
  LDA: Perdew-Wang 92 LSD fit to Ceperley-Alder data - ixc=7
 Citation for XC functional:
  J.P.Perdew and Y.Wang, PRB 45, 13244 (1992)

 Real(R)+Recip(G) space primitive vectors, cartesian coordinates (Bohr,Bohr^-1):
 R(1)=  0.0000000  3.9635000  3.9635000  G(1)= -0.1261511  0.1261511  0.1261511
 R(2)=  3.9635000  0.0000000  3.9635000  G(2)=  0.1261511 -0.1261511  0.1261511
 R(3)=  7.9270000  7.9270000  0.0000000  G(3)=  0.0630756  0.0630756 -0.0630756
 Unit cell volume ucvol=  2.4905575E+02 bohr^3
 Angles (23,13,12)=  6.00000000E+01  6.00000000E+01  6.00000000E+01 degrees

 Coarse grid specifications (used for wave-functions):

 getcut: wavevector=  0.0000  0.0000  0.0000  ngfft=  12  12  24
         ecut(hartree)=      4.000   => boxcut(ratio)=   2.37789

 getcut : COMMENT -
  Note that boxcut > 2.2 ; recall that boxcut=Gcut(box)/Gcut(sphere) = 2
  is sufficient for exact treatment of convolution.
  Such a large boxcut is a waste : you could raise ecut
  e.g. ecut=    5.654374 Hartrees makes boxcut=2


 Fine grid specifications (used for densities):

 getcut: wavevector=  0.0000  0.0000  0.0000  ngfft=  16  16  32
         ecut(hartree)=      8.000   => boxcut(ratio)=   2.24190

 getcut : COMMENT -
  Note that boxcut > 2.2 ; recall that boxcut=Gcut(box)/Gcut(sphere) = 2
  is sufficient for exact treatment of convolution.
  Such a large boxcut is a waste : you could raise ecut
  e.g. ecut=   10.052220 Hartrees makes boxcut=2


--- Pseudopotential description ------------------------------------------------
- pspini: atom type   1  psp file is /opt/ABINIT/atlas_gnu_14.2_triqs/castiel_dmft_triqs/tests/Pspdir/28ni.paw
- pspatm: opening atomic psp file    /opt/ABINIT/atlas_gnu_14.2_triqs/castiel_dmft_triqs/tests/Pspdir/28ni.paw
- Paw atomic data for element Ni - Generated by AtomPAW (N. Holzwarth) + AtomPAW2Abinit v3.0.5
- 28.00000  18.00000  20061204                znucl, zion, pspdat
    7    7    2    0       350   0.00000      pspcod,pspxc,lmax,lloc,mmax,r2well
 Pseudopotential format is: paw3
 basis_size (lnmax)=  5 (lmn_size= 13), orbitals=   0   0   1   1   2
 Spheres core radius: rc_sph= 2.30000000
 3 radial meshes are used:
  - mesh 1: r(i)=AA*exp(BB*(i-2)), size= 350 , AA= 0.11804E-04 BB= 0.35000E-01
  - mesh 2: r(i)=step*(i-1), size= 921 , step= 0.25000E-02
  - mesh 3: r(i)=AA*exp(BB*(i-2)), size= 391 , AA= 0.11804E-04 BB= 0.35000E-01
 Shapefunction is SIN type: shapef(r)=[sin(pi*r/rshp)/(pi*r/rshp)]**2
 Radius for shape functions = sphere core radius
 Radial grid used for partial waves is grid 1
 Radial grid used for projectors is grid  2
 Radial grid used for (t)core density is grid 1
 Radial grid used for Vloc is grid 3
 Compensation charge density is taken into account in XC energy/potential
 pspatm: atomic psp has been read  and splines computed

- pspini: atom type   2  psp file is /opt/ABINIT/atlas_gnu_14.2_triqs/castiel_dmft_triqs/tests/Pspdir/8o.2.paw
- pspatm: opening atomic psp file    /opt/ABINIT/atlas_gnu_14.2_triqs/castiel_dmft_triqs/tests/Pspdir/8o.2.paw
- Paw atomic data extracted from US-psp (D.Vanderbilt): Oxygen
-  8.00000   6.00000  20050722                znucl, zion, pspdat
    7   11    2    0       489   0.00000      pspcod,pspxc,lmax,lloc,mmax,r2well
 Pseudopotential format is: paw3
 basis_size (lnmax)=  6 (lmn_size= 18), orbitals=   0   0   1   1   2   2
 Spheres core radius: rc_sph= 1.21105161
 4 radial meshes are used:
  - mesh 1: r(i)=AA*[exp(BB*(i-1))-1], size= 489 , AA= 0.30984E-03 BB= 0.16949E-01
  - mesh 2: r(i)=AA*[exp(BB*(i-1))-1], size= 548 , AA= 0.30984E-03 BB= 0.16949E-01
  - mesh 3: r(i)=AA*[exp(BB*(i-1))-1], size= 509 , AA= 0.30984E-03 BB= 0.16949E-01
  - mesh 4: r(i)=AA*[exp(BB*(i-1))-1], size= 613 , AA= 0.30984E-03 BB= 0.16949E-01
 Shapefunction is SIN type: shapef(r)=[sin(pi*r/rshp)/(pi*r/rshp)]**2
 Radius for shape functions = sphere core radius
 Radial grid used for partial waves is grid 1
 Radial grid used for projectors is grid  2
 Radial grid used for (t)core density is grid 3
 Radial grid used for Vloc is grid 4
 Compensation charge density is taken into account in XC energy/potential
 pspatm: atomic psp has been read  and splines computed

   5.32753584E+03                                ecore*ucvol(ha*bohr**3)
--------------------------------------------------------------------------------

P newkpt: treating     34 bands with npw=      98 for ikpt=   1 by node    0
P newkpt: treating     34 bands with npw=      94 for ikpt=   2 by node    0
P newkpt: treating     34 bands with npw=      96 for ikpt=   3 by node    0
P newkpt: treating     34 bands with npw=     100 for ikpt=   4 by node    0
P newkpt: treating     34 bands with npw=      96 for ikpt=   5 by node    0
_setup2: Arith. and geom. avg. npw (full set) are      96.333      96.310


 ******************************************
 DFT+U Method used: FLL with no spin polarization in the xc functional
 ******************************************

================================================================================

--- !BeginCycle
iteration_state: {dtset: 1, }
solver: {iscf: 17, nstep: 100, nline: 4, wfoptalg: 10, }
tolerances: {tolvrs: 1.00E-05, }
...

     iter   Etot(hartree)      deltaE(h)  residm     nres2
 ETOT  1  -354.94818628136    -3.549E+02 6.204E+00 5.856E+01
 ETOT  2  -353.38123299940     1.567E+00 2.857E-03 6.300E+00
 ETOT  3  -353.12149680522     2.597E-01 1.840E-02 4.366E-01
 ETOT  4  -353.11448551635     7.011E-03 1.245E-04 5.087E-02
 ETOT  5  -353.11300236918     1.483E-03 1.373E-05 2.558E-03
 ETOT  6  -353.11292774517     7.462E-05 2.932E-06 2.058E-04
 ETOT  7  -353.11292220530     5.540E-06 4.289E-07 4.132E-06

 At SCF step    7       nres2   =  4.13E-06 < tolvrs=  1.00E-05 =>converged.

 Cartesian components of stress tensor (hartree/bohr^3)
  sigma(1 1)=  1.26284295E-01  sigma(3 2)=  1.69275191E-04
  sigma(2 2)=  1.26284295E-01  sigma(3 1)=  1.69275191E-04
  sigma(3 3)=  1.26284295E-01  sigma(2 1)= -1.69275191E-04


--- !ResultsGS
iteration_state: {dtset: 1, }
comment   : Summary of ground state results
lattice_vectors:
- [  0.0000000,   3.9635000,   3.9635000, ]
- [  3.9635000,   0.0000000,   3.9635000, ]
- [  7.9270000,   7.9270000,   0.0000000, ]
lattice_lengths: [   5.60524,    5.60524,   11.21047, ]
lattice_angles: [ 60.000,  60.000,  60.000, ] # degrees, (23, 13, 12)
lattice_volume:   2.4905575E+02
convergence: {deltae:  5.540E-06, res2:  4.132E-06, residm:  4.289E-07, diffor: null, }
etotal    :  -3.53112922E+02
entropy   :   0.00000000E+00
fermie    :   2.15166931E-01
cartesian_stress_tensor: # hartree/bohr^3
- [  1.26284295E-01,  -1.69275191E-04,   1.69275191E-04, ]
- [ -1.69275191E-04,   1.26284295E-01,   1.69275191E-04, ]
- [  1.69275191E-04,   1.69275191E-04,   1.26284295E-01, ]
pressure_GPa:  -3.7154E+03
xred      :
- [  0.0000E+00,   0.0000E+00,   0.0000E+00, Ni]
- [ -1.9935E-17,   1.9935E-17,   5.0000E-01, Ni]
- [  5.0000E-01,   5.0000E-01,   2.5000E-01,  O]
- [  5.0000E-01,   5.0000E-01,   7.5000E-01,  O]
cartesian_forces: # hartree/bohr
- [ -0.00000000E+00,  -0.00000000E+00,  -0.00000000E+00, ]
- [ -0.00000000E+00,  -0.00000000E+00,  -0.00000000E+00, ]
- [ -0.00000000E+00,  -0.00000000E+00,  -0.00000000E+00, ]
- [ -0.00000000E+00,  -0.00000000E+00,  -0.00000000E+00, ]
force_length_stats: {min:   0.00000000E+00, max:   0.00000000E+00, mean:   0.00000000E+00, }
...

 Integrated electronic density in atomic spheres:
 ------------------------------------------------
 Atom  Sphere_radius  Integrated_density
    1        2.30000         17.63445134
    2        2.30000         17.63445134
    3        1.21105          2.37373981
    4        1.21105          2.37373981

 PAW TEST:
 ==== Compensation charge inside spheres ============
 The following values must be close to each other ...
 Compensation charge over spherical meshes =     18.586339201990278
 Compensation charge over fine fft grid    =     18.586985074809885

 ==== Results concerning PAW augmentation regions ====

 Total pseudopotential strength Dij (hartree):
 Atom #  1
  -3.79809  -1.29931   0.00000   0.00000   0.00000   0.00000   0.00000   0.00000   0.00011  -0.00011   0.00000  -0.00011   0.00000
  -1.29931  -0.65656   0.00000   0.00000   0.00000   0.00000   0.00000   0.00000   0.00003  -0.00003   0.00000  -0.00003   0.00000
   0.00000   0.00000  -3.45106  -0.00010   0.00010  -0.79822  -0.00002   0.00002   0.00000   0.00000   0.00000   0.00000   0.00000
   0.00000   0.00000  -0.00010  -3.45106  -0.00010  -0.00002  -0.79822  -0.00002   0.00000   0.00000   0.00000   0.00000   0.00000
   0.00000   0.00000   0.00010  -0.00010  -3.45106   0.00002  -0.00002  -0.79822   0.00000   0.00000   0.00000   0.00000   0.00000
   0.00000   0.00000  -0.79822  -0.00002   0.00002  -0.38181  -0.00000   0.00000   0.00000   0.00000   0.00000   0.00000   0.00000
   0.00000   0.00000  -0.00002  -0.79822  -0.00002  -0.00000  -0.38181  -0.00000   0.00000   0.00000   0.00000   0.00000   0.00000
   0.00000   0.00000   0.00002  -0.00002  -0.79822   0.00000  -0.00000  -0.38181   0.00000   0.00000   0.00000   0.00000   0.00000
   0.00011   0.00003   0.00000   0.00000   0.00000   0.00000   0.00000   0.00000  -1.37138  -0.00009  -0.00004  -0.00009   0.00000
  -0.00011  -0.00003   0.00000   0.00000   0.00000   0.00000   0.00000   0.00000  -0.00009  -1.37138  -0.00002   0.00009   0.00003
   0.00000   0.00000   0.00000   0.00000   0.00000   0.00000   0.00000   0.00000  -0.00004  -0.00002  -1.37149  -0.00002   0.00000
  -0.00011  -0.00003   0.00000   0.00000   0.00000   0.00000   0.00000   0.00000  -0.00009   0.00009  -0.00002  -1.37138  -0.00003
   0.00000   0.00000   0.00000   0.00000   0.00000   0.00000   0.00000   0.00000   0.00000   0.00003   0.00000  -0.00003  -1.37149
   max. value=  3.80E+00, min. value=  0.00E+00
 Atom #  2
  -3.79809  -1.29931   0.00000   0.00000   0.00000   0.00000   0.00000   0.00000   0.00011  -0.00011   0.00000  -0.00011   0.00000
  -1.29931  -0.65656   0.00000   0.00000   0.00000   0.00000   0.00000   0.00000   0.00003  -0.00003   0.00000  -0.00003   0.00000
   0.00000   0.00000  -3.45106  -0.00010   0.00010  -0.79822  -0.00002   0.00002   0.00000   0.00000   0.00000   0.00000   0.00000
   0.00000   0.00000  -0.00010  -3.45106  -0.00010  -0.00002  -0.79822  -0.00002   0.00000   0.00000   0.00000   0.00000   0.00000
   0.00000   0.00000   0.00010  -0.00010  -3.45106   0.00002  -0.00002  -0.79822   0.00000   0.00000   0.00000   0.00000   0.00000
   0.00000   0.00000  -0.79822  -0.00002   0.00002  -0.38181  -0.00000   0.00000   0.00000   0.00000   0.00000   0.00000   0.00000
   0.00000   0.00000  -0.00002  -0.79822  -0.00002  -0.00000  -0.38181  -0.00000   0.00000   0.00000   0.00000   0.00000   0.00000
   0.00000   0.00000   0.00002  -0.00002  -0.79822   0.00000  -0.00000  -0.38181   0.00000   0.00000   0.00000   0.00000   0.00000
   0.00011   0.00003   0.00000   0.00000   0.00000   0.00000   0.00000   0.00000  -1.37138  -0.00009  -0.00004  -0.00009   0.00000
  -0.00011  -0.00003   0.00000   0.00000   0.00000   0.00000   0.00000   0.00000  -0.00009  -1.37138  -0.00002   0.00009   0.00003
   0.00000   0.00000   0.00000   0.00000   0.00000   0.00000   0.00000   0.00000  -0.00004  -0.00002  -1.37149  -0.00002   0.00000
  -0.00011  -0.00003   0.00000   0.00000   0.00000   0.00000   0.00000   0.00000  -0.00009   0.00009  -0.00002  -1.37138  -0.00003
   0.00000   0.00000   0.00000   0.00000   0.00000   0.00000   0.00000   0.00000   0.00000   0.00003   0.00000  -0.00003  -1.37149
   max. value=  3.80E+00, min. value=  0.00E+00
 Atom #  3
   0.70466   1.19180   0.00000   0.00000   0.00000   0.00000   0.00000   0.00000  -0.00000   0.00000   0.00000   0.00000   0.00000  -0.00000   0.00000   0.00000   0.00000   0.00000
   1.19180   2.01278   0.00000   0.00000   0.00000   0.00000   0.00000   0.00000  -0.00000   0.00000   0.00000   0.00000   0.00000  -0.00000   0.00000   0.00000   0.00000   0.00000
   0.00000   0.00000  -0.47267  -0.00001   0.00001  -0.59015  -0.00001   0.00001   0.00000   0.00000   0.00000   0.00000   0.00000   0.00000   0.00000   0.00000   0.00000   0.00000
   0.00000   0.00000  -0.00001  -0.47267  -0.00001  -0.00001  -0.59015  -0.00001   0.00000   0.00000   0.00000   0.00000   0.00000   0.00000   0.00000   0.00000   0.00000   0.00000
   0.00000   0.00000   0.00001  -0.00001  -0.47267   0.00001  -0.00001  -0.59015   0.00000   0.00000   0.00000   0.00000   0.00000   0.00000   0.00000   0.00000   0.00000   0.00000
   0.00000   0.00000  -0.59015  -0.00001   0.00001  -0.71217  -0.00002   0.00002   0.00000   0.00000   0.00000   0.00000   0.00000   0.00000   0.00000   0.00000   0.00000   0.00000
   0.00000   0.00000  -0.00001  -0.59015  -0.00001  -0.00002  -0.71217  -0.00002   0.00000   0.00000   0.00000   0.00000   0.00000   0.00000   0.00000   0.00000   0.00000   0.00000
   0.00000   0.00000   0.00001  -0.00001  -0.59015   0.00002  -0.00002  -0.71217   0.00000   0.00000   0.00000   0.00000   0.00000   0.00000   0.00000   0.00000   0.00000   0.00000
  -0.00000  -0.00000   0.00000   0.00000   0.00000   0.00000   0.00000   0.00000  -0.02668  -0.00000  -0.00000  -0.00000   0.00000  -0.02599  -0.00000  -0.00000  -0.00000   0.00000
   0.00000   0.00000   0.00000   0.00000   0.00000   0.00000   0.00000   0.00000  -0.00000  -0.02668  -0.00000   0.00000   0.00000  -0.00000  -0.02599  -0.00000   0.00000   0.00000
   0.00000   0.00000   0.00000   0.00000   0.00000   0.00000   0.00000   0.00000  -0.00000  -0.00000  -0.02682  -0.00000   0.00000  -0.00000  -0.00000  -0.02614  -0.00000   0.00000
   0.00000   0.00000   0.00000   0.00000   0.00000   0.00000   0.00000   0.00000  -0.00000   0.00000  -0.00000  -0.02668  -0.00000  -0.00000   0.00000  -0.00000  -0.02599  -0.00000
   0.00000   0.00000   0.00000   0.00000   0.00000   0.00000   0.00000   0.00000   0.00000   0.00000   0.00000  -0.00000  -0.02682   0.00000   0.00000   0.00000  -0.00000  -0.02614
  -0.00000  -0.00000   0.00000   0.00000   0.00000   0.00000   0.00000   0.00000  -0.02599  -0.00000  -0.00000  -0.00000   0.00000  -0.02505  -0.00000  -0.00000  -0.00000   0.00000
   0.00000   0.00000   0.00000   0.00000   0.00000   0.00000   0.00000   0.00000  -0.00000  -0.02599  -0.00000   0.00000   0.00000  -0.00000  -0.02505  -0.00000   0.00000   0.00000
   0.00000   0.00000   0.00000   0.00000   0.00000   0.00000   0.00000   0.00000  -0.00000  -0.00000  -0.02614  -0.00000   0.00000  -0.00000  -0.00000  -0.02521  -0.00000   0.00000
   0.00000   0.00000   0.00000   0.00000   0.00000   0.00000   0.00000   0.00000  -0.00000   0.00000  -0.00000  -0.02599  -0.00000  -0.00000   0.00000  -0.00000  -0.02505  -0.00000
   0.00000   0.00000   0.00000   0.00000   0.00000   0.00000   0.00000   0.00000   0.00000   0.00000   0.00000  -0.00000  -0.02614   0.00000   0.00000   0.00000  -0.00000  -0.02521
   max. value=  2.01E+00, min. value=  0.00E+00
 Atom #  4
   0.70466   1.19180   0.00000   0.00000   0.00000   0.00000   0.00000   0.00000  -0.00000   0.00000   0.00000   0.00000   0.00000  -0.00000   0.00000   0.00000   0.00000   0.00000
   1.19180   2.01278   0.00000   0.00000   0.00000   0.00000   0.00000   0.00000  -0.00000   0.00000   0.00000   0.00000   0.00000  -0.00000   0.00000   0.00000   0.00000   0.00000
   0.00000   0.00000  -0.47267  -0.00001   0.00001  -0.59015  -0.00001   0.00001   0.00000   0.00000   0.00000   0.00000   0.00000   0.00000   0.00000   0.00000   0.00000   0.00000
   0.00000   0.00000  -0.00001  -0.47267  -0.00001  -0.00001  -0.59015  -0.00001   0.00000   0.00000   0.00000   0.00000   0.00000   0.00000   0.00000   0.00000   0.00000   0.00000
   0.00000   0.00000   0.00001  -0.00001  -0.47267   0.00001  -0.00001  -0.59015   0.00000   0.00000   0.00000   0.00000   0.00000   0.00000   0.00000   0.00000   0.00000   0.00000
   0.00000   0.00000  -0.59015  -0.00001   0.00001  -0.71217  -0.00002   0.00002   0.00000   0.00000   0.00000   0.00000   0.00000   0.00000   0.00000   0.00000   0.00000   0.00000
   0.00000   0.00000  -0.00001  -0.59015  -0.00001  -0.00002  -0.71217  -0.00002   0.00000   0.00000   0.00000   0.00000   0.00000   0.00000   0.00000   0.00000   0.00000   0.00000
   0.00000   0.00000   0.00001  -0.00001  -0.59015   0.00002  -0.00002  -0.71217   0.00000   0.00000   0.00000   0.00000   0.00000   0.00000   0.00000   0.00000   0.00000   0.00000
  -0.00000  -0.00000   0.00000   0.00000   0.00000   0.00000   0.00000   0.00000  -0.02668  -0.00000  -0.00000  -0.00000   0.00000  -0.02599  -0.00000  -0.00000  -0.00000   0.00000
   0.00000   0.00000   0.00000   0.00000   0.00000   0.00000   0.00000   0.00000  -0.00000  -0.02668  -0.00000   0.00000   0.00000  -0.00000  -0.02599  -0.00000   0.00000   0.00000
   0.00000   0.00000   0.00000   0.00000   0.00000   0.00000   0.00000   0.00000  -0.00000  -0.00000  -0.02682  -0.00000   0.00000  -0.00000  -0.00000  -0.02614  -0.00000   0.00000
   0.00000   0.00000   0.00000   0.00000   0.00000   0.00000   0.00000   0.00000  -0.00000   0.00000  -0.00000  -0.02668  -0.00000  -0.00000   0.00000  -0.00000  -0.02599  -0.00000
   0.00000   0.00000   0.00000   0.00000   0.00000   0.00000   0.00000   0.00000   0.00000   0.00000   0.00000  -0.00000  -0.02682   0.00000   0.00000   0.00000  -0.00000  -0.02614
  -0.00000  -0.00000   0.00000   0.00000   0.00000   0.00000   0.00000   0.00000  -0.02599  -0.00000  -0.00000  -0.00000   0.00000  -0.02505  -0.00000  -0.00000  -0.00000   0.00000
   0.00000   0.00000   0.00000   0.00000   0.00000   0.00000   0.00000   0.00000  -0.00000  -0.02599  -0.00000   0.00000   0.00000  -0.00000  -0.02505  -0.00000   0.00000   0.00000
   0.00000   0.00000   0.00000   0.00000   0.00000   0.00000   0.00000   0.00000  -0.00000  -0.00000  -0.02614  -0.00000   0.00000  -0.00000  -0.00000  -0.02521  -0.00000   0.00000
   0.00000   0.00000   0.00000   0.00000   0.00000   0.00000   0.00000   0.00000  -0.00000   0.00000  -0.00000  -0.02599  -0.00000  -0.00000   0.00000  -0.00000  -0.02505  -0.00000
   0.00000   0.00000   0.00000   0.00000   0.00000   0.00000   0.00000   0.00000   0.00000   0.00000   0.00000  -0.00000  -0.02614   0.00000   0.00000   0.00000  -0.00000  -0.02521
   max. value=  2.01E+00, min. value=  0.00E+00


 Augmentation waves occupancies Rhoij:
 Atom #  1
   1.55028   0.45404   0.00000   0.00000   0.00000   0.00000   0.00000   0.00000  -0.00056   0.00056   0.00000   0.00056   0.00000
   0.45404   0.25921   0.00000   0.00000   0.00000   0.00000   0.00000   0.00000   0.00051  -0.00051   0.00000  -0.00051   0.00000
   0.00000   0.00000   1.14521  -0.00046   0.00046   1.01516   0.00020  -0.00020   0.00000   0.00000   0.00000   0.00000   0.00000
   0.00000   0.00000  -0.00046   1.14521  -0.00046   0.00020   1.01516   0.00020   0.00000   0.00000   0.00000   0.00000   0.00000
   0.00000   0.00000   0.00046  -0.00046   1.14521  -0.00020   0.00020   1.01516   0.00000   0.00000   0.00000   0.00000   0.00000
   0.00000   0.00000   1.01516   0.00020  -0.00020   0.94139   0.00094  -0.00094   0.00000   0.00000   0.00000   0.00000   0.00000
   0.00000   0.00000   0.00020   1.01516   0.00020   0.00094   0.94139   0.00094   0.00000   0.00000   0.00000   0.00000   0.00000
   0.00000   0.00000  -0.00020   0.00020   1.01516  -0.00094   0.00094   0.94139   0.00000   0.00000   0.00000   0.00000   0.00000
  -0.00056   0.00051   0.00000   0.00000   0.00000   0.00000   0.00000   0.00000   1.29728  -0.00502   0.00223  -0.00502   0.00000
   0.00056  -0.00051   0.00000   0.00000   0.00000   0.00000   0.00000   0.00000  -0.00502   1.29728   0.00111   0.00502  -0.00193
   0.00000   0.00000   0.00000   0.00000   0.00000   0.00000   0.00000   0.00000   0.00223   0.00111   1.34142   0.00111   0.00000
   0.00056  -0.00051   0.00000   0.00000   0.00000   0.00000   0.00000   0.00000  -0.00502   0.00502   0.00111   1.29728   0.00193
   0.00000   0.00000   0.00000   0.00000   0.00000   0.00000   0.00000   0.00000   0.00000  -0.00193   0.00000   0.00193   1.34142
   max. value=  1.55E+00, min. value=  0.00E+00
 Atom #  2
   1.55028   0.45404   0.00000   0.00000   0.00000   0.00000   0.00000   0.00000  -0.00056   0.00056   0.00000   0.00056   0.00000
   0.45404   0.25921   0.00000   0.00000   0.00000   0.00000   0.00000   0.00000   0.00051  -0.00051   0.00000  -0.00051   0.00000
   0.00000   0.00000   1.14521  -0.00046   0.00046   1.01516   0.00020  -0.00020   0.00000   0.00000   0.00000   0.00000   0.00000
   0.00000   0.00000  -0.00046   1.14521  -0.00046   0.00020   1.01516   0.00020   0.00000   0.00000   0.00000   0.00000   0.00000
   0.00000   0.00000   0.00046  -0.00046   1.14521  -0.00020   0.00020   1.01516   0.00000   0.00000   0.00000   0.00000   0.00000
   0.00000   0.00000   1.01516   0.00020  -0.00020   0.94139   0.00094  -0.00094   0.00000   0.00000   0.00000   0.00000   0.00000
   0.00000   0.00000   0.00020   1.01516   0.00020   0.00094   0.94139   0.00094   0.00000   0.00000   0.00000   0.00000   0.00000
   0.00000   0.00000  -0.00020   0.00020   1.01516  -0.00094   0.00094   0.94139   0.00000   0.00000   0.00000   0.00000   0.00000
  -0.00056   0.00051   0.00000   0.00000   0.00000   0.00000   0.00000   0.00000   1.29728  -0.00502   0.00223  -0.00502   0.00000
   0.00056  -0.00051   0.00000   0.00000   0.00000   0.00000   0.00000   0.00000  -0.00502   1.29728   0.00111   0.00502  -0.00193
   0.00000   0.00000   0.00000   0.00000   0.00000   0.00000   0.00000   0.00000   0.00223   0.00111   1.34142   0.00111   0.00000
   0.00056  -0.00051   0.00000   0.00000   0.00000   0.00000   0.00000   0.00000  -0.00502   0.00502   0.00111   1.29728   0.00193
   0.00000   0.00000   0.00000   0.00000   0.00000   0.00000   0.00000   0.00000   0.00000  -0.00193   0.00000   0.00193   1.34142
   max. value=  1.55E+00, min. value=  0.00E+00
 Atom #  3
   4.86137  -1.18663   0.00000   0.00000   0.00000   0.00000   0.00000   0.00000  -0.01155   0.01155   0.00000   0.01155   0.00000   0.01258  -0.01258   0.00000  -0.01258   0.00000
  -1.18663   0.31330   0.00000   0.00000   0.00000   0.00000   0.00000   0.00000   0.00555  -0.00555   0.00000  -0.00555   0.00000  -0.00591   0.00591   0.00000   0.00591   0.00000
   0.00000   0.00000   8.05521  -0.02386   0.02386  -4.43742   0.01306  -0.01306   0.00000   0.00000   0.00000   0.00000   0.00000   0.00000   0.00000   0.00000   0.00000   0.00000
   0.00000   0.00000  -0.02386   8.05521  -0.02386   0.01306  -4.43742   0.01306   0.00000   0.00000   0.00000   0.00000   0.00000   0.00000   0.00000   0.00000   0.00000   0.00000
   0.00000   0.00000   0.02386  -0.02386   8.05521  -0.01306   0.01306  -4.43742   0.00000   0.00000   0.00000   0.00000   0.00000   0.00000   0.00000   0.00000   0.00000   0.00000
   0.00000   0.00000  -4.43742   0.01306  -0.01306   2.45964  -0.00664   0.00664   0.00000   0.00000   0.00000   0.00000   0.00000   0.00000   0.00000   0.00000   0.00000   0.00000
   0.00000   0.00000   0.01306  -4.43742   0.01306  -0.00664   2.45964  -0.00664   0.00000   0.00000   0.00000   0.00000   0.00000   0.00000   0.00000   0.00000   0.00000   0.00000
   0.00000   0.00000  -0.01306   0.01306  -4.43742   0.00664  -0.00664   2.45964   0.00000   0.00000   0.00000   0.00000   0.00000   0.00000   0.00000   0.00000   0.00000   0.00000
  -0.01155   0.00555   0.00000   0.00000   0.00000   0.00000   0.00000   0.00000   0.26038   0.00235   0.03027   0.00235   0.00000  -0.28306  -0.00248  -0.03116  -0.00248   0.00000
   0.01155  -0.00555   0.00000   0.00000   0.00000   0.00000   0.00000   0.00000   0.00235   0.26038   0.01513  -0.00235  -0.02621  -0.00248  -0.28306  -0.01558   0.00248   0.02699
   0.00000   0.00000   0.00000   0.00000   0.00000   0.00000   0.00000   0.00000   0.03027   0.01513   1.76528   0.01513   0.00000  -0.03538  -0.01769  -1.83279  -0.01769   0.00000
   0.01155  -0.00555   0.00000   0.00000   0.00000   0.00000   0.00000   0.00000   0.00235  -0.00235   0.01513   0.26038   0.02621  -0.00248   0.00248  -0.01558  -0.28306  -0.02699
   0.00000   0.00000   0.00000   0.00000   0.00000   0.00000   0.00000   0.00000   0.00000  -0.02621   0.00000   0.02621   1.76528   0.00000   0.03064   0.00000  -0.03064  -1.83279
   0.01258  -0.00591   0.00000   0.00000   0.00000   0.00000   0.00000   0.00000  -0.28306  -0.00248  -0.03538  -0.00248   0.00000   0.30978   0.00252   0.03625   0.00252   0.00000
  -0.01258   0.00591   0.00000   0.00000   0.00000   0.00000   0.00000   0.00000  -0.00248  -0.28306  -0.01769   0.00248   0.03064   0.00252   0.30978   0.01812  -0.00252  -0.03139
   0.00000   0.00000   0.00000   0.00000   0.00000   0.00000   0.00000   0.00000  -0.03116  -0.01558  -1.83279  -0.01558   0.00000   0.03625   0.01812   1.90829   0.01812   0.00000
  -0.01258   0.00591   0.00000   0.00000   0.00000   0.00000   0.00000   0.00000  -0.00248   0.00248  -0.01769  -0.28306  -0.03064   0.00252  -0.00252   0.01812   0.30978   0.03139
   0.00000   0.00000   0.00000   0.00000   0.00000   0.00000   0.00000   0.00000   0.00000   0.02699   0.00000  -0.02699  -1.83279   0.00000  -0.03139   0.00000   0.03139   1.90829
   max. value=  8.06E+00, min. value=  0.00E+00
 Atom #  4
   4.86137  -1.18663   0.00000   0.00000   0.00000   0.00000   0.00000   0.00000  -0.01155   0.01155   0.00000   0.01155   0.00000   0.01258  -0.01258   0.00000  -0.01258   0.00000
  -1.18663   0.31330   0.00000   0.00000   0.00000   0.00000   0.00000   0.00000   0.00555  -0.00555   0.00000  -0.00555   0.00000  -0.00591   0.00591   0.00000   0.00591   0.00000
   0.00000   0.00000   8.05521  -0.02386   0.02386  -4.43742   0.01306  -0.01306   0.00000   0.00000   0.00000   0.00000   0.00000   0.00000   0.00000   0.00000   0.00000   0.00000
   0.00000   0.00000  -0.02386   8.05521  -0.02386   0.01306  -4.43742   0.01306   0.00000   0.00000   0.00000   0.00000   0.00000   0.00000   0.00000   0.00000   0.00000   0.00000
   0.00000   0.00000   0.02386  -0.02386   8.05521  -0.01306   0.01306  -4.43742   0.00000   0.00000   0.00000   0.00000   0.00000   0.00000   0.00000   0.00000   0.00000   0.00000
   0.00000   0.00000  -4.43742   0.01306  -0.01306   2.45964  -0.00664   0.00664   0.00000   0.00000   0.00000   0.00000   0.00000   0.00000   0.00000   0.00000   0.00000   0.00000
   0.00000   0.00000   0.01306  -4.43742   0.01306  -0.00664   2.45964  -0.00664   0.00000   0.00000   0.00000   0.00000   0.00000   0.00000   0.00000   0.00000   0.00000   0.00000
   0.00000   0.00000  -0.01306   0.01306  -4.43742   0.00664  -0.00664   2.45964   0.00000   0.00000   0.00000   0.00000   0.00000   0.00000   0.00000   0.00000   0.00000   0.00000
  -0.01155   0.00555   0.00000   0.00000   0.00000   0.00000   0.00000   0.00000   0.26038   0.00235   0.03027   0.00235   0.00000  -0.28306  -0.00248  -0.03116  -0.00248   0.00000
   0.01155  -0.00555   0.00000   0.00000   0.00000   0.00000   0.00000   0.00000   0.00235   0.26038   0.01513  -0.00235  -0.02621  -0.00248  -0.28306  -0.01558   0.00248   0.02699
   0.00000   0.00000   0.00000   0.00000   0.00000   0.00000   0.00000   0.00000   0.03027   0.01513   1.76528   0.01513   0.00000  -0.03538  -0.01769  -1.83279  -0.01769   0.00000
   0.01155  -0.00555   0.00000   0.00000   0.00000   0.00000   0.00000   0.00000   0.00235  -0.00235   0.01513   0.26038   0.02621  -0.00248   0.00248  -0.01558  -0.28306  -0.02699
   0.00000   0.00000   0.00000   0.00000   0.00000   0.00000   0.00000   0.00000   0.00000  -0.02621   0.00000   0.02621   1.76528   0.00000   0.03064   0.00000  -0.03064  -1.83279
   0.01258  -0.00591   0.00000   0.00000   0.00000   0.00000   0.00000   0.00000  -0.28306  -0.00248  -0.03538  -0.00248   0.00000   0.30978   0.00252   0.03625   0.00252   0.00000
  -0.01258   0.00591   0.00000   0.00000   0.00000   0.00000   0.00000   0.00000  -0.00248  -0.28306  -0.01769   0.00248   0.03064   0.00252   0.30978   0.01812  -0.00252  -0.03139
   0.00000   0.00000   0.00000   0.00000   0.00000   0.00000   0.00000   0.00000  -0.03116  -0.01558  -1.83279  -0.01558   0.00000   0.03625   0.01812   1.90829   0.01812   0.00000
  -0.01258   0.00591   0.00000   0.00000   0.00000   0.00000   0.00000   0.00000  -0.00248   0.00248  -0.01769  -0.28306  -0.03064   0.00252  -0.00252   0.01812   0.30978   0.03139
   0.00000   0.00000   0.00000   0.00000   0.00000   0.00000   0.00000   0.00000   0.00000   0.02699   0.00000  -0.02699  -1.83279   0.00000  -0.03139   0.00000   0.03139   1.90829
   max. value=  8.06E+00, min. value=  0.00E+00

 "PAW+U" part of augmentation waves occupancies Rhoij:
 Atom #  1 - L=2 ONLY
   1.29728  -0.00502   0.00223  -0.00502   0.00000
  -0.00502   1.29728   0.00111   0.00502  -0.00193
   0.00223   0.00111   1.34142   0.00111   0.00000
  -0.00502   0.00502   0.00111   1.29728   0.00193
   0.00000  -0.00193   0.00000   0.00193   1.34142
 Atom #  2 - L=2 ONLY
   1.29728  -0.00502   0.00223  -0.00502   0.00000
  -0.00502   1.29728   0.00111   0.00502  -0.00193
   0.00223   0.00111   1.34142   0.00111   0.00000
  -0.00502   0.00502   0.00111   1.29728   0.00193
   0.00000  -0.00193   0.00000   0.00193   1.34142

 ---------- DFT+U DATA --------------------------------------------------- 

 ====== For Atom     1, occupations for correlated orbitals. lpawu =   2


 == Occupation matrix for correlated orbitals:

 Up component only...
     0.59868   -0.00232    0.00103   -0.00232    0.00000
    -0.00232    0.59868    0.00051    0.00232   -0.00089
     0.00103    0.00051    0.61904    0.00051    0.00000
    -0.00232    0.00232    0.00051    0.59868    0.00089
     0.00000   -0.00089    0.00000    0.00089    0.61904


 ====== For Atom     2, occupations for correlated orbitals. lpawu =   2


 == Occupation matrix for correlated orbitals:

 Up component only...
     0.59868   -0.00232    0.00103   -0.00232    0.00000
    -0.00232    0.59868    0.00051    0.00232   -0.00089
     0.00103    0.00051    0.61904    0.00051    0.00000
    -0.00232    0.00232    0.00051    0.59868    0.00089
     0.00000   -0.00089    0.00000    0.00089    0.61904



================================================================================

 ----iterations are completed or convergence reached----

 Mean square residual over all n,k,spin=   31.042E-09; max=  42.886E-08
   0.2500  0.2500  0.1667    1  1.07683E-07 kpt; spin; max resid(k); each band:
  3.82E-09 3.41E-09 1.74E-09 1.83E-09 1.10E-09 1.65E-09 9.31E-10 2.86E-09
  3.98E-08 5.02E-08 1.97E-08 1.98E-09 4.65E-08 6.61E-10 8.46E-09 1.35E-08
  5.05E-08 2.71E-08 3.27E-08 3.55E-08 4.14E-08 8.99E-09 1.42E-08 1.08E-07
  9.79E-08 4.60E-08 3.23E-08 2.73E-08 2.83E-08 2.34E-08 3.65E-08 2.53E-08
  2.97E-08 3.55E-08
  -0.2500  0.2500  0.1667    1  7.98094E-08 kpt; spin; max resid(k); each band:
  2.86E-09 3.24E-09 1.21E-09 1.68E-09 1.68E-09 1.31E-09 2.00E-09 2.94E-09
  5.70E-08 4.51E-08 3.08E-08 2.51E-08 3.39E-08 3.47E-08 3.36E-08 1.90E-08
  1.73E-08 4.29E-08 3.03E-08 5.19E-09 4.23E-08 7.29E-08 7.98E-08 6.05E-08
  6.37E-08 7.52E-08 2.56E-08 1.83E-08 3.56E-08 3.23E-08 3.88E-08 1.67E-08
  1.60E-08 1.27E-08
  -0.2500 -0.2500  0.1667    1  4.28859E-07 kpt; spin; max resid(k); each band:
  3.56E-09 3.93E-09 1.25E-09 9.47E-10 1.29E-09 4.54E-10 2.67E-09 3.03E-09
  6.62E-08 4.40E-08 7.07E-09 2.91E-08 1.90E-09 1.99E-08 3.71E-08 4.03E-08
  2.29E-08 4.61E-08 9.46E-09 2.58E-08 4.50E-08 4.63E-08 8.19E-08 1.35E-08
  4.05E-08 6.46E-08 2.93E-08 3.44E-08 3.08E-08 5.27E-08 1.06E-08 1.27E-08
  4.29E-07 3.17E-07
   0.2500  0.2500  0.5000    1  1.17013E-07 kpt; spin; max resid(k); each band:
  3.08E-09 3.56E-09 1.56E-09 1.70E-09 1.54E-09 1.06E-09 1.11E-09 2.73E-09
  2.17E-08 6.52E-08 5.41E-09 5.28E-09 3.24E-08 4.66E-09 3.00E-08 3.16E-08
  5.65E-08 3.79E-08 5.55E-08 1.35E-09 8.28E-08 4.53E-08 3.15E-08 3.45E-08
  1.07E-08 1.17E-07 4.18E-08 2.73E-08 3.14E-08 2.82E-08 3.45E-08 2.73E-08
  2.66E-08 4.48E-09
  -0.2500  0.2500  0.5000    1  1.06295E-07 kpt; spin; max resid(k); each band:
  3.35E-09 3.35E-09 1.46E-09 1.46E-09 1.29E-09 1.29E-09 2.79E-09 2.79E-09
  6.42E-08 6.42E-08 3.15E-08 3.15E-08 4.57E-09 4.57E-09 3.73E-08 3.73E-08
  5.24E-08 5.24E-08 1.19E-09 1.19E-09 4.33E-08 4.33E-08 1.15E-08 1.15E-08
  1.06E-07 1.06E-07 2.66E-08 2.66E-08 2.81E-08 2.81E-08 3.59E-08 3.59E-08
  5.07E-09 5.08E-09
 reduced coordinates (array xred) for    4 atoms
       0.000000000000      0.000000000000      0.000000000000
      -0.000000000000      0.000000000000      0.500000000000
       0.500000000000      0.500000000000      0.250000000000
       0.500000000000      0.500000000000      0.750000000000
 rms dE/dt=  0.0000E+00; max dE/dt=  0.0000E+00; dE/dt below (all hartree)
    1       0.000000000000      0.000000000000      0.000000000000
    2       0.000000000000      0.000000000000      0.000000000000
    3       0.000000000000      0.000000000000      0.000000000000
    4       0.000000000000      0.000000000000      0.000000000000

 cartesian coordinates (angstrom) at end:
    1      0.00000000000000     0.00000000000000     0.00000000000000
    2      2.09739386624646     2.09739386624646    -0.00000000000000
    3      2.09739386624646     2.09739386624646     2.09739386624646
    4      4.19478773249293     4.19478773249293     2.09739386624647

 cartesian forces (hartree/bohr) at end:
    1     -0.00000000000000    -0.00000000000000    -0.00000000000000
    2     -0.00000000000000    -0.00000000000000    -0.00000000000000
    3     -0.00000000000000    -0.00000000000000    -0.00000000000000
    4     -0.00000000000000    -0.00000000000000    -0.00000000000000
 frms,max,avg= 0.0000000E+00 0.0000000E+00   0.000E+00  0.000E+00  0.000E+00 h/b

 cartesian forces (eV/Angstrom) at end:
    1     -0.00000000000000    -0.00000000000000    -0.00000000000000
    2     -0.00000000000000    -0.00000000000000    -0.00000000000000
    3     -0.00000000000000    -0.00000000000000    -0.00000000000000
    4     -0.00000000000000    -0.00000000000000    -0.00000000000000
 frms,max,avg= 0.0000000E+00 0.0000000E+00   0.000E+00  0.000E+00  0.000E+00 e/A
 length scales=  7.927000000000  7.927000000000  7.927000000000 bohr
              =  4.194787732493  4.194787732493  4.194787732493 angstroms
 prteigrs : about to open file t106_MPI1o_DS1_EIG
 Fermi (or HOMO) energy (hartree) =   0.21517   Average Vxc (hartree)=  -0.54776
 Eigenvalues (hartree) for nkpt=   5  k points:
 kpt#   1, nband= 34, wtk=  0.16667, kpt=  0.2500  0.2500  0.1667 (reduced coord)
  -4.55834   -4.51213   -3.01209   -3.01122   -2.94071   -2.93539   -2.87672   -2.84987
  -0.75717   -0.72351   -0.32774   -0.32388   -0.25124   -0.22253   -0.20602   -0.20470
  -0.18082   -0.13817   -0.08648   -0.03170    0.15269    0.18597    0.19385    0.21167
   0.21932    0.23032    0.53981    0.75459    0.83781    0.89936    0.92705    1.09799
   1.12365    1.12911
      occupation numbers for kpt#   1
   2.00000    2.00000    2.00000    2.00000    2.00000    2.00000    2.00000    2.00000
   2.00000    2.00000    2.00000    2.00000    2.00000    2.00000    2.00000    2.00000
   2.00000    2.00000    2.00000    2.00000    1.99895    1.94298    1.85864    1.20847
   0.75399    0.27628    0.00000    0.00000    0.00000    0.00000    0.00000    0.00000
   0.00000    0.00000
 kpt#   2, nband= 34, wtk=  0.33333, kpt= -0.2500  0.2500  0.1667 (reduced coord)
  -4.51455   -4.51438   -2.94736   -2.94248   -2.93004   -2.92820   -2.85907   -2.85671
  -0.72556   -0.72429   -0.27091   -0.26200   -0.22177   -0.20961   -0.19303   -0.13718
  -0.11881   -0.10317   -0.07398    0.07312    0.18609    0.20114    0.20372    0.22185
   0.22266    0.23894    0.65679    0.73809    0.85473    0.87678    0.91731    0.92575
   1.06436    1.15379
      occupation numbers for kpt#   2
   2.00000    2.00000    2.00000    2.00000    2.00000    2.00000    2.00000    2.00000
   2.00000    2.00000    2.00000    2.00000    2.00000    2.00000    2.00000    2.00000
   2.00000    2.00000    2.00000    2.00000    1.94219    1.68963    1.59900    0.61686
   0.57596    0.10698    0.00000    0.00000    0.00000    0.00000    0.00000    0.00000
   0.00000    0.00000
 kpt#   3, nband= 34, wtk=  0.16667, kpt= -0.2500 -0.2500  0.1667 (reduced coord)
  -4.53082   -4.52284   -2.99354   -2.97176   -2.94932   -2.93595   -2.87024   -2.84911
  -0.74140   -0.72386   -0.31185   -0.27783   -0.26427   -0.25025   -0.19351   -0.18764
  -0.12635   -0.11427   -0.05163   -0.02667    0.16729    0.18350    0.20610    0.20937
   0.21536    0.22511    0.57789    0.60648    0.88871    0.91636    0.98416    0.99579
   1.13843    1.13878
      occupation numbers for kpt#   3
   2.00000    2.00000    2.00000    2.00000    2.00000    2.00000    2.00000    2.00000
   2.00000    2.00000    2.00000    2.00000    2.00000    2.00000    2.00000    2.00000
   2.00000    2.00000    2.00000    2.00000    1.99388    1.95735    1.49880    1.33643
   0.98856    0.46236    0.00000    0.00000    0.00000    0.00000    0.00000    0.00000
   0.00000    0.00000
 kpt#   4, nband= 34, wtk=  0.16667, kpt=  0.2500  0.2500  0.5000 (reduced coord)
  -4.56653   -4.52843   -3.00238   -3.00220   -2.96607   -2.94907   -2.92008   -2.86218
  -0.75478   -0.73612   -0.31689   -0.31684   -0.27874   -0.25853   -0.22394   -0.22390
  -0.21725   -0.18222   -0.12529   -0.00122    0.17688    0.18568    0.20452    0.20469
   0.20501    0.21471    0.53259    0.68028    0.84850    0.90556    0.93914    1.11155
   1.11168    1.11858
      occupation numbers for kpt#   4
   2.00000    2.00000    2.00000    2.00000    2.00000    2.00000    2.00000    2.00000
   2.00000    2.00000    2.00000    2.00000    2.00000    2.00000    2.00000    2.00000
   2.00000    2.00000    2.00000    2.00000    1.98061    1.94488    1.56729    1.56029
   1.54692    1.02759    0.00000    0.00000    0.00000    0.00000    0.00000    0.00000
   0.00000    0.00000
 kpt#   5, nband= 34, wtk=  0.16667, kpt= -0.2500  0.2500  0.5000 (reduced coord)
  -4.52844   -4.52844   -2.96609   -2.96609   -2.94894   -2.94894   -2.86228   -2.86228
  -0.73612   -0.73612   -0.27875   -0.27875   -0.25850   -0.25850   -0.18221   -0.18221
  -0.12537   -0.12537   -0.00116   -0.00116    0.18564    0.18564    0.20511    0.20511
   0.21468    0.21468    0.68031    0.68031    0.84853    0.84853    0.93916    0.93916
   1.11876    1.11876
      occupation numbers for kpt#   5
   2.00000    2.00000    2.00000    2.00000    2.00000    2.00000    2.00000    2.00000
   2.00000    2.00000    2.00000    2.00000    2.00000    2.00000    2.00000    2.00000
   2.00000    2.00000    2.00000    2.00000    1.94515    1.94515    1.54254    1.54254
   1.02954    1.02954    0.00000    0.00000    0.00000    0.00000    0.00000    0.00000
   0.00000    0.00000
 Total charge density [el/Bohr^3]
)     Maximum=    1.5060E+00  at reduced coord.    0.0000    0.0000    0.5000
)Next maximum=    1.5060E+00  at reduced coord.    0.0000    0.0000    0.0000
)     Minimum=    7.9583E-03  at reduced coord.    0.2500    0.1875    0.1563
)Next minimum=    7.9583E-03  at reduced coord.    0.1875    0.2500    0.1563
   Integrated=    4.8001E+01

--- !EnergyTerms
iteration_state     : {dtset: 1, }
comment             : Components of total free energy in Hartree
kinetic             :  4.68167919597543E+01
hartree             :  3.89804887774949E+01
xc                  : -2.93894241112787E+01
Ewald energy        : -2.37912533090452E+02
psp_core            :  2.13909366386736E+01
local_psp           : -1.20763947682778E+02
spherical_terms     : -7.21913085405110E+01
internal            : -3.53068996049097E+02
'-kT*entropy'       : -4.09106431602630E-02
total_energy        : -3.53109906692257E+02
total_energy_eV     : -9.60860921577179E+03
...


--- !EnergyTermsDC
iteration_state     : {dtset: 1, }
comment             : '"Double-counting" decomposition of free energy'
band_energy         : -5.81520428112300E+01
Ewald energy        : -2.37912533090452E+02
psp_core            :  2.13909366386736E+01
xc_dc               : -2.98170287286236E+01
spherical_terms     : -4.85813435705029E+01
internal            : -3.53072011562135E+02
'-kT*entropy'       : -4.09106431602630E-02
total_energy_dc     : -3.53112922205296E+02
total_energy_dc_eV  : -9.60869127205462E+03
...


 Cartesian components of stress tensor (hartree/bohr^3)
  sigma(1 1)=  1.26284295E-01  sigma(3 2)=  1.69275191E-04
  sigma(2 2)=  1.26284295E-01  sigma(3 1)=  1.69275191E-04
  sigma(3 3)=  1.26284295E-01  sigma(2 1)= -1.69275191E-04

-Cartesian components of stress tensor (GPa)         [Pressure= -3.7154E+03 GPa]
- sigma(1 1)=  3.71541161E+03  sigma(3 2)=  4.98024723E+00
- sigma(2 2)=  3.71541161E+03  sigma(3 1)=  4.98024723E+00
- sigma(3 3)=  3.71541161E+03  sigma(2 1)= -4.98024723E+00

================================================================================
== DATASET  2 ==================================================================
-   mpi_nproc: 1, omp_nthreads: -1 (-1 if OMP is not activated)


--- !DatasetInfo
iteration_state: {dtset: 2, }
dimensions: {natom: 4, nkpt: 5, mband: 34, nsppol: 1, nspinor: 1, nspden: 1, mpw: 100, }
cutoff_energies: {ecut:   4.0, pawecutdg:   8.0, }
electrons: {nelect:   4.80000000E+01, charge:   0.00000000E+00, occopt:   3.00000000E+00, tsmear:   8.27500000E-03, }
meta: {optdriver: 0, ionmov: 0, optcell: 0, iscf: 17, paral_kgb: 0, }
...

 mkfilename : getwfk/=0, take file _WFK from output of DATASET   1.

 Exchange-correlation functional for the present dataset will be:
  LDA: Perdew-Wang 92 LSD fit to Ceperley-Alder data - ixc=7
 Citation for XC functional:
  J.P.Perdew and Y.Wang, PRB 45, 13244 (1992)

 Real(R)+Recip(G) space primitive vectors, cartesian coordinates (Bohr,Bohr^-1):
 R(1)=  0.0000000  3.9635000  3.9635000  G(1)= -0.1261511  0.1261511  0.1261511
 R(2)=  3.9635000  0.0000000  3.9635000  G(2)=  0.1261511 -0.1261511  0.1261511
 R(3)=  7.9270000  7.9270000  0.0000000  G(3)=  0.0630756  0.0630756 -0.0630756
 Unit cell volume ucvol=  2.4905575E+02 bohr^3
 Angles (23,13,12)=  6.00000000E+01  6.00000000E+01  6.00000000E+01 degrees

 Coarse grid specifications (used for wave-functions):

 getcut: wavevector=  0.0000  0.0000  0.0000  ngfft=  12  12  24
         ecut(hartree)=      4.000   => boxcut(ratio)=   2.37789

 getcut : COMMENT -
  Note that boxcut > 2.2 ; recall that boxcut=Gcut(box)/Gcut(sphere) = 2
  is sufficient for exact treatment of convolution.
  Such a large boxcut is a waste : you could raise ecut
  e.g. ecut=    5.654374 Hartrees makes boxcut=2


 Fine grid specifications (used for densities):

 getcut: wavevector=  0.0000  0.0000  0.0000  ngfft=  16  16  32
         ecut(hartree)=      8.000   => boxcut(ratio)=   2.24190

 getcut : COMMENT -
  Note that boxcut > 2.2 ; recall that boxcut=Gcut(box)/Gcut(sphere) = 2
  is sufficient for exact treatment of convolution.
  Such a large boxcut is a waste : you could raise ecut
  e.g. ecut=   10.052220 Hartrees makes boxcut=2

--------------------------------------------------------------------------------

-inwffil : will read wavefunctions from disk file t106_MPI1o_DS1_WFK
P newkpt: treating     34 bands with npw=      98 for ikpt=   1 by node    0
P newkpt: treating     34 bands with npw=      94 for ikpt=   2 by node    0
P newkpt: treating     34 bands with npw=      96 for ikpt=   3 by node    0
P newkpt: treating     34 bands with npw=     100 for ikpt=   4 by node    0
P newkpt: treating     34 bands with npw=      96 for ikpt=   5 by node    0
_setup2: Arith. and geom. avg. npw (full set) are      96.333      96.310

-       ( number of procs used in dmft ) =    1


 ******************************************
 DFT+DMFT Method is used
 ******************************************

 DMFT uses the Continuous Time Quantum Monte Carlo solver of TRIQS (with rotationally invariant interactions)

 Non Magnetic DFT, with Non-Magnetic exact double counting

 Entropy is not computed, only the internal energy is printed

 The imaginary part of the Green's function is neglected

================================================================================

--- !BeginCycle
iteration_state: {dtset: 2, }
solver: {iscf: 17, nstep: 2, nline: 10, wfoptalg: 10, }
tolerances: {tolvrs: 1.00E-05, }
...

     iter   Etot(hartree)      deltaE(h)  residm     nres2
 (Edmft  1   4.57087554316)

  == The DFT+DMFT occupation matrix for correlated electrons is ==

   -------> For Correlated Atom 1

          -- polarization spin component 1
       0.97326 -0.00000    0.01096 -0.00000    0.57901 -0.65912    0.01096  0.00000    0.00000  0.00000
       0.01096  0.00000    0.97326 -0.00000    0.28951 -0.32956   -0.01096  0.00000   -0.50144  0.57081
       0.57901  0.65912    0.28951  0.32956    0.95721 -0.00000    0.28951  0.32956   -0.00000  0.00000
       0.01096 -0.00000   -0.01096  0.00000    0.28951 -0.32956    0.97326 -0.00000    0.50144 -0.57081
      -0.00000  0.00000   -0.50144 -0.57081    0.00000 -0.00000    0.50144  0.57081    0.95721 -0.00000

   -------> For Correlated Atom 2

          -- polarization spin component 1
       0.97326 -0.00000    0.01096 -0.00000    0.57901 -0.65912    0.01096  0.00000    0.00000  0.00000
       0.01096  0.00000    0.97326 -0.00000    0.28951 -0.32956   -0.01096  0.00000   -0.50144  0.57081
       0.57901  0.65912    0.28951  0.32956    0.95721 -0.00000    0.28951  0.32956   -0.00000  0.00000
       0.01096 -0.00000   -0.01096  0.00000    0.28951 -0.32956    0.97326 -0.00000    0.50144 -0.57081
      -0.00000  0.00000   -0.50144 -0.57081    0.00000 -0.00000    0.50144  0.57081    0.95721 -0.00000

 ETOT  1  -347.72804485670    -3.477E+02 9.703E-23 5.743E+00
 (Edmft  2   4.16904139726)

  == The DFT+DMFT occupation matrix for correlated electrons is ==

   -------> For Correlated Atom 1

          -- polarization spin component 1
      -3.83317 -0.00000   -2.37197  0.00000    8.91287  5.63346   -2.37197  0.00000    0.00000 -0.00000
      -2.37197  0.00000   -3.83317 -0.00000    4.45644  2.81673    2.37197  0.00000   -7.71878 -4.87872
       8.91287 -5.63346    4.45644 -2.81673  -11.16462  0.00000    4.45644 -2.81673    0.00000 -0.00000
      -2.37197 -0.00000    2.37197 -0.00000    4.45644  2.81673   -3.83317 -0.00000    7.71878  4.87872
      -0.00000  0.00000   -7.71878  4.87872   -0.00000  0.00000    7.71878 -4.87872  -11.16462  0.00000

   -------> For Correlated Atom 2

          -- polarization spin component 1
      -3.83317 -0.00000   -2.37197  0.00000    8.91287  5.63346   -2.37197  0.00000    0.00000 -0.00000
      -2.37197  0.00000   -3.83317 -0.00000    4.45644  2.81673    2.37197  0.00000   -7.71878 -4.87872
       8.91287 -5.63346    4.45644 -2.81673  -11.16462  0.00000    4.45644 -2.81673    0.00000 -0.00000
      -2.37197 -0.00000    2.37197 -0.00000    4.45644  2.81673   -3.83317 -0.00000    7.71878  4.87872
      -0.00000  0.00000   -7.71878  4.87872   -0.00000 -0.00000    7.71878 -4.87872  -11.16462  0.00000

 ETOT  2  -322.12761189215     2.560E+01 1.656E-17 1.265E+04

 Cartesian components of stress tensor (hartree/bohr^3)
  sigma(1 1)=  1.51101772E+00  sigma(3 2)=  3.09928784E-01
  sigma(2 2)=  1.51101772E+00  sigma(3 1)=  3.09928784E-01
  sigma(3 3)=  1.51101772E+00  sigma(2 1)= -3.09928784E-01


 scprqt:  WARNING -
  nstep=    2 was not enough SCF cycles to converge;
  density residual=  1.265E+04 exceeds tolvrs=  1.000E-05


--- !ResultsGS
iteration_state: {dtset: 2, }
comment   : Summary of ground state results
lattice_vectors:
- [  0.0000000,   3.9635000,   3.9635000, ]
- [  3.9635000,   0.0000000,   3.9635000, ]
- [  7.9270000,   7.9270000,   0.0000000, ]
lattice_lengths: [   5.60524,    5.60524,   11.21047, ]
lattice_angles: [ 60.000,  60.000,  60.000, ] # degrees, (23, 13, 12)
lattice_volume:   2.4905575E+02
convergence: {deltae:  2.560E+01, res2:  1.265E+04, residm:  1.656E-17, diffor:  0.000E+00, }
etotal    :  -3.22127612E+02
entropy   :   0.00000000E+00
fermie    :   2.14725568E-01
cartesian_stress_tensor: # hartree/bohr^3
- [  1.51101772E+00,  -3.09928784E-01,   3.09928784E-01, ]
- [ -3.09928784E-01,   1.51101772E+00,   3.09928784E-01, ]
- [  3.09928784E-01,   3.09928784E-01,   1.51101772E+00, ]
pressure_GPa:  -4.4456E+04
xred      :
- [  0.0000E+00,   0.0000E+00,   0.0000E+00, Ni]
- [ -1.9935E-17,   1.9935E-17,   5.0000E-01, Ni]
- [  5.0000E-01,   5.0000E-01,   2.5000E-01,  O]
- [  5.0000E-01,   5.0000E-01,   7.5000E-01,  O]
cartesian_forces: null
force_length_stats: {min: null, max: null, mean: null, }
...

 Integrated electronic density in atomic spheres:
 ------------------------------------------------
 Atom  Sphere_radius  Integrated_density
    1        2.30000        -56.55520684
    2        2.30000        -56.55520684
    3        1.21105         -0.01745668
    4        1.21105         -0.01745668

 PAW TEST:
 ==== Compensation charge inside spheres ============
 The following values must be close to each other ...
 Compensation charge over spherical meshes =     18.560598789792206
 Compensation charge over fine fft grid    =    -49.309468181324299

 ==== Results concerning PAW augmentation regions ====

 Total pseudopotential strength Dij (hartree):
 Atom #  1
  -3.80181  -1.30099   0.00000   0.00000   0.00000   0.00000   0.00000   0.00000  -0.04301   0.04301   0.00000   0.04301   0.00000
  -1.30099  -0.65677   0.00000   0.00000   0.00000   0.00000   0.00000   0.00000  -0.01407   0.01407   0.00000   0.01407   0.00000
   0.00000   0.00000  -3.45633   0.03892  -0.03892  -0.79965   0.01036  -0.01036   0.00000   0.00000   0.00000   0.00000   0.00000
   0.00000   0.00000   0.03892  -3.45633   0.03892   0.01036  -0.79965   0.01036   0.00000   0.00000   0.00000   0.00000   0.00000
   0.00000   0.00000  -0.03892   0.03892  -3.45633  -0.01036   0.01036  -0.79965   0.00000   0.00000   0.00000   0.00000   0.00000
   0.00000   0.00000  -0.79965   0.01036  -0.01036  -0.38206   0.00336  -0.00336   0.00000   0.00000   0.00000   0.00000   0.00000
   0.00000   0.00000   0.01036  -0.79965   0.01036   0.00336  -0.38206   0.00336   0.00000   0.00000   0.00000   0.00000   0.00000
   0.00000   0.00000  -0.01036   0.01036  -0.79965  -0.00336   0.00336  -0.38206   0.00000   0.00000   0.00000   0.00000   0.00000
  -0.04301  -0.01407   0.00000   0.00000   0.00000   0.00000   0.00000   0.00000  -1.37586   0.02101   0.02996   0.02101   0.00000
   0.04301   0.01407   0.00000   0.00000   0.00000   0.00000   0.00000   0.00000   0.02101  -1.37586   0.01498  -0.02101  -0.02594
   0.00000   0.00000   0.00000   0.00000   0.00000   0.00000   0.00000   0.00000   0.02996   0.01498  -1.37647   0.01498   0.00000
   0.04301   0.01407   0.00000   0.00000   0.00000   0.00000   0.00000   0.00000   0.02101  -0.02101   0.01498  -1.37586   0.02594
   0.00000   0.00000   0.00000   0.00000   0.00000   0.00000   0.00000   0.00000   0.00000  -0.02594   0.00000   0.02594  -1.37647
   max. value=  3.80E+00, min. value=  0.00E+00
 Atom #  2
  -3.80181  -1.30099   0.00000   0.00000   0.00000   0.00000   0.00000   0.00000  -0.04301   0.04301   0.00000   0.04301   0.00000
  -1.30099  -0.65677   0.00000   0.00000   0.00000   0.00000   0.00000   0.00000  -0.01407   0.01407   0.00000   0.01407   0.00000
   0.00000   0.00000  -3.45633   0.03892  -0.03892  -0.79965   0.01036  -0.01036   0.00000   0.00000   0.00000   0.00000   0.00000
   0.00000   0.00000   0.03892  -3.45633   0.03892   0.01036  -0.79965   0.01036   0.00000   0.00000   0.00000   0.00000   0.00000
   0.00000   0.00000  -0.03892   0.03892  -3.45633  -0.01036   0.01036  -0.79965   0.00000   0.00000   0.00000   0.00000   0.00000
   0.00000   0.00000  -0.79965   0.01036  -0.01036  -0.38206   0.00336  -0.00336   0.00000   0.00000   0.00000   0.00000   0.00000
   0.00000   0.00000   0.01036  -0.79965   0.01036   0.00336  -0.38206   0.00336   0.00000   0.00000   0.00000   0.00000   0.00000
   0.00000   0.00000  -0.01036   0.01036  -0.79965  -0.00336   0.00336  -0.38206   0.00000   0.00000   0.00000   0.00000   0.00000
  -0.04301  -0.01407   0.00000   0.00000   0.00000   0.00000   0.00000   0.00000  -1.37586   0.02101   0.02996   0.02101   0.00000
   0.04301   0.01407   0.00000   0.00000   0.00000   0.00000   0.00000   0.00000   0.02101  -1.37586   0.01498  -0.02101  -0.02594
   0.00000   0.00000   0.00000   0.00000   0.00000   0.00000   0.00000   0.00000   0.02996   0.01498  -1.37647   0.01498   0.00000
   0.04301   0.01407   0.00000   0.00000   0.00000   0.00000   0.00000   0.00000   0.02101  -0.02101   0.01498  -1.37586   0.02594
   0.00000   0.00000   0.00000   0.00000   0.00000   0.00000   0.00000   0.00000   0.00000  -0.02594   0.00000   0.02594  -1.37647
   max. value=  3.80E+00, min. value=  0.00E+00
 Atom #  3
   0.70553   1.19332   0.00000   0.00000   0.00000   0.00000   0.00000   0.00000  -0.00006   0.00006   0.00000   0.00006   0.00000  -0.00006   0.00006   0.00000   0.00006   0.00000
   1.19332   2.01545   0.00000   0.00000   0.00000   0.00000   0.00000   0.00000  -0.00009   0.00009   0.00000   0.00009   0.00000  -0.00010   0.00010   0.00000   0.00010   0.00000
   0.00000   0.00000  -0.47497  -0.00056   0.00056  -0.59346  -0.00080   0.00080   0.00000   0.00000   0.00000   0.00000   0.00000   0.00000   0.00000   0.00000   0.00000   0.00000
   0.00000   0.00000  -0.00056  -0.47497  -0.00056  -0.00080  -0.59346  -0.00080   0.00000   0.00000   0.00000   0.00000   0.00000   0.00000   0.00000   0.00000   0.00000   0.00000
   0.00000   0.00000   0.00056  -0.00056  -0.47497   0.00080  -0.00080  -0.59346   0.00000   0.00000   0.00000   0.00000   0.00000   0.00000   0.00000   0.00000   0.00000   0.00000
   0.00000   0.00000  -0.59346  -0.00080   0.00080  -0.71692  -0.00113   0.00113   0.00000   0.00000   0.00000   0.00000   0.00000   0.00000   0.00000   0.00000   0.00000   0.00000
   0.00000   0.00000  -0.00080  -0.59346  -0.00080  -0.00113  -0.71692  -0.00113   0.00000   0.00000   0.00000   0.00000   0.00000   0.00000   0.00000   0.00000   0.00000   0.00000
   0.00000   0.00000   0.00080  -0.00080  -0.59346   0.00113  -0.00113  -0.71692   0.00000   0.00000   0.00000   0.00000   0.00000   0.00000   0.00000   0.00000   0.00000   0.00000
  -0.00006  -0.00009   0.00000   0.00000   0.00000   0.00000   0.00000   0.00000  -0.02680  -0.00003  -0.00005  -0.00003   0.00000  -0.02611  -0.00004  -0.00005  -0.00004   0.00000
   0.00006   0.00009   0.00000   0.00000   0.00000   0.00000   0.00000   0.00000  -0.00003  -0.02680  -0.00002   0.00003   0.00004  -0.00004  -0.02611  -0.00003   0.00004   0.00004
   0.00000   0.00000   0.00000   0.00000   0.00000   0.00000   0.00000   0.00000  -0.00005  -0.00002  -0.02694  -0.00002   0.00000  -0.00005  -0.00003  -0.02627  -0.00003   0.00000
   0.00006   0.00009   0.00000   0.00000   0.00000   0.00000   0.00000   0.00000  -0.00003   0.00003  -0.00002  -0.02680  -0.00004  -0.00004   0.00004  -0.00003  -0.02611  -0.00004
   0.00000   0.00000   0.00000   0.00000   0.00000   0.00000   0.00000   0.00000   0.00000   0.00004   0.00000  -0.00004  -0.02694   0.00000   0.00004   0.00000  -0.00004  -0.02627
  -0.00006  -0.00010   0.00000   0.00000   0.00000   0.00000   0.00000   0.00000  -0.02611  -0.00004  -0.00005  -0.00004   0.00000  -0.02518  -0.00004  -0.00005  -0.00004   0.00000
   0.00006   0.00010   0.00000   0.00000   0.00000   0.00000   0.00000   0.00000  -0.00004  -0.02611  -0.00003   0.00004   0.00004  -0.00004  -0.02518  -0.00003   0.00004   0.00005
   0.00000   0.00000   0.00000   0.00000   0.00000   0.00000   0.00000   0.00000  -0.00005  -0.00003  -0.02627  -0.00003   0.00000  -0.00005  -0.00003  -0.02534  -0.00003   0.00000
   0.00006   0.00010   0.00000   0.00000   0.00000   0.00000   0.00000   0.00000  -0.00004   0.00004  -0.00003  -0.02611  -0.00004  -0.00004   0.00004  -0.00003  -0.02518  -0.00005
   0.00000   0.00000   0.00000   0.00000   0.00000   0.00000   0.00000   0.00000   0.00000   0.00004   0.00000  -0.00004  -0.02627   0.00000   0.00005   0.00000  -0.00005  -0.02534
   max. value=  2.02E+00, min. value=  0.00E+00
 Atom #  4
   0.70553   1.19332   0.00000   0.00000   0.00000   0.00000   0.00000   0.00000  -0.00006   0.00006   0.00000   0.00006   0.00000  -0.00006   0.00006   0.00000   0.00006   0.00000
   1.19332   2.01545   0.00000   0.00000   0.00000   0.00000   0.00000   0.00000  -0.00009   0.00009   0.00000   0.00009   0.00000  -0.00010   0.00010   0.00000   0.00010   0.00000
   0.00000   0.00000  -0.47497  -0.00056   0.00056  -0.59346  -0.00080   0.00080   0.00000   0.00000   0.00000   0.00000   0.00000   0.00000   0.00000   0.00000   0.00000   0.00000
   0.00000   0.00000  -0.00056  -0.47497  -0.00056  -0.00080  -0.59346  -0.00080   0.00000   0.00000   0.00000   0.00000   0.00000   0.00000   0.00000   0.00000   0.00000   0.00000
   0.00000   0.00000   0.00056  -0.00056  -0.47497   0.00080  -0.00080  -0.59346   0.00000   0.00000   0.00000   0.00000   0.00000   0.00000   0.00000   0.00000   0.00000   0.00000
   0.00000   0.00000  -0.59346  -0.00080   0.00080  -0.71692  -0.00113   0.00113   0.00000   0.00000   0.00000   0.00000   0.00000   0.00000   0.00000   0.00000   0.00000   0.00000
   0.00000   0.00000  -0.00080  -0.59346  -0.00080  -0.00113  -0.71692  -0.00113   0.00000   0.00000   0.00000   0.00000   0.00000   0.00000   0.00000   0.00000   0.00000   0.00000
   0.00000   0.00000   0.00080  -0.00080  -0.59346   0.00113  -0.00113  -0.71692   0.00000   0.00000   0.00000   0.00000   0.00000   0.00000   0.00000   0.00000   0.00000   0.00000
  -0.00006  -0.00009   0.00000   0.00000   0.00000   0.00000   0.00000   0.00000  -0.02680  -0.00003  -0.00005  -0.00003   0.00000  -0.02611  -0.00004  -0.00005  -0.00004   0.00000
   0.00006   0.00009   0.00000   0.00000   0.00000   0.00000   0.00000   0.00000  -0.00003  -0.02680  -0.00002   0.00003   0.00004  -0.00004  -0.02611  -0.00003   0.00004   0.00004
   0.00000   0.00000   0.00000   0.00000   0.00000   0.00000   0.00000   0.00000  -0.00005  -0.00002  -0.02694  -0.00002   0.00000  -0.00005  -0.00003  -0.02627  -0.00003   0.00000
   0.00006   0.00009   0.00000   0.00000   0.00000   0.00000   0.00000   0.00000  -0.00003   0.00003  -0.00002  -0.02680  -0.00004  -0.00004   0.00004  -0.00003  -0.02611  -0.00004
   0.00000   0.00000   0.00000   0.00000   0.00000   0.00000   0.00000   0.00000   0.00000   0.00004   0.00000  -0.00004  -0.02694   0.00000   0.00004   0.00000  -0.00004  -0.02627
  -0.00006  -0.00010   0.00000   0.00000   0.00000   0.00000   0.00000   0.00000  -0.02611  -0.00004  -0.00005  -0.00004   0.00000  -0.02518  -0.00004  -0.00005  -0.00004   0.00000
   0.00006   0.00010   0.00000   0.00000   0.00000   0.00000   0.00000   0.00000  -0.00004  -0.02611  -0.00003   0.00004   0.00004  -0.00004  -0.02518  -0.00003   0.00004   0.00005
   0.00000   0.00000   0.00000   0.00000   0.00000   0.00000   0.00000   0.00000  -0.00005  -0.00003  -0.02627  -0.00003   0.00000  -0.00005  -0.00003  -0.02534  -0.00003   0.00000
   0.00006   0.00010   0.00000   0.00000   0.00000   0.00000   0.00000   0.00000  -0.00004   0.00004  -0.00003  -0.02611  -0.00004  -0.00004   0.00004  -0.00003  -0.02518  -0.00005
   0.00000   0.00000   0.00000   0.00000   0.00000   0.00000   0.00000   0.00000   0.00000   0.00004   0.00000  -0.00004  -0.02627   0.00000   0.00005   0.00000  -0.00005  -0.02534
   max. value=  2.02E+00, min. value=  0.00E+00


 Augmentation waves occupancies Rhoij:
 Atom #  1
   1.44404   0.70232   0.00000   0.00000   0.00000   0.00000   0.00000   0.00000   0.42128  -0.42128   0.00000  -0.42128   0.00000
   0.70232  -0.29650   0.00000   0.00000   0.00000   0.00000   0.00000   0.00000  -1.04671   1.04671   0.00000   1.04671   0.00000
   0.00000   0.00000   1.11936  -0.06645   0.06645   1.05110   0.05992  -0.05992   0.00000   0.00000   0.00000   0.00000   0.00000
   0.00000   0.00000  -0.06645   1.11936  -0.06645   0.05992   1.05110   0.05992   0.00000   0.00000   0.00000   0.00000   0.00000
   0.00000   0.00000   0.06645  -0.06645   1.11936  -0.05992   0.05992   1.05110   0.00000   0.00000   0.00000   0.00000   0.00000
   0.00000   0.00000   1.05110   0.05992  -0.05992   0.88980   0.03766  -0.03766   0.00000   0.00000   0.00000   0.00000   0.00000
   0.00000   0.00000   0.05992   1.05110   0.05992   0.03766   0.88980   0.03766   0.00000   0.00000   0.00000   0.00000   0.00000
   0.00000   0.00000  -0.05992   0.05992   1.05110  -0.03766   0.03766   0.88980   0.00000   0.00000   0.00000   0.00000   0.00000
   0.42128  -1.04671   0.00000   0.00000   0.00000   0.00000   0.00000   0.00000  -5.90630  -3.54713  10.30501  -3.54713   0.00000
  -0.42128   1.04671   0.00000   0.00000   0.00000   0.00000   0.00000   0.00000  -3.54713  -5.90630   5.15251   3.54713  -8.92440
   0.00000   0.00000   0.00000   0.00000   0.00000   0.00000   0.00000   0.00000  10.30501   5.15251 -14.70004   5.15251   0.00000
  -0.42128   1.04671   0.00000   0.00000   0.00000   0.00000   0.00000   0.00000  -3.54713   3.54713   5.15251  -5.90630   8.92440
   0.00000   0.00000   0.00000   0.00000   0.00000   0.00000   0.00000   0.00000   0.00000  -8.92440   0.00000   8.92440 -14.70004
   max. value=  1.47E+01, min. value=  0.00E+00
 Atom #  2
   1.44404   0.70232   0.00000   0.00000   0.00000   0.00000   0.00000   0.00000   0.42128  -0.42128   0.00000  -0.42128   0.00000
   0.70232  -0.29650   0.00000   0.00000   0.00000   0.00000   0.00000   0.00000  -1.04671   1.04671   0.00000   1.04671   0.00000
   0.00000   0.00000   1.11936  -0.06645   0.06645   1.05110   0.05992  -0.05992   0.00000   0.00000   0.00000   0.00000   0.00000
   0.00000   0.00000  -0.06645   1.11936  -0.06645   0.05992   1.05110   0.05992   0.00000   0.00000   0.00000   0.00000   0.00000
   0.00000   0.00000   0.06645  -0.06645   1.11936  -0.05992   0.05992   1.05110   0.00000   0.00000   0.00000   0.00000   0.00000
   0.00000   0.00000   1.05110   0.05992  -0.05992   0.88980   0.03766  -0.03766   0.00000   0.00000   0.00000   0.00000   0.00000
   0.00000   0.00000   0.05992   1.05110   0.05992   0.03766   0.88980   0.03766   0.00000   0.00000   0.00000   0.00000   0.00000
   0.00000   0.00000  -0.05992   0.05992   1.05110  -0.03766   0.03766   0.88980   0.00000   0.00000   0.00000   0.00000   0.00000
   0.42128  -1.04671   0.00000   0.00000   0.00000   0.00000   0.00000   0.00000  -5.90630  -3.54713  10.30501  -3.54713   0.00000
  -0.42128   1.04671   0.00000   0.00000   0.00000   0.00000   0.00000   0.00000  -3.54713  -5.90630   5.15251   3.54713  -8.92440
   0.00000   0.00000   0.00000   0.00000   0.00000   0.00000   0.00000   0.00000  10.30501   5.15251 -14.70004   5.15251   0.00000
  -0.42128   1.04671   0.00000   0.00000   0.00000   0.00000   0.00000   0.00000  -3.54713   3.54713   5.15251  -5.90630   8.92440
   0.00000   0.00000   0.00000   0.00000   0.00000   0.00000   0.00000   0.00000   0.00000  -8.92440   0.00000   8.92440 -14.70004
   max. value=  1.47E+01, min. value=  0.00E+00
 Atom #  3
  13.35844  -7.40003   0.00000   0.00000   0.00000   0.00000   0.00000   0.00000  -8.09930   8.09930   0.00000   8.09930   0.00000   8.77379  -8.77379   0.00000  -8.77379   0.00000
  -7.40003   2.93541   0.00000   0.00000   0.00000   0.00000   0.00000   0.00000   1.67225  -1.67225   0.00000  -1.67225   0.00000  -2.07945   2.07945   0.00000   2.07945   0.00000
   0.00000   0.00000  10.83879  -1.58436   1.58436  -5.70594   0.71594  -0.71594   0.00000   0.00000   0.00000   0.00000   0.00000   0.00000   0.00000   0.00000   0.00000   0.00000
   0.00000   0.00000  -1.58436  10.83879  -1.58436   0.71594  -5.70594   0.71594   0.00000   0.00000   0.00000   0.00000   0.00000   0.00000   0.00000   0.00000   0.00000   0.00000
   0.00000   0.00000   1.58436  -1.58436  10.83879  -0.71594   0.71594  -5.70594   0.00000   0.00000   0.00000   0.00000   0.00000   0.00000   0.00000   0.00000   0.00000   0.00000
   0.00000   0.00000  -5.70594   0.71594  -0.71594   2.96102  -0.39431   0.39431   0.00000   0.00000   0.00000   0.00000   0.00000   0.00000   0.00000   0.00000   0.00000   0.00000
   0.00000   0.00000   0.71594  -5.70594   0.71594  -0.39431   2.96102  -0.39431   0.00000   0.00000   0.00000   0.00000   0.00000   0.00000   0.00000   0.00000   0.00000   0.00000
   0.00000   0.00000  -0.71594   0.71594  -5.70594   0.39431  -0.39431   2.96102   0.00000   0.00000   0.00000   0.00000   0.00000   0.00000   0.00000   0.00000   0.00000   0.00000
  -8.09930   1.67225   0.00000   0.00000   0.00000   0.00000   0.00000   0.00000  -0.80847  -0.78897  -8.25282  -0.78897   0.00000   0.17937   0.46074   8.78668   0.46074   0.00000
   8.09930  -1.67225   0.00000   0.00000   0.00000   0.00000   0.00000   0.00000  -0.78897  -0.80847  -4.12641   0.78897   7.14715   0.46074   0.17937   4.39334  -0.46074  -7.60949
   0.00000   0.00000   0.00000   0.00000   0.00000   0.00000   0.00000   0.00000  -8.25282  -4.12641 -17.66946  -4.12641   0.00000   4.64269   2.32134  18.16501   2.32134   0.00000
   8.09930  -1.67225   0.00000   0.00000   0.00000   0.00000   0.00000   0.00000  -0.78897   0.78897  -4.12641  -0.80847  -7.14715   0.46074  -0.46074   4.39334   0.17937   7.60949
   0.00000   0.00000   0.00000   0.00000   0.00000   0.00000   0.00000   0.00000   0.00000   7.14715   0.00000  -7.14715 -17.66946   0.00000  -4.02068   0.00000   4.02068  18.16501
   8.77379  -2.07945   0.00000   0.00000   0.00000   0.00000   0.00000   0.00000   0.17937   0.46074   4.64269   0.46074   0.00000  -0.15750  -0.28278  -4.35836  -0.28278   0.00000
  -8.77379   2.07945   0.00000   0.00000   0.00000   0.00000   0.00000   0.00000   0.46074   0.17937   2.32134  -0.46074  -4.02068  -0.28278  -0.15750  -2.17918   0.28278   3.77445
   0.00000   0.00000   0.00000   0.00000   0.00000   0.00000   0.00000   0.00000   8.78668   4.39334  18.16501   4.39334   0.00000  -4.35836  -2.17918 -18.66873  -2.17918   0.00000
  -8.77379   2.07945   0.00000   0.00000   0.00000   0.00000   0.00000   0.00000   0.46074  -0.46074   2.32134   0.17937   4.02068  -0.28278   0.28278  -2.17918  -0.15750  -3.77445
   0.00000   0.00000   0.00000   0.00000   0.00000   0.00000   0.00000   0.00000   0.00000  -7.60949   0.00000   7.60949  18.16501   0.00000   3.77445   0.00000  -3.77445 -18.66873
   max. value=  1.87E+01, min. value=  0.00E+00
 Atom #  4
  13.35844  -7.40003   0.00000   0.00000   0.00000   0.00000   0.00000   0.00000  -8.09930   8.09930   0.00000   8.09930   0.00000   8.77379  -8.77379   0.00000  -8.77379   0.00000
  -7.40003   2.93541   0.00000   0.00000   0.00000   0.00000   0.00000   0.00000   1.67225  -1.67225   0.00000  -1.67225   0.00000  -2.07945   2.07945   0.00000   2.07945   0.00000
[...]
Ewald energy        : -2.37912533090452E+02
psp_core            :  2.13909366386736E+01
local_psp           : -1.20463171577916E+02
spherical_terms     : -7.21172495375051E+01
interaction         :  1.73398236873240E+01
'-double_counting'  : -1.31707822900658E+01
internal            : -5.60205835744660E+02
total_energy        : -5.60205835744660E+02
total_energy_eV     : -1.52439760370601E+04
...


--- !EnergyTermsDC
iteration_state     : {dtset: 2, }
comment             : '"Double-counting" decomposition of internal energy'
band_energy         : -3.14329364045408E+01
Ewald energy        : -2.37912533090452E+02
psp_core            :  2.13909366386736E+01
xc_dc               : -2.97308783096597E+01
spherical_terms     : -4.86112421234278E+01
interaction         :  1.73398236873240E+01
'-double_counting'  : -1.31707822900658E+01
internal            : -3.22127611892149E+02
total_energy_dc     : -3.22127611892149E+02
total_energy_dc_eV  : -8.76553809910236E+03
...


 Cartesian components of stress tensor (hartree/bohr^3)
  sigma(1 1)=  1.51101772E+00  sigma(3 2)=  3.09928784E-01
  sigma(2 2)=  1.51101772E+00  sigma(3 1)=  3.09928784E-01
  sigma(3 3)=  1.51101772E+00  sigma(2 1)= -3.09928784E-01

-Cartesian components of stress tensor (GPa)         [Pressure= -4.4456E+04 GPa]
- sigma(1 1)=  4.44556686E+04  sigma(3 2)=  9.11841810E+03
- sigma(2 2)=  4.44556686E+04  sigma(3 1)=  9.11841810E+03
- sigma(3 3)=  4.44556686E+04  sigma(2 1)= -9.11841810E+03

== END DATASET(S) ==============================================================
================================================================================
  
 -outvars: echo values of variables after computation  --------
            acell      7.9270000000E+00  7.9270000000E+00  7.9270000000E+00 Bohr
              amu      5.86900000E+01  1.59994000E+01
          chkprim           0
      chksymbreak           0
        dmatpuopt           1
        dmftbandf1          0
        dmftbandf2         34
        dmftbandi1          0
        dmftbandi2          9
  dmftctqmc_basis1          1
  dmftctqmc_basis2          2
   dmftctqmc_meas1          1
   dmftctqmc_meas2         10
          dmft_dc1          1
          dmft_dc2          8
        dmft_iter1         10
        dmft_iter2          1
        dmft_mxsf1     6.0000000000E-01
        dmft_mxsf2     3.0000000000E-01
        dmft_nwli1          0
        dmft_nwli2        500
        dmftqmc_l1          0
        dmftqmc_l2         50
        dmftqmc_n1     0.0000000000E+00
        dmftqmc_n2     1.0000000000E+05
    dmftqmc_therm1          0
    dmftqmc_therm2       1000
        dmft_solv1          5
        dmft_solv2          7
  dmft_triqs_nleg1          0
  dmft_triqs_nleg2         10
             ecut      4.00000000E+00 Hartree
           etotal1    -3.5311292221E+02
           etotal2    -3.2212761189E+02
            fcart1    -0.0000000000E+00 -0.0000000000E+00 -0.0000000000E+00
                      -0.0000000000E+00 -0.0000000000E+00 -0.0000000000E+00
                      -0.0000000000E+00 -0.0000000000E+00 -0.0000000000E+00
                      -0.0000000000E+00 -0.0000000000E+00 -0.0000000000E+00
            fcart2     9.9999999999E+99  9.9999999999E+99  9.9999999999E+99
                       9.9999999999E+99  9.9999999999E+99  9.9999999999E+99
                       9.9999999999E+99  9.9999999999E+99  9.9999999999E+99
                       9.9999999999E+99  9.9999999999E+99  9.9999999999E+99
-          fftalg         512
           getwfk          -1
              ixc           7
           jdtset        1    2
            jpawu1     0.00000000E+00  0.00000000E+00 Hartree
            jpawu2     1.00000000E-01  0.00000000E+00 Hartree
              kpt      2.50000000E-01  2.50000000E-01  1.66666667E-01
                      -2.50000000E-01  2.50000000E-01  1.66666667E-01
                      -2.50000000E-01 -2.50000000E-01  1.66666667E-01
                       2.50000000E-01  2.50000000E-01  5.00000000E-01
                      -2.50000000E-01  2.50000000E-01  5.00000000E-01
         kptrlatt        2    0    0      0    2    0      0    0    3
          kptrlen      1.12104709E+01
            lpawu           2      -1
P           mkmem           5
            natom           4
            nband          34
           ndtset           2
            ngfft          12      12      24
          ngfftdg          16      16      32
             nkpt           5
            nline1          4
            nline2         10
           nnsclo1          0
           nnsclo2          5
            nstep1        100
            nstep2          2
             nsym          24
           ntypat           2
              occ1     2.000000  2.000000  2.000000  2.000000  2.000000  2.000000
                       2.000000  2.000000  2.000000  2.000000  2.000000  2.000000
                       2.000000  2.000000  2.000000  2.000000  2.000000  2.000000
                       2.000000  2.000000  1.998948  1.942982  1.858642  1.208474
                       0.753988  0.276276  0.000000  0.000000  0.000000  0.000000
                       0.000000  0.000000  0.000000  0.000000
                       2.000000  2.000000  2.000000  2.000000  2.000000  2.000000
                       2.000000  2.000000  2.000000  2.000000  2.000000  2.000000
                       2.000000  2.000000  2.000000  2.000000  2.000000  2.000000
                       2.000000  2.000000  1.942190  1.689635  1.599000  0.616863
                       0.575962  0.106984  0.000000  0.000000  0.000000  0.000000
                       0.000000  0.000000  0.000000  0.000000
                       2.000000  2.000000  2.000000  2.000000  2.000000  2.000000
                       2.000000  2.000000  2.000000  2.000000  2.000000  2.000000
                       2.000000  2.000000  2.000000  2.000000  2.000000  2.000000
                       2.000000  2.000000  1.993878  1.957348  1.498800  1.336435
                       0.988561  0.462355  0.000000  0.000000  0.000000  0.000000
                       0.000000  0.000000  0.000000  0.000000
                       2.000000  2.000000  2.000000  2.000000  2.000000  2.000000
                       2.000000  2.000000  2.000000  2.000000  2.000000  2.000000
                       2.000000  2.000000  2.000000  2.000000  2.000000  2.000000
                       2.000000  2.000000  1.980611  1.944876  1.567287  1.560287
                       1.546922  1.027594  0.000000  0.000000  0.000000  0.000000
                       0.000000  0.000000  0.000000  0.000000
                       2.000000  2.000000  2.000000  2.000000  2.000000  2.000000
                       2.000000  2.000000  2.000000  2.000000  2.000000  2.000000
                       2.000000  2.000000  2.000000  2.000000  2.000000  2.000000
                       2.000000  2.000000  1.945147  1.945147  1.542545  1.542545
                       1.029542  1.029542  0.000000  0.000000  0.000000  0.000000
                       0.000000  0.000000  0.000000  0.000000
              occ2     2.000000  2.000000  2.000000  2.000000  2.000000  2.000000
                       2.000000  2.000000-14.206111-19.651004********** -3.379781
                       9.526058 -5.207498 13.344670  6.054836  8.256394  1.482753
                       6.216234  9.390233  1.998755  2.010668  1.778808  1.971934
                       1.592484  1.461670  0.331557 12.480823 -1.137439  1.632137
                      -9.967962 12.113698 -9.175906-35.848226
                       2.000000  2.000000  2.000000  2.000000  2.000000  2.000000
                       2.000000  2.000000-36.163544  2.921726-14.331976-18.795684
                     -21.299444-35.844603  6.200173  3.593622  3.183287 -4.560719
                      -3.619249  3.018607  2.110314  2.122259  1.588795  1.870776
                       1.313888  1.182772 -1.420137 -3.748497 -5.113590 -2.967353
                      -3.838391 -8.865822  0.103925 -3.649999
                       2.000000  2.000000  2.000000  2.000000  2.000000  2.000000
                       2.000000  2.000000-62.317906-36.672900 -6.674627-16.217920
                     -14.066146 25.402273  2.812798  1.941778  3.117154  0.804894
                       7.145027  0.577061  1.931258  2.043782  2.013511  1.724969
                       1.606385  1.473560  0.187738 -0.099307 -1.032621-15.763574
                      -2.316333 13.963686  8.810537-55.003705
                       2.000000  2.000000  2.000000  2.000000  2.000000  2.000000
                       2.000000  2.000000  2.407159-54.494914********** -6.281121
                      -2.103383-34.368347 25.071071  3.349478 19.356166 12.843094
                       2.416147  6.954594  1.804780  1.875179  2.009001  2.038773
                       2.082173  1.858590 -0.066314  3.384843 -4.507207 -6.929557
                       4.842857  3.347819 17.627566-79.526712
                       2.000000  2.000000  2.000000  2.000000  2.000000  2.000000
                       2.000000  2.000000-27.811717-27.811717-20.572093-20.572093
                     -33.498759-33.498759  3.565316  3.565315  2.296843  2.296844
                       0.535448  0.535448  2.429195  2.429195  1.882084  1.882084
                       1.523245  1.523245 -2.547624 -2.547624  0.979719  0.979719
                     -24.602020-24.602021  0.328754  0.328754
           occopt           3
        optforces1          2
        optforces2          0
        pawecutdg      8.00000000E+00 Hartree
        pawprtvol          -1
           prtvol           4
            rprim      0.0000000000E+00  5.0000000000E-01  5.0000000000E-01
                       5.0000000000E-01  0.0000000000E+00  5.0000000000E-01
                       1.0000000000E+00  1.0000000000E+00  0.0000000000E+00
           shiftk      5.00000000E-01  5.00000000E-01  5.00000000E-01
           strten1     1.2628429505E-01  1.2628429505E-01  1.2628429505E-01
                       1.6927519115E-04  1.6927519115E-04 -1.6927519115E-04
           strten2     1.5110177186E+00  1.5110177186E+00  1.5110177186E+00
                       3.0992878386E-01  3.0992878386E-01 -3.0992878386E-01
           symrel      1  0  0   0  1  0   0  0  1       1  0  0   0  1  0   0  0  1
                      -1  0  0   0 -1  0   0  0 -1      -1  0  0   0 -1  0   0  0 -1
                       0  1  0   1  0  0   0  0  1       0  1  0   1  0  0   0  0  1
                       0 -1  0  -1  0  0   0  0 -1       0 -1  0  -1  0  0   0  0 -1
                       0 -1  0   1 -1  0   0 -2  1       0 -1  0   1 -1  0   0 -2  1
                       0  1  0  -1  1  0   0  2 -1       0  1  0  -1  1  0   0  2 -1
                       1 -1  0   0 -1  0   0 -2  1       1 -1  0   0 -1  0   0 -2  1
                      -1  1  0   0  1  0   0  2 -1      -1  1  0   0  1  0   0  2 -1
                      -1  1  0  -1  0  0  -2  0  1      -1  1  0  -1  0  0  -2  0  1
                       1 -1  0   1  0  0   2  0 -1       1 -1  0   1  0  0   2  0 -1
                      -1  0  0  -1  1  0  -2  0  1      -1  0  0  -1  1  0  -2  0  1
                       1  0  0   1 -1  0   2  0 -1       1  0  0   1 -1  0   2  0 -1
            tnons      0.0000000  0.0000000  0.0000000    -0.0000000  0.0000000  0.5000000
                       0.0000000  0.0000000  0.0000000    -0.0000000  0.0000000  0.5000000
                       0.0000000  0.0000000  0.0000000    -0.0000000  0.0000000  0.5000000
                       0.0000000  0.0000000  0.0000000    -0.0000000  0.0000000  0.5000000
                       0.0000000  0.0000000  0.0000000    -0.0000000  0.0000000  0.5000000
                       0.0000000  0.0000000  0.0000000    -0.0000000  0.0000000  0.5000000
                       0.0000000  0.0000000  0.0000000    -0.0000000  0.0000000  0.5000000
                       0.0000000  0.0000000  0.0000000    -0.0000000  0.0000000  0.5000000
                       0.0000000  0.0000000  0.0000000    -0.0000000  0.0000000  0.5000000
                       0.0000000  0.0000000  0.0000000    -0.0000000  0.0000000  0.5000000
                       0.0000000  0.0000000  0.0000000    -0.0000000  0.0000000  0.5000000
                       0.0000000  0.0000000  0.0000000    -0.0000000  0.0000000  0.5000000
           tolvrs      1.00000000E-05
           tsmear      8.27500000E-03 Hartree
            typat      1  1  2  2
            upawu1     0.00000000E+00  0.00000000E+00 Hartree
            upawu2     2.00000000E-01  0.00000000E+00 Hartree
          usedmft1          0
          usedmft2          1
          usepawu1          4
          usepawu2         14
           useylm           1
              wtk        0.16667    0.33333    0.16667    0.16667    0.16667
           xangst      0.0000000000E+00  0.0000000000E+00  0.0000000000E+00
                       2.0973938662E+00  2.0973938662E+00 -9.5376629560E-34
                       2.0973938662E+00  2.0973938662E+00  2.0973938662E+00
                       4.1947877325E+00  4.1947877325E+00  2.0973938662E+00
            xcart      0.0000000000E+00  0.0000000000E+00  0.0000000000E+00
                       3.9635000000E+00  3.9635000000E+00 -1.8023570935E-33
                       3.9635000000E+00  3.9635000000E+00  3.9635000000E+00
                       7.9270000000E+00  7.9270000000E+00  3.9635000000E+00
             xred      0.0000000000E+00  0.0000000000E+00  0.0000000000E+00
                      -1.9935406297E-17  1.9935406297E-17  5.0000000000E-01
                       5.0000000000E-01  5.0000000000E-01  2.5000000000E-01
                       5.0000000000E-01  5.0000000000E-01  7.5000000000E-01
            znucl       28.00000    8.00000

================================================================================


- Timing analysis has been suppressed with timopt=0



================================================================================

 Suggested references for the acknowledgment of ABINIT usage.

 The users of ABINIT have little formal obligations with respect to the ABINIT group
 (those specified in the GNU General Public License, http://www.gnu.org/copyleft/gpl.txt).
 However, it is common practice in the scientific literature,
 to acknowledge the efforts of people that have made the research possible.
 In this spirit, please find below suggested citations of work written by ABINIT developers,
 corresponding to implementations inside of ABINIT that you have used in the present run.
 Note also that it will be of great value to readers of publications presenting these results,
 to read papers enabling them to understand the theoretical formalism and details
 of the ABINIT implementation.
 For information on why they are suggested, see also https://docs.abinit.org/theory/acknowledgments.
-
- [1] A self-consistent DFT + DMFT scheme in the projector augmented wave method: 
- applications to cerium, Ce2O3 and Pu2O3 with the Hubbard I solver and comparison to DFT + U,
- B. Amadon,  J. Phys.: Condens. Matter 24 075604 (2012).
- Comment : Describes the self-consistent implementation of DFT+DMFT in PAW
- DOI and bibtex: see https://docs.abinit.org/theory/bibliography/#amadon2012
-
- [2] Plane-wave based electronic structure calculations for correlated materials.
- using dynamical mean-field theory and projected local orbitals,
- B. Amadon, F. Lechermann, A. Georges, F. Jollet, T.O. Wehling, A.I. Lichenstein,
- Phys. Rev. B 77, 205112 (2008).
- Comment: to be cited in case the computation of overlap operator for Wannier90 interface within PAW is used,
- i.e. prtwant=2 and usepaw=1. The paper describes also the DFT+DMFT implementation on Wannier functions
- DOI and bibtex: see https://docs.abinit.org/theory/bibliography/#amadon2008
-
- [3] Gamma and beta cerium: DFT+U calculations of ground-state parameters.
- B. Amadon, F. Jollet and M. Torrent, Phys. Rev. B 77, 155104 (2008).
- Comment: DFT+U calculations, usepawu/=0. Strong suggestion to cite this paper.
- DOI and bibtex: see https://docs.abinit.org/theory/bibliography/#amadon2008a
-
- [4] Implementation of the Projector Augmented-Wave Method in the ABINIT code.
- M. Torrent, F. Jollet, F. Bottin, G. Zerah, and X. Gonze Comput. Mat. Science 42, 337, (2008).
- Comment: PAW calculations. Strong suggestion to cite this paper.
- DOI and bibtex: see https://docs.abinit.org/theory/bibliography/#torrent2008
-
- [5] The Abinit project: Impact, environment and recent developments.
- Computer Phys. Comm. 248, 107042 (2020).
- X.Gonze, B. Amadon, G. Antonius, F.Arnardi, L.Baguet, J.-M.Beuken,
- J.Bieder, F.Bottin, J.Bouchet, E.Bousquet, N.Brouwer, F.Bruneval,
- G.Brunin, T.Cavignac, J.-B. Charraud, Wei Chen, M.Cote, S.Cottenier,
- J.Denier, G.Geneste, Ph.Ghosez, M.Giantomassi, Y.Gillet, O.Gingras,
- D.R.Hamann, G.Hautier, Xu He, N.Helbig, N.Holzwarth, Y.Jia, F.Jollet,
- W.Lafargue-Dit-Hauret, K.Lejaeghere, M.A.L.Marques, A.Martin, C.Martins,
- H.P.C. Miranda, F.Naccarato, K. Persson, G.Petretto, V.Planes, Y.Pouillon,
- S.Prokhorenko, F.Ricci, G.-M.Rignanese, A.H.Romero, M.M.Schmitt, M.Torrent,
- M.J.van Setten, B.Van Troeye, M.J.Verstraete, G.Zerah and J.W.Zwanzig
- Comment: the fifth generic paper describing the ABINIT project.
- Note that a version of this paper, that is not formatted for Computer Phys. Comm. 
- is available at https://www.abinit.org/sites/default/files/ABINIT20.pdf .
- The licence allows the authors to put it on the Web.
- DOI and bibtex: see https://docs.abinit.org/theory/bibliography/#gonze2020
-
- [6] ABINIT: Overview, and focus on selected capabilities
- J. Chem. Phys. 152, 124102 (2020).
- A. Romero, D.C. Allan, B. Amadon, G. Antonius, T. Applencourt, L.Baguet,
- J.Bieder, F.Bottin, J.Bouchet, E.Bousquet, F.Bruneval,
- G.Brunin, D.Caliste, M.Cote,
- J.Denier, C. Dreyer, Ph.Ghosez, M.Giantomassi, Y.Gillet, O.Gingras,
- D.R.Hamann, G.Hautier, F.Jollet, G. Jomard,
- A.Martin, 
- H.P.C. Miranda, F.Naccarato, G.Petretto, N.A. Pike, V.Planes,
- S.Prokhorenko, T. Rangel, F.Ricci, G.-M.Rignanese, M.Royo, M.Stengel, M.Torrent,
- M.J.van Setten, B.Van Troeye, M.J.Verstraete, J.Wiktor, J.W.Zwanziger, and X.Gonze.
- Comment: a global overview of ABINIT, with focus on selected capabilities .
- Note that a version of this paper, that is not formatted for J. Chem. Phys 
- is available at https://www.abinit.org/sites/default/files/ABINIT20_JPC.pdf .
- The licence allows the authors to put it on the Web.
- DOI and bibtex: see https://docs.abinit.org/theory/bibliography/#romero2020
-
- [7] Recent developments in the ABINIT software package.
- Computer Phys. Comm. 205, 106 (2016).
- X.Gonze, F.Jollet, F.Abreu Araujo, D.Adams, B.Amadon, T.Applencourt,
- C.Audouze, J.-M.Beuken, J.Bieder, A.Bokhanchuk, E.Bousquet, F.Bruneval
- D.Caliste, M.Cote, F.Dahm, F.Da Pieve, M.Delaveau, M.Di Gennaro,
- B.Dorado, C.Espejo, G.Geneste, L.Genovese, A.Gerossier, M.Giantomassi,
- Y.Gillet, D.R.Hamann, L.He, G.Jomard, J.Laflamme Janssen, S.Le Roux,
- A.Levitt, A.Lherbier, F.Liu, I.Lukacevic, A.Martin, C.Martins,
- M.J.T.Oliveira, S.Ponce, Y.Pouillon, T.Rangel, G.-M.Rignanese,
- A.H.Romero, B.Rousseau, O.Rubel, A.A.Shukri, M.Stankovski, M.Torrent,
- M.J.Van Setten, B.Van Troeye, M.J.Verstraete, D.Waroquier, J.Wiktor,
- B.Xu, A.Zhou, J.W.Zwanziger.
- Comment: the fourth generic paper describing the ABINIT project.
- Note that a version of this paper, that is not formatted for Computer Phys. Comm. 
- is available at https://www.abinit.org/sites/default/files/ABINIT16.pdf .
- The licence allows the authors to put it on the Web.
- DOI and bibtex: see https://docs.abinit.org/theory/bibliography/#gonze2016
-
- Proc.   0 individual time (sec): cpu=         38.4  wall=         38.6

================================================================================

 Calculation completed.
.Delivered  21 WARNINGs and  17 COMMENTs to log file.
+Overall time at end (sec) : cpu=         38.4  wall=         38.6
