
.Version 8.9.4 of ABINIT 
.(MPI version, prepared for a x86_64_linux_gnu6.3 computer) 

.Copyright (C) 1998-2018 ABINIT group . 
 ABINIT comes with ABSOLUTELY NO WARRANTY.
 It is free software, and you are welcome to redistribute it
 under certain conditions (GNU General Public License,
 see ~abinit/COPYING or http://www.gnu.org/copyleft/gpl.txt).

 ABINIT is a project of the Universite Catholique de Louvain,
 Corning Inc. and other collaborators, see ~abinit/doc/developers/contributors.txt .
 Please read https://docs.abinit.org/theory/acknowledgments for suggested
 acknowledgments of the ABINIT effort.
 For more information, see https://www.abinit.org .

.Starting date : Fri 31 Aug 2018.
- ( at 13h26 )
  
- input  file    -> t106.in
- output file    -> t106_MPI4.out
- root for input  files -> t106_MPI4i
- root for output files -> t106_MPI4o


 DATASET    1 : space group Pm -3 m (#221); Bravais cP (primitive cubic)
================================================================================
 Values of the parameters that define the memory need for DATASET  1.
     intxc =       0    ionmov =       0      iscf =      17    lmnmax =      22
     lnmax =       8     mgfft =      32  mpssoang =       3    mqgrid =    3001
     natom =       5  nloc_mem =       2    nspden =       1   nspinor =       1
    nsppol =       1      nsym =      48    n1xccc =       1    ntypat =       3
    occopt =       3   xclevel =       1
-    mband =          32        mffmem =           1         mkmem =           2
       mpw =         768          nfft =       32768          nkpt =           8
Pmy_natom=         2
 PAW method is used; the additional fine FFT grid is defined by:
   mgfftf=        32    nfftf =     32768
================================================================================
P This job should need less than                      20.251 Mbytes of memory.
  Rough estimation (10% accuracy) of disk space for files :
_ WF disk file :      3.002 Mbytes ; DEN or POT disk file :      0.252 Mbytes.
================================================================================


 DATASET    2 : space group Pm -3 m (#221); Bravais cP (primitive cubic)
================================================================================
 Values of the parameters that define the memory need for DATASET  2.
     intxc =       0    ionmov =       0      iscf =      17    lmnmax =      22
     lnmax =       8     mgfft =      32  mpssoang =       3    mqgrid =    3001
     natom =       5  nloc_mem =       2    nspden =       1   nspinor =       1
    nsppol =       1      nsym =      48    n1xccc =       1    ntypat =       3
    occopt =       3   xclevel =       1
-    mband =          32        mffmem =           1         mkmem =           8
       mpw =         192          nfft =       32768          nkpt =           8
 PAW method is used; the additional fine FFT grid is defined by:
   mgfftf=        32    nfftf =     32768
================================================================================
P This job should need less than                      20.169 Mbytes of memory.
  Rough estimation (10% accuracy) of disk space for files :
_ WF disk file :      0.752 Mbytes ; DEN or POT disk file :      0.252 Mbytes.
================================================================================

--------------------------------------------------------------------------------
------------- Echo of variables that govern the present computation ------------
--------------------------------------------------------------------------------
-
- outvars: echo of selected default values                                      
-   iomode0 =  0 , fftalg0 =312 , wfoptalg0 = 10
-
- outvars: echo of global parameters not present in the input file              
-  max_nthreads =    1
-
 -outvars: echo values of preprocessed input variables --------
-          iomode1          0
-          iomode2          1
            acell      7.2605000000E+00  7.2605000000E+00  7.2605000000E+00 Bohr
              amu      5.09415000E+01  8.76200000E+01  1.59994000E+01
           bandpp1          1
           bandpp2          8
     densfor_pred1          2
     densfor_pred2          6
        dmatpuopt           1
        dmftbandf1          0
        dmftbandf2         23
        dmftbandi1          0
        dmftbandi2         12
        dmft_iter1          0
        dmft_iter2          1
        dmft_mxsf1     3.0000000000E-01
        dmft_mxsf2     7.0000000000E-01
        dmft_nwli1          0
        dmft_nwli2     100000
        dmft_nwlo1          0
        dmft_nwlo2        100
        dmft_rslf1          0
        dmft_rslf2          1
        dmft_solv1          5
        dmft_solv2          2
             ecut      1.20000000E+01 Hartree
-          fftalg         312
           getwfk          -1
           istwfk        0    0    0    0    0    0    1    1
              ixc           7
           jdtset        1    2
            jpawu1     0.00000000E+00  0.00000000E+00  0.00000000E+00 Hartree
            jpawu2     2.78682384E-02  0.00000000E+00  0.00000000E+00 Hartree
              kpt     -3.33333333E-01  0.00000000E+00  0.00000000E+00
                      -1.66666667E-01  1.66666667E-01  1.66666667E-01
                      -3.33333333E-01  3.33333333E-01  0.00000000E+00
                      -1.66666667E-01  5.00000000E-01  1.66666667E-01
                      -3.33333333E-01  3.33333333E-01  3.33333333E-01
                      -1.66666667E-01  5.00000000E-01  5.00000000E-01
                       0.00000000E+00  0.00000000E+00  0.00000000E+00
                       5.00000000E-01  5.00000000E-01  5.00000000E-01
         kptrlatt        3    0    3     -3    3    0     -3    0    3
          kptrlen      3.08036927E+01
            lpawu           2      -1      -1
P           mkmem1          2
P           mkmem2          8
            natom           5
            nband          32
           nbdbuf           2
           ndtset           2
            ngfft          32      32      32
          ngfftdg          32      32      32
             nkpt           8
            nline          15
           nnsclo          20
-          npband1          1
-          npband2          4
            nstep1         30
            nstep2          2
             nsym          48
           ntypat           3
              occ      2.000000  2.000000  2.000000  2.000000  2.000000  2.000000
                       2.000000  2.000000  2.000000  2.000000  2.000000  2.000000
                       2.000000  2.000000  2.000000  2.000000  2.000000  2.000000
                       2.000000  2.000000  1.000000  0.000000  0.000000  0.000000
                       0.000000  0.000000  0.000000  0.000000  0.000000  0.000000
                       0.000000  0.000000
                       2.000000  2.000000  2.000000  2.000000  2.000000  2.000000
                       2.000000  2.000000  2.000000  2.000000  2.000000  2.000000
                       2.000000  2.000000  2.000000  2.000000  2.000000  2.000000
                       2.000000  2.000000  1.000000  0.000000  0.000000  0.000000
                       0.000000  0.000000  0.000000  0.000000  0.000000  0.000000
                       0.000000  0.000000
                       2.000000  2.000000  2.000000  2.000000  2.000000  2.000000
                       2.000000  2.000000  2.000000  2.000000  2.000000  2.000000
                       2.000000  2.000000  2.000000  2.000000  2.000000  2.000000
                       2.000000  2.000000  1.000000  0.000000  0.000000  0.000000
                       0.000000  0.000000  0.000000  0.000000  0.000000  0.000000
                       0.000000  0.000000
                       2.000000  2.000000  2.000000  2.000000  2.000000  2.000000
                       2.000000  2.000000  2.000000  2.000000  2.000000  2.000000
                       2.000000  2.000000  2.000000  2.000000  2.000000  2.000000
                       2.000000  2.000000  1.000000  0.000000  0.000000  0.000000
                       0.000000  0.000000  0.000000  0.000000  0.000000  0.000000
                       0.000000  0.000000
                       2.000000  2.000000  2.000000  2.000000  2.000000  2.000000
                       2.000000  2.000000  2.000000  2.000000  2.000000  2.000000
                       2.000000  2.000000  2.000000  2.000000  2.000000  2.000000
                       2.000000  2.000000  1.000000  0.000000  0.000000  0.000000
                       0.000000  0.000000  0.000000  0.000000  0.000000  0.000000
                       0.000000  0.000000
                       2.000000  2.000000  2.000000  2.000000  2.000000  2.000000
                       2.000000  2.000000  2.000000  2.000000  2.000000  2.000000
                       2.000000  2.000000  2.000000  2.000000  2.000000  2.000000
                       2.000000  2.000000  1.000000  0.000000  0.000000  0.000000
                       0.000000  0.000000  0.000000  0.000000  0.000000  0.000000
                       0.000000  0.000000
                       2.000000  2.000000  2.000000  2.000000  2.000000  2.000000
                       2.000000  2.000000  2.000000  2.000000  2.000000  2.000000
                       2.000000  2.000000  2.000000  2.000000  2.000000  2.000000
                       2.000000  2.000000  1.000000  0.000000  0.000000  0.000000
                       0.000000  0.000000  0.000000  0.000000  0.000000  0.000000
                       0.000000  0.000000
                       2.000000  2.000000  2.000000  2.000000  2.000000  2.000000
                       2.000000  2.000000  2.000000  2.000000  2.000000  2.000000
                       2.000000  2.000000  2.000000  2.000000  2.000000  2.000000
                       2.000000  2.000000  1.000000  0.000000  0.000000  0.000000
                       0.000000  0.000000  0.000000  0.000000  0.000000  0.000000
                       0.000000  0.000000
           occopt           3
        optforces1          2
        optforces2          0
-      paral_atom1          1
-      paral_atom2          0
        paral_kgb1          0
        paral_kgb2          1
        pawecutdg      2.00000000E+01 Hartree
        pawprtvol           3
           prtvol           4
          spgroup         221
           symrel      1  0  0   0  1  0   0  0  1      -1  0  0   0 -1  0   0  0 -1
                      -1  0  0   0  1  0   0  0 -1       1  0  0   0 -1  0   0  0  1
                      -1  0  0   0 -1  0   0  0  1       1  0  0   0  1  0   0  0 -1
                       1  0  0   0 -1  0   0  0 -1      -1  0  0   0  1  0   0  0  1
                       0  1  0   1  0  0   0  0  1       0 -1  0  -1  0  0   0  0 -1
                       0 -1  0   1  0  0   0  0 -1       0  1  0  -1  0  0   0  0  1
                       0 -1  0  -1  0  0   0  0  1       0  1  0   1  0  0   0  0 -1
                       0  1  0  -1  0  0   0  0 -1       0 -1  0   1  0  0   0  0  1
                       0  0  1   1  0  0   0  1  0       0  0 -1  -1  0  0   0 -1  0
                       0  0 -1   1  0  0   0 -1  0       0  0  1  -1  0  0   0  1  0
                       0  0 -1  -1  0  0   0  1  0       0  0  1   1  0  0   0 -1  0
                       0  0  1  -1  0  0   0 -1  0       0  0 -1   1  0  0   0  1  0
                       1  0  0   0  0  1   0  1  0      -1  0  0   0  0 -1   0 -1  0
                      -1  0  0   0  0  1   0 -1  0       1  0  0   0  0 -1   0  1  0
                      -1  0  0   0  0 -1   0  1  0       1  0  0   0  0  1   0 -1  0
                       1  0  0   0  0 -1   0 -1  0      -1  0  0   0  0  1   0  1  0
                       0  1  0   0  0  1   1  0  0       0 -1  0   0  0 -1  -1  0  0
                       0 -1  0   0  0  1  -1  0  0       0  1  0   0  0 -1   1  0  0
                       0 -1  0   0  0 -1   1  0  0       0  1  0   0  0  1  -1  0  0
                       0  1  0   0  0 -1  -1  0  0       0 -1  0   0  0  1   1  0  0
                       0  0  1   0  1  0   1  0  0       0  0 -1   0 -1  0  -1  0  0
                       0  0 -1   0  1  0  -1  0  0       0  0  1   0 -1  0   1  0  0
                       0  0 -1   0 -1  0   1  0  0       0  0  1   0  1  0  -1  0  0
                       0  0  1   0 -1  0  -1  0  0       0  0 -1   0  1  0   1  0  0
           toldfe1     0.00000000E+00 Hartree
           toldfe2     1.00000000E-10 Hartree
           tolvrs1     1.00000000E-07
           tolvrs2     0.00000000E+00
           tsmear      3.80017850E-03 Hartree
            typat      1  2  3  3  3
            upawu1     0.00000000E+00  0.00000000E+00  0.00000000E+00 Hartree
            upawu2     1.15147886E-01  0.00000000E+00  0.00000000E+00 Hartree
          usedmft1          0
          usedmft2          1
          usepawu1          1
          usepawu2         10
           useylm           1
         wfoptalg1         10
         wfoptalg2        114
              wtk        0.11111    0.14815    0.22222    0.22222    0.14815    0.11111
                         0.01852    0.01852
           xangst      0.0000000000E+00  0.0000000000E+00  0.0000000000E+00
                       1.9210455615E+00  1.9210455615E+00  1.9210455615E+00
                       1.9210455615E+00  0.0000000000E+00  0.0000000000E+00
                       0.0000000000E+00  1.9210455615E+00  0.0000000000E+00
                       0.0000000000E+00  0.0000000000E+00  1.9210455615E+00
            xcart      0.0000000000E+00  0.0000000000E+00  0.0000000000E+00
                       3.6302500000E+00  3.6302500000E+00  3.6302500000E+00
                       3.6302500000E+00  0.0000000000E+00  0.0000000000E+00
                       0.0000000000E+00  3.6302500000E+00  0.0000000000E+00
                       0.0000000000E+00  0.0000000000E+00  3.6302500000E+00
             xred      0.0000000000E+00  0.0000000000E+00  0.0000000000E+00
                       5.0000000000E-01  5.0000000000E-01  5.0000000000E-01
                       5.0000000000E-01  0.0000000000E+00  0.0000000000E+00
                       0.0000000000E+00  5.0000000000E-01  0.0000000000E+00
                       0.0000000000E+00  0.0000000000E+00  5.0000000000E-01
            znucl       23.00000   38.00000    8.00000

================================================================================

 chkinp: Checking input parameters for consistency, jdtset=   1.

 chkinp: Checking input parameters for consistency, jdtset=   2.

================================================================================
== DATASET  1 ==================================================================
-   nproc =    4

 Exchange-correlation functional for the present dataset will be:
  LDA: Perdew-Wang 92 LSD fit to Ceperley-Alder data - ixc=7
 Citation for XC functional:
  J.P.Perdew and Y.Wang, PRB 45, 13244 (1992)

 Real(R)+Recip(G) space primitive vectors, cartesian coordinates (Bohr,Bohr^-1):
 R(1)=  7.2605000  0.0000000  0.0000000  G(1)=  0.1377316  0.0000000  0.0000000
 R(2)=  0.0000000  7.2605000  0.0000000  G(2)=  0.0000000  0.1377316  0.0000000
 R(3)=  0.0000000  0.0000000  7.2605000  G(3)=  0.0000000  0.0000000  0.1377316
 Unit cell volume ucvol=  3.8273624E+02 bohr^3
 Angles (23,13,12)=  9.00000000E+01  9.00000000E+01  9.00000000E+01 degrees

 Coarse grid specifications (used for wave-functions):

 getcut: wavevector=  0.0000  0.0000  0.0000  ngfft=  32  32  32
         ecut(hartree)=     12.000   => boxcut(ratio)=   2.82636

 getcut : COMMENT -
  Note that boxcut > 2.2 ; recall that boxcut=Gcut(box)/Gcut(sphere) = 2
  is sufficient for exact treatment of convolution.
  Such a large boxcut is a waste : you could raise ecut
  e.g. ecut=   23.964957 Hartrees makes boxcut=2


 Fine grid specifications (used for densities):

 getcut: wavevector=  0.0000  0.0000  0.0000  ngfft=  32  32  32
         ecut(hartree)=     20.000   => boxcut(ratio)=   2.18929

--- Pseudopotential description ------------------------------------------------
- pspini: atom type   1  psp file is /cea/dsku/u-basque/hal1/home/abinit/abinit/REPOSITORY/CAVIGNAC/gitlab/tests/Psps_for_tests/23v.paw
- pspatm: opening atomic psp file    /cea/dsku/u-basque/hal1/home/abinit/abinit/REPOSITORY/CAVIGNAC/gitlab/tests/Psps_for_tests/23v.paw
- Paw atomic data for element V - Generated by AtomPAW + AtomPAW2Abinit v3.2.0
- 23.00000  13.00000  20070917                znucl, zion, pspdat
    7    7    2    0      1505   0.00000      pspcod,pspxc,lmax,lloc,mmax,r2well
 Pseudopotential format is: paw3
 basis_size (lnmax)=  8 (lmn_size= 22), orbitals=   0   0   0   1   1   1   2   2
 Spheres core radius: rc_sph= 2.35000000
 3 radial meshes are used:
  - mesh 1: r(i)=AA*[exp(BB*(i-1))-1], size=1505 , AA= 0.26380E-03 BB= 0.60673E-02
  - mesh 2: r(i)=AA*[exp(BB*(i-1))-1], size=1500 , AA= 0.26380E-03 BB= 0.60673E-02
  - mesh 3: r(i)=AA*[exp(BB*(i-1))-1], size=1738 , AA= 0.26380E-03 BB= 0.60673E-02
 Shapefunction is SIN type: shapef(r)=[sin(pi*r/rshp)/(pi*r/rshp)]**2
 Radius for shape functions =  2.00701120
 Radial grid used for partial waves is grid 1
 Radial grid used for projectors is grid  2
 Radial grid used for (t)core density is grid 1
 Radial grid used for Vloc is grid 3
 Compensation charge density is taken into account in XC energy/potential
 pspatm: atomic psp has been read  and splines computed

- pspini: atom type   2  psp file is /cea/dsku/u-basque/hal1/home/abinit/abinit/REPOSITORY/CAVIGNAC/gitlab/tests/Psps_for_tests/38sr.paw
- pspatm: opening atomic psp file    /cea/dsku/u-basque/hal1/home/abinit/abinit/REPOSITORY/CAVIGNAC/gitlab/tests/Psps_for_tests/38sr.paw
- Paw atomic data for element Sr - Generated by AtomPAW + AtomPAW2Abinit v3.2.0
- 38.00000  10.00000  20070917                znucl, zion, pspdat
    7    7    2    0      1068   0.00000      pspcod,pspxc,lmax,lloc,mmax,r2well
 Pseudopotential format is: paw3
 basis_size (lnmax)=  6 (lmn_size= 18), orbitals=   0   0   1   1   2   2
 Spheres core radius: rc_sph= 1.92519986
 4 radial meshes are used:
  - mesh 1: r(i)=AA*[exp(BB*(i-1))-1], size=1068 , AA= 0.22443E-03 BB= 0.85283E-02
  - mesh 2: r(i)=AA*[exp(BB*(i-1))-1], size=1063 , AA= 0.22443E-03 BB= 0.85283E-02
  - mesh 3: r(i)=AA*[exp(BB*(i-1))-1], size=1134 , AA= 0.22443E-03 BB= 0.85283E-02
  - mesh 4: r(i)=AA*[exp(BB*(i-1))-1], size=1256 , AA= 0.22443E-03 BB= 0.85283E-02
 Shapefunction is SIN type: shapef(r)=[sin(pi*r/rshp)/(pi*r/rshp)]**2
 Radius for shape functions =  1.81361893
 Radial grid used for partial waves is grid 1
 Radial grid used for projectors is grid  2
 Radial grid used for (t)core density is grid 3
 Radial grid used for Vloc is grid 4
 Compensation charge density is taken into account in XC energy/potential
 pspatm: atomic psp has been read  and splines computed

- pspini: atom type   3  psp file is /cea/dsku/u-basque/hal1/home/abinit/abinit/REPOSITORY/CAVIGNAC/gitlab/tests/Psps_for_tests/8o.2.paw
- pspatm: opening atomic psp file    /cea/dsku/u-basque/hal1/home/abinit/abinit/REPOSITORY/CAVIGNAC/gitlab/tests/Psps_for_tests/8o.2.paw
- Paw atomic data extracted from US-psp (D.Vanderbilt): Oxygen
-  8.00000   6.00000  20050722                znucl, zion, pspdat
    7   11    2    0       489   0.00000      pspcod,pspxc,lmax,lloc,mmax,r2well
 Pseudopotential format is: paw3
 basis_size (lnmax)=  6 (lmn_size= 18), orbitals=   0   0   1   1   2   2
 Spheres core radius: rc_sph= 1.21105161
 4 radial meshes are used:
  - mesh 1: r(i)=AA*[exp(BB*(i-1))-1], size= 489 , AA= 0.30984E-03 BB= 0.16949E-01
  - mesh 2: r(i)=AA*[exp(BB*(i-1))-1], size= 548 , AA= 0.30984E-03 BB= 0.16949E-01
  - mesh 3: r(i)=AA*[exp(BB*(i-1))-1], size= 509 , AA= 0.30984E-03 BB= 0.16949E-01
  - mesh 4: r(i)=AA*[exp(BB*(i-1))-1], size= 613 , AA= 0.30984E-03 BB= 0.16949E-01
 Shapefunction is SIN type: shapef(r)=[sin(pi*r/rshp)/(pi*r/rshp)]**2
 Radius for shape functions = sphere core radius
 Radial grid used for partial waves is grid 1
 Radial grid used for projectors is grid  2
 Radial grid used for (t)core density is grid 3
 Radial grid used for Vloc is grid 4
 Compensation charge density is taken into account in XC energy/potential
 pspatm: atomic psp has been read  and splines computed

   2.04308614E+03                                ecore*ucvol(ha*bohr**3)
--------------------------------------------------------------------------------

P newkpt: treating     32 bands with npw=     767 for ikpt=   1 by node    0
P newkpt: treating     32 bands with npw=     748 for ikpt=   2 by node    0
P newkpt: treating     32 bands with npw=     748 for ikpt=   3 by node    1
P newkpt: treating     32 bands with npw=     768 for ikpt=   4 by node    1
P newkpt: treating     32 bands with npw=     756 for ikpt=   5 by node    2
P newkpt: treating     32 bands with npw=     760 for ikpt=   6 by node    2
P newkpt: treating     32 bands with npw=     751 for ikpt=   7 by node    3
P newkpt: treating     32 bands with npw=     720 for ikpt=   8 by node    3
_setup2: Arith. and geom. avg. npw (full set) are     756.611     756.548


 ******************************************
 LDA+U Method used: FLL
 ******************************************

================================================================================

     iter   Etot(hartree)      deltaE(h)  residm     nres2
 ETOT  1  -152.47472603355    -1.525E+02 1.329E-26 6.053E+01
 ETOT  2  -152.20091063239     2.738E-01 5.292E-28 8.250E+01
 ETOT  3  -152.20343140748    -2.521E-03 2.387E-28 2.393E+01
 ETOT  4  -151.98527856443     2.182E-01 2.448E-28 1.791E+00
 ETOT  5  -151.98636751743    -1.089E-03 1.992E-28 2.004E+00
 ETOT  6  -151.97611774307     1.025E-02 2.680E-28 5.377E-02
 ETOT  7  -151.97576957445     3.482E-04 2.197E-28 7.288E-03
 ETOT  8  -151.97572466420     4.491E-05 2.424E-28 4.155E-04
 ETOT  9  -151.97572247106     2.193E-06 1.980E-28 1.441E-06
 ETOT 10  -151.97572247758    -6.521E-09 2.069E-28 2.166E-06
 ETOT 11  -151.97572246469     1.289E-08 5.529E-28 3.002E-09

 At SCF step   11       nres2   =  3.00E-09 < tolvrs=  1.00E-07 =>converged.

 Cartesian components of stress tensor (hartree/bohr^3)
  sigma(1 1)=  8.78859727E-04  sigma(3 2)=  0.00000000E+00
  sigma(2 2)=  8.78859727E-04  sigma(3 1)=  0.00000000E+00
  sigma(3 3)=  8.78859727E-04  sigma(2 1)=  0.00000000E+00

 Integrated electronic density in atomic spheres:
 ------------------------------------------------
 Atom  Sphere_radius  Integrated_density
    1        2.35000         11.95879446
    2        1.92520          6.45388044
    3        1.21105          3.66333202
    4        1.21105          3.66333202
    5        1.21105          3.66333202

 PAW TEST:
 ==== Compensation charge inside spheres ============
 The following values must be close to each other ...
 Compensation charge over spherical meshes =      7.318673569436145
 Compensation charge over fft grid         =      7.318339760955113

 ==== Results concerning PAW augmentation regions ====

 Total pseudopotential strength Dij (hartree):
 Atom #  1
  -1.46061   0.30850  -1.65205   0.00000   0.00000   0.00000   0.00000   0.00000   0.00000   0.00000   0.00000   0.00000 ...
   0.30850   0.16797  -1.51711   0.00000   0.00000   0.00000   0.00000   0.00000   0.00000   0.00000   0.00000   0.00000 ...
  -1.65205  -1.51711  15.91616   0.00000   0.00000   0.00000   0.00000   0.00000   0.00000   0.00000   0.00000   0.00000 ...
   0.00000   0.00000   0.00000  -1.05593   0.00000   0.00000   0.07289   0.00000   0.00000   0.07845   0.00000   0.00000 ...
   0.00000   0.00000   0.00000   0.00000  -1.05593   0.00000   0.00000   0.07289   0.00000   0.00000   0.07845   0.00000 ...
   0.00000   0.00000   0.00000   0.00000   0.00000  -1.05593   0.00000   0.00000   0.07289   0.00000   0.00000   0.07845 ...
   0.00000   0.00000   0.00000   0.07289   0.00000   0.00000   0.03953   0.00000   0.00000  -0.16662   0.00000   0.00000 ...
   0.00000   0.00000   0.00000   0.00000   0.07289   0.00000   0.00000   0.03953   0.00000   0.00000  -0.16662   0.00000 ...
   0.00000   0.00000   0.00000   0.00000   0.00000   0.07289   0.00000   0.00000   0.03953   0.00000   0.00000  -0.16662 ...
   0.00000   0.00000   0.00000   0.07845   0.00000   0.00000  -0.16662   0.00000   0.00000   2.30164   0.00000   0.00000 ...
   0.00000   0.00000   0.00000   0.00000   0.07845   0.00000   0.00000  -0.16662   0.00000   0.00000   2.30164   0.00000 ...
   0.00000   0.00000   0.00000   0.00000   0.00000   0.07845   0.00000   0.00000  -0.16662   0.00000   0.00000   2.30164 ...
   ...  only 12  components have been written...
 Atom #  5
   0.63670   1.07125   0.00000   0.00000   0.00000   0.00000   0.00000   0.00000   0.00000   0.00000   0.00025   0.00000 ...
   1.07125   1.79931   0.00000   0.00000   0.00000   0.00000   0.00000   0.00000   0.00000   0.00000   0.00037   0.00000 ...
   0.00000   0.00000  -0.27433   0.00000   0.00000  -0.30599   0.00000   0.00000   0.00000   0.00000   0.00000   0.00000 ...
   0.00000   0.00000   0.00000  -0.27663   0.00000   0.00000  -0.30920   0.00000   0.00000   0.00000   0.00000   0.00000 ...
   0.00000   0.00000   0.00000   0.00000  -0.27433   0.00000   0.00000  -0.30599   0.00000   0.00000   0.00000   0.00000 ...
   0.00000   0.00000  -0.30599   0.00000   0.00000  -0.30576   0.00000   0.00000   0.00000   0.00000   0.00000   0.00000 ...
   0.00000   0.00000   0.00000  -0.30920   0.00000   0.00000  -0.31024   0.00000   0.00000   0.00000   0.00000   0.00000 ...
   0.00000   0.00000   0.00000   0.00000  -0.30599   0.00000   0.00000  -0.30576   0.00000   0.00000   0.00000   0.00000 ...
   0.00000   0.00000   0.00000   0.00000   0.00000   0.00000   0.00000   0.00000  -0.01531   0.00000   0.00000   0.00000 ...
   0.00000   0.00000   0.00000   0.00000   0.00000   0.00000   0.00000   0.00000   0.00000  -0.01551   0.00000   0.00000 ...
   0.00025   0.00037   0.00000   0.00000   0.00000   0.00000   0.00000   0.00000   0.00000   0.00000  -0.01560   0.00000 ...
   0.00000   0.00000   0.00000   0.00000   0.00000   0.00000   0.00000   0.00000   0.00000   0.00000   0.00000  -0.01551 ...
   ...  only 12  components have been written...


 Augmentation waves occupancies Rhoij:
 Atom #  1
   2.00129   0.00105   0.00353   0.00000   0.00000   0.00000   0.00000   0.00000   0.00000   0.00000   0.00000   0.00000 ...
   0.00105   1.48281   0.01995   0.00000   0.00000   0.00000   0.00000   0.00000   0.00000   0.00000   0.00000   0.00000 ...
   0.00353   0.01995   0.00034   0.00000   0.00000   0.00000   0.00000   0.00000   0.00000   0.00000   0.00000   0.00000 ...
   0.00000   0.00000   0.00000   1.99960   0.00000   0.00000  -0.02995   0.00000   0.00000   0.00841   0.00000   0.00000 ...
   0.00000   0.00000   0.00000   0.00000   1.99960   0.00000   0.00000  -0.02995   0.00000   0.00000   0.00841   0.00000 ...
   0.00000   0.00000   0.00000   0.00000   0.00000   1.99960   0.00000   0.00000  -0.02995   0.00000   0.00000   0.00841 ...
   0.00000   0.00000   0.00000  -0.02995   0.00000   0.00000   2.14643   0.00000   0.00000   0.03407   0.00000   0.00000 ...
   0.00000   0.00000   0.00000   0.00000  -0.02995   0.00000   0.00000   2.14643   0.00000   0.00000   0.03407   0.00000 ...
   0.00000   0.00000   0.00000   0.00000   0.00000  -0.02995   0.00000   0.00000   2.14643   0.00000   0.00000   0.03407 ...
   0.00000   0.00000   0.00000   0.00841   0.00000   0.00000   0.03407   0.00000   0.00000   0.00070   0.00000   0.00000 ...
   0.00000   0.00000   0.00000   0.00000   0.00841   0.00000   0.00000   0.03407   0.00000   0.00000   0.00070   0.00000 ...
   0.00000   0.00000   0.00000   0.00000   0.00000   0.00841   0.00000   0.00000   0.03407   0.00000   0.00000   0.00070 ...
   ...  only 12  components have been written...
 Atom #  5
   2.15715  -0.11889   0.00000   0.00000   0.00000   0.00000   0.00000   0.00000   0.00000   0.00000   0.06138   0.00000 ...
  -0.11889   0.01338   0.00000   0.00000   0.00000   0.00000   0.00000   0.00000   0.00000   0.00000   0.00683   0.00000 ...
   0.00000   0.00000   2.24260   0.00000   0.00000  -0.31213   0.00000   0.00000   0.00000   0.00000   0.00000   0.00000 ...
   0.00000   0.00000   0.00000   2.51870   0.00000   0.00000  -0.46379   0.00000   0.00000   0.00000   0.00000   0.00000 ...
   0.00000   0.00000   0.00000   0.00000   2.24260   0.00000   0.00000  -0.31213   0.00000   0.00000   0.00000   0.00000 ...
   0.00000   0.00000  -0.31213   0.00000   0.00000   0.05119   0.00000   0.00000   0.00000   0.00000   0.00000   0.00000 ...
   0.00000   0.00000   0.00000  -0.46379   0.00000   0.00000   0.09776   0.00000   0.00000   0.00000   0.00000   0.00000 ...
   0.00000   0.00000   0.00000   0.00000  -0.31213   0.00000   0.00000   0.05119   0.00000   0.00000   0.00000   0.00000 ...
   0.00000   0.00000   0.00000   0.00000   0.00000   0.00000   0.00000   0.00000   0.01058   0.00000   0.00000   0.00000 ...
   0.00000   0.00000   0.00000   0.00000   0.00000   0.00000   0.00000   0.00000   0.00000   0.02451   0.00000   0.00000 ...
   0.06138   0.00683   0.00000   0.00000   0.00000   0.00000   0.00000   0.00000   0.00000   0.00000   0.04815   0.00000 ...
   0.00000   0.00000   0.00000   0.00000   0.00000   0.00000   0.00000   0.00000   0.00000   0.00000   0.00000   0.02451 ...
   ...  only 12  components have been written...

 "PAW+U" part of augmentation waves occupancies Rhoij:
 Atom #  1 - L=2 ONLY
   0.64599   0.00000   0.00000   0.00000   0.00000   0.04985   0.00000   0.00000   0.00000   0.00000
   0.00000   0.64599   0.00000   0.00000   0.00000   0.00000   0.04985   0.00000   0.00000   0.00000
   0.00000   0.00000   0.64116   0.00000   0.00000   0.00000   0.00000   0.13612   0.00000   0.00000
   0.00000   0.00000   0.00000   0.64599   0.00000   0.00000   0.00000   0.00000   0.04985   0.00000
   0.00000   0.00000   0.00000   0.00000   0.64116   0.00000   0.00000   0.00000   0.00000   0.13612
   0.04985   0.00000   0.00000   0.00000   0.00000   0.00957   0.00000   0.00000   0.00000   0.00000
   0.00000   0.04985   0.00000   0.00000   0.00000   0.00000   0.00957   0.00000   0.00000   0.00000
   0.00000   0.00000   0.13612   0.00000   0.00000   0.00000   0.00000   0.03433   0.00000   0.00000
   0.00000   0.00000   0.00000   0.04985   0.00000   0.00000   0.00000   0.00000   0.00957   0.00000
   0.00000   0.00000   0.00000   0.00000   0.13612   0.00000   0.00000   0.00000   0.00000   0.03433

 ---------- LDA+U DATA --------------------------------------------------- 

 ====== For Atom     1, occupations for correlated orbitals. lpawu =   2


 == Occupation matrix for correlated orbitals:

 Up component only...
     0.23717    0.00000    0.00000    0.00000    0.00000
     0.00000    0.23717    0.00000    0.00000    0.00000
     0.00000    0.00000    0.22423    0.00000    0.00000
     0.00000    0.00000    0.00000    0.23717    0.00000
     0.00000    0.00000    0.00000    0.00000    0.22423



================================================================================

 ----iterations are completed or convergence reached----

 Mean square residual over all n,k,spin=   5.0590E-24; max=  3.1392E-24
  -0.3333  0.0000  0.0000    1  1.06408E-28 kpt; spin; max resid(k); each band:
  5.21E-29 1.31E-29 1.06E-28 1.16E-29 1.88E-29 5.37E-30 9.33E-30 6.04E-30
  2.00E-30 3.20E-30 1.32E-29 4.30E-30 6.82E-30 3.47E-30 7.72E-30 2.20E-30
  1.89E-29 3.43E-29 1.42E-29 1.13E-29 1.66E-29 1.33E-29 3.66E-30 8.39E-30
  3.38E-30 1.87E-29 4.05E-30 3.52E-30 4.22E-30 2.93E-30 7.96E-30 8.78E-30
  -0.1667  0.1667  0.1667    1  1.01005E-28 kpt; spin; max resid(k); each band:
  3.88E-29 1.01E-28 3.55E-29 2.84E-29 2.46E-29 9.73E-30 2.41E-29 4.10E-30
  7.03E-30 3.95E-30 3.26E-30 1.33E-29 2.25E-30 1.89E-29 3.12E-29 1.02E-29
  8.68E-30 3.53E-30 8.54E-30 2.83E-30 1.32E-29 1.56E-29 3.98E-29 9.24E-30
  1.30E-29 8.01E-30 6.32E-30 3.41E-30 4.01E-30 8.56E-30 2.20E-30 2.34E-30
  -0.3333  0.3333  0.0000    1  5.52927E-28 kpt; spin; max resid(k); each band:
  5.53E-28 4.23E-29 8.38E-29 5.15E-29 3.18E-29 9.16E-30 6.18E-30 1.65E-29
  4.64E-30 8.96E-30 5.12E-30 2.43E-30 4.56E-30 8.18E-30 2.75E-30 3.98E-30
  6.90E-30 3.86E-30 5.55E-30 1.45E-30 2.08E-29 3.13E-29 1.84E-30 5.32E-30
  2.68E-30 5.98E-30 5.20E-30 1.35E-29 8.84E-30 5.67E-30 6.08E-30 3.31E-30
  -0.1667  0.5000  0.1667    1  1.50546E-28 kpt; spin; max resid(k); each band:
  1.11E-28 7.83E-29 9.43E-29 1.62E-29 1.20E-29 1.11E-29 3.32E-30 1.60E-29
  3.79E-30 2.43E-30 7.56E-30 1.06E-29 1.09E-29 8.01E-30 4.45E-30 2.83E-30
  2.50E-29 6.91E-30 2.11E-30 2.01E-29 5.72E-30 3.00E-29 1.51E-28 3.56E-30
  2.85E-29 1.73E-29 1.47E-29 3.18E-30 1.45E-30 2.13E-29 6.59E-30 5.81E-30
  -0.3333  0.3333  0.3333    1  2.11835E-28 kpt; spin; max resid(k); each band:
  9.01E-29 1.80E-29 2.12E-28 3.91E-29 1.39E-29 4.77E-30 3.77E-30 4.79E-30
  4.56E-30 5.48E-30 3.58E-30 6.41E-30 1.26E-29 1.28E-30 8.23E-30 4.64E-29
  2.32E-30 3.87E-30 2.17E-30 3.69E-30 8.85E-30 4.02E-30 2.24E-30 2.97E-30
  2.29E-30 9.83E-30 4.16E-30 2.04E-30 1.86E-30 9.11E-30 3.81E-30 3.19E-30
  -0.1667  0.5000  0.5000    1  3.13920E-24 kpt; spin; max resid(k); each band:
  4.79E-29 6.13E-29 6.70E-29 2.41E-29 1.45E-29 1.21E-29 5.61E-30 9.71E-30
  2.48E-30 2.66E-30 5.16E-30 1.31E-30 1.64E-30 1.36E-30 1.23E-29 1.09E-30
  1.45E-30 1.84E-30 1.02E-30 8.34E-31 3.74E-30 3.18E-30 1.77E-29 1.61E-29
  3.81E-30 1.51E-29 3.40E-29 2.05E-30 3.38E-30 5.61E-30 4.29E-30 3.14E-24
   0.0000  0.0000  0.0000    1  1.62537E-28 kpt; spin; max resid(k); each band:
  1.59E-28 2.84E-29 1.85E-29 1.63E-28 3.49E-29 1.32E-29 2.61E-29 1.33E-29
  2.06E-30 1.08E-30 1.54E-30 2.46E-30 3.78E-30 3.87E-30 2.00E-30 2.32E-30
  3.36E-29 2.94E-30 1.15E-29 2.30E-30 6.37E-30 1.51E-29 1.85E-29 1.06E-29
  5.48E-29 1.10E-29 1.19E-29 7.22E-30 1.87E-30 1.17E-30 2.30E-29 1.08E-29
   0.5000  0.5000  0.5000    1  1.29196E-21 kpt; spin; max resid(k); each band:
  1.00E-28 7.41E-29 8.74E-29 2.37E-29 1.71E-29 2.57E-30 3.51E-30 2.20E-30
  1.93E-30 2.41E-30 6.52E-30 3.43E-30 6.94E-30 1.10E-30 7.77E-30 1.67E-29
  5.08E-30 6.21E-30 2.85E-30 2.47E-30 1.80E-29 6.66E-30 2.72E-29 2.25E-30
  8.67E-30 3.88E-30 2.35E-30 1.28E-29 7.25E-30 4.42E-30 1.80E-30 1.29E-21
 reduced coordinates (array xred) for    5 atoms
       0.000000000000      0.000000000000      0.000000000000
       0.500000000000      0.500000000000      0.500000000000
       0.500000000000      0.000000000000      0.000000000000
       0.000000000000      0.500000000000      0.000000000000
       0.000000000000      0.000000000000      0.500000000000
 rms dE/dt=  0.0000E+00; max dE/dt=  0.0000E+00; dE/dt below (all hartree)
    1       0.000000000000      0.000000000000      0.000000000000
    2       0.000000000000      0.000000000000      0.000000000000
    3       0.000000000000      0.000000000000      0.000000000000
    4       0.000000000000      0.000000000000      0.000000000000
    5       0.000000000000      0.000000000000      0.000000000000

 cartesian coordinates (angstrom) at end:
    1      0.00000000000000     0.00000000000000     0.00000000000000
    2      1.92104556148385     1.92104556148385     1.92104556148385
    3      1.92104556148385     0.00000000000000     0.00000000000000
    4      0.00000000000000     1.92104556148385     0.00000000000000
    5      0.00000000000000     0.00000000000000     1.92104556148385

 cartesian forces (hartree/bohr) at end:
    1     -0.00000000000000    -0.00000000000000    -0.00000000000000
    2     -0.00000000000000    -0.00000000000000    -0.00000000000000
    3     -0.00000000000000    -0.00000000000000    -0.00000000000000
    4     -0.00000000000000    -0.00000000000000    -0.00000000000000
    5     -0.00000000000000    -0.00000000000000    -0.00000000000000
 frms,max,avg= 0.0000000E+00 0.0000000E+00   0.000E+00  0.000E+00  0.000E+00 h/b

 cartesian forces (eV/Angstrom) at end:
    1     -0.00000000000000    -0.00000000000000    -0.00000000000000
    2     -0.00000000000000    -0.00000000000000    -0.00000000000000
    3     -0.00000000000000    -0.00000000000000    -0.00000000000000
    4     -0.00000000000000    -0.00000000000000    -0.00000000000000
    5     -0.00000000000000    -0.00000000000000    -0.00000000000000
 frms,max,avg= 0.0000000E+00 0.0000000E+00   0.000E+00  0.000E+00  0.000E+00 e/A
 length scales=  7.260500000000  7.260500000000  7.260500000000 bohr
              =  3.842091122968  3.842091122968  3.842091122968 angstroms
 prteigrs : about to open file t106_MPI4o_DS1_EIG
 Fermi (or HOMO) energy (hartree) =   0.32503   Average Vxc (hartree)=  -0.44649
 Eigenvalues (hartree) for nkpt=   8  k points:
 kpt#   1, nband= 32, wtk=  0.11111, kpt= -0.3333  0.0000  0.0000 (reduced coord)
  -2.07028   -1.12200   -1.12095   -1.12095   -0.93306   -0.39673   -0.34603   -0.34493
  -0.27253   -0.27253   -0.25523    0.09142    0.13220    0.13220    0.16674    0.16674
   0.17007    0.18024    0.22349    0.22349    0.29239    0.34699    0.34699    0.37313
   0.44192    0.50751    0.50975    0.55942    0.57581    0.60110    0.60110    0.77880
      occupation numbers for kpt#   1
   2.00000    2.00000    2.00000    2.00000    2.00000    2.00000    2.00000    2.00000
   2.00000    2.00000    2.00000    2.00000    2.00000    2.00000    2.00000    2.00000
   2.00000    2.00000    2.00000    2.00000    1.99963    0.00617    0.00617    0.00001
   0.00000    0.00000    0.00000    0.00000    0.00000    0.00000    0.00000    0.00000
 kpt#   2, nband= 32, wtk=  0.14815, kpt= -0.1667  0.1667  0.1667 (reduced coord)
  -2.07028   -1.12131   -1.12128   -1.12128   -0.93312   -0.38916   -0.34917   -0.34917
  -0.27128   -0.27128   -0.26171    0.10444    0.12607    0.12607    0.15974    0.15974
   0.17787    0.21659    0.21671    0.21671    0.32116    0.32533    0.32533    0.41877
   0.41877    0.49858    0.49858    0.53504    0.58593    0.58593    0.59788    0.80366
      occupation numbers for kpt#   2
   2.00000    2.00000    2.00000    2.00000    2.00000    2.00000    2.00000    2.00000
   2.00000    2.00000    2.00000    2.00000    2.00000    2.00000    2.00000    2.00000
   2.00000    2.00000    2.00000    2.00000    1.47014    0.96139    0.96139    0.00000
   0.00000    0.00000    0.00000    0.00000    0.00000    0.00000    0.00000    0.00000
 kpt#   3, nband= 32, wtk=  0.22222, kpt= -0.3333  0.3333  0.0000 (reduced coord)
  -2.07025   -1.12193   -1.12191   -1.12090   -0.93233   -0.38266   -0.35619   -0.34499
  -0.27049   -0.26211   -0.25880    0.08073    0.09792    0.09973    0.13354    0.14859
   0.18240    0.18946    0.19511    0.23455    0.34514    0.34861    0.35858    0.40478
   0.49209    0.53667    0.56900    0.57107    0.59848    0.60411    0.63768    0.77649
      occupation numbers for kpt#   3
   2.00000    2.00000    2.00000    2.00000    2.00000    2.00000    2.00000    2.00000
   2.00000    2.00000    2.00000    2.00000    2.00000    2.00000    2.00000    2.00000
   2.00000    2.00000    2.00000    2.00000    0.01003    0.00403    0.00029    0.00000
   0.00000    0.00000    0.00000    0.00000    0.00000    0.00000    0.00000    0.00000
 kpt#   4, nband= 32, wtk=  0.22222, kpt= -0.1667  0.5000  0.1667 (reduced coord)
  -2.07025   -1.12228   -1.12125   -1.12123   -0.93231   -0.38810   -0.34797   -0.34421
  -0.27572   -0.26355   -0.25649    0.07576    0.10752    0.11967    0.12852    0.12859
   0.17330    0.20283    0.20826    0.21157    0.32724    0.36187    0.36322    0.41770
   0.47984    0.54575    0.54953    0.58707    0.59113    0.59125    0.68849    0.69186
      occupation numbers for kpt#   4
   2.00000    2.00000    2.00000    2.00000    2.00000    2.00000    2.00000    2.00000
   2.00000    2.00000    2.00000    2.00000    2.00000    2.00000    2.00000    2.00000
   2.00000    2.00000    2.00000    2.00000    0.71737    0.00012    0.00009    0.00000
   0.00000    0.00000    0.00000    0.00000    0.00000    0.00000    0.00000    0.00000
 kpt#   5, nband= 32, wtk=  0.14815, kpt= -0.3333  0.3333  0.3333 (reduced coord)
  -2.07023   -1.12188   -1.12185   -1.12185   -0.93165   -0.36677   -0.34578   -0.34578
  -0.27706   -0.27706   -0.26358    0.07873    0.10052    0.10052    0.10700    0.11791
   0.11791    0.22769    0.22769    0.23960    0.36351    0.36531    0.36531    0.49036
   0.49036    0.54431    0.54973    0.54973    0.59815    0.59815    0.67167    0.75147
      occupation numbers for kpt#   5
   2.00000    2.00000    2.00000    2.00000    2.00000    2.00000    2.00000    2.00000
   2.00000    2.00000    2.00000    2.00000    2.00000    2.00000    2.00000    2.00000
   2.00000    2.00000    2.00000    2.00000    0.00008    0.00005    0.00005    0.00000
   0.00000    0.00000    0.00000    0.00000    0.00000    0.00000    0.00000    0.00000
 kpt#   6, nband= 32, wtk=  0.11111, kpt= -0.1667  0.5000  0.5000 (reduced coord)
  -2.07023   -1.12220   -1.12220   -1.12120   -0.93164   -0.35777   -0.35486   -0.35486
  -0.27378   -0.26456   -0.26456    0.06678    0.07878    0.08508    0.12548    0.12548
   0.14393    0.21076    0.21076    0.24967    0.36508    0.36508    0.37572    0.44366
   0.52720    0.54474    0.57488    0.58348    0.58348    0.63992    0.68514    0.73507
      occupation numbers for kpt#   6
   2.00000    2.00000    2.00000    2.00000    2.00000    2.00000    2.00000    2.00000
   2.00000    2.00000    2.00000    2.00000    2.00000    2.00000    2.00000    2.00000
   2.00000    2.00000    2.00000    2.00000    0.00005    0.00005    0.00000    0.00000
   0.00000    0.00000    0.00000    0.00000    0.00000    0.00000    0.00000    0.00000
 kpt#   7, nband= 32, wtk=  0.01852, kpt=  0.0000  0.0000  0.0000 (reduced coord)
  -2.07030   -1.12099   -1.12099   -1.12099   -0.93400   -0.39212   -0.34736   -0.34736
  -0.27435   -0.27435   -0.27435    0.13404    0.13404    0.13404    0.20572    0.20572
   0.20572    0.23733    0.23733    0.23733    0.28894    0.28894    0.28894    0.37255
   0.37255    0.45152    0.45152    0.49127    0.56597    0.56597    0.56597    0.80754
      occupation numbers for kpt#   7
   2.00000    2.00000    2.00000    2.00000    2.00000    2.00000    2.00000    2.00000
   2.00000    2.00000    2.00000    2.00000    2.00000    2.00000    2.00000    2.00000
   2.00000    2.00000    2.00000    2.00000    1.99985    1.99985    1.99985    0.00001
   0.00001    0.00000    0.00000    0.00000    0.00000    0.00000    0.00000    0.00000
 kpt#   8, nband= 32, wtk=  0.01852, kpt=  0.5000  0.5000  0.5000 (reduced coord)
  -2.07021   -1.12213   -1.12213   -1.12213   -0.93097   -0.33952   -0.33952   -0.33952
  -0.28673   -0.28673   -0.28673    0.05905    0.08579    0.08579    0.10802    0.10802
   0.10802    0.25267    0.25267    0.25267    0.38279    0.38279    0.38279    0.51612
   0.51612    0.51612    0.52761    0.52761    0.62450    0.62450    0.63740    0.78874
      occupation numbers for kpt#   8
   2.00000    2.00000    2.00000    2.00000    2.00000    2.00000    2.00000    2.00000
   2.00000    2.00000    2.00000    2.00000    2.00000    2.00000    2.00000    2.00000
   2.00000    2.00000    2.00000    2.00000    0.00000    0.00000    0.00000    0.00000
   0.00000    0.00000    0.00000    0.00000    0.00000    0.00000    0.00000    0.00000
 Total charge density [el/Bohr^3]
      Maximum=    1.5041E+00  at reduced coord.    0.0000    0.0000    0.0000
 Next maximum=    1.4557E+00  at reduced coord.    0.0000    0.0000    0.9688
      Minimum=    5.9130E-03  at reduced coord.    0.5000    0.5000    0.0000
 Next minimum=    5.9130E-03  at reduced coord.    0.5000    0.0000    0.5000
   Integrated=    4.1000E+01

--------------------------------------------------------------------------------
 Components of total free energy (in Hartree) :

    Kinetic energy  =  3.83446016614285E+01
    Hartree energy  =  3.20831303510553E+01
    XC energy       = -2.26071145495849E+01
    Ewald energy    = -1.14220316979058E+02
    PspCore energy  =  5.33810470792061E+00
    Loc. psp. energy= -1.07669399439068E+02
    Spherical terms =  1.67587324066814E+01
    >>>>> Internal E= -1.51972261840625E+02

    -kT*entropy     = -3.43363243565973E-03
    >>>>>>>>> Etotal= -1.51975695473061E+02

 "Double-counting" decomposition of free energy:
    Band energy     = -1.34051186073103E+01
    Ewald energy    = -1.14220316979058E+02
    PspCore energy  =  5.33810470792061E+00
    Dble-C XC-energy= -2.51064166092632E+01
    Spherical terms = -4.57854134454767E+00
    >>>>> Internal E= -1.51972288832258E+02

    -kT*entropy     = -3.43363243565973E-03
    >>>> Etotal (DC)= -1.51975722464694E+02

  >Total energy in eV           = -4.13546898690791E+03
  >Total DC energy in eV        = -4.13546972138761E+03
--------------------------------------------------------------------------------

 Cartesian components of stress tensor (hartree/bohr^3)
  sigma(1 1)=  8.78859727E-04  sigma(3 2)=  0.00000000E+00
  sigma(2 2)=  8.78859727E-04  sigma(3 1)=  0.00000000E+00
  sigma(3 3)=  8.78859727E-04  sigma(2 1)=  0.00000000E+00

-Cartesian components of stress tensor (GPa)         [Pressure= -2.5857E+01 GPa]
- sigma(1 1)=  2.58569415E+01  sigma(3 2)=  0.00000000E+00
- sigma(2 2)=  2.58569415E+01  sigma(3 1)=  0.00000000E+00
- sigma(3 3)=  2.58569415E+01  sigma(2 1)=  0.00000000E+00

================================================================================
== DATASET  2 ==================================================================
-   nproc =    4

 mkfilename : getwfk/=0, take file _WFK from output of DATASET   1.

 Exchange-correlation functional for the present dataset will be:
  LDA: Perdew-Wang 92 LSD fit to Ceperley-Alder data - ixc=7
 Citation for XC functional:
  J.P.Perdew and Y.Wang, PRB 45, 13244 (1992)

 Real(R)+Recip(G) space primitive vectors, cartesian coordinates (Bohr,Bohr^-1):
 R(1)=  7.2605000  0.0000000  0.0000000  G(1)=  0.1377316  0.0000000  0.0000000
 R(2)=  0.0000000  7.2605000  0.0000000  G(2)=  0.0000000  0.1377316  0.0000000
 R(3)=  0.0000000  0.0000000  7.2605000  G(3)=  0.0000000  0.0000000  0.1377316
 Unit cell volume ucvol=  3.8273624E+02 bohr^3
 Angles (23,13,12)=  9.00000000E+01  9.00000000E+01  9.00000000E+01 degrees

 Coarse grid specifications (used for wave-functions):

 getcut: wavevector=  0.0000  0.0000  0.0000  ngfft=  32  32  32
         ecut(hartree)=     12.000   => boxcut(ratio)=   2.82636

 getcut : COMMENT -
  Note that boxcut > 2.2 ; recall that boxcut=Gcut(box)/Gcut(sphere) = 2
  is sufficient for exact treatment of convolution.
  Such a large boxcut is a waste : you could raise ecut
  e.g. ecut=   23.964957 Hartrees makes boxcut=2


 Fine grid specifications (used for densities):

 getcut: wavevector=  0.0000  0.0000  0.0000  ngfft=  32  32  32
         ecut(hartree)=     20.000   => boxcut(ratio)=   2.18929
--------------------------------------------------------------------------------

-inwffil : will read wavefunctions from disk file t106_MPI4o_DS1_WFK
P newkpt: treating     32 bands with npw=     192 for ikpt=   1 by node    0
P newkpt: treating     32 bands with npw=     187 for ikpt=   2 by node    0
P newkpt: treating     32 bands with npw=     187 for ikpt=   3 by node    0
P newkpt: treating     32 bands with npw=     192 for ikpt=   4 by node    0
P newkpt: treating     32 bands with npw=     189 for ikpt=   5 by node    0
P newkpt: treating     32 bands with npw=     190 for ikpt=   6 by node    0
P newkpt: treating     32 bands with npw=     188 for ikpt=   7 by node    0
P newkpt: treating     32 bands with npw=     180 for ikpt=   8 by node    0
_setup2: Arith. and geom. avg. npw (full set) are     189.185     189.169

-       ( number of procs used in dmft ) =  4


 ******************************************
 DFT+DMFT Method is used
 ******************************************

 DMFT uses the Hubbard one solver

================================================================================

     iter   Etot(hartree)      deltaE(h)  residm     nres2
 (Edmft  1  -0.03254117947)

  == The DFT+DMFT occupation matrix for correlated electrons is ==

   -------> For Correlated Atom   1

          -- polarization spin component  1
        0.27581   0.00000   0.00000
       -0.00000   0.27581  -0.00000
        0.00000  -0.00000   0.27581

 ETOT  1  -151.97260817787    -1.520E+02 1.785E-28 1.438E-01
 (Edmft  2  -0.03258547762)

  == The DFT+DMFT occupation matrix for correlated electrons is ==

   -------> For Correlated Atom   1

          -- polarization spin component  1
        0.30051   0.00000   0.00000
        0.00000   0.30051   0.00000
        0.00000  -0.00000   0.30051

 ETOT  2  -151.97130627581     1.302E-03 3.865E-17 4.235E-01

 Cartesian components of stress tensor (hartree/bohr^3)
  sigma(1 1)=  1.33992832E-03  sigma(3 2)=  0.00000000E+00
  sigma(2 2)=  1.33992832E-03  sigma(3 1)=  0.00000000E+00
  sigma(3 3)=  1.33992832E-03  sigma(2 1)=  0.00000000E+00


 scprqt:  WARNING -
  nstep=    2 was not enough SCF cycles to converge;
  maximum energy difference=  1.302E-03 exceeds toldfe=  1.000E-10

 Integrated electronic density in atomic spheres:
 ------------------------------------------------
 Atom  Sphere_radius  Integrated_density
    1        2.35000         12.07881890
    2        1.92520          6.46116681
    3        1.21105          3.61754036
    4        1.21105          3.61754036
    5        1.21105          3.61754036

 PAW TEST:
 ==== Compensation charge inside spheres ============
 The following values must be close to each other ...
 Compensation charge over spherical meshes =      7.308525897213340
 Compensation charge over fft grid         =      7.390865987986643

 ==== Results concerning PAW augmentation regions ====

 Total pseudopotential strength Dij (hartree):
 Atom #  1
  -1.47742   0.31457  -1.69445   0.00000   0.00000   0.00000   0.00000   0.00000   0.00000   0.00000   0.00000   0.00000 ...
   0.31457   0.16750  -1.51497   0.00000   0.00000   0.00000   0.00000   0.00000   0.00000   0.00000   0.00000   0.00000 ...
  -1.69445  -1.51497  15.90513   0.00000   0.00000   0.00000   0.00000   0.00000   0.00000   0.00000   0.00000   0.00000 ...
   0.00000   0.00000   0.00000  -1.07508   0.00000   0.00000   0.07663   0.00000   0.00000   0.06871   0.00000   0.00000 ...
   0.00000   0.00000   0.00000   0.00000  -1.07508   0.00000   0.00000   0.07663   0.00000   0.00000   0.06871   0.00000 ...
   0.00000   0.00000   0.00000   0.00000   0.00000  -1.07508   0.00000   0.00000   0.07663   0.00000   0.00000   0.06871 ...
   0.00000   0.00000   0.00000   0.07663   0.00000   0.00000   0.03903   0.00000   0.00000  -0.16528   0.00000   0.00000 ...
   0.00000   0.00000   0.00000   0.00000   0.07663   0.00000   0.00000   0.03903   0.00000   0.00000  -0.16528   0.00000 ...
   0.00000   0.00000   0.00000   0.00000   0.00000   0.07663   0.00000   0.00000   0.03903   0.00000   0.00000  -0.16528 ...
   0.00000   0.00000   0.00000   0.06871   0.00000   0.00000  -0.16528   0.00000   0.00000   2.29354   0.00000   0.00000 ...
   0.00000   0.00000   0.00000   0.00000   0.06871   0.00000   0.00000  -0.16528   0.00000   0.00000   2.29354   0.00000 ...
   0.00000   0.00000   0.00000   0.00000   0.00000   0.06871   0.00000   0.00000  -0.16528   0.00000   0.00000   2.29354 ...
   ...  only 12  components have been written...
 Atom #  5
   0.63534   1.06884   0.00000   0.00000   0.00000   0.00000   0.00000   0.00000   0.00000   0.00000   0.00030   0.00000 ...
   1.06884   1.79506   0.00000   0.00000   0.00000   0.00000   0.00000   0.00000   0.00000   0.00000   0.00044   0.00000 ...
   0.00000   0.00000  -0.27062   0.00000   0.00000  -0.30067   0.00000   0.00000   0.00000   0.00000   0.00000   0.00000 ...
   0.00000   0.00000   0.00000  -0.27326   0.00000   0.00000  -0.30436   0.00000   0.00000   0.00000   0.00000   0.00000 ...
   0.00000   0.00000   0.00000   0.00000  -0.27062   0.00000   0.00000  -0.30067   0.00000   0.00000   0.00000   0.00000 ...
   0.00000   0.00000  -0.30067   0.00000   0.00000  -0.29814   0.00000   0.00000   0.00000   0.00000   0.00000   0.00000 ...
   0.00000   0.00000   0.00000  -0.30436   0.00000   0.00000  -0.30330   0.00000   0.00000   0.00000   0.00000   0.00000 ...
   0.00000   0.00000   0.00000   0.00000  -0.30067   0.00000   0.00000  -0.29814   0.00000   0.00000   0.00000   0.00000 ...
   0.00000   0.00000   0.00000   0.00000   0.00000   0.00000   0.00000   0.00000  -0.01509   0.00000   0.00000   0.00000 ...
   0.00000   0.00000   0.00000   0.00000   0.00000   0.00000   0.00000   0.00000   0.00000  -0.01532   0.00000   0.00000 ...
   0.00030   0.00044   0.00000   0.00000   0.00000   0.00000   0.00000   0.00000   0.00000   0.00000  -0.01542   0.00000 ...
   0.00000   0.00000   0.00000   0.00000   0.00000   0.00000   0.00000   0.00000   0.00000   0.00000   0.00000  -0.01532 ...
   ...  only 12  components have been written...


 Augmentation waves occupancies Rhoij:
 Atom #  1
   2.00145   0.00022   0.00460   0.00000   0.00000   0.00000   0.00000   0.00000   0.00000   0.00000   0.00000   0.00000 ...
   0.00022   1.50478   0.01905   0.00000   0.00000   0.00000   0.00000   0.00000   0.00000   0.00000   0.00000   0.00000 ...
   0.00460   0.01905   0.00032   0.00000   0.00000   0.00000   0.00000   0.00000   0.00000   0.00000   0.00000   0.00000 ...
   0.00000   0.00000   0.00000   1.99848   0.00000   0.00000  -0.04482   0.00000   0.00000   0.01085   0.00000   0.00000 ...
   0.00000   0.00000   0.00000   0.00000   1.99848   0.00000   0.00000  -0.04482   0.00000   0.00000   0.01085   0.00000 ...
   0.00000   0.00000   0.00000   0.00000   0.00000   1.99848   0.00000   0.00000  -0.04482   0.00000   0.00000   0.01085 ...
   0.00000   0.00000   0.00000  -0.04482   0.00000   0.00000   2.19012   0.00000   0.00000   0.03247   0.00000   0.00000 ...
   0.00000   0.00000   0.00000   0.00000  -0.04482   0.00000   0.00000   2.19012   0.00000   0.00000   0.03247   0.00000 ...
   0.00000   0.00000   0.00000   0.00000   0.00000  -0.04482   0.00000   0.00000   2.19012   0.00000   0.00000   0.03247 ...
   0.00000   0.00000   0.00000   0.01085   0.00000   0.00000   0.03247   0.00000   0.00000   0.00067   0.00000   0.00000 ...
   0.00000   0.00000   0.00000   0.00000   0.01085   0.00000   0.00000   0.03247   0.00000   0.00000   0.00067   0.00000 ...
   0.00000   0.00000   0.00000   0.00000   0.00000   0.01085   0.00000   0.00000   0.03247   0.00000   0.00000   0.00067 ...
   ...  only 12  components have been written...
 Atom #  5
   2.18100  -0.13153   0.00000   0.00000   0.00000   0.00000   0.00000   0.00000   0.00000   0.00000   0.07067   0.00000 ...
  -0.13153   0.01490   0.00000   0.00000   0.00000   0.00000   0.00000   0.00000   0.00000   0.00000   0.00625   0.00000 ...
   0.00000   0.00000   2.27472   0.00000   0.00000  -0.33141   0.00000   0.00000   0.00000   0.00000   0.00000   0.00000 ...
   0.00000   0.00000   0.00000   2.52637   0.00000   0.00000  -0.49439   0.00000   0.00000   0.00000   0.00000   0.00000 ...
   0.00000   0.00000   0.00000   0.00000   2.27472   0.00000   0.00000  -0.33141   0.00000   0.00000   0.00000   0.00000 ...
   0.00000   0.00000  -0.33141   0.00000   0.00000   0.05668   0.00000   0.00000   0.00000   0.00000   0.00000   0.00000 ...
   0.00000   0.00000   0.00000  -0.49439   0.00000   0.00000   0.10860   0.00000   0.00000   0.00000   0.00000   0.00000 ...
   0.00000   0.00000   0.00000   0.00000  -0.33141   0.00000   0.00000   0.05668   0.00000   0.00000   0.00000   0.00000 ...
   0.00000   0.00000   0.00000   0.00000   0.00000   0.00000   0.00000   0.00000   0.01005   0.00000   0.00000   0.00000 ...
   0.00000   0.00000   0.00000   0.00000   0.00000   0.00000   0.00000   0.00000   0.00000   0.02233   0.00000   0.00000 ...
   0.07067   0.00625   0.00000   0.00000   0.00000   0.00000   0.00000   0.00000   0.00000   0.00000   0.04951   0.00000 ...
   0.00000   0.00000   0.00000   0.00000   0.00000   0.00000   0.00000   0.00000   0.00000   0.00000   0.00000   0.02233 ...
   ...  only 12  components have been written...

 "PAW+U" part of augmentation waves occupancies Rhoij:
 Atom #  1 - L=2 ONLY
   0.63991   0.00000   0.00000   0.00000   0.00000   0.03447   0.00000   0.00000   0.00000   0.00000
   0.00000   0.63991   0.00000   0.00000   0.00000   0.00000   0.03447   0.00000   0.00000   0.00000
   0.00000   0.00000   0.70510   0.00000   0.00000   0.00000   0.00000   0.13353   0.00000   0.00000
   0.00000   0.00000   0.00000   0.63991   0.00000   0.00000   0.00000   0.00000   0.03447   0.00000
   0.00000   0.00000   0.00000   0.00000   0.70510   0.00000   0.00000   0.00000   0.00000   0.13353
   0.03447   0.00000   0.00000   0.00000   0.00000   0.01064   0.00000   0.00000   0.00000   0.00000
   0.00000   0.03447   0.00000   0.00000   0.00000   0.00000   0.01064   0.00000   0.00000   0.00000
   0.00000   0.00000   0.13353   0.00000   0.00000   0.00000   0.00000   0.03156   0.00000   0.00000
   0.00000   0.00000   0.00000   0.03447   0.00000   0.00000   0.00000   0.00000   0.01064   0.00000
   0.00000   0.00000   0.00000   0.00000   0.13353   0.00000   0.00000   0.00000   0.00000   0.03156

 ---------- LDA+U DATA --------------------------------------------------- 

 ====== For Atom     1, occupations for correlated orbitals. lpawu =   2

  (This is PAW atomic orbital occupations)
  (For Wannier orbital occupations, refer to DFT+DMFT occupations above)

 == Occupation matrix for correlated orbitals:

 Up component only...
     0.23692    0.00000    0.00000    0.00000    0.00000
     0.00000    0.23692    0.00000    0.00000    0.00000
     0.00000    0.00000    0.24866    0.00000    0.00000
     0.00000    0.00000    0.00000    0.23692    0.00000
     0.00000    0.00000    0.00000    0.00000    0.24866



================================================================================

 ----iterations are completed or convergence reached----

 Mean square residual over all n,k,spin=   1.8955E-18; max=  3.8645E-17
  -0.3333  0.0000  0.0000    1  1.24561E-23 kpt; spin; max resid(k); each band:
  2.27E-24 2.68E-25 1.20E-24 1.80E-24 6.89E-24 3.40E-24 1.25E-23 7.57E-24
  1.01E-24 3.93E-25 1.06E-24 1.78E-24 3.03E-24 1.85E-24 5.62E-24 1.96E-24
  2.28E-24 3.35E-24 4.53E-24 1.58E-24 4.98E-25 7.25E-24 4.13E-24 2.19E-24
  2.67E-24 3.35E-24 1.08E-24 2.43E-25 2.25E-24 1.42E-24 2.65E-24 3.24E-24
  -0.1667  0.1667  0.1667    1  2.03600E-19 kpt; spin; max resid(k); each band:
  3.84E-21 1.12E-19 3.59E-21 5.13E-20 3.07E-21 2.04E-19 1.22E-19 6.28E-20
  6.23E-21 4.63E-21 2.64E-20 1.35E-22 6.48E-20 3.00E-21 5.46E-21 1.20E-21
  3.35E-20 4.46E-21 2.13E-21 7.77E-20 3.79E-20 2.21E-20 1.60E-20 1.72E-20
  1.57E-19 4.32E-20 2.71E-20 6.10E-20 9.62E-21 8.57E-21 1.16E-21 1.46E-20
  -0.3333  0.3333  0.0000    1  7.66583E-20 kpt; spin; max resid(k); each band:
  7.54E-21 4.96E-21 4.72E-20 1.97E-21 3.52E-20 7.23E-20 1.77E-20 7.67E-20
  1.31E-20 4.19E-21 3.02E-21 4.52E-20 5.71E-20 7.26E-20 1.28E-20 2.46E-20
  1.80E-20 3.10E-20 3.48E-20 5.74E-20 6.73E-21 1.05E-20 9.29E-21 6.98E-20
  3.00E-20 3.37E-20 1.54E-20 4.06E-21 1.56E-21 2.15E-20 2.01E-20 4.60E-20
  -0.1667  0.5000  0.1667    1  3.86453E-17 kpt; spin; max resid(k); each band:
  3.34E-17 3.83E-18 5.15E-18 4.19E-19 3.86E-17 1.57E-18 7.91E-18 1.90E-17
  1.23E-17 4.65E-18 3.83E-17 1.90E-18 1.42E-17 2.77E-17 8.40E-18 1.57E-17
  2.43E-17 5.73E-18 2.79E-17 8.24E-18 5.97E-18 1.13E-17 6.98E-18 6.12E-18
  2.00E-17 3.14E-18 2.40E-17 6.88E-18 2.37E-17 1.86E-17 2.89E-17 2.80E-17
  -0.3333  0.3333  0.3333    1  1.29216E-29 kpt; spin; max resid(k); each band:
  5.78E-30 2.17E-30 1.66E-30 2.02E-30 1.29E-29 2.77E-30 2.61E-30 1.51E-30
  1.80E-30 1.04E-30 2.08E-30 1.30E-30 9.78E-31 8.88E-31 1.40E-30 1.42E-30
  1.79E-30 1.20E-30 1.51E-30 1.99E-30 8.30E-31 6.93E-31 1.07E-30 8.38E-31
  7.60E-31 1.37E-30 1.11E-30 8.60E-31 9.16E-31 1.36E-30 3.36E-30 2.56E-30
  -0.1667  0.5000  0.5000    1  7.77261E-20 kpt; spin; max resid(k); each band:
  1.52E-21 3.69E-21 2.35E-20 2.80E-21 7.77E-20 3.84E-21 1.93E-20 2.02E-20
  1.51E-21 5.39E-21 6.89E-21 4.70E-21 9.54E-21 1.14E-20 1.85E-21 1.29E-20
  3.54E-20 3.46E-21 5.74E-21 1.54E-20 2.86E-21 4.80E-21 1.29E-20 1.09E-20
  5.42E-21 6.90E-21 2.17E-21 5.00E-21 3.54E-21 2.60E-21 4.64E-20 1.07E-20
   0.0000  0.0000  0.0000    1  9.18727E-29 kpt; spin; max resid(k); each band:
  5.53E-30 1.66E-30 1.52E-30 2.21E-30 9.19E-29 7.20E-30 3.83E-30 3.76E-30
  1.86E-30 8.18E-31 7.97E-31 1.66E-30 8.05E-31 7.74E-31 1.84E-30 1.08E-30
  1.38E-30 1.18E-30 1.47E-30 1.62E-30 7.78E-31 9.00E-31 3.57E-31 1.29E-30
  7.36E-31 2.36E-30 1.07E-30 2.28E-29 1.13E-30 1.05E-30 8.85E-31 9.62E-30
   0.5000  0.5000  0.5000    1  4.23943E-25 kpt; spin; max resid(k); each band:
  7.05E-30 1.68E-30 2.18E-30 2.04E-30 4.79E-29 1.43E-30 2.01E-30 2.15E-30
  1.42E-30 9.62E-31 6.66E-31 9.25E-31 7.31E-31 5.51E-31 7.39E-31 8.05E-31
  7.74E-31 1.66E-30 7.15E-31 8.05E-31 6.61E-31 9.84E-31 7.69E-31 8.17E-31
  1.01E-30 8.66E-31 1.18E-30 4.99E-31 1.09E-30 9.07E-31 9.95E-30 4.24E-25
 reduced coordinates (array xred) for    5 atoms
       0.000000000000      0.000000000000      0.000000000000
       0.500000000000      0.500000000000      0.500000000000
       0.500000000000      0.000000000000      0.000000000000
       0.000000000000      0.500000000000      0.000000000000
       0.000000000000      0.000000000000      0.500000000000
 rms dE/dt=  0.0000E+00; max dE/dt=  0.0000E+00; dE/dt below (all hartree)
    1       0.000000000000      0.000000000000      0.000000000000
    2       0.000000000000      0.000000000000      0.000000000000
    3       0.000000000000      0.000000000000      0.000000000000
    4       0.000000000000      0.000000000000      0.000000000000
    5       0.000000000000      0.000000000000      0.000000000000

 cartesian coordinates (angstrom) at end:
    1      0.00000000000000     0.00000000000000     0.00000000000000
    2      1.92104556148385     1.92104556148385     1.92104556148385
    3      1.92104556148385     0.00000000000000     0.00000000000000
    4      0.00000000000000     1.92104556148385     0.00000000000000
    5      0.00000000000000     0.00000000000000     1.92104556148385
 length scales=  7.260500000000  7.260500000000  7.260500000000 bohr
              =  3.842091122968  3.842091122968  3.842091122968 angstroms
 prteigrs : about to open file t106_MPI4o_DS2_EIG
 Fermi (or HOMO) energy (hartree) =   0.31056   Average Vxc (hartree)=  -0.44624
 Eigenvalues (hartree) for nkpt=   8  k points:
 kpt#   1, nband= 32, wtk=  0.11111, kpt= -0.3333  0.0000  0.0000 (reduced coord)
  -2.09520   -1.14560   -1.14466   -1.14466   -0.93200   -0.39079   -0.33859   -0.33774
  -0.27140   -0.27140   -0.25301    0.09134    0.13672    0.13672    0.16915    0.16915
   0.17666    0.18773    0.23079    0.23079    0.27422    0.33450    0.33450    0.35336
   0.42695    0.51095    0.51214    0.56005    0.57915    0.60309    0.60309    0.78123
      occupation numbers for kpt#   1
   2.00000    2.00000    2.00000    2.00000    2.00000    2.00000    2.00000    2.00000
   2.00000    2.00000    2.00000    1.99993    1.99859    1.99859    1.97249    1.97249
   1.99995    1.99995    1.99632    1.99632    0.73997    0.32854    0.32854    0.00003
   0.00000    0.00000    0.00000    0.00000    0.00000    0.00000    0.00000    0.00000
 kpt#   2, nband= 32, wtk=  0.14815, kpt= -0.1667  0.1667  0.1667 (reduced coord)
  -2.09520   -1.14498   -1.14496   -1.14496   -0.93206   -0.38292   -0.34220   -0.34220
  -0.26968   -0.26968   -0.26004    0.10820    0.12803    0.12803    0.16314    0.16314
   0.18152    0.22316    0.22316    0.22542    0.30615    0.31118    0.31118    0.40345
   0.40345    0.50066    0.50066    0.53781    0.58699    0.58699    0.60031    0.80249
      occupation numbers for kpt#   2
   2.00000    2.00000    2.00000    2.00000    2.00000    2.00000    2.00000    2.00000
   2.00000    2.00000    2.00000    1.99708    1.99927    1.99927    1.97988    1.97988
   1.98205    1.99866    1.99866    1.99995    0.50350    0.46533    0.46533    0.00000
   0.00000    0.00000    0.00000    0.00000    0.00000    0.00000    0.00000    0.00000
 kpt#   3, nband= 32, wtk=  0.22222, kpt= -0.3333  0.3333  0.0000 (reduced coord)
  -2.09518   -1.14554   -1.14552   -1.14462   -0.93127   -0.37659   -0.35012   -0.33772
  -0.26938   -0.25957   -0.25656    0.08243    0.09799    0.10011    0.13681    0.15085
   0.18962    0.19262    0.20270    0.24351    0.33172    0.33507    0.34275    0.38744
   0.47923    0.53900    0.57197    0.57349    0.60090    0.60580    0.64194    0.77925
      occupation numbers for kpt#   3
   2.00000    2.00000    2.00000    2.00000    2.00000    2.00000    2.00000    2.00000
   2.00000    2.00000    2.00000    1.99783    1.99993    1.99220    1.98973    1.97832
   1.99972    1.98169    1.99996    1.99809    0.34774    0.33378    0.31006    0.00000
   0.00000    0.00000    0.00000    0.00000    0.00000    0.00000    0.00000    0.00000
 kpt#   4, nband= 32, wtk=  0.22222, kpt= -0.1667  0.5000  0.1667 (reduced coord)
  -2.09518   -1.14585   -1.14493   -1.14492   -0.93125   -0.38226   -0.34140   -0.33678
  -0.27458   -0.26162   -0.25412    0.07493    0.11042    0.12259    0.13031    0.13116
   0.17632    0.20983    0.21492    0.21887    0.31255    0.34747    0.34959    0.40208
   0.46640    0.54909    0.55174    0.58920    0.59360    0.59406    0.69184    0.69511
      occupation numbers for kpt#   4
   2.00000    2.00000    2.00000    2.00000    2.00000    2.00000    2.00000    2.00000
   2.00000    2.00000    2.00000    1.99990    1.98865    1.99650    1.99994    1.98437
   1.98192    1.99144    1.99996    1.98917    0.46145    0.28620    0.27278    0.00000
   0.00000    0.00000    0.00000    0.00000    0.00000    0.00000    0.00000    0.00000
 kpt#   5, nband= 32, wtk=  0.14815, kpt= -0.3333  0.3333  0.3333 (reduced coord)
  -2.09516   -1.14549   -1.14547   -1.14547   -0.93059   -0.36061   -0.33893   -0.33893
  -0.27532   -0.27532   -0.26142    0.08138    0.09869    0.09869    0.10955    0.12009
   0.12009    0.23625    0.23625    0.24896    0.34800    0.35036    0.35036    0.47761
   0.47761    0.54583    0.55125    0.55125    0.60083    0.60083    0.67511    0.75292
      occupation numbers for kpt#   5
   2.00000    2.00000    2.00000    2.00000    2.00000    2.00000    2.00000    2.00000
   2.00000    2.00000    2.00000    1.99791    1.99984    1.99984    1.99060    1.98573
   1.98573    1.99947    1.99947    1.99209    0.29011    0.27794    0.27794    0.00000
   0.00000    0.00000    0.00000    0.00000    0.00000    0.00000    0.00000    0.00000
 kpt#   6, nband= 32, wtk=  0.11111, kpt= -0.1667  0.5000  0.5000 (reduced coord)
  -2.09516   -1.14578   -1.14578   -1.14488   -0.93058   -0.35059   -0.34890   -0.34890
  -0.27265   -0.26188   -0.26188    0.06740    0.08119    0.08234    0.12764    0.12764
   0.14573    0.21885    0.21885    0.25921    0.35079    0.35079    0.35925    0.42892
   0.51505    0.54665    0.57757    0.58562    0.58562    0.64151    0.68757    0.73919
      occupation numbers for kpt#   6
   2.00000    2.00000    2.00000    2.00000    2.00000    2.00000    2.00000    2.00000
   2.00000    2.00000    2.00000    1.99992    1.99103    1.99992    1.98385    1.98385
   1.99994    1.99801    1.99801    1.88896    0.27426    0.27426    0.25687    0.00000
   0.00000    0.00000    0.00000    0.00000    0.00000    0.00000    0.00000    0.00000
 kpt#   7, nband= 32, wtk=  0.01852, kpt=  0.0000  0.0000  0.0000 (reduced coord)
  -2.09522   -1.14470   -1.14470   -1.14470   -0.93293   -0.38548   -0.33995   -0.33995
  -0.27320   -0.27320   -0.27320    0.13867    0.13867    0.13867    0.21435    0.21435
   0.21435    0.24540    0.24540    0.24540    0.27129    0.27129    0.27129    0.35281
   0.35281    0.45334    0.45334    0.49429    0.56530    0.56530    0.56530    0.80190
      occupation numbers for kpt#   7
   2.00000    2.00000    2.00000    2.00000    2.00000    2.00000    2.00000    2.00000
   2.00000    2.00000    2.00000    1.99994    1.99994    1.99994    1.99996    1.99996
   1.99996    1.99688    1.99688    1.99688    0.76347    0.76347    0.76347    0.00003
   0.00003    0.00000    0.00000    0.00000    0.00000    0.00000    0.00000    0.00000
 kpt#   8, nband= 32, wtk=  0.01852, kpt=  0.5000  0.5000  0.5000 (reduced coord)
  -2.09514   -1.14572   -1.14572   -1.14572   -0.92991   -0.33212   -0.33212   -0.33212
  -0.28553   -0.28553   -0.28553    0.06123    0.08302    0.08302    0.10993    0.10993
   0.10993    0.26234    0.26234    0.26234    0.36728    0.36728    0.36728    0.51549
   0.51549    0.51763    0.51763    0.51763    0.62581    0.62581    0.63850    0.79345
      occupation numbers for kpt#   8
   2.00000    2.00000    2.00000    2.00000    2.00000    2.00000    2.00000    2.00000
   2.00000    2.00000    2.00000    1.99992    1.99992    1.99992    1.98644    1.98644
   1.98644    1.76341    1.76341    1.76341    0.22890    0.22890    0.22890    0.00000
   0.00000    0.00000    0.00000    0.00000    0.00000    0.00000    0.00000    0.00000
 Total charge density [el/Bohr^3]
      Maximum=    1.5284E+00  at reduced coord.    0.0000    0.0000    0.0000
 Next maximum=    1.4789E+00  at reduced coord.    0.0000    0.0000    0.9688
      Minimum=    6.2184E-03  at reduced coord.    0.5000    0.5000    0.0000
 Next minimum=    6.2184E-03  at reduced coord.    0.5000    0.0000    0.5000
   Integrated=    4.1000E+01

--------------------------------------------------------------------------------
 Components of total free energy (in Hartree) :

    Kinetic energy  =  3.81501671948649E+01
    Hartree energy  =  3.20441163685961E+01
    XC energy       = -2.26223796848578E+01
    Ewald energy    = -1.14220316979058E+02
    PspCore energy  =  5.33810470792061E+00
    Loc. psp. energy= -1.07680326188129E+02
    Spherical terms =  1.67142723775386E+01
    >>>>> Internal E= -1.52276362203124E+02

    >>>>>>>>> Etotal= -1.52276362203124E+02

 "Double-counting" decomposition of free energy:
    Band energy     = -1.34480154213926E+01
    Ewald energy    = -1.14220316979058E+02
    PspCore energy  =  5.33810470792061E+00
    Dble-C XC-energy= -2.50625020455141E+01
    Spherical terms = -4.57857653776360E+00
    >>>>> Internal E= -1.51971306275807E+02

    >>>> Etotal (DC)= -1.51971306275807E+02

  >Total energy in eV           = -4.14365054471360E+03
  >Total DC energy in eV        = -4.13534955077662E+03
--------------------------------------------------------------------------------

 Cartesian components of stress tensor (hartree/bohr^3)
  sigma(1 1)=  1.33992832E-03  sigma(3 2)=  0.00000000E+00
  sigma(2 2)=  1.33992832E-03  sigma(3 1)=  0.00000000E+00
  sigma(3 3)=  1.33992832E-03  sigma(2 1)=  0.00000000E+00

-Cartesian components of stress tensor (GPa)         [Pressure= -3.9422E+01 GPa]
- sigma(1 1)=  3.94220454E+01  sigma(3 2)=  0.00000000E+00
- sigma(2 2)=  3.94220454E+01  sigma(3 1)=  0.00000000E+00
- sigma(3 3)=  3.94220454E+01  sigma(2 1)=  0.00000000E+00

== END DATASET(S) ==============================================================
================================================================================
  
 -outvars: echo values of variables after computation  --------
-          iomode1          0
-          iomode2          1
            acell      7.2605000000E+00  7.2605000000E+00  7.2605000000E+00 Bohr
              amu      5.09415000E+01  8.76200000E+01  1.59994000E+01
           bandpp1          1
           bandpp2          8
     densfor_pred1          2
     densfor_pred2          6
        dmatpuopt           1
        dmftbandf1          0
        dmftbandf2         23
        dmftbandi1          0
        dmftbandi2         12
        dmft_iter1          0
        dmft_iter2          1
        dmft_mxsf1     3.0000000000E-01
        dmft_mxsf2     7.0000000000E-01
        dmft_nwli1          0
        dmft_nwli2     100000
        dmft_nwlo1          0
        dmft_nwlo2        100
        dmft_rslf1          0
        dmft_rslf2          1
        dmft_solv1          5
        dmft_solv2          2
             ecut      1.20000000E+01 Hartree
           etotal1    -1.5197572246E+02
           etotal2    -1.5197130628E+02
            fcart1    -0.0000000000E+00 -0.0000000000E+00 -0.0000000000E+00
                      -0.0000000000E+00 -0.0000000000E+00 -0.0000000000E+00
                      -0.0000000000E+00 -0.0000000000E+00 -0.0000000000E+00
                      -0.0000000000E+00 -0.0000000000E+00 -0.0000000000E+00
                      -0.0000000000E+00 -0.0000000000E+00 -0.0000000000E+00
            fcart2     9.9999999999E+99  9.9999999999E+99  9.9999999999E+99
                       9.9999999999E+99  9.9999999999E+99  9.9999999999E+99
                       9.9999999999E+99  9.9999999999E+99  9.9999999999E+99
                       9.9999999999E+99  9.9999999999E+99  9.9999999999E+99
                       9.9999999999E+99  9.9999999999E+99  9.9999999999E+99
-          fftalg         312
           getwfk          -1
           istwfk        0    0    0    0    0    0    1    1
              ixc           7
           jdtset        1    2
            jpawu1     0.00000000E+00  0.00000000E+00  0.00000000E+00 Hartree
            jpawu2     2.78682384E-02  0.00000000E+00  0.00000000E+00 Hartree
              kpt     -3.33333333E-01  0.00000000E+00  0.00000000E+00
                      -1.66666667E-01  1.66666667E-01  1.66666667E-01
                      -3.33333333E-01  3.33333333E-01  0.00000000E+00
                      -1.66666667E-01  5.00000000E-01  1.66666667E-01
                      -3.33333333E-01  3.33333333E-01  3.33333333E-01
                      -1.66666667E-01  5.00000000E-01  5.00000000E-01
                       0.00000000E+00  0.00000000E+00  0.00000000E+00
                       5.00000000E-01  5.00000000E-01  5.00000000E-01
         kptrlatt        3    0    3     -3    3    0     -3    0    3
          kptrlen      3.08036927E+01
            lpawu           2      -1      -1
P           mkmem1          2
P           mkmem2          8
            natom           5
            nband          32
           nbdbuf           2
           ndtset           2
            ngfft          32      32      32
          ngfftdg          32      32      32
             nkpt           8
            nline          15
           nnsclo          20
-          npband1          1
-          npband2          4
            nstep1         30
            nstep2          2
             nsym          48
           ntypat           3
              occ1     2.000000  2.000000  2.000000  2.000000  2.000000  2.000000
                       2.000000  2.000000  2.000000  2.000000  2.000000  2.000000
                       2.000000  2.000000  2.000000  2.000000  2.000000  2.000000
                       2.000000  2.000000  1.999629  0.006166  0.006166  0.000006
                       0.000000  0.000000  0.000000  0.000000  0.000000  0.000000
                       0.000000  0.000000
                       2.000000  2.000000  2.000000  2.000000  2.000000  2.000000
                       2.000000  2.000000  2.000000  2.000000  2.000000  2.000000
                       2.000000  2.000000  2.000000  2.000000  2.000000  2.000000
                       2.000000  2.000000  1.470142  0.961387  0.961387  0.000000
                       0.000000  0.000000  0.000000  0.000000  0.000000  0.000000
                       0.000000  0.000000
                       2.000000  2.000000  2.000000  2.000000  2.000000  2.000000
                       2.000000  2.000000  2.000000  2.000000  2.000000  2.000000
                       2.000000  2.000000  2.000000  2.000000  2.000000  2.000000
                       2.000000  2.000000  0.010027  0.004034  0.000293  0.000000
                       0.000000  0.000000  0.000000  0.000000  0.000000  0.000000
                       0.000000  0.000000
                       2.000000  2.000000  2.000000  2.000000  2.000000  2.000000
                       2.000000  2.000000  2.000000  2.000000  2.000000  2.000000
                       2.000000  2.000000  2.000000  2.000000  2.000000  2.000000
                       2.000000  2.000000  0.717371  0.000123  0.000087  0.000000
                       0.000000  0.000000  0.000000  0.000000  0.000000  0.000000
                       0.000000  0.000000
                       2.000000  2.000000  2.000000  2.000000  2.000000  2.000000
                       2.000000  2.000000  2.000000  2.000000  2.000000  2.000000
                       2.000000  2.000000  2.000000  2.000000  2.000000  2.000000
                       2.000000  2.000000  0.000080  0.000050  0.000050  0.000000
                       0.000000  0.000000  0.000000  0.000000  0.000000  0.000000
                       0.000000  0.000000
                       2.000000  2.000000  2.000000  2.000000  2.000000  2.000000
                       2.000000  2.000000  2.000000  2.000000  2.000000  2.000000
                       2.000000  2.000000  2.000000  2.000000  2.000000  2.000000
                       2.000000  2.000000  0.000053  0.000053  0.000003  0.000000
                       0.000000  0.000000  0.000000  0.000000  0.000000  0.000000
                       0.000000  0.000000
                       2.000000  2.000000  2.000000  2.000000  2.000000  2.000000
                       2.000000  2.000000  2.000000  2.000000  2.000000  2.000000
                       2.000000  2.000000  2.000000  2.000000  2.000000  2.000000
                       2.000000  2.000000  1.999850  1.999850  1.999850  0.000007
                       0.000007  0.000000  0.000000  0.000000  0.000000  0.000000
                       0.000000  0.000000
                       2.000000  2.000000  2.000000  2.000000  2.000000  2.000000
                       2.000000  2.000000  2.000000  2.000000  2.000000  2.000000
                       2.000000  2.000000  2.000000  2.000000  2.000000  2.000000
                       2.000000  2.000000  0.000001  0.000001  0.000001  0.000000
                       0.000000  0.000000  0.000000  0.000000  0.000000  0.000000
                       0.000000  0.000000
              occ2     2.000000  2.000000  2.000000  2.000000  2.000000  2.000000
                       2.000000  2.000000  2.000000  2.000000  2.000000  1.999926
                       1.998593  1.998593  1.972489  1.972489  1.999950  1.999954
                       1.996322  1.996322  0.739968  0.328542  0.328542  0.000026
                       0.000000  0.000000  0.000000  0.000000  0.000000  0.000000
                       0.000000  0.000000
                       2.000000  2.000000  2.000000  2.000000  2.000000  2.000000
                       2.000000  2.000000  2.000000  2.000000  2.000000  1.997081
                       1.999266  1.999266  1.979882  1.979882  1.982045  1.998656
                       1.998656  1.999953  0.503500  0.465331  0.465331  0.000000
                       0.000000  0.000000  0.000000  0.000000  0.000000  0.000000
                       0.000000  0.000000
                       2.000000  2.000000  2.000000  2.000000  2.000000  2.000000
                       2.000000  2.000000  2.000000  2.000000  2.000000  1.997828
                       1.999927  1.992195  1.989727  1.978320  1.999723  1.981685
                       1.999960  1.998091  0.347741  0.333782  0.310055  0.000000
                       0.000000  0.000000  0.000000  0.000000  0.000000  0.000000
                       0.000000  0.000000
                       2.000000  2.000000  2.000000  2.000000  2.000000  2.000000
                       2.000000  2.000000  2.000000  2.000000  2.000000  1.999895
                       1.988650  1.996498  1.999936  1.984366  1.981921  1.991443
                       1.999964  1.989169  0.461449  0.286203  0.272777  0.000000
                       0.000000  0.000000  0.000000  0.000000  0.000000  0.000000
                       0.000000  0.000000
                       2.000000  2.000000  2.000000  2.000000  2.000000  2.000000
                       2.000000  2.000000  2.000000  2.000000  2.000000  1.997907
                       1.999843  1.999843  1.990598  1.985729  1.985729  1.999466
                       1.999466  1.992090  0.290110  0.277943  0.277943  0.000000
                       0.000000  0.000000  0.000000  0.000000  0.000000  0.000000
                       0.000000  0.000000
                       2.000000  2.000000  2.000000  2.000000  2.000000  2.000000
                       2.000000  2.000000  2.000000  2.000000  2.000000  1.999919
                       1.991027  1.999923  1.983851  1.983851  1.999940  1.998010
                       1.998010  1.888955  0.274261  0.274261  0.256873  0.000000
                       0.000000  0.000000  0.000000  0.000000  0.000000  0.000000
                       0.000000  0.000000
                       2.000000  2.000000  2.000000  2.000000  2.000000  2.000000
                       2.000000  2.000000  2.000000  2.000000  2.000000  1.999938
                       1.999938  1.999938  1.999964  1.999964  1.999964  1.996876
                       1.996876  1.996876  0.763471  0.763471  0.763471  0.000030
                       0.000030  0.000000  0.000000  0.000000  0.000000  0.000000
                       0.000000  0.000000
                       2.000000  2.000000  2.000000  2.000000  2.000000  2.000000
                       2.000000  2.000000  2.000000  2.000000  2.000000  1.999918
                       1.999923  1.999923  1.986444  1.986444  1.986444  1.763407
                       1.763407  1.763407  0.228899  0.228899  0.228899  0.000000
                       0.000000  0.000000  0.000000  0.000000  0.000000  0.000000
                       0.000000  0.000000
           occopt           3
        optforces1          2
        optforces2          0
-      paral_atom1          1
-      paral_atom2          0
        paral_kgb1          0
        paral_kgb2          1
        pawecutdg      2.00000000E+01 Hartree
        pawprtvol           3
           prtvol           4
          spgroup         221
           strten1     8.7885972711E-04  8.7885972711E-04  8.7885972711E-04
                       0.0000000000E+00  0.0000000000E+00  0.0000000000E+00
           strten2     1.3399283156E-03  1.3399283156E-03  1.3399283156E-03
                       0.0000000000E+00  0.0000000000E+00  0.0000000000E+00
           symrel      1  0  0   0  1  0   0  0  1      -1  0  0   0 -1  0   0  0 -1
                      -1  0  0   0  1  0   0  0 -1       1  0  0   0 -1  0   0  0  1
                      -1  0  0   0 -1  0   0  0  1       1  0  0   0  1  0   0  0 -1
                       1  0  0   0 -1  0   0  0 -1      -1  0  0   0  1  0   0  0  1
                       0  1  0   1  0  0   0  0  1       0 -1  0  -1  0  0   0  0 -1
                       0 -1  0   1  0  0   0  0 -1       0  1  0  -1  0  0   0  0  1
                       0 -1  0  -1  0  0   0  0  1       0  1  0   1  0  0   0  0 -1
                       0  1  0  -1  0  0   0  0 -1       0 -1  0   1  0  0   0  0  1
                       0  0  1   1  0  0   0  1  0       0  0 -1  -1  0  0   0 -1  0
                       0  0 -1   1  0  0   0 -1  0       0  0  1  -1  0  0   0  1  0
                       0  0 -1  -1  0  0   0  1  0       0  0  1   1  0  0   0 -1  0
                       0  0  1  -1  0  0   0 -1  0       0  0 -1   1  0  0   0  1  0
                       1  0  0   0  0  1   0  1  0      -1  0  0   0  0 -1   0 -1  0
                      -1  0  0   0  0  1   0 -1  0       1  0  0   0  0 -1   0  1  0
                      -1  0  0   0  0 -1   0  1  0       1  0  0   0  0  1   0 -1  0
                       1  0  0   0  0 -1   0 -1  0      -1  0  0   0  0  1   0  1  0
                       0  1  0   0  0  1   1  0  0       0 -1  0   0  0 -1  -1  0  0
                       0 -1  0   0  0  1  -1  0  0       0  1  0   0  0 -1   1  0  0
                       0 -1  0   0  0 -1   1  0  0       0  1  0   0  0  1  -1  0  0
                       0  1  0   0  0 -1  -1  0  0       0 -1  0   0  0  1   1  0  0
                       0  0  1   0  1  0   1  0  0       0  0 -1   0 -1  0  -1  0  0
                       0  0 -1   0  1  0  -1  0  0       0  0  1   0 -1  0   1  0  0
                       0  0 -1   0 -1  0   1  0  0       0  0  1   0  1  0  -1  0  0
                       0  0  1   0 -1  0  -1  0  0       0  0 -1   0  1  0   1  0  0
           toldfe1     0.00000000E+00 Hartree
           toldfe2     1.00000000E-10 Hartree
           tolvrs1     1.00000000E-07
           tolvrs2     0.00000000E+00
           tsmear      3.80017850E-03 Hartree
            typat      1  2  3  3  3
            upawu1     0.00000000E+00  0.00000000E+00  0.00000000E+00 Hartree
            upawu2     1.15147886E-01  0.00000000E+00  0.00000000E+00 Hartree
          usedmft1          0
          usedmft2          1
          usepawu1          1
          usepawu2         10
           useylm           1
         wfoptalg1         10
         wfoptalg2        114
              wtk        0.11111    0.14815    0.22222    0.22222    0.14815    0.11111
                         0.01852    0.01852
           xangst      0.0000000000E+00  0.0000000000E+00  0.0000000000E+00
                       1.9210455615E+00  1.9210455615E+00  1.9210455615E+00
                       1.9210455615E+00  0.0000000000E+00  0.0000000000E+00
                       0.0000000000E+00  1.9210455615E+00  0.0000000000E+00
                       0.0000000000E+00  0.0000000000E+00  1.9210455615E+00
            xcart      0.0000000000E+00  0.0000000000E+00  0.0000000000E+00
                       3.6302500000E+00  3.6302500000E+00  3.6302500000E+00
                       3.6302500000E+00  0.0000000000E+00  0.0000000000E+00
                       0.0000000000E+00  3.6302500000E+00  0.0000000000E+00
                       0.0000000000E+00  0.0000000000E+00  3.6302500000E+00
             xred      0.0000000000E+00  0.0000000000E+00  0.0000000000E+00
                       5.0000000000E-01  5.0000000000E-01  5.0000000000E-01
                       5.0000000000E-01  0.0000000000E+00  0.0000000000E+00
                       0.0000000000E+00  5.0000000000E-01  0.0000000000E+00
                       0.0000000000E+00  0.0000000000E+00  5.0000000000E-01
            znucl       23.00000   38.00000    8.00000

================================================================================


- Timing analysis has been suppressed with timopt=0



================================================================================

 Suggested references for the acknowledgment of ABINIT usage.

 The users of ABINIT have little formal obligations with respect to the ABINIT group
 (those specified in the GNU General Public License, http://www.gnu.org/copyleft/gpl.txt).
 However, it is common practice in the scientific literature,
 to acknowledge the efforts of people that have made the research possible.
 In this spirit, please find below suggested citations of work written by ABINIT developers,
 corresponding to implementations inside of ABINIT that you have used in the present run.
 Note also that it will be of great value to readers of publications presenting these results,
 to read papers enabling them to understand the theoretical formalism and details
 of the ABINIT implementation.
 For information on why they are suggested, see also https://docs.abinit.org/theory/acknowledgments.
-
- [1] A self-consistent DFT + DMFT scheme in the projector augmented wave method: 
- applications to cerium, Ce2O3 and Pu2O3 with the Hubbard I solver and comparison to DFT + U,
- B. Amadon,  J. Phys.: Condens. Matter 24 075604 (2012).
- Comment : Describes the self-consistent implementation of DFT+DMFT in PAW
- DOI and bibtex : see https://docs.abinit.org/theory/bibliography/#amadon2012
-
- [2] Plane-wave based electronic structure calculations for correlated materials.
- using dynamical mean-field theory and projected local orbitals,
- B. Amadon, F. Lechermann, A. Georges, F. Jollet, T.O. Wehling, A.I. Lichenstein,
- Phys. Rev. B 77, 205112 (2008).
- Comment : to be cited in case the computation of overlap operator for Wannier90 interface within PAW is used,
- i.e. prtwant=2 and usepaw=1. The paper describes also the DFT+DMFT implementation on Wannier functions
- DOI and bibtex : see https://docs.abinit.org/theory/bibliography/#amadon2008
-
- [3] Gamma and beta cerium: LDA+U calculations of ground-state parameters.
- B. Amadon, F. Jollet and M. Torrent, Phys. Rev. B 77, 155104 (2008).
- Comment : LDA+U calculations, usepawu/=0. Strong suggestion to cite this paper.
- DOI and bibtex : see https://docs.abinit.org/theory/bibliography/#amadon2008a
-
- [4] Implementation of the Projector Augmented-Wave Method in the ABINIT code.
- M. Torrent, F. Jollet, F. Bottin, G. Zerah, and X. Gonze Comput. Mat. Science 42, 337, (2008).
- Comment : PAW calculations. Strong suggestion to cite this paper.
- DOI and bibtex : see https://docs.abinit.org/theory/bibliography/#torrent2008
-
- [5] Recent developments in the ABINIT software package.
- Computer Phys. Comm. 205, 106 (2016).
- X.Gonze, F.Jollet, F.Abreu Araujo, D.Adams, B.Amadon, T.Applencourt,
- C.Audouze, J.-M.Beuken, J.Bieder, A.Bokhanchuk, E.Bousquet, F.Bruneval
- D.Caliste, M.Cote, F.Dahm, F.Da Pieve, M.Delaveau, M.Di Gennaro,
- B.Dorado, C.Espejo, G.Geneste, L.Genovese, A.Gerossier, M.Giantomassi,
- Y.Gillet, D.R.Hamann, L.He, G.Jomard, J.Laflamme Janssen, S.Le Roux,
- A.Levitt, A.Lherbier, F.Liu, I.Lukacevic, A.Martin, C.Martins,
- M.J.T.Oliveira, S.Ponce, Y.Pouillon, T.Rangel, G.-M.Rignanese,
- A.H.Romero, B.Rousseau, O.Rubel, A.A.Shukri, M.Stankovski, M.Torrent,
- M.J.Van Setten, B.Van Troeye, M.J.Verstraete, D.Waroquier, J.Wiktor,
- B.Xu, A.Zhou, J.W.Zwanziger.
- Comment : the fourth generic paper describing the ABINIT project.
- Note that a version of this paper, that is not formatted for Computer Phys. Comm. 
- is available at https://www.abinit.org/about/ABINIT16.pdf .
- The licence allows the authors to put it on the Web.
- DOI and bibtex : see https://docs.abinit.org/theory/bibliography/#gonze2016
-
- [6] ABINIT : First-principles approach of materials and nanosystem properties.
- Computer Phys. Comm. 180, 2582-2615 (2009).
- X. Gonze, B. Amadon, P.-M. Anglade, J.-M. Beuken, F. Bottin, P. Boulanger, F. Bruneval,
- D. Caliste, R. Caracas, M. Cote, T. Deutsch, L. Genovese, Ph. Ghosez, M. Giantomassi
- S. Goedecker, D.R. Hamann, P. Hermet, F. Jollet, G. Jomard, S. Leroux, M. Mancini, S. Mazevet,
- M.J.T. Oliveira, G. Onida, Y. Pouillon, T. Rangel, G.-M. Rignanese, D. Sangalli, R. Shaltaf,
- M. Torrent, M.J. Verstraete, G. Zerah, J.W. Zwanziger
- Comment : the third generic paper describing the ABINIT project.
- Note that a version of this paper, that is not formatted for Computer Phys. Comm. 
- is available at https://www.abinit.org/about/ABINIT_CPC_v10.pdf .
- The licence allows the authors to put it on the Web.
- DOI and bibtex : see https://docs.abinit.org/theory/bibliography/#gonze2009
-
- [7] A brief introduction to the ABINIT software package.
- Z. Kristallogr. 220, 558-562 (2005).
- X. Gonze, G.-M. Rignanese, M. Verstraete, J.-M. Beuken, Y. Pouillon, R. Caracas, F. Jollet,
- M. Torrent, G. Zerah, M. Mikami, Ph. Ghosez, M. Veithen, J.-Y. Raty, V. Olevano, F. Bruneval,
- L. Reining, R. Godby, G. Onida, D.R. Hamann, and D.C. Allan.
- Comment : the second generic paper describing the ABINIT project. Note that this paper
- should be cited especially if you are using the GW part of ABINIT, as several authors
- of this part are not in the list of authors of the first or third paper.
- The .pdf of the latter paper is available at https://www.abinit.org/about/zfk_0505-06_558-562.pdf.
- Note that it should not redistributed (Copyright by Oldenburg Wissenshaftverlag,
- the licence allows the authors to put it on the Web).
- DOI and bibtex : see https://docs.abinit.org/theory/bibliography/#gonze2005
-
- Proc.   0 individual time (sec): cpu=        227.3  wall=        229.2

================================================================================

 Calculation completed.
.Delivered   3 WARNINGs and   2 COMMENTs to log file.
+Overall time at end (sec) : cpu=        911.4  wall=        916.9
