
.Version 10.5.6.4 of ABINIT, released Oct 2025.
.(MPI version, prepared for a x86_64_linux_gnu14.2 computer) 

.Copyright (C) 1998-2025 ABINIT group . 
 ABINIT comes with ABSOLUTELY NO WARRANTY.
 It is free software, and you are welcome to redistribute it
 under certain conditions (GNU General Public License,
 see ~abinit/COPYING or http://www.gnu.org/copyleft/gpl.txt).

 ABINIT is a project of the Universite Catholique de Louvain,
 Corning Inc. and other collaborators, see ~abinit/doc/developers/contributors.txt .
 Please read https://docs.abinit.org/theory/acknowledgments for suggested
 acknowledgments of the ABINIT effort.
 For more information, see https://www.abinit.org .

.Starting date : Sat 29 Nov 2025.
- ( at 00h48 )
  
- input  file    -> /opt/ABINIT/atlas_gnu_14.2_triqs/castiel_dmft_triqs/tests/TestBot_MPI8_OMP1/paral_t107_MPI8/t107.abi
- output file    -> t107_MPI8.abo
- root for input  files -> t107_MPI8i
- root for output files -> t107_MPI8o

 DATASET    1 : space group Fm -3 m (#225); Bravais cF (face-center cubic)
================================================================================
 Values of the parameters that define the memory need for DATASET  1.
     intxc =       0    ionmov =       0      iscf =      17    lmnmax =      32
     lnmax =       8     mgfft =      20  mpssoang =       4    mqgrid =    3001
     natom =       1  nloc_mem =       2    nspden =       1   nspinor =       1
    nsppol =       1      nsym =      48    n1xccc =       1    ntypat =       1
    occopt =       3   xclevel =       1
-    mband =          17        mffmem =           1         mkmem =           2
       mpw =         295          nfft =        8000          nkpt =          10
 PAW method is used; the additional fine FFT grid is defined by:
   mgfftf=        40    nfftf =     64000
================================================================================
P This job should need less than                      22.387 Mbytes of memory.
  Rough estimation (10% accuracy) of disk space for files :
_ WF disk file :      0.767 Mbytes ; DEN or POT disk file :      0.490 Mbytes.
================================================================================

 DATASET    2 : space group Fm -3 m (#225); Bravais cF (face-center cubic)
================================================================================
 Values of the parameters that define the memory need for DATASET  2.
     intxc =       0    ionmov =       0      iscf =      17    lmnmax =      32
     lnmax =       8     mgfft =      20  mpssoang =       4    mqgrid =    3001
     natom =       1  nloc_mem =       2    nspden =       1   nspinor =       1
    nsppol =       1      nsym =      48    n1xccc =       1    ntypat =       1
    occopt =       3   xclevel =       1
-    mband =          17        mffmem =           1         mkmem =           2
       mpw =         295          nfft =        8000          nkpt =          10
 PAW method is used; the additional fine FFT grid is defined by:
   mgfftf=        40    nfftf =     64000
================================================================================
P This job should need less than                      22.387 Mbytes of memory.
  Rough estimation (10% accuracy) of disk space for files :
_ WF disk file :      0.767 Mbytes ; DEN or POT disk file :      0.490 Mbytes.
================================================================================

--------------------------------------------------------------------------------
------------- Echo of variables that govern the present computation ------------
--------------------------------------------------------------------------------
-
- outvars: echo of selected default values
-   iomode0 =  0 , fftalg0 =512 , wfoptalg0 = 10
-
- outvars: echo of global parameters not present in the input file
-  max_nthreads =    0
-
 -outvars: echo values of preprocessed input variables --------
            acell      9.1274000000E+00  9.1274000000E+00  9.1274000000E+00 Bohr
              amu      1.40115000E+02
           diemix      1.00000000E-01
        dmatpuopt           1
        dmftbandf1          0
        dmftbandf2         17
        dmftbandi1          0
        dmftbandi2          5
          dmft_dc1          1
          dmft_dc2          8
        dmft_iter1         10
        dmft_iter2          1
        dmft_mxsf1     6.0000000000E-01
        dmft_mxsf2     1.0000000000E-01
        dmft_solv1          5
        dmft_solv2          7
 dmft_triqs_basis1         -1
 dmft_triqs_basis2          2
 dmft_triqs_dlr_e1    -1.0000000000E+00
 dmft_triqs_dlr_e2     1.0000000000E-06
 dmft_triqs_dlr_w1    -1.0000000000E+00
 dmft_triqs_dlr_w2     1.0000000000E+00
 dmft_triqs_lengt1          0
 dmft_triqs_lengt2         10
 dmft_triqs_n_cyc1          0
 dmft_triqs_n_cyc2     125000
  dmft_triqs_n_iw1          0
  dmft_triqs_n_iw2        500
 dmft_triqs_n_tau1          0
 dmft_triqs_n_tau2        200
 dmft_triqs_n_wai1         -1
 dmft_triqs_n_wai2       5000
 dmft_triqs_n_war1         -1
 dmft_triqs_n_war2          0
 dmft_triqs_off_d1         -1
 dmft_triqs_off_d2          0
  dmft_yukawa_par1          1
  dmft_yukawa_par2          2
             ecut      1.00000000E+01 Hartree
-          fftalg         112
           getden          -1
              ixc           7
           jdtset        1    2
            jpawu1     0.00000000E+00 Hartree
            jpawu2     3.67493254E-02 Hartree
              kpt     -1.25000000E-01 -2.50000000E-01  0.00000000E+00
                      -1.25000000E-01  5.00000000E-01  0.00000000E+00
                      -2.50000000E-01 -3.75000000E-01  0.00000000E+00
                      -1.25000000E-01 -3.75000000E-01  1.25000000E-01
                      -1.25000000E-01  2.50000000E-01  0.00000000E+00
                      -2.50000000E-01  3.75000000E-01  0.00000000E+00
                      -3.75000000E-01  5.00000000E-01  0.00000000E+00
                      -2.50000000E-01  5.00000000E-01  1.25000000E-01
                      -1.25000000E-01  0.00000000E+00  0.00000000E+00
                      -3.75000000E-01  0.00000000E+00  0.00000000E+00
           kptopt           4
         kptrlatt        4   -4    4     -4    4    4     -4   -4    4
          kptrlen      3.65096000E+01
            lpawu           3
P           mkmem           2
            natom           1
            nband          17
           ndtset           2
            ngfft          20      20      20
          ngfftdg          40      40      40
             nkpt          10
            nline1          4
            nline2          5
           nnsclo1          0
           nnsclo2         10
            nstep1         30
            nstep2          2
             nsym          48
           ntypat           1
              occ      2.000000  2.000000  2.000000  2.000000  2.000000  2.000000
                       0.000000  0.000000  0.000000  0.000000  0.000000  0.000000
                       0.000000  0.000000  0.000000  0.000000  0.000000
                       2.000000  2.000000  2.000000  2.000000  2.000000  2.000000
                       0.000000  0.000000  0.000000  0.000000  0.000000  0.000000
                       0.000000  0.000000  0.000000  0.000000  0.000000
                       2.000000  2.000000  2.000000  2.000000  2.000000  2.000000
                       0.000000  0.000000  0.000000  0.000000  0.000000  0.000000
                       0.000000  0.000000  0.000000  0.000000  0.000000
                       2.000000  2.000000  2.000000  2.000000  2.000000  2.000000
                       0.000000  0.000000  0.000000  0.000000  0.000000  0.000000
                       0.000000  0.000000  0.000000  0.000000  0.000000
                       2.000000  2.000000  2.000000  2.000000  2.000000  2.000000
                       0.000000  0.000000  0.000000  0.000000  0.000000  0.000000
                       0.000000  0.000000  0.000000  0.000000  0.000000
                       2.000000  2.000000  2.000000  2.000000  2.000000  2.000000
                       0.000000  0.000000  0.000000  0.000000  0.000000  0.000000
                       0.000000  0.000000  0.000000  0.000000  0.000000
                       2.000000  2.000000  2.000000  2.000000  2.000000  2.000000
                       0.000000  0.000000  0.000000  0.000000  0.000000  0.000000
                       0.000000  0.000000  0.000000  0.000000  0.000000
                       2.000000  2.000000  2.000000  2.000000  2.000000  2.000000
                       0.000000  0.000000  0.000000  0.000000  0.000000  0.000000
                       0.000000  0.000000  0.000000  0.000000  0.000000
                       2.000000  2.000000  2.000000  2.000000  2.000000  2.000000
                       0.000000  0.000000  0.000000  0.000000  0.000000  0.000000
                       0.000000  0.000000  0.000000  0.000000  0.000000
                       2.000000  2.000000  2.000000  2.000000  2.000000  2.000000
                       0.000000  0.000000  0.000000  0.000000  0.000000  0.000000
                       0.000000  0.000000  0.000000  0.000000  0.000000
           occopt           3
        optforces1          2
        optforces2          0
-      paral_atom           0
        pawecutdg      4.00000000E+01 Hartree
        pawprtvol           3
           prtvol           4
            rprim      0.0000000000E+00  5.0000000000E-01  5.0000000000E-01
                       5.0000000000E-01  0.0000000000E+00  5.0000000000E-01
                       5.0000000000E-01  5.0000000000E-01  0.0000000000E+00
           shiftk      5.00000000E-01  5.00000000E-01  5.00000000E-01
          spgroup         225
           symrel      1  0  0   0  1  0   0  0  1      -1  0  0   0 -1  0   0  0 -1
                       0 -1  1   0 -1  0   1 -1  0       0  1 -1   0  1  0  -1  1  0
                      -1  0  0  -1  0  1  -1  1  0       1  0  0   1  0 -1   1 -1  0
                       0  1 -1   1  0 -1   0  0 -1       0 -1  1  -1  0  1   0  0  1
                      -1  0  0  -1  1  0  -1  0  1       1  0  0   1 -1  0   1  0 -1
                       0 -1  1   1 -1  0   0 -1  0       0  1 -1  -1  1  0   0  1  0
                       1  0  0   0  0  1   0  1  0      -1  0  0   0  0 -1   0 -1  0
                       0  1 -1   0  0 -1   1  0 -1       0 -1  1   0  0  1  -1  0  1
                      -1  0  1  -1  1  0  -1  0  0       1  0 -1   1 -1  0   1  0  0
                       0 -1  0   1 -1  0   0 -1  1       0  1  0  -1  1  0   0  1 -1
                       1  0 -1   0  0 -1   0  1 -1      -1  0  1   0  0  1   0 -1  1
                       0  1  0   0  0  1   1  0  0       0 -1  0   0  0 -1  -1  0  0
                       1  0 -1   0  1 -1   0  0 -1      -1  0  1   0 -1  1   0  0  1
                       0 -1  0   0 -1  1   1 -1  0       0  1  0   0  1 -1  -1  1  0
                      -1  0  1  -1  0  0  -1  1  0       1  0 -1   1  0  0   1 -1  0
                       0  1  0   1  0  0   0  0  1       0 -1  0  -1  0  0   0  0 -1
                       0  0 -1   0  1 -1   1  0 -1       0  0  1   0 -1  1  -1  0  1
                       1 -1  0   0 -1  1   0 -1  0      -1  1  0   0  1 -1   0  1  0
                       0  0  1   1  0  0   0  1  0       0  0 -1  -1  0  0   0 -1  0
                      -1  1  0  -1  0  0  -1  0  1       1 -1  0   1  0  0   1  0 -1
                       0  0  1   0  1  0   1  0  0       0  0 -1   0 -1  0  -1  0  0
                       1 -1  0   0 -1  0   0 -1  1      -1  1  0   0  1  0   0  1 -1
                       0  0 -1   1  0 -1   0  1 -1       0  0  1  -1  0  1   0 -1  1
                      -1  1  0  -1  0  1  -1  0  0       1 -1  0   1  0 -1   1  0  0
           tolvrs      1.00000000E-10
           tsmear      2.21677079E-03 Hartree
            typat      1
            upawu1     0.00000000E+00 Hartree
            upawu2     2.20495952E-01 Hartree
          usedmft1          0
          usedmft2          1
          usepawu1          4
          usepawu2         14
           useylm           1
              wtk        0.09375    0.09375    0.09375    0.18750    0.09375    0.09375
                         0.09375    0.18750    0.03125    0.03125
            znucl       58.00000

================================================================================

 chkinp: Checking input parameters for consistency, jdtset=   1.

 chkinp: Checking input parameters for consistency, jdtset=   2.

================================================================================
== DATASET  1 ==================================================================
-   mpi_nproc: 8, omp_nthreads: -1 (-1 if OMP is not activated)
-    --> not optimal distribution: autoparal keyword recommended in input file <--


--- !DatasetInfo
iteration_state: {dtset: 1, }
dimensions: {natom: 1, nkpt: 10, mband: 17, nsppol: 1, nspinor: 1, nspden: 1, mpw: 295, }
cutoff_energies: {ecut:  10.0, pawecutdg:  40.0, }
electrons: {nelect:   1.20000000E+01, charge:   0.00000000E+00, occopt:   3.00000000E+00, tsmear:   2.21677079E-03, }
meta: {optdriver: 0, ionmov: 0, optcell: 0, iscf: 17, paral_kgb: 0, }
...

 Exchange-correlation functional for the present dataset will be:
  LDA: Perdew-Wang 92 LSD fit to Ceperley-Alder data - ixc=7
 Citation for XC functional:
  J.P.Perdew and Y.Wang, PRB 45, 13244 (1992)

 Real(R)+Recip(G) space primitive vectors, cartesian coordinates (Bohr,Bohr^-1):
 R(1)=  0.0000000  4.5637000  4.5637000  G(1)= -0.1095602  0.1095602  0.1095602
 R(2)=  4.5637000  0.0000000  4.5637000  G(2)=  0.1095602 -0.1095602  0.1095602
 R(3)=  4.5637000  4.5637000  0.0000000  G(3)=  0.1095602  0.1095602 -0.1095602
 Unit cell volume ucvol=  1.9009962E+02 bohr^3
 Angles (23,13,12)=  6.00000000E+01  6.00000000E+01  6.00000000E+01 degrees

 Coarse grid specifications (used for wave-functions):

 getcut: wavevector=  0.0000  0.0000  0.0000  ngfft=  20  20  20
         ecut(hartree)=     10.000   => boxcut(ratio)=   2.17687

 Fine grid specifications (used for densities):

 getcut: wavevector=  0.0000  0.0000  0.0000  ngfft=  40  40  40
         ecut(hartree)=     40.000   => boxcut(ratio)=   2.17687

--- Pseudopotential description ------------------------------------------------
- pspini: atom type   1  psp file is /opt/ABINIT/atlas_gnu_14.2_triqs/castiel_dmft_triqs/tests/Pspdir/58ce.paw
- pspatm: opening atomic psp file    /opt/ABINIT/atlas_gnu_14.2_triqs/castiel_dmft_triqs/tests/Pspdir/58ce.paw
- Paw atomic data for element Ce - Generated by AtomPAW + AtomPAW2Abinit v3.2.1
- 58.00000  12.00000  20090603                znucl, zion, pspdat
    7    7    3    0       511   0.00000      pspcod,pspxc,lmax,lloc,mmax,r2well
 Pseudopotential format is: paw4
 basis_size (lnmax)=  8 (lmn_size= 32), orbitals=   0   0   1   1   2   2   3   3
 Spheres core radius: rc_sph= 2.51255760
 4 radial meshes are used:
  - mesh 1: r(i)=AA*[exp(BB*(i-1))-1], size= 511 , AA= 0.30755E-03 BB= 0.17838E-01
  - mesh 2: r(i)=AA*[exp(BB*(i-1))-1], size= 506 , AA= 0.30755E-03 BB= 0.17838E-01
  - mesh 3: r(i)=AA*[exp(BB*(i-1))-1], size= 534 , AA= 0.30755E-03 BB= 0.17838E-01
  - mesh 4: r(i)=AA*[exp(BB*(i-1))-1], size= 583 , AA= 0.30755E-03 BB= 0.17838E-01
 Shapefunction is SIN type: shapef(r)=[sin(pi*r/rshp)/(pi*r/rshp)]**2
 Radius for shape functions = sphere core radius
 Radial grid used for partial waves is grid 1
 Radial grid used for projectors is grid  2
 Radial grid used for (t)core density is grid 3
 Radial grid used for Vloc is grid 4
 Radial grid used for pseudo valence density is grid 4
 Compensation charge density is taken into account in XC energy/potential
 pspatm: atomic psp has been read  and splines computed

   3.12151005E+02                                ecore*ucvol(ha*bohr**3)
--------------------------------------------------------------------------------

P newkpt: treating     17 bands with npw=     295 for ikpt=   1 by node    0
P newkpt: treating     17 bands with npw=     283 for ikpt=   2 by node    0
P newkpt: treating     17 bands with npw=     292 for ikpt=   3 by node    1
P newkpt: treating     17 bands with npw=     288 for ikpt=   4 by node    1
P newkpt: treating     17 bands with npw=     292 for ikpt=   5 by node    2
P newkpt: treating     17 bands with npw=     286 for ikpt=   6 by node    2
P newkpt: treating     17 bands with npw=     286 for ikpt=   7 by node    3
P newkpt: treating     17 bands with npw=     286 for ikpt=   8 by node    3
P newkpt: treating     17 bands with npw=     295 for ikpt=   9 by node    4
P newkpt: treating     17 bands with npw=     287 for ikpt=  10 by node    4
_setup2: Arith. and geom. avg. npw (full set) are     288.375     288.353


 ******************************************
 DFT+U Method used: FLL with no spin polarization in the xc functional
 ******************************************

================================================================================

--- !BeginCycle
iteration_state: {dtset: 1, }
solver: {iscf: 17, nstep: 30, nline: 4, wfoptalg: 10, }
tolerances: {tolvrs: 1.00E-10, }
...

     iter   Etot(hartree)      deltaE(h)  residm     nres2
 ETOT  1  -39.452814122064    -3.945E+01 1.509E-01 9.023E+00
 ETOT  2  -39.498705504278    -4.589E-02 1.504E-03 2.499E+00
 ETOT  3  -39.495055169454     3.650E-03 2.510E-03 2.014E-01
 ETOT  4  -39.494960414629     9.475E-05 4.918E-04 8.145E-02
 ETOT  5  -39.494308790677     6.516E-04 6.187E-04 1.090E-01
 ETOT  6  -39.494098651050     2.101E-04 1.190E-03 1.110E-02
 ETOT  7  -39.494190888050    -9.224E-05 1.436E-04 2.460E-02
 ETOT  8  -39.494140550090     5.034E-05 2.939E-04 1.285E-04
 ETOT  9  -39.494144845983    -4.296E-06 8.800E-05 3.075E-05
 ETOT 10  -39.494146028237    -1.182E-06 1.294E-04 7.973E-05
 ETOT 11  -39.494144056077     1.972E-06 3.994E-05 2.365E-04
 ETOT 12  -39.494144149493    -9.342E-08 5.003E-05 2.615E-04
 ETOT 13  -39.494143866621     2.829E-07 2.263E-05 5.621E-04
 ETOT 14  -39.494143301694     5.649E-07 1.717E-05 4.910E-04
 ETOT 15  -39.494143241662     6.003E-08 8.165E-06 4.988E-04
 ETOT 16  -39.494143335589    -9.393E-08 6.164E-06 4.934E-04
 ETOT 17  -39.494143068700     2.669E-07 2.841E-06 2.094E-05
 ETOT 18  -39.494142666901     4.018E-07 2.035E-06 4.400E-06
 ETOT 19  -39.494142693720    -2.682E-08 1.232E-06 1.590E-05
 ETOT 20  -39.494142815335    -1.216E-07 7.716E-07 4.849E-06
 ETOT 21  -39.494142787635     2.770E-08 4.590E-07 1.185E-07
 ETOT 22  -39.494142785277     2.358E-09 2.871E-07 7.918E-07
 ETOT 23  -39.494142786022    -7.447E-10 1.652E-07 6.293E-08
 ETOT 24  -39.494142787456    -1.434E-09 1.070E-07 2.327E-07
 ETOT 25  -39.494142785681     1.776E-09 6.175E-08 1.958E-08
 ETOT 26  -39.494142785848    -1.673E-10 4.148E-08 8.144E-08
 ETOT 27  -39.494142786178    -3.305E-10 2.169E-08 7.145E-09
 ETOT 28  -39.494142786227    -4.892E-11 1.502E-08 4.530E-09
 ETOT 29  -39.494142786230    -2.316E-12 8.131E-09 3.604E-09
 ETOT 30  -39.494142786258    -2.797E-11 5.683E-09 4.322E-09

 Cartesian components of stress tensor (hartree/bohr^3)
  sigma(1 1)=  2.67253257E-04  sigma(3 2)=  0.00000000E+00
  sigma(2 2)=  2.67253257E-04  sigma(3 1)=  0.00000000E+00
  sigma(3 3)=  2.67253257E-04  sigma(2 1)=  0.00000000E+00


 scprqt:  WARNING -
  nstep=   30 was not enough SCF cycles to converge;
  density residual=  4.322E-09 exceeds tolvrs=  1.000E-10


--- !ResultsGS
iteration_state: {dtset: 1, }
comment   : Summary of ground state results
lattice_vectors:
- [  0.0000000,   4.5637000,   4.5637000, ]
- [  4.5637000,   0.0000000,   4.5637000, ]
- [  4.5637000,   4.5637000,   0.0000000, ]
lattice_lengths: [   6.45405,    6.45405,    6.45405, ]
lattice_angles: [ 60.000,  60.000,  60.000, ] # degrees, (23, 13, 12)
lattice_volume:   1.9009962E+02
convergence: {deltae: -2.797E-11, res2:  4.322E-09, residm:  5.683E-09, diffor: null, }
etotal    :  -3.94941428E+01
entropy   :   0.00000000E+00
fermie    :   3.95021956E-01
cartesian_stress_tensor: # hartree/bohr^3
- [  2.67253257E-04,   0.00000000E+00,   0.00000000E+00, ]
- [  0.00000000E+00,   2.67253257E-04,   0.00000000E+00, ]
- [  0.00000000E+00,   0.00000000E+00,   2.67253257E-04, ]
pressure_GPa:  -7.8629E+00
xred      :
- [  0.0000E+00,   0.0000E+00,   0.0000E+00, Ce]
cartesian_forces: # hartree/bohr
- [ -0.00000000E+00,  -0.00000000E+00,  -0.00000000E+00, ]
force_length_stats: {min:   0.00000000E+00, max:   0.00000000E+00, mean:   0.00000000E+00, }
...

 Integrated electronic density in atomic spheres:
 ------------------------------------------------
 Atom  Sphere_radius  Integrated_density
    1        2.51256          9.15145540

 PAW TEST:
 ==== Compensation charge inside spheres ============
 The following values must be close to each other ...
 Compensation charge over spherical meshes =     -0.473308745310603
 Compensation charge over fine fft grid    =     -0.473316052805434

 ==== Results concerning PAW augmentation regions ====

 Total pseudopotential strength Dij (hartree):
   2.47064  -0.82039   0.00000   0.00000   0.00000   0.00000   0.00000   0.00000   0.00000   0.00000   0.00000   0.00000 ...
  -0.82039   0.27770   0.00000   0.00000   0.00000   0.00000   0.00000   0.00000   0.00000   0.00000   0.00000   0.00000 ...
   0.00000   0.00000   0.61947   0.00000   0.00000  -0.60615   0.00000   0.00000   0.00000   0.00000   0.00000   0.00000 ...
   0.00000   0.00000   0.00000   0.61947   0.00000   0.00000  -0.60615   0.00000   0.00000   0.00000   0.00000   0.00000 ...
   0.00000   0.00000   0.00000   0.00000   0.61947   0.00000   0.00000  -0.60615   0.00000   0.00000   0.00000   0.00000 ...
   0.00000   0.00000  -0.60615   0.00000   0.00000   0.80041   0.00000   0.00000   0.00000   0.00000   0.00000   0.00000 ...
   0.00000   0.00000   0.00000  -0.60615   0.00000   0.00000   0.80041   0.00000   0.00000   0.00000   0.00000   0.00000 ...
   0.00000   0.00000   0.00000   0.00000  -0.60615   0.00000   0.00000   0.80041   0.00000   0.00000   0.00000   0.00000 ...
   0.00000   0.00000   0.00000   0.00000   0.00000   0.00000   0.00000   0.00000   0.13353   0.00000   0.00000   0.00000 ...
   0.00000   0.00000   0.00000   0.00000   0.00000   0.00000   0.00000   0.00000   0.00000   0.13353   0.00000   0.00000 ...
   0.00000   0.00000   0.00000   0.00000   0.00000   0.00000   0.00000   0.00000   0.00000   0.00000   0.13348   0.00000 ...
   0.00000   0.00000   0.00000   0.00000   0.00000   0.00000   0.00000   0.00000   0.00000   0.00000   0.00000   0.13353 ...
   ...  only 12  components have been written...


 Augmentation waves occupancies Rhoij:
   1.97476  -0.06620   0.00000   0.00000   0.00000   0.00000   0.00000   0.00000   0.00000   0.00000   0.00000   0.00000 ...
  -0.06620   1.12644   0.00000   0.00000   0.00000   0.00000   0.00000   0.00000   0.00000   0.00000   0.00000   0.00000 ...
   0.00000   0.00000   1.96161   0.00000   0.00000  -0.00519   0.00000   0.00000   0.00000   0.00000   0.00000   0.00000 ...
   0.00000   0.00000   0.00000   1.96161   0.00000   0.00000  -0.00519   0.00000   0.00000   0.00000   0.00000   0.00000 ...
   0.00000   0.00000   0.00000   0.00000   1.96161   0.00000   0.00000  -0.00519   0.00000   0.00000   0.00000   0.00000 ...
   0.00000   0.00000  -0.00519   0.00000   0.00000   0.00550   0.00000   0.00000   0.00000   0.00000   0.00000   0.00000 ...
   0.00000   0.00000   0.00000  -0.00519   0.00000   0.00000   0.00550   0.00000   0.00000   0.00000   0.00000   0.00000 ...
   0.00000   0.00000   0.00000   0.00000  -0.00519   0.00000   0.00000   0.00550   0.00000   0.00000   0.00000   0.00000 ...
   0.00000   0.00000   0.00000   0.00000   0.00000   0.00000   0.00000   0.00000   0.46749   0.00000   0.00000   0.00000 ...
   0.00000   0.00000   0.00000   0.00000   0.00000   0.00000   0.00000   0.00000   0.00000   0.46749   0.00000   0.00000 ...
   0.00000   0.00000   0.00000   0.00000   0.00000   0.00000   0.00000   0.00000   0.00000   0.00000   0.39378   0.00000 ...
   0.00000   0.00000   0.00000   0.00000   0.00000   0.00000   0.00000   0.00000   0.00000   0.00000   0.00000   0.46749 ...
   ...  only 12  components have been written...

 "PAW+U" part of augmentation waves occupancies Rhoij:
 L=3 ONLY
   0.14581   0.00000   0.07276   0.00000   0.00000   0.00000   0.00000   0.01435   0.00000   0.00727   0.00000   0.00000   0.00000   0.00000
   0.00000   0.29157   0.00000   0.00000   0.00000   0.00000   0.00000   0.00000   0.03098   0.00000   0.00000   0.00000   0.00000   0.00000
   0.07276   0.00000   0.10824   0.00000   0.00000   0.00000   0.00000   0.00727   0.00000   0.01060   0.00000   0.00000   0.00000   0.00000
   0.00000   0.00000   0.00000   0.20217   0.00000   0.00000   0.00000   0.00000   0.00000   0.00000   0.01998   0.00000   0.00000   0.00000
   0.00000   0.00000   0.00000   0.00000   0.10824   0.00000  -0.07276   0.00000   0.00000   0.00000   0.00000   0.01060   0.00000  -0.00727
   0.00000   0.00000   0.00000   0.00000   0.00000   0.05188   0.00000   0.00000   0.00000   0.00000   0.00000   0.00000   0.00497   0.00000
   0.00000   0.00000   0.00000   0.00000  -0.07276   0.00000   0.14581   0.00000   0.00000   0.00000   0.00000  -0.00727   0.00000   0.01435
   0.01435   0.00000   0.00727   0.00000   0.00000   0.00000   0.00000   0.00178   0.00000   0.00072   0.00000   0.00000   0.00000   0.00000
   0.00000   0.03098   0.00000   0.00000   0.00000   0.00000   0.00000   0.00000   0.00373   0.00000   0.00000   0.00000   0.00000   0.00000
   0.00727   0.00000   0.01060   0.00000   0.00000   0.00000   0.00000   0.00072   0.00000   0.00141   0.00000   0.00000   0.00000   0.00000
   0.00000   0.00000   0.00000   0.01998   0.00000   0.00000   0.00000   0.00000   0.00000   0.00000   0.00233   0.00000   0.00000   0.00000
   0.00000   0.00000   0.00000   0.00000   0.01060   0.00000  -0.00727   0.00000   0.00000   0.00000   0.00000   0.00141   0.00000  -0.00072
   0.00000   0.00000   0.00000   0.00000   0.00000   0.00497   0.00000   0.00000   0.00000   0.00000   0.00000   0.00000   0.00085   0.00000
   0.00000   0.00000   0.00000   0.00000  -0.00727   0.00000   0.01435   0.00000   0.00000   0.00000   0.00000  -0.00072   0.00000   0.00178

 ---------- DFT+U DATA --------------------------------------------------- 

 ====== For Atom     1, occupations for correlated orbitals. lpawu =   3


 == Occupation matrix for correlated orbitals:

 Up component only...
     0.06415    0.00000    0.03198    0.00000    0.00000    0.00000    0.00000
     0.00000    0.12771    0.00000    0.00000    0.00000    0.00000    0.00000
     0.03198    0.00000    0.04764    0.00000    0.00000    0.00000    0.00000
     0.00000    0.00000    0.00000    0.08892    0.00000    0.00000    0.00000
     0.00000    0.00000    0.00000    0.00000    0.04764    0.00000   -0.03198
     0.00000    0.00000    0.00000    0.00000    0.00000    0.02287    0.00000
     0.00000    0.00000    0.00000    0.00000   -0.03198    0.00000    0.06415



================================================================================

 ----iterations are completed or convergence reached----

 Mean square residual over all n,k,spin=   33.469E-12; max=  56.825E-10
  -0.1250 -0.2500  0.0000    1  2.21603E-13 kpt; spin; max resid(k); each band:
  2.22E-13 4.19E-14 1.60E-14 1.26E-14 1.67E-13 4.88E-14 9.61E-15 3.10E-15
  4.73E-15 7.91E-15 1.29E-14 1.45E-15 1.88E-14 2.22E-14 2.49E-14 4.43E-14
  2.79E-14
  -0.1250  0.5000  0.0000    1  1.29017E-13 kpt; spin; max resid(k); each band:
  1.29E-13 1.25E-13 3.49E-14 4.82E-14 8.45E-14 1.12E-14 4.71E-15 2.03E-15
  9.01E-15 8.77E-15 2.92E-15 9.63E-16 1.74E-14 2.65E-14 7.91E-14 1.75E-15
  1.26E-13
  -0.2500 -0.3750  0.0000    1  1.73708E-13 kpt; spin; max resid(k); each band:
  1.74E-13 6.85E-14 2.49E-14 2.87E-14 3.75E-14 1.83E-14 6.74E-14 4.29E-15
  7.64E-15 1.98E-14 2.18E-15 1.47E-15 6.83E-15 1.17E-13 3.47E-14 1.23E-13
  2.47E-14
  -0.1250 -0.3750  0.1250    1  1.63183E-13 kpt; spin; max resid(k); each band:
  1.63E-13 9.04E-14 4.25E-14 2.47E-14 4.57E-14 3.13E-14 3.54E-14 2.90E-15
  7.56E-15 1.67E-14 4.32E-15 1.14E-14 1.46E-14 6.78E-14 4.46E-14 4.28E-14
  4.55E-14
  -0.1250  0.2500  0.0000    1  1.98286E-13 kpt; spin; max resid(k); each band:
  1.98E-13 6.26E-14 2.76E-14 8.55E-15 1.01E-13 1.45E-14 4.89E-14 7.48E-15
  9.89E-15 1.21E-14 1.92E-14 1.07E-15 5.13E-14 4.24E-14 1.84E-14 2.43E-14
  6.19E-14
  -0.2500  0.3750  0.0000    1  1.93785E-13 kpt; spin; max resid(k); each band:
  1.94E-13 9.11E-14 4.85E-14 2.19E-14 2.65E-14 5.22E-14 1.26E-14 1.06E-14
  7.77E-15 2.85E-14 7.01E-16 1.07E-14 2.31E-14 7.68E-14 2.63E-14 2.30E-14
  1.90E-13
  -0.3750  0.5000  0.0000    1  2.46208E-13 kpt; spin; max resid(k); each band:
  9.68E-14 1.15E-13 6.25E-14 6.19E-14 2.42E-14 1.17E-14 1.81E-15 1.14E-14
  1.16E-14 1.02E-14 4.90E-16 3.14E-15 1.05E-15 1.14E-13 5.58E-14 3.97E-15
  2.46E-13
  -0.2500  0.5000  0.1250    1  5.68255E-09 kpt; spin; max resid(k); each band:
  1.37E-13 1.11E-13 4.82E-14 3.83E-14 2.67E-14 4.09E-14 3.95E-14 4.99E-15
  8.73E-15 8.50E-15 1.71E-15 5.70E-15 1.35E-14 6.17E-14 4.17E-14 4.33E-14
  5.68E-09
  -0.1250  0.0000  0.0000    1  2.37574E-13 kpt; spin; max resid(k); each band:
  2.38E-13 1.97E-14 1.00E-14 1.00E-14 1.95E-13 6.19E-15 1.74E-15 2.18E-15
  2.18E-15 9.07E-15 9.07E-15 6.25E-17 1.97E-14 2.41E-14 2.41E-14 2.46E-14
  2.46E-14
  -0.3750  0.0000  0.0000    1  1.80827E-13 kpt; spin; max resid(k); each band:
  1.81E-13 8.79E-14 2.11E-14 2.12E-14 8.04E-14 1.91E-15 3.67E-15 3.67E-15
  2.35E-14 4.21E-15 4.21E-15 5.52E-17 2.35E-14 2.35E-14 9.93E-14 3.52E-14
  3.52E-14
 reduced coordinates (array xred) for    1 atoms
       0.000000000000      0.000000000000      0.000000000000
 rms dE/dt=  0.0000E+00; max dE/dt=  0.0000E+00; dE/dt below (all hartree)
    1       0.000000000000      0.000000000000      0.000000000000

 cartesian coordinates (angstrom) at end:
    1      0.00000000000000     0.00000000000000     0.00000000000000

 cartesian forces (hartree/bohr) at end:
    1     -0.00000000000000    -0.00000000000000    -0.00000000000000
 frms,max,avg= 0.0000000E+00 0.0000000E+00   0.000E+00  0.000E+00  0.000E+00 h/b

 cartesian forces (eV/Angstrom) at end:
    1     -0.00000000000000    -0.00000000000000    -0.00000000000000
 frms,max,avg= 0.0000000E+00 0.0000000E+00   0.000E+00  0.000E+00  0.000E+00 e/A
 length scales=  9.127400000000  9.127400000000  9.127400000000 bohr
              =  4.830012053684  4.830012053684  4.830012053684 angstroms
 prteigrs : about to open file t107_MPI8o_DS1_EIG
 Fermi (or HOMO) energy (hartree) =   0.39502   Average Vxc (hartree)=  -0.40292
 Eigenvalues (hartree) for nkpt=  10  k points:
 kpt#   1, nband= 17, wtk=  0.09375, kpt= -0.1250 -0.2500  0.0000 (reduced coord)
  -0.87321   -0.23554   -0.20597   -0.20458    0.34347    0.37694    0.39834    0.41259
   0.41277    0.41715    0.41829    0.42663    0.44473    0.48822    0.50426    0.54868
   0.60533
      occupation numbers for kpt#   1
   2.00000    2.00000    2.00000    2.00000    2.00000    1.99943    0.36629    0.00072
   0.00067    0.00009    0.00006    0.00000    0.00000    0.00000    0.00000    0.00000
   0.00000
 kpt#   2, nband= 17, wtk=  0.09375, kpt= -0.1250  0.5000  0.0000 (reduced coord)
  -0.86413   -0.28089   -0.21639   -0.21033    0.33987    0.38376    0.40766    0.41004
   0.41935    0.42167    0.42594    0.42607    0.44352    0.47701    0.51934    0.67371
   0.69290
      occupation numbers for kpt#   2
   2.00000    2.00000    2.00000    2.00000    2.00000    1.98763    0.00667    0.00229
   0.00003    0.00001    0.00000    0.00000    0.00000    0.00000    0.00000    0.00000
   0.00000
 kpt#   3, nband= 17, wtk=  0.09375, kpt= -0.2500 -0.3750  0.0000 (reduced coord)
  -0.86588   -0.26000   -0.22074   -0.21741    0.34075    0.35720    0.40626    0.41401
   0.41549    0.41933    0.42005    0.42157    0.43216    0.50077    0.55907    0.62668
   0.65903
      occupation numbers for kpt#   3
   2.00000    2.00000    2.00000    2.00000    2.00000    2.00000    0.01248    0.00038
   0.00020    0.00003    0.00002    0.00001    0.00000    0.00000    0.00000    0.00000
   0.00000
 kpt#   4, nband= 17, wtk=  0.18750, kpt= -0.1250 -0.3750  0.1250 (reduced coord)
  -0.86423   -0.26765   -0.22988   -0.21248    0.36441    0.37839    0.39869    0.41145
   0.41465    0.42155    0.42316    0.42785    0.44505    0.46226    0.52744    0.61680
   0.73028
      occupation numbers for kpt#   4
   2.00000    2.00000    2.00000    2.00000    2.00000    1.99890    0.32153    0.00121
   0.00029    0.00001    0.00001    0.00000    0.00000    0.00000    0.00000    0.00000
   0.00000
 kpt#   5, nband= 17, wtk=  0.09375, kpt= -0.1250  0.2500  0.0000 (reduced coord)
  -0.86952   -0.25539   -0.21514   -0.20209    0.35180    0.39190    0.39814    0.41105
   0.41434    0.41675    0.41871    0.42897    0.45885    0.47175    0.49387    0.55897
   0.65781
      occupation numbers for kpt#   5
   2.00000    2.00000    2.00000    2.00000    2.00000    1.60680    0.39398    0.00145
   0.00033    0.00011    0.00005    0.00000    0.00000    0.00000    0.00000    0.00000
   0.00000
 kpt#   6, nband= 17, wtk=  0.09375, kpt= -0.2500  0.3750  0.0000 (reduced coord)
  -0.86197   -0.26946   -0.24226   -0.21383    0.35094    0.39432    0.40636    0.40980
   0.41558    0.42010    0.42664    0.42824    0.43737    0.48241    0.52386    0.63023
   0.73668
      occupation numbers for kpt#   6
   2.00000    2.00000    2.00000    2.00000    2.00000    1.15654    0.01195    0.00255
   0.00019    0.00002    0.00000    0.00000    0.00000    0.00000    0.00000    0.00000
   0.00000
 kpt#   7, nband= 17, wtk=  0.09375, kpt= -0.3750  0.5000  0.0000 (reduced coord)
  -0.86051   -0.27414   -0.23310   -0.22508    0.31314    0.34002    0.41135    0.41248
   0.41443    0.41762    0.42346    0.42366    0.42607    0.56837    0.62176    0.68999
   0.73239
      occupation numbers for kpt#   7
   2.00000    2.00000    2.00000    2.00000    2.00000    2.00000    0.00126    0.00076
   0.00032    0.00007    0.00001    0.00000    0.00000    0.00000    0.00000    0.00000
   0.00000
 kpt#   8, nband= 17, wtk=  0.18750, kpt= -0.2500  0.5000  0.1250 (reduced coord)
  -0.86044   -0.26605   -0.24580   -0.22435    0.34471    0.38388    0.40219    0.40883
   0.41635    0.41704    0.42562    0.42838    0.43205    0.48595    0.56228    0.66864
   0.79464
      occupation numbers for kpt#   8
   2.00000    2.00000    2.00000    2.00000    2.00000    1.98696    0.07580    0.00393
   0.00013    0.00010    0.00000    0.00000    0.00000    0.00000    0.00000    0.00000
   0.00000
 kpt#   9, nband= 17, wtk=  0.03125, kpt= -0.1250  0.0000  0.0000 (reduced coord)
  -0.87824   -0.21112   -0.19740   -0.19740    0.30426    0.38531    0.40624    0.40903
   0.40903    0.42303    0.42303    0.43154    0.45650    0.47335    0.47335    0.56686
   0.56686
      occupation numbers for kpt#   9
   2.00000    2.00000    2.00000    2.00000    2.00000    1.97533    0.01261    0.00359
   0.00359    0.00001    0.00001    0.00000    0.00000    0.00000    0.00000    0.00000
   0.00000
 kpt#  10, nband= 17, wtk=  0.03125, kpt= -0.3750  0.0000  0.0000 (reduced coord)
  -0.86726   -0.27442   -0.20548   -0.20548    0.32624    0.39499    0.41021    0.41021
   0.41649    0.42032    0.42032    0.43204    0.45975    0.45975    0.51949    0.63572
   0.63572
      occupation numbers for kpt#  10
   2.00000    2.00000    2.00000    2.00000    2.00000    1.00705    0.00212    0.00212
   0.00012    0.00002    0.00002    0.00000    0.00000    0.00000    0.00000    0.00000
   0.00000
 Total charge density [el/Bohr^3]
)     Maximum=    3.7297E-01  at reduced coord.    0.9500    0.9500    0.9750
)Next maximum=    3.7297E-01  at reduced coord.    0.1250    0.9500    0.9750
)     Minimum=    1.5867E-02  at reduced coord.    0.5000    0.5000    0.5000
)Next minimum=    1.5869E-02  at reduced coord.    0.5000    0.5000    0.4750
   Integrated=    1.2000E+01

--- !EnergyTerms
iteration_state     : {dtset: 1, }
comment             : Components of total free energy in Hartree
kinetic             :  9.78020481909064E+00
hartree             :  4.75352355857601E+00
xc                  : -5.15441658960964E+00
Ewald energy        : -3.61669335556889E+01
psp_core            :  1.64203904117002E+00
local_psp           : -2.22218232466806E+01
PAW spherical_terms :  7.87496304235547E+00
internal            : -3.94924429307870E+01
'-kT*entropy'       : -1.64285509468732E-03
total_energy        : -3.94940857858817E+01
total_energy_eV     : -1.07468872851940E+03
...


--- !EnergyTermsDC
iteration_state     : {dtset: 1, }
comment             : '"Double-counting" decomposition of free energy'
band_energy         : -1.69310062557448E+00
Ewald energy        : -3.61669335556889E+01
psp_core            :  1.64203904117002E+00
xc_dc               : -3.18848085588340E+00
PAW spherical_terms : -8.60239351861516E-02
internal            : -3.94924999311629E+01
'-kT*entropy'       : -1.64285509468732E-03
total_energy_dc     : -3.94941427862576E+01
total_energy_dc_eV  : -1.07469027957851E+03
...


 Cartesian components of stress tensor (hartree/bohr^3)
  sigma(1 1)=  2.67253257E-04  sigma(3 2)=  0.00000000E+00
  sigma(2 2)=  2.67253257E-04  sigma(3 1)=  0.00000000E+00
  sigma(3 3)=  2.67253257E-04  sigma(2 1)=  0.00000000E+00

-Cartesian components of stress tensor (GPa)         [Pressure= -7.8629E+00 GPa]
- sigma(1 1)=  7.86286095E+00  sigma(3 2)=  0.00000000E+00
- sigma(2 2)=  7.86286095E+00  sigma(3 1)=  0.00000000E+00
- sigma(3 3)=  7.86286095E+00  sigma(2 1)=  0.00000000E+00

================================================================================
== DATASET  2 ==================================================================
-   mpi_nproc: 8, omp_nthreads: -1 (-1 if OMP is not activated)
-    --> not optimal distribution: autoparal keyword recommended in input file <--


--- !DatasetInfo
iteration_state: {dtset: 2, }
dimensions: {natom: 1, nkpt: 10, mband: 17, nsppol: 1, nspinor: 1, nspden: 1, mpw: 295, }
cutoff_energies: {ecut:  10.0, pawecutdg:  40.0, }
electrons: {nelect:   1.20000000E+01, charge:   0.00000000E+00, occopt:   3.00000000E+00, tsmear:   2.21677079E-03, }
meta: {optdriver: 0, ionmov: 0, optcell: 0, iscf: 17, paral_kgb: 0, }
...

 mkfilename : getden/=0, take file _DEN from output of DATASET   1.

 Exchange-correlation functional for the present dataset will be:
  LDA: Perdew-Wang 92 LSD fit to Ceperley-Alder data - ixc=7
 Citation for XC functional:
  J.P.Perdew and Y.Wang, PRB 45, 13244 (1992)

 Real(R)+Recip(G) space primitive vectors, cartesian coordinates (Bohr,Bohr^-1):
 R(1)=  0.0000000  4.5637000  4.5637000  G(1)= -0.1095602  0.1095602  0.1095602
 R(2)=  4.5637000  0.0000000  4.5637000  G(2)=  0.1095602 -0.1095602  0.1095602
 R(3)=  4.5637000  4.5637000  0.0000000  G(3)=  0.1095602  0.1095602 -0.1095602
 Unit cell volume ucvol=  1.9009962E+02 bohr^3
 Angles (23,13,12)=  6.00000000E+01  6.00000000E+01  6.00000000E+01 degrees

 Coarse grid specifications (used for wave-functions):

 getcut: wavevector=  0.0000  0.0000  0.0000  ngfft=  20  20  20
         ecut(hartree)=     10.000   => boxcut(ratio)=   2.17687

 Fine grid specifications (used for densities):

 getcut: wavevector=  0.0000  0.0000  0.0000  ngfft=  40  40  40
         ecut(hartree)=     40.000   => boxcut(ratio)=   2.17687
--------------------------------------------------------------------------------

P newkpt: treating     17 bands with npw=     295 for ikpt=   1 by node    0
P newkpt: treating     17 bands with npw=     283 for ikpt=   2 by node    0
P newkpt: treating     17 bands with npw=     292 for ikpt=   3 by node    1
P newkpt: treating     17 bands with npw=     288 for ikpt=   4 by node    1
P newkpt: treating     17 bands with npw=     292 for ikpt=   5 by node    2
P newkpt: treating     17 bands with npw=     286 for ikpt=   6 by node    2
P newkpt: treating     17 bands with npw=     286 for ikpt=   7 by node    3
P newkpt: treating     17 bands with npw=     286 for ikpt=   8 by node    3
P newkpt: treating     17 bands with npw=     295 for ikpt=   9 by node    4
P newkpt: treating     17 bands with npw=     287 for ikpt=  10 by node    4
_setup2: Arith. and geom. avg. npw (full set) are     288.375     288.353

-       ( number of procs used in dmft ) =    8


 ******************************************
 DFT+DMFT Method is used
 ******************************************

 DMFT uses the Continuous Time Quantum Monte Carlo solver of TRIQS (with rotationally invariant interactions)

 Non Magnetic DFT, with Non-Magnetic exact double counting

 Entropy is not computed, only the internal energy is printed

 The off-diagonal elements of the Green's function are neglected

================================================================================

--- !BeginCycle
iteration_state: {dtset: 2, }
solver: {iscf: 17, nstep: 2, nline: 5, wfoptalg: 10, }
tolerances: {tolvrs: 1.00E-10, }
...

     iter   Etot(hartree)      deltaE(h)  residm     nres2
 (Edmft  1  -0.01306736940)

  == The DFT+DMFT occupation matrix for correlated electrons is ==

   -------> For Correlated Atom 1

          -- polarization spin component 1
        0.06770   0.00000  -0.01178  -0.00000  -0.00000   0.00000   0.00000
       -0.00000   0.09363   0.00000   0.00000   0.00000   0.00000  -0.00000
       -0.01178  -0.00000   0.07378   0.00000   0.00000   0.00000   0.00000
        0.00000   0.00000   0.00000   0.05858   0.00000   0.00000   0.00000
        0.00000  -0.00000   0.00000  -0.00000   0.07378  -0.00000   0.01178
       -0.00000   0.00000   0.00000   0.00000   0.00000   0.08291  -0.00000
       -0.00000   0.00000  -0.00000   0.00000   0.01178  -0.00000   0.06770

 ETOT  1  -39.495989225651    -3.950E+01 6.881E-05 5.171E-02
 (Edmft  2  -0.01319408085)

  == The DFT+DMFT occupation matrix for correlated electrons is ==

   -------> For Correlated Atom 1

          -- polarization spin component 1
        0.06627   0.00000  -0.02635   0.00000   0.00000   0.00000   0.00000
        0.00000   0.06825  -0.00000   0.00000  -0.00000   0.00000  -0.00000
       -0.02635   0.00000   0.07988   0.00000  -0.00000   0.00000   0.00000
        0.00000   0.00000   0.00000   0.04585   0.00000   0.00000   0.00000
        0.00000   0.00000   0.00000   0.00000   0.07988  -0.00000   0.02635
       -0.00000  -0.00000   0.00000   0.00000  -0.00000   0.10029   0.00000
        0.00000   0.00000   0.00000   0.00000   0.02635   0.00000   0.06627

 ETOT  2  -39.491005625988     4.984E-03 3.909E-08 5.751E-02

 Cartesian components of stress tensor (hartree/bohr^3)
  sigma(1 1)=  5.67196450E-04  sigma(3 2)=  0.00000000E+00
  sigma(2 2)=  5.67196450E-04  sigma(3 1)=  0.00000000E+00
  sigma(3 3)=  5.67196450E-04  sigma(2 1)=  0.00000000E+00


 scprqt:  WARNING -
  nstep=    2 was not enough SCF cycles to converge;
  density residual=  5.751E-02 exceeds tolvrs=  1.000E-10


--- !ResultsGS
iteration_state: {dtset: 2, }
comment   : Summary of ground state results
lattice_vectors:
- [  0.0000000,   4.5637000,   4.5637000, ]
- [  4.5637000,   0.0000000,   4.5637000, ]
- [  4.5637000,   4.5637000,   0.0000000, ]
lattice_lengths: [   6.45405,    6.45405,    6.45405, ]
lattice_angles: [ 60.000,  60.000,  60.000, ] # degrees, (23, 13, 12)
lattice_volume:   1.9009962E+02
convergence: {deltae:  4.984E-03, res2:  5.751E-02, residm:  3.909E-08, diffor:  0.000E+00, }
etotal    :  -3.94910056E+01
entropy   :   0.00000000E+00
fermie    :   3.96161414E-01
cartesian_stress_tensor: # hartree/bohr^3
- [  5.67196450E-04,   0.00000000E+00,   0.00000000E+00, ]
- [  0.00000000E+00,   5.67196450E-04,   0.00000000E+00, ]
- [  0.00000000E+00,   0.00000000E+00,   5.67196450E-04, ]
pressure_GPa:  -1.6687E+01
xred      :
- [  0.0000E+00,   0.0000E+00,   0.0000E+00, Ce]
cartesian_forces: null
force_length_stats: {min: null, max: null, mean: null, }
...

 Integrated electronic density in atomic spheres:
 ------------------------------------------------
 Atom  Sphere_radius  Integrated_density
    1        2.51256          9.17576945

 PAW TEST:
 ==== Compensation charge inside spheres ============
 The following values must be close to each other ...
 Compensation charge over spherical meshes =     -0.469421577951535
 Compensation charge over fine fft grid    =     -0.447316592830355

 ==== Results concerning PAW augmentation regions ====

 Total pseudopotential strength Dij (hartree):
   2.47051  -0.82031   0.00000   0.00000   0.00000   0.00000   0.00000   0.00000   0.00000   0.00000   0.00000   0.00000 ...
  -0.82031   0.27767   0.00000   0.00000   0.00000   0.00000   0.00000   0.00000   0.00000   0.00000   0.00000   0.00000 ...
   0.00000   0.00000   0.61969   0.00000   0.00000  -0.60637   0.00000   0.00000   0.00000   0.00000   0.00000   0.00000 ...
   0.00000   0.00000   0.00000   0.61969   0.00000   0.00000  -0.60637   0.00000   0.00000   0.00000   0.00000   0.00000 ...
   0.00000   0.00000   0.00000   0.00000   0.61969   0.00000   0.00000  -0.60637   0.00000   0.00000   0.00000   0.00000 ...
   0.00000   0.00000  -0.60637   0.00000   0.00000   0.80066   0.00000   0.00000   0.00000   0.00000   0.00000   0.00000 ...
   0.00000   0.00000   0.00000  -0.60637   0.00000   0.00000   0.80066   0.00000   0.00000   0.00000   0.00000   0.00000 ...
   0.00000   0.00000   0.00000   0.00000  -0.60637   0.00000   0.00000   0.80066   0.00000   0.00000   0.00000   0.00000 ...
   0.00000   0.00000   0.00000   0.00000   0.00000   0.00000   0.00000   0.00000   0.13364   0.00000   0.00000   0.00000 ...
   0.00000   0.00000   0.00000   0.00000   0.00000   0.00000   0.00000   0.00000   0.00000   0.13364   0.00000   0.00000 ...
   0.00000   0.00000   0.00000   0.00000   0.00000   0.00000   0.00000   0.00000   0.00000   0.00000   0.13357   0.00000 ...
   0.00000   0.00000   0.00000   0.00000   0.00000   0.00000   0.00000   0.00000   0.00000   0.00000   0.00000   0.13364 ...
   ...  only 12  components have been written...


 Augmentation waves occupancies Rhoij:
   1.97555  -0.06389   0.00000   0.00000   0.00000   0.00000   0.00000   0.00000   0.00000   0.00000   0.00000   0.00000 ...
  -0.06389   1.11384   0.00000   0.00000   0.00000   0.00000   0.00000   0.00000   0.00000   0.00000   0.00000   0.00000 ...
   0.00000   0.00000   1.96197   0.00000   0.00000  -0.00460   0.00000   0.00000   0.00000   0.00000   0.00000   0.00000 ...
   0.00000   0.00000   0.00000   1.96197   0.00000   0.00000  -0.00460   0.00000   0.00000   0.00000   0.00000   0.00000 ...
   0.00000   0.00000   0.00000   0.00000   1.96197   0.00000   0.00000  -0.00460   0.00000   0.00000   0.00000   0.00000 ...
   0.00000   0.00000  -0.00460   0.00000   0.00000   0.00557   0.00000   0.00000   0.00000   0.00000   0.00000   0.00000 ...
   0.00000   0.00000   0.00000  -0.00460   0.00000   0.00000   0.00557   0.00000   0.00000   0.00000   0.00000   0.00000 ...
   0.00000   0.00000   0.00000   0.00000  -0.00460   0.00000   0.00000   0.00557   0.00000   0.00000   0.00000   0.00000 ...
   0.00000   0.00000   0.00000   0.00000   0.00000   0.00000   0.00000   0.00000   0.47158   0.00000   0.00000   0.00000 ...
   0.00000   0.00000   0.00000   0.00000   0.00000   0.00000   0.00000   0.00000   0.00000   0.47158   0.00000   0.00000 ...
   0.00000   0.00000   0.00000   0.00000   0.00000   0.00000   0.00000   0.00000   0.00000   0.00000   0.40661   0.00000 ...
   0.00000   0.00000   0.00000   0.00000   0.00000   0.00000   0.00000   0.00000   0.00000   0.00000   0.00000   0.47158 ...
   ...  only 12  components have been written...

 "PAW+U" part of augmentation waves occupancies Rhoij:
 L=3 ONLY
   0.13729   0.00000  -0.05075   0.00000   0.00000   0.00000   0.00000   0.01003   0.00000   0.00456   0.00000   0.00000   0.00000   0.00000
   0.00000   0.14617   0.00000   0.00000   0.00000   0.00000   0.00000   0.00000   0.02137   0.00000   0.00000   0.00000   0.00000   0.00000
  -0.05075   0.00000   0.16350   0.00000   0.00000   0.00000   0.00000   0.00456   0.00000   0.00768   0.00000   0.00000   0.00000   0.00000
   0.00000   0.00000   0.00000   0.09798   0.00000   0.00000   0.00000   0.00000   0.00000   0.00000   0.01357   0.00000   0.00000   0.00000
   0.00000   0.00000   0.00000   0.00000   0.16350   0.00000   0.05075   0.00000   0.00000   0.00000   0.00000   0.00768   0.00000  -0.00456
   0.00000   0.00000   0.00000   0.00000   0.00000   0.20281   0.00000   0.00000   0.00000   0.00000   0.00000   0.00000   0.00414   0.00000
   0.00000   0.00000   0.00000   0.00000   0.05075   0.00000   0.13729   0.00000   0.00000   0.00000   0.00000  -0.00456   0.00000   0.01003
   0.01003   0.00000   0.00456   0.00000   0.00000   0.00000   0.00000   0.00170   0.00000   0.00063   0.00000   0.00000   0.00000   0.00000
   0.00000   0.02137   0.00000   0.00000   0.00000   0.00000   0.00000   0.00000   0.00347   0.00000   0.00000   0.00000   0.00000   0.00000
   0.00456   0.00000   0.00768   0.00000   0.00000   0.00000   0.00000   0.00063   0.00000   0.00138   0.00000   0.00000   0.00000   0.00000
   0.00000   0.00000   0.00000   0.01357   0.00000   0.00000   0.00000   0.00000   0.00000   0.00000   0.00220   0.00000   0.00000   0.00000
   0.00000   0.00000   0.00000   0.00000   0.00768   0.00000  -0.00456   0.00000   0.00000   0.00000   0.00000   0.00138   0.00000  -0.00063
   0.00000   0.00000   0.00000   0.00000   0.00000   0.00414   0.00000   0.00000   0.00000   0.00000   0.00000   0.00000   0.00089   0.00000
   0.00000   0.00000   0.00000   0.00000  -0.00456   0.00000   0.01003   0.00000   0.00000   0.00000   0.00000  -0.00063   0.00000   0.00170

 ---------- DFT+U DATA --------------------------------------------------- 

 ====== For Atom     1, occupations for correlated orbitals. lpawu =   3

  (This is PAW atomic orbital occupations)
  (For Wannier orbital occupations, refer to DFT+DMFT occupations above)

 == Occupation matrix for correlated orbitals:

 Up component only...
     0.06129    0.00000   -0.02472    0.00000    0.00000    0.00000    0.00000
     0.00000    0.06259    0.00000    0.00000    0.00000    0.00000    0.00000
    -0.02472    0.00000    0.07406    0.00000    0.00000    0.00000    0.00000
     0.00000    0.00000    0.00000    0.04214    0.00000    0.00000    0.00000
     0.00000    0.00000    0.00000    0.00000    0.07406    0.00000    0.02472
     0.00000    0.00000    0.00000    0.00000    0.00000    0.09321    0.00000
     0.00000    0.00000    0.00000    0.00000    0.02472    0.00000    0.06129



================================================================================

 ----iterations are completed or convergence reached----

 Mean square residual over all n,k,spin=   22.993E-11; max=  39.087E-09
  -0.1250 -0.2500  0.0000    1  8.74960E-30 kpt; spin; max resid(k); each band:
  8.75E-30 3.04E-30 1.02E-30 9.06E-31 1.27E-30 1.64E-30 7.13E-31 2.90E-30
  1.60E-30 3.01E-30 1.28E-30 2.50E-30 8.04E-30 7.99E-31 2.21E-30 8.95E-31
  1.45E-30
  -0.1250  0.5000  0.0000    1  2.89548E-23 kpt; spin; max resid(k); each band:
  1.24E-29 1.09E-30 2.28E-30 6.29E-31 7.81E-30 8.89E-31 1.34E-30 4.23E-30
  6.55E-31 1.89E-30 5.16E-30 7.03E-31 5.96E-31 3.08E-30 4.58E-31 6.69E-28
  2.90E-23
  -0.2500 -0.3750  0.0000    1  1.21906E-29 kpt; spin; max resid(k); each band:
  4.99E-30 3.78E-30 4.15E-30 2.49E-30 8.41E-31 4.97E-30 1.11E-30 1.12E-29
  7.84E-30 2.09E-30 6.89E-31 6.37E-30 1.14E-30 1.44E-30 5.64E-31 7.43E-31
  1.22E-29
  -0.1250 -0.3750  0.1250    1  1.46056E-22 kpt; spin; max resid(k); each band:
  9.75E-30 4.32E-30 8.29E-31 1.80E-30 1.21E-30 2.13E-30 1.38E-30 6.24E-30
  1.50E-30 1.87E-30 3.44E-30 3.21E-30 3.82E-30 1.16E-30 2.09E-30 1.53E-30
  1.46E-22
  -0.1250  0.2500  0.0000    1  4.23490E-28 kpt; spin; max resid(k); each band:
  1.25E-29 1.48E-30 6.19E-31 6.84E-31 3.08E-30 1.31E-30 7.22E-31 8.29E-31
  5.18E-30 3.51E-30 7.06E-31 1.10E-30 6.12E-31 3.07E-30 5.03E-31 2.58E-30
  4.23E-28
  -0.2500  0.3750  0.0000    1  2.37574E-25 kpt; spin; max resid(k); each band:
  9.64E-30 1.01E-30 6.72E-31 2.94E-30 5.82E-31 8.82E-31 2.39E-30 1.29E-30
  6.45E-30 1.02E-30 4.43E-30 3.22E-30 6.06E-30 7.00E-31 1.18E-30 1.67E-30
  2.38E-25
  -0.3750  0.5000  0.0000    1  6.94591E-20 kpt; spin; max resid(k); each band:
  4.11E-30 4.64E-31 1.48E-30 1.29E-30 7.74E-31 2.27E-30 7.65E-30 1.86E-30
  3.77E-30 3.44E-30 9.82E-31 2.01E-30 7.74E-30 1.39E-30 6.80E-31 1.08E-28
  6.95E-20
  -0.2500  0.5000  0.1250    1  3.90873E-08 kpt; spin; max resid(k); each band:
  5.72E-30 4.74E-30 1.29E-30 1.14E-30 1.20E-30 4.78E-31 5.18E-30 1.19E-30
  1.10E-30 2.68E-30 1.23E-30 3.01E-30 1.10E-30 2.71E-31 1.11E-30 1.56E-25
  3.91E-08
  -0.1250  0.0000  0.0000    1  1.14281E-29 kpt; spin; max resid(k); each band:
  1.14E-29 1.75E-30 2.41E-30 6.00E-30 1.73E-30 2.60E-30 1.37E-30 3.31E-30
  2.91E-30 1.02E-30 1.75E-30 1.75E-30 1.51E-30 3.87E-30 1.03E-30 1.02E-30
  4.64E-31
  -0.3750  0.0000  0.0000    1  6.40378E-30 kpt; spin; max resid(k); each band:
  6.40E-30 2.53E-30 1.58E-30 7.70E-31 2.84E-30 3.04E-30 2.62E-30 9.92E-31
  8.89E-31 1.09E-30 1.13E-30 1.71E-30 4.25E-30 9.92E-31 4.18E-31 7.39E-31
  3.47E-30
 reduced coordinates (array xred) for    1 atoms
       0.000000000000      0.000000000000      0.000000000000
 rms dE/dt=  0.0000E+00; max dE/dt=  0.0000E+00; dE/dt below (all hartree)
    1       0.000000000000      0.000000000000      0.000000000000

 cartesian coordinates (angstrom) at end:
    1      0.00000000000000     0.00000000000000     0.00000000000000
 length scales=  9.127400000000  9.127400000000  9.127400000000 bohr
              =  4.830012053684  4.830012053684  4.830012053684 angstroms
 prteigrs : about to open file t107_MPI8o_DS2_EIG
 Fermi (or HOMO) energy (hartree) =   0.39616   Average Vxc (hartree)=  -0.40288
 Eigenvalues (hartree) for nkpt=  10  k points:
 kpt#   1, nband= 17, wtk=  0.09375, kpt= -0.1250 -0.2500  0.0000 (reduced coord)
  -0.87247   -0.23496   -0.20534   -0.20395    0.34364    0.37773    0.39962    0.41414
   0.41431    0.41873    0.41982    0.42833    0.44577    0.48877    0.50470    0.54910
   0.60570
      occupation numbers for kpt#   1
   2.00000    2.00000    2.00000    2.00000    1.99656    1.89233    0.01866    0.01463
   0.01916    0.16627    0.13737    0.12575    0.02561    0.00219    0.00324    0.00116
   0.00033
 kpt#   2, nband= 17, wtk=  0.09375, kpt= -0.1250  0.5000  0.0000 (reduced coord)
  -0.86337   -0.28038   -0.21577   -0.20970    0.34003    0.38473    0.40921    0.41165
   0.42098    0.42313    0.42753    0.42774    0.44431    0.47750    0.51968    0.67410
   0.69326
      occupation numbers for kpt#   2
   2.00000    2.00000    2.00000    2.00000    1.99715    1.21957    0.20520    0.19884
   0.00922    0.12211    0.01905    0.02762    0.01469    0.00808    0.00045    0.00001
   0.00013
 kpt#   3, nband= 17, wtk=  0.09375, kpt= -0.2500 -0.3750  0.0000 (reduced coord)
  -0.86512   -0.25946   -0.22013   -0.21680    0.34096    0.35755    0.40759    0.41565
   0.41705    0.42086    0.42167    0.42322    0.43369    0.50130    0.55949    0.62706
   0.65943
      occupation numbers for kpt#   3
   2.00000    2.00000    2.00000    2.00000    1.99118    1.97924    0.10791    0.18621
   0.11643    0.07213    0.01839    0.05857    0.01957    0.00172    0.00136    0.00042
   0.00011
 kpt#   4, nband= 17, wtk=  0.18750, kpt= -0.1250 -0.3750  0.1250 (reduced coord)
  -0.86347   -0.26712   -0.22929   -0.21185    0.36478    0.37904    0.39986    0.41305
   0.41618    0.42309    0.42479    0.42942    0.44619    0.46298    0.52785    0.61721
   0.73065
      occupation numbers for kpt#   4
   2.00000    2.00000    2.00000    2.00000    1.96970    1.89422    0.24302    0.19176
   0.14004    0.02649    0.01177    0.06206    0.01976    0.00845    0.00213    0.00050
   0.00001
 kpt#   5, nband= 17, wtk=  0.09375, kpt= -0.1250  0.2500  0.0000 (reduced coord)
  -0.86877   -0.25485   -0.21452   -0.20145    0.35205    0.39307    0.39928    0.41257
   0.41577    0.41832    0.42025    0.43070    0.45960    0.47234    0.49437    0.55941
   0.65820
      occupation numbers for kpt#   5
   2.00000    2.00000    2.00000    2.00000    1.98757    0.09514    0.08466    0.13449
   0.09575    0.03101    0.10944    0.10217    0.00274    0.00080    0.00374    0.00140
   0.00014
 kpt#   6, nband= 17, wtk=  0.09375, kpt= -0.2500  0.3750  0.0000 (reduced coord)
  -0.86121   -0.26894   -0.24170   -0.21321    0.35125    0.39516    0.40786    0.41138
   0.41711    0.42145    0.42832    0.42980    0.43848    0.48286    0.52429    0.63065
   0.73703
      occupation numbers for kpt#   6
   2.00000    2.00000    2.00000    2.00000    1.98110    0.19842    0.19451    0.21379
   0.16234    0.00553    0.01356    0.01159    0.00898    0.00048    0.00288    0.00044
   0.00029
 kpt#   7, nband= 17, wtk=  0.09375, kpt= -0.3750  0.5000  0.0000 (reduced coord)
  -0.85974   -0.27362   -0.23251   -0.22448    0.31324    0.34020    0.41298    0.41403
   0.41604    0.41919    0.42512    0.42530    0.42783    0.56874    0.62215    0.69041
   0.73277
      occupation numbers for kpt#   7
   2.00000    2.00000    2.00000    2.00000    1.99856    1.99586    0.20783    0.15843
   0.18084    0.02943    0.00877    0.01189    0.00546    0.00020    0.00041    0.00002
   0.00011
 kpt#   8, nband= 17, wtk=  0.18750, kpt= -0.2500  0.5000  0.1250 (reduced coord)
  -0.85968   -0.26552   -0.24524   -0.22375    0.34494    0.38438    0.40352    0.41037
   0.41793    0.41860    0.42735    0.42995    0.43347    0.48652    0.56269    0.66907
   0.79497
      occupation numbers for kpt#   8
   2.00000    2.00000    2.00000    2.00000    1.98932    1.77064    0.22808    0.20949
   0.14044    0.04586    0.00381    0.01621    0.02958    0.00263    0.00139    0.00022
   0.00017
 kpt#   9, nband= 17, wtk=  0.03125, kpt= -0.1250  0.0000  0.0000 (reduced coord)
  -0.87750   -0.21050   -0.19675   -0.19675    0.30436    0.38655    0.40774    0.41056
   0.41056    0.42457    0.42457    0.43330    0.45703    0.47378    0.47378    0.56719
   0.56719
      occupation numbers for kpt#   9
   2.00000    2.00000    2.00000    2.00000    1.99996    0.50303    0.00804    0.00729
   0.00729    0.13405    0.13405    0.12069    0.00333    0.00603    0.00603    0.00019
   0.00019
 kpt#  10, nband= 17, wtk=  0.03125, kpt= -0.3750  0.0000  0.0000 (reduced coord)
  -0.86650   -0.27390   -0.20484   -0.20484    0.32639    0.39640    0.41180    0.41180
   0.41806    0.42179    0.42179    0.43381    0.46015    0.46015    0.51985    0.63612
   0.63612
      occupation numbers for kpt#  10
   2.00000    2.00000    2.00000    2.00000    1.99825    0.02346    0.17958    0.17958
   0.00460    0.02824    0.02823    0.11937    0.00161    0.00161    0.00009    0.00024
   0.00024
 Total charge density [el/Bohr^3]
)     Maximum=    3.7444E-01  at reduced coord.    0.9500    0.9500    0.9750
)Next maximum=    3.7444E-01  at reduced coord.    0.1250    0.9500    0.9750
)     Minimum=    1.5689E-02  at reduced coord.    0.5000    0.5000    0.5000
)Next minimum=    1.5693E-02  at reduced coord.    0.5000    0.5000    0.4750
   Integrated=    1.2000E+01

--- !EnergyTerms
iteration_state     : {dtset: 2, }
comment             : Components of total energy in Hartree
kinetic             :  9.77270372276121E+00
hartree             :  4.75776766939427E+00
xc                  : -5.15522153309915E+00
Ewald energy        : -3.61669335556889E+01
psp_core            :  1.64203904117002E+00
local_psp           : -2.22321189993956E+01
PAW spherical_terms :  7.88730701633380E+00
interaction         :  1.06525410353972E-02
'-double_counting'  : -2.38466218818997E-02
internal            : -3.95076507193708E+01
total_energy        : -3.95076507193708E+01
total_energy_eV     : -1.07505784913160E+03
...


--- !EnergyTermsDC
iteration_state     : {dtset: 2, }
comment             : '"Double-counting" decomposition of internal energy'
band_energy         : -1.67147163722812E+00
Ewald energy        : -3.61669335556889E+01
psp_core            :  1.64203904117002E+00
xc_dc               : -3.19246967813861E+00
PAW spherical_terms : -8.89757152557156E-02
interaction         :  1.06525410353972E-02
'-double_counting'  : -2.38466218818997E-02
internal            : -3.94910056259878E+01
total_energy_dc     : -3.94910056259878E+01
total_energy_dc_eV  : -1.07460491310617E+03
...


 Cartesian components of stress tensor (hartree/bohr^3)
  sigma(1 1)=  5.67196450E-04  sigma(3 2)=  0.00000000E+00
  sigma(2 2)=  5.67196450E-04  sigma(3 1)=  0.00000000E+00
  sigma(3 3)=  5.67196450E-04  sigma(2 1)=  0.00000000E+00

-Cartesian components of stress tensor (GPa)         [Pressure= -1.6687E+01 GPa]
- sigma(1 1)=  1.66874929E+01  sigma(3 2)=  0.00000000E+00
- sigma(2 2)=  1.66874929E+01  sigma(3 1)=  0.00000000E+00
- sigma(3 3)=  1.66874929E+01  sigma(2 1)=  0.00000000E+00

== END DATASET(S) ==============================================================
================================================================================
  
 -outvars: echo values of variables after computation  --------
            acell      9.1274000000E+00  9.1274000000E+00  9.1274000000E+00 Bohr
              amu      1.40115000E+02
           diemix      1.00000000E-01
        dmatpuopt           1
        dmftbandf1          0
        dmftbandf2         17
        dmftbandi1          0
        dmftbandi2          5
          dmft_dc1          1
          dmft_dc2          8
        dmft_iter1         10
        dmft_iter2          1
        dmft_mxsf1     6.0000000000E-01
        dmft_mxsf2     1.0000000000E-01
        dmft_solv1          5
        dmft_solv2          7
 dmft_triqs_basis1         -1
 dmft_triqs_basis2          2
 dmft_triqs_dlr_e1    -1.0000000000E+00
 dmft_triqs_dlr_e2     1.0000000000E-06
 dmft_triqs_dlr_w1    -1.0000000000E+00
 dmft_triqs_dlr_w2     1.0000000000E+00
 dmft_triqs_lengt1          0
 dmft_triqs_lengt2         10
 dmft_triqs_n_cyc1          0
 dmft_triqs_n_cyc2     125000
  dmft_triqs_n_iw1          0
  dmft_triqs_n_iw2        500
 dmft_triqs_n_tau1          0
 dmft_triqs_n_tau2        200
 dmft_triqs_n_wai1         -1
 dmft_triqs_n_wai2       5000
 dmft_triqs_n_war1         -1
 dmft_triqs_n_war2          0
 dmft_triqs_off_d1         -1
 dmft_triqs_off_d2          0
  dmft_yukawa_par1          1
  dmft_yukawa_par2          2
             ecut      1.00000000E+01 Hartree
           etotal1    -3.9494142786E+01
           etotal2    -3.9491005626E+01
            fcart1    -0.0000000000E+00 -0.0000000000E+00 -0.0000000000E+00
            fcart2     9.9999999999E+99  9.9999999999E+99  9.9999999999E+99
-          fftalg         112
           getden          -1
              ixc           7
           jdtset        1    2
            jpawu1     0.00000000E+00 Hartree
            jpawu2     3.67493254E-02 Hartree
              kpt     -1.25000000E-01 -2.50000000E-01  0.00000000E+00
                      -1.25000000E-01  5.00000000E-01  0.00000000E+00
                      -2.50000000E-01 -3.75000000E-01  0.00000000E+00
                      -1.25000000E-01 -3.75000000E-01  1.25000000E-01
                      -1.25000000E-01  2.50000000E-01  0.00000000E+00
                      -2.50000000E-01  3.75000000E-01  0.00000000E+00
                      -3.75000000E-01  5.00000000E-01  0.00000000E+00
                      -2.50000000E-01  5.00000000E-01  1.25000000E-01
                      -1.25000000E-01  0.00000000E+00  0.00000000E+00
                      -3.75000000E-01  0.00000000E+00  0.00000000E+00
           kptopt           4
         kptrlatt        4   -4    4     -4    4    4     -4   -4    4
          kptrlen      3.65096000E+01
            lpawu           3
P           mkmem           2
            natom           1
            nband          17
           ndtset           2
            ngfft          20      20      20
          ngfftdg          40      40      40
             nkpt          10
            nline1          4
            nline2          5
           nnsclo1          0
           nnsclo2         10
            nstep1         30
            nstep2          2
             nsym          48
           ntypat           1
              occ1     2.000000  2.000000  2.000000  2.000000  2.000000  1.999427
                       0.366291  0.000722  0.000667  0.000092  0.000055  0.000001
                       0.000000  0.000000  0.000000  0.000000  0.000000
                       2.000000  2.000000  2.000000  2.000000  2.000000  1.987627
                       0.006671  0.002285  0.000034  0.000012  0.000002  0.000002
                       0.000000  0.000000  0.000000  0.000000  0.000000
                       2.000000  2.000000  2.000000  2.000000  2.000000  2.000000
                       0.012480  0.000380  0.000196  0.000035  0.000025  0.000013
                       0.000000  0.000000  0.000000  0.000000  0.000000
                       2.000000  2.000000  2.000000  2.000000  1.999998  1.998896
                       0.321535  0.001207  0.000285  0.000013  0.000006  0.000001
                       0.000000  0.000000  0.000000  0.000000  0.000000
                       2.000000  2.000000  2.000000  2.000000  2.000000  1.606798
                       0.393984  0.001448  0.000328  0.000111  0.000046  0.000000
                       0.000000  0.000000  0.000000  0.000000  0.000000
                       2.000000  2.000000  2.000000  2.000000  2.000000  1.156537
                       0.011947  0.002547  0.000188  0.000024  0.000001  0.000001
                       0.000000  0.000000  0.000000  0.000000  0.000000
                       2.000000  2.000000  2.000000  2.000000  2.000000  2.000000
                       0.001265  0.000761  0.000316  0.000075  0.000005  0.000005
                       0.000002  0.000000  0.000000  0.000000  0.000000
                       2.000000  2.000000  2.000000  2.000000  2.000000  1.986958
                       0.075800  0.003933  0.000133  0.000097  0.000002  0.000001
                       0.000000  0.000000  0.000000  0.000000  0.000000
                       2.000000  2.000000  2.000000  2.000000  2.000000  1.975331
                       0.012611  0.003594  0.003594  0.000007  0.000007  0.000000
                       0.000000  0.000000  0.000000  0.000000  0.000000
                       2.000000  2.000000  2.000000  2.000000  2.000000  1.007050
                       0.002116  0.002116  0.000125  0.000022  0.000022  0.000000
                       0.000000  0.000000  0.000000  0.000000  0.000000
              occ2     2.000000  2.000000  2.000000  2.000000  1.996559  1.892328
                       0.018657  0.014625  0.019163  0.166266  0.137369  0.125748
                       0.025606  0.002187  0.003241  0.001160  0.000333
                       2.000000  2.000000  2.000000  2.000000  1.997152  1.219567
                       0.205203  0.198844  0.009219  0.122114  0.019048  0.027623
                       0.014686  0.008083  0.000452  0.000011  0.000130
                       2.000000  2.000000  2.000000  2.000000  1.991177  1.979242
                       0.107913  0.186210  0.116432  0.072129  0.018391  0.058570
                       0.019572  0.001721  0.001357  0.000418  0.000108
                       2.000000  2.000000  2.000000  2.000000  1.969697  1.894222
                       0.243018  0.191756  0.140039  0.026488  0.011771  0.062065
                       0.019761  0.008447  0.002125  0.000501  0.000013
                       2.000000  2.000000  2.000000  2.000000  1.987574  0.095137
                       0.084658  0.134493  0.095755  0.031014  0.109436  0.102168
                       0.002741  0.000799  0.003735  0.001402  0.000142
                       2.000000  2.000000  2.000000  2.000000  1.981103  0.198423
                       0.194514  0.213792  0.162344  0.005525  0.013557  0.011590
                       0.008978  0.000481  0.002881  0.000441  0.000293
                       2.000000  2.000000  2.000000  2.000000  1.998564  1.995865
                       0.207831  0.158427  0.180838  0.029425  0.008767  0.011891
                       0.005457  0.000199  0.000405  0.000021  0.000110
                       2.000000  2.000000  2.000000  2.000000  1.989317  1.770645
                       0.228084  0.209492  0.140437  0.045862  0.003813  0.016207
                       0.029582  0.002628  0.001388  0.000223  0.000175
                       2.000000  2.000000  2.000000  2.000000  1.999963  0.503030
                       0.008039  0.007288  0.007288  0.134048  0.134047  0.120689
                       0.003330  0.006035  0.006035  0.000188  0.000188
                       2.000000  2.000000  2.000000  2.000000  1.998250  0.023457
                       0.179581  0.179581  0.004598  0.028238  0.028233  0.119368
                       0.001615  0.001615  0.000094  0.000238  0.000238
           occopt           3
        optforces1          2
        optforces2          0
-      paral_atom           0
        pawecutdg      4.00000000E+01 Hartree
        pawprtvol           3
           prtvol           4
            rprim      0.0000000000E+00  5.0000000000E-01  5.0000000000E-01
                       5.0000000000E-01  0.0000000000E+00  5.0000000000E-01
                       5.0000000000E-01  5.0000000000E-01  0.0000000000E+00
           shiftk      5.00000000E-01  5.00000000E-01  5.00000000E-01
          spgroup         225
           strten1     2.6725325676E-04  2.6725325676E-04  2.6725325676E-04
                       0.0000000000E+00  0.0000000000E+00  0.0000000000E+00
           strten2     5.6719645005E-04  5.6719645005E-04  5.6719645005E-04
                       0.0000000000E+00  0.0000000000E+00  0.0000000000E+00
           symrel      1  0  0   0  1  0   0  0  1      -1  0  0   0 -1  0   0  0 -1
                       0 -1  1   0 -1  0   1 -1  0       0  1 -1   0  1  0  -1  1  0
                      -1  0  0  -1  0  1  -1  1  0       1  0  0   1  0 -1   1 -1  0
                       0  1 -1   1  0 -1   0  0 -1       0 -1  1  -1  0  1   0  0  1
                      -1  0  0  -1  1  0  -1  0  1       1  0  0   1 -1  0   1  0 -1
                       0 -1  1   1 -1  0   0 -1  0       0  1 -1  -1  1  0   0  1  0
                       1  0  0   0  0  1   0  1  0      -1  0  0   0  0 -1   0 -1  0
                       0  1 -1   0  0 -1   1  0 -1       0 -1  1   0  0  1  -1  0  1
                      -1  0  1  -1  1  0  -1  0  0       1  0 -1   1 -1  0   1  0  0
                       0 -1  0   1 -1  0   0 -1  1       0  1  0  -1  1  0   0  1 -1
                       1  0 -1   0  0 -1   0  1 -1      -1  0  1   0  0  1   0 -1  1
                       0  1  0   0  0  1   1  0  0       0 -1  0   0  0 -1  -1  0  0
                       1  0 -1   0  1 -1   0  0 -1      -1  0  1   0 -1  1   0  0  1
                       0 -1  0   0 -1  1   1 -1  0       0  1  0   0  1 -1  -1  1  0
                      -1  0  1  -1  0  0  -1  1  0       1  0 -1   1  0  0   1 -1  0
                       0  1  0   1  0  0   0  0  1       0 -1  0  -1  0  0   0  0 -1
                       0  0 -1   0  1 -1   1  0 -1       0  0  1   0 -1  1  -1  0  1
                       1 -1  0   0 -1  1   0 -1  0      -1  1  0   0  1 -1   0  1  0
                       0  0  1   1  0  0   0  1  0       0  0 -1  -1  0  0   0 -1  0
                      -1  1  0  -1  0  0  -1  0  1       1 -1  0   1  0  0   1  0 -1
                       0  0  1   0  1  0   1  0  0       0  0 -1   0 -1  0  -1  0  0
                       1 -1  0   0 -1  0   0 -1  1      -1  1  0   0  1  0   0  1 -1
                       0  0 -1   1  0 -1   0  1 -1       0  0  1  -1  0  1   0 -1  1
                      -1  1  0  -1  0  1  -1  0  0       1 -1  0   1  0 -1   1  0  0
           tolvrs      1.00000000E-10
           tsmear      2.21677079E-03 Hartree
            typat      1
            upawu1     0.00000000E+00 Hartree
            upawu2     2.20495952E-01 Hartree
          usedmft1          0
          usedmft2          1
          usepawu1          4
          usepawu2         14
           useylm           1
              wtk        0.09375    0.09375    0.09375    0.18750    0.09375    0.09375
                         0.09375    0.18750    0.03125    0.03125
            znucl       58.00000

================================================================================


- Timing analysis has been suppressed with timopt=0



================================================================================

 Suggested references for the acknowledgment of ABINIT usage.

 The users of ABINIT have little formal obligations with respect to the ABINIT group
 (those specified in the GNU General Public License, http://www.gnu.org/copyleft/gpl.txt).
 However, it is common practice in the scientific literature,
 to acknowledge the efforts of people that have made the research possible.
 In this spirit, please find below suggested citations of work written by ABINIT developers,
 corresponding to implementations inside of ABINIT that you have used in the present run.
 Note also that it will be of great value to readers of publications presenting these results,
 to read papers enabling them to understand the theoretical formalism and details
 of the ABINIT implementation.
 For information on why they are suggested, see also https://docs.abinit.org/theory/acknowledgments.
-
- [1] A self-consistent DFT + DMFT scheme in the projector augmented wave method: 
- applications to cerium, Ce2O3 and Pu2O3 with the Hubbard I solver and comparison to DFT + U,
- B. Amadon,  J. Phys.: Condens. Matter 24 075604 (2012).
- Comment : Describes the self-consistent implementation of DFT+DMFT in PAW
- DOI and bibtex: see https://docs.abinit.org/theory/bibliography/#amadon2012
-
- [2] Plane-wave based electronic structure calculations for correlated materials.
- using dynamical mean-field theory and projected local orbitals,
- B. Amadon, F. Lechermann, A. Georges, F. Jollet, T.O. Wehling, A.I. Lichenstein,
- Phys. Rev. B 77, 205112 (2008).
- Comment: to be cited in case the computation of overlap operator for Wannier90 interface within PAW is used,
- i.e. prtwant=2 and usepaw=1. The paper describes also the DFT+DMFT implementation on Wannier functions
- DOI and bibtex: see https://docs.abinit.org/theory/bibliography/#amadon2008
-
- [3] Gamma and beta cerium: DFT+U calculations of ground-state parameters.
- B. Amadon, F. Jollet and M. Torrent, Phys. Rev. B 77, 155104 (2008).
- Comment: DFT+U calculations, usepawu/=0. Strong suggestion to cite this paper.
- DOI and bibtex: see https://docs.abinit.org/theory/bibliography/#amadon2008a
-
- [4] Implementation of the Projector Augmented-Wave Method in the ABINIT code.
- M. Torrent, F. Jollet, F. Bottin, G. Zerah, and X. Gonze Comput. Mat. Science 42, 337, (2008).
- Comment: PAW calculations. Strong suggestion to cite this paper.
- DOI and bibtex: see https://docs.abinit.org/theory/bibliography/#torrent2008
-
- [5] The Abinit project: Impact, environment and recent developments.
- Computer Phys. Comm. 248, 107042 (2020).
- X.Gonze, B. Amadon, G. Antonius, F.Arnardi, L.Baguet, J.-M.Beuken,
- J.Bieder, F.Bottin, J.Bouchet, E.Bousquet, N.Brouwer, F.Bruneval,
- G.Brunin, T.Cavignac, J.-B. Charraud, Wei Chen, M.Cote, S.Cottenier,
- J.Denier, G.Geneste, Ph.Ghosez, M.Giantomassi, Y.Gillet, O.Gingras,
- D.R.Hamann, G.Hautier, Xu He, N.Helbig, N.Holzwarth, Y.Jia, F.Jollet,
- W.Lafargue-Dit-Hauret, K.Lejaeghere, M.A.L.Marques, A.Martin, C.Martins,
- H.P.C. Miranda, F.Naccarato, K. Persson, G.Petretto, V.Planes, Y.Pouillon,
- S.Prokhorenko, F.Ricci, G.-M.Rignanese, A.H.Romero, M.M.Schmitt, M.Torrent,
- M.J.van Setten, B.Van Troeye, M.J.Verstraete, G.Zerah and J.W.Zwanzig
- Comment: the fifth generic paper describing the ABINIT project.
- Note that a version of this paper, that is not formatted for Computer Phys. Comm. 
- is available at https://www.abinit.org/sites/default/files/ABINIT20.pdf .
- The licence allows the authors to put it on the Web.
- DOI and bibtex: see https://docs.abinit.org/theory/bibliography/#gonze2020
-
- [6] ABINIT: Overview, and focus on selected capabilities
- J. Chem. Phys. 152, 124102 (2020).
- A. Romero, D.C. Allan, B. Amadon, G. Antonius, T. Applencourt, L.Baguet,
- J.Bieder, F.Bottin, J.Bouchet, E.Bousquet, F.Bruneval,
- G.Brunin, D.Caliste, M.Cote,
- J.Denier, C. Dreyer, Ph.Ghosez, M.Giantomassi, Y.Gillet, O.Gingras,
- D.R.Hamann, G.Hautier, F.Jollet, G. Jomard,
- A.Martin, 
- H.P.C. Miranda, F.Naccarato, G.Petretto, N.A. Pike, V.Planes,
- S.Prokhorenko, T. Rangel, F.Ricci, G.-M.Rignanese, M.Royo, M.Stengel, M.Torrent,
- M.J.van Setten, B.Van Troeye, M.J.Verstraete, J.Wiktor, J.W.Zwanziger, and X.Gonze.
- Comment: a global overview of ABINIT, with focus on selected capabilities .
- Note that a version of this paper, that is not formatted for J. Chem. Phys 
- is available at https://www.abinit.org/sites/default/files/ABINIT20_JPC.pdf .
- The licence allows the authors to put it on the Web.
- DOI and bibtex: see https://docs.abinit.org/theory/bibliography/#romero2020
-
- [7] Recent developments in the ABINIT software package.
- Computer Phys. Comm. 205, 106 (2016).
- X.Gonze, F.Jollet, F.Abreu Araujo, D.Adams, B.Amadon, T.Applencourt,
- C.Audouze, J.-M.Beuken, J.Bieder, A.Bokhanchuk, E.Bousquet, F.Bruneval
- D.Caliste, M.Cote, F.Dahm, F.Da Pieve, M.Delaveau, M.Di Gennaro,
- B.Dorado, C.Espejo, G.Geneste, L.Genovese, A.Gerossier, M.Giantomassi,
- Y.Gillet, D.R.Hamann, L.He, G.Jomard, J.Laflamme Janssen, S.Le Roux,
- A.Levitt, A.Lherbier, F.Liu, I.Lukacevic, A.Martin, C.Martins,
- M.J.T.Oliveira, S.Ponce, Y.Pouillon, T.Rangel, G.-M.Rignanese,
- A.H.Romero, B.Rousseau, O.Rubel, A.A.Shukri, M.Stankovski, M.Torrent,
- M.J.Van Setten, B.Van Troeye, M.J.Verstraete, D.Waroquier, J.Wiktor,
- B.Xu, A.Zhou, J.W.Zwanziger.
- Comment: the fourth generic paper describing the ABINIT project.
- Note that a version of this paper, that is not formatted for Computer Phys. Comm. 
- is available at https://www.abinit.org/sites/default/files/ABINIT16.pdf .
- The licence allows the authors to put it on the Web.
- DOI and bibtex: see https://docs.abinit.org/theory/bibliography/#gonze2016
-
- Proc.   0 individual time (sec): cpu=         16.4  wall=         16.5

================================================================================

 Calculation completed.
.Delivered   4 WARNINGs and   0 COMMENTs to log file.
+Overall time at end (sec) : cpu=        131.1  wall=        131.6
