
.Version 10.4.0.1 of ABINIT, released Apr 2025.
.(MPI version, prepared for a x86_64_linux_gnu14.2 computer) 

.Copyright (C) 1998-2025 ABINIT group . 
 ABINIT comes with ABSOLUTELY NO WARRANTY.
 It is free software, and you are welcome to redistribute it
 under certain conditions (GNU General Public License,
 see ~abinit/COPYING or http://www.gnu.org/copyleft/gpl.txt).

 ABINIT is a project of the Universite Catholique de Louvain,
 Corning Inc. and other collaborators, see ~abinit/doc/developers/contributors.txt .
 Please read https://docs.abinit.org/theory/acknowledgments for suggested
 acknowledgments of the ABINIT effort.
 For more information, see https://www.abinit.org .

.Starting date : Mon 19 May 2025.
- ( at 23h53 )
  
- input  file    -> /opt/ABINIT/atlas_gnu_14.2_triqs/castiel_dmft_triqs/tests/TestBot_MPI4_OMP1/paral_t108_MPI4-t109_MPI4/t108.abi
- output file    -> t108_MPI4.abo
- root for input  files -> t108_MPI4i
- root for output files -> t108_MPI4o


 invars1: COMMENT -
  With nspinor=2 and usepaw=1, pawspnorb=1 has been switched on by default.

 invars1: COMMENT -
  With nspinor=2 and usepaw=1, pawspnorb=1 has been switched on by default.
 DATASET    1 : space group P4 3 2 (#207); Bravais cP (primitive cubic)
================================================================================
 Values of the parameters that define the memory need for DATASET  1.
     intxc =       0    ionmov =       0      iscf =      17    lmnmax =      22
     lnmax =       8     mgfft =      15  mpssoang =       3    mqgrid =    3001
     natom =       5  nloc_mem =       2    nspden =       4   nspinor =       2
    nsppol =       1      nsym =      24    n1xccc =       1    ntypat =       3
    occopt =       3   xclevel =       1
-    mband =          64        mffmem =           1         mkmem =           2
       mpw =         152          nfft =        3375          nkpt =           5
Pmy_natom=         2
 PAW method is used; the additional fine FFT grid is defined by:
   mgfftf=        20    nfftf =      8000
================================================================================
P This job should need less than                      11.855 Mbytes of memory.
  Rough estimation (10% accuracy) of disk space for files :
_ WF disk file :      0.744 Mbytes ; DEN or POT disk file :      0.063 Mbytes.
================================================================================

 DATASET    2 : space group P4 3 2 (#207); Bravais cP (primitive cubic)
================================================================================
 Values of the parameters that define the memory need for DATASET  2.
     intxc =       0    ionmov =       0      iscf =      17    lmnmax =      22
     lnmax =       8     mgfft =      15  mpssoang =       3    mqgrid =    3001
     natom =       5  nloc_mem =       2    nspden =       4   nspinor =       2
    nsppol =       1      nsym =      24    n1xccc =       1    ntypat =       3
    occopt =       3   xclevel =       1
-    mband =          64        mffmem =           1         mkmem =           2
       mpw =         152          nfft =        3375          nkpt =           5
 PAW method is used; the additional fine FFT grid is defined by:
   mgfftf=        20    nfftf =      8000
================================================================================
P This job should need less than                      12.034 Mbytes of memory.
  Rough estimation (10% accuracy) of disk space for files :
_ WF disk file :      0.744 Mbytes ; DEN or POT disk file :      0.063 Mbytes.
================================================================================

--------------------------------------------------------------------------------
------------- Echo of variables that govern the present computation ------------
--------------------------------------------------------------------------------
-
- outvars: echo of selected default values
-   iomode0 =  0 , fftalg0 =512 , wfoptalg0 = 10
-
- outvars: echo of global parameters not present in the input file
-  max_nthreads =    0
-
 -outvars: echo values of preprocessed input variables --------
            acell      7.2605000000E+00  7.2605000000E+00  7.2605000000E+00 Bohr
              amu      5.09415000E+01  8.76200000E+01  1.59994000E+01
        dmatpuopt1          2
        dmatpuopt2          1
        dmftbandf1          0
        dmftbandf2         45
        dmftbandi1          0
        dmftbandi2          9
  dmftctqmc_basis1          1
  dmftctqmc_basis2          3
   dmftctqmc_meas1          1
   dmftctqmc_meas2         10
          dmft_dc1          1
          dmft_dc2          6
        dmft_iter1         10
        dmft_iter2          2
        dmft_mxsf1     6.0000000000E-01
        dmft_mxsf2     7.0000000000E-01
        dmft_nwli1          0
        dmft_nwli2        500
        dmftqmc_l1          0
        dmftqmc_l2        500
        dmftqmc_n1     0.0000000000E+00
        dmftqmc_n2     5.0000000000E+03
    dmftqmc_therm1          0
    dmftqmc_therm2       1000
        dmft_solv1          5
        dmft_solv2          7
  dmft_triqs_nleg1          0
  dmft_triqs_nleg2         15
  dmft_triqs_wmax1    -1.0000000000E+00
  dmft_triqs_wmax2     1.0000000000E+00
             ecut      4.00000000E+00 Hartree
-          fftalg         512
           getden1          0
           getden2          1
          getself           2
           istwfk        1    0    1    1    1
              ixc           7
           jdtset        1    2
            jpawu1     0.00000000E+00  0.00000000E+00  0.00000000E+00 Hartree
            jpawu2     2.78682384E-02  0.00000000E+00  0.00000000E+00 Hartree
              kpt      5.00000000E-01  0.00000000E+00  0.00000000E+00
                      -2.50000000E-01  2.50000000E-01  2.50000000E-01
                       5.00000000E-01  5.00000000E-01  0.00000000E+00
                       0.00000000E+00  0.00000000E+00  0.00000000E+00
                       5.00000000E-01  5.00000000E-01  5.00000000E-01
           kptopt           4
         kptrlatt        2    0    2     -2    2    0     -2    0    2
          kptrlen      2.05357951E+01
          kssform           3
            lpawu1         -1      -1      -1
            lpawu2          2       1      -1
P           mkmem           2
            natom           5
            nband          64
           nbdbuf           4
           ndtset           2
            ngfft          15      15      15
          ngfftdg          20      20      20
             nkpt           5
            nline1          4
            nline2          5
           nnsclo1          0
           nnsclo2          5
           nspden           4
          nspinor           2
            nstep1         30
            nstep2          1
             nsym          24
           ntypat           3
              occ      1.000000  1.000000  1.000000  1.000000  1.000000  1.000000
                       1.000000  1.000000  1.000000  1.000000  1.000000  1.000000
                       1.000000  1.000000  1.000000  1.000000  1.000000  1.000000
                       1.000000  1.000000  1.000000  1.000000  1.000000  1.000000
                       1.000000  1.000000  1.000000  1.000000  1.000000  1.000000
                       1.000000  1.000000  1.000000  1.000000  1.000000  1.000000
                       1.000000  1.000000  1.000000  1.000000  1.000000  0.000000
                       0.000000  0.000000  0.000000  0.000000  0.000000  0.000000
                       0.000000  0.000000  0.000000  0.000000  0.000000  0.000000
                       0.000000  0.000000  0.000000  0.000000  0.000000  0.000000
                       0.000000  0.000000  0.000000  0.000000
                       1.000000  1.000000  1.000000  1.000000  1.000000  1.000000
                       1.000000  1.000000  1.000000  1.000000  1.000000  1.000000
                       1.000000  1.000000  1.000000  1.000000  1.000000  1.000000
                       1.000000  1.000000  1.000000  1.000000  1.000000  1.000000
                       1.000000  1.000000  1.000000  1.000000  1.000000  1.000000
                       1.000000  1.000000  1.000000  1.000000  1.000000  1.000000
                       1.000000  1.000000  1.000000  1.000000  1.000000  0.000000
                       0.000000  0.000000  0.000000  0.000000  0.000000  0.000000
                       0.000000  0.000000  0.000000  0.000000  0.000000  0.000000
                       0.000000  0.000000  0.000000  0.000000  0.000000  0.000000
                       0.000000  0.000000  0.000000  0.000000
                       1.000000  1.000000  1.000000  1.000000  1.000000  1.000000
                       1.000000  1.000000  1.000000  1.000000  1.000000  1.000000
                       1.000000  1.000000  1.000000  1.000000  1.000000  1.000000
                       1.000000  1.000000  1.000000  1.000000  1.000000  1.000000
                       1.000000  1.000000  1.000000  1.000000  1.000000  1.000000
                       1.000000  1.000000  1.000000  1.000000  1.000000  1.000000
                       1.000000  1.000000  1.000000  1.000000  1.000000  0.000000
                       0.000000  0.000000  0.000000  0.000000  0.000000  0.000000
                       0.000000  0.000000  0.000000  0.000000  0.000000  0.000000
                       0.000000  0.000000  0.000000  0.000000  0.000000  0.000000
                       0.000000  0.000000  0.000000  0.000000
                       1.000000  1.000000  1.000000  1.000000  1.000000  1.000000
                       1.000000  1.000000  1.000000  1.000000  1.000000  1.000000
                       1.000000  1.000000  1.000000  1.000000  1.000000  1.000000
                       1.000000  1.000000  1.000000  1.000000  1.000000  1.000000
                       1.000000  1.000000  1.000000  1.000000  1.000000  1.000000
                       1.000000  1.000000  1.000000  1.000000  1.000000  1.000000
                       1.000000  1.000000  1.000000  1.000000  1.000000  0.000000
                       0.000000  0.000000  0.000000  0.000000  0.000000  0.000000
                       0.000000  0.000000  0.000000  0.000000  0.000000  0.000000
                       0.000000  0.000000  0.000000  0.000000  0.000000  0.000000
                       0.000000  0.000000  0.000000  0.000000
                       1.000000  1.000000  1.000000  1.000000  1.000000  1.000000
                       1.000000  1.000000  1.000000  1.000000  1.000000  1.000000
                       1.000000  1.000000  1.000000  1.000000  1.000000  1.000000
                       1.000000  1.000000  1.000000  1.000000  1.000000  1.000000
                       1.000000  1.000000  1.000000  1.000000  1.000000  1.000000
                       1.000000  1.000000  1.000000  1.000000  1.000000  1.000000
                       1.000000  1.000000  1.000000  1.000000  1.000000  0.000000
                       0.000000  0.000000  0.000000  0.000000  0.000000  0.000000
                       0.000000  0.000000  0.000000  0.000000  0.000000  0.000000
                       0.000000  0.000000  0.000000  0.000000  0.000000  0.000000
                       0.000000  0.000000  0.000000  0.000000
           occopt           3
        optforces1          2
        optforces2          0
-      paral_atom1          1
-      paral_atom2          0
        pawcpxocc           2
        pawecutdg      8.00000000E+00 Hartree
        pawprtvol           2
        pawspnorb           1
           prtvol           4
            prtwf           0
          spgroup         207
           symrel      1  0  0   0  1  0   0  0  1      -1  0  0   0  1  0   0  0 -1
                      -1  0  0   0 -1  0   0  0  1       1  0  0   0 -1  0   0  0 -1
                       0 -1  0  -1  0  0   0  0 -1       0  1  0  -1  0  0   0  0  1
                       0  1  0   1  0  0   0  0 -1       0 -1  0   1  0  0   0  0  1
                       0  0  1   1  0  0   0  1  0       0  0 -1   1  0  0   0 -1  0
                       0  0 -1  -1  0  0   0  1  0       0  0  1  -1  0  0   0 -1  0
                      -1  0  0   0  0 -1   0 -1  0       1  0  0   0  0 -1   0  1  0
                       1  0  0   0  0  1   0 -1  0      -1  0  0   0  0  1   0  1  0
                       0  1  0   0  0  1   1  0  0       0 -1  0   0  0  1  -1  0  0
                       0 -1  0   0  0 -1   1  0  0       0  1  0   0  0 -1  -1  0  0
                       0  0 -1   0 -1  0  -1  0  0       0  0  1   0 -1  0   1  0  0
                       0  0  1   0  1  0  -1  0  0       0  0 -1   0  1  0   1  0  0
           tolvrs      1.00000000E-05
           tsmear      3.80017850E-03 Hartree
            typat      1  2  3  3  3
            upawu1     0.00000000E+00  0.00000000E+00  0.00000000E+00 Hartree
            upawu2     1.15147886E-01  3.67493254E-02  0.00000000E+00 Hartree
          usedmft1          0
          usedmft2          1
          usepawu1          0
          usepawu2         14
           useylm           1
              wtk        0.18750    0.50000    0.18750    0.06250    0.06250
           xangst      0.0000000000E+00  0.0000000000E+00  0.0000000000E+00
                       1.9210455615E+00  1.9210455615E+00  1.9210455615E+00
                       1.9210455615E+00  0.0000000000E+00  0.0000000000E+00
                       0.0000000000E+00  1.9210455615E+00  0.0000000000E+00
                       0.0000000000E+00  0.0000000000E+00  1.9210455615E+00
            xcart      0.0000000000E+00  0.0000000000E+00  0.0000000000E+00
                       3.6302500000E+00  3.6302500000E+00  3.6302500000E+00
                       3.6302500000E+00  0.0000000000E+00  0.0000000000E+00
                       0.0000000000E+00  3.6302500000E+00  0.0000000000E+00
                       0.0000000000E+00  0.0000000000E+00  3.6302500000E+00
             xred      0.0000000000E+00  0.0000000000E+00  0.0000000000E+00
                       5.0000000000E-01  5.0000000000E-01  5.0000000000E-01
                       5.0000000000E-01  0.0000000000E+00  0.0000000000E+00
                       0.0000000000E+00  5.0000000000E-01  0.0000000000E+00
                       0.0000000000E+00  0.0000000000E+00  5.0000000000E-01
            znucl       23.00000   38.00000    8.00000

================================================================================

 chkinp: Checking input parameters for consistency, jdtset=   1.

 chkinp: Checking input parameters for consistency, jdtset=   2.

================================================================================
== DATASET  1 ==================================================================
-   mpi_nproc: 4, omp_nthreads: -1 (-1 if OMP is not activated)
-    --> not optimal distribution: autoparal keyword recommended in input file <--


--- !DatasetInfo
iteration_state: {dtset: 1, }
dimensions: {natom: 5, nkpt: 5, mband: 64, nsppol: 1, nspinor: 2, nspden: 4, mpw: 152, }
cutoff_energies: {ecut:   4.0, pawecutdg:   8.0, }
electrons: {nelect:   4.10000000E+01, charge:   0.00000000E+00, occopt:   3.00000000E+00, tsmear:   3.80017850E-03, }
meta: {optdriver: 0, ionmov: 0, optcell: 0, iscf: 17, paral_kgb: 0, }
...

 mkfilename : getself/=0, take file _Self-omega from output of DATASET   2.

 Exchange-correlation functional for the present dataset will be:
  LDA: Perdew-Wang 92 LSD fit to Ceperley-Alder data - ixc=7
 Citation for XC functional:
  J.P.Perdew and Y.Wang, PRB 45, 13244 (1992)

 Real(R)+Recip(G) space primitive vectors, cartesian coordinates (Bohr,Bohr^-1):
 R(1)=  7.2605000  0.0000000  0.0000000  G(1)=  0.1377316  0.0000000  0.0000000
 R(2)=  0.0000000  7.2605000  0.0000000  G(2)=  0.0000000  0.1377316  0.0000000
 R(3)=  0.0000000  0.0000000  7.2605000  G(3)=  0.0000000  0.0000000  0.1377316
 Unit cell volume ucvol=  3.8273624E+02 bohr^3
 Angles (23,13,12)=  9.00000000E+01  9.00000000E+01  9.00000000E+01 degrees

 Coarse grid specifications (used for wave-functions):

 getcut: wavevector=  0.0000  0.0000  0.0000  ngfft=  15  15  15
         ecut(hartree)=      4.000   => boxcut(ratio)=   2.14174

 Fine grid specifications (used for densities):

 getcut: wavevector=  0.0000  0.0000  0.0000  ngfft=  20  20  20
         ecut(hartree)=      8.000   => boxcut(ratio)=   2.16348

--- Pseudopotential description ------------------------------------------------
- pspini: atom type   1  psp file is /opt/ABINIT/atlas_gnu_14.2_triqs/castiel_dmft_triqs/tests/Pspdir/23v.paw
- pspatm: opening atomic psp file    /opt/ABINIT/atlas_gnu_14.2_triqs/castiel_dmft_triqs/tests/Pspdir/23v.paw
- Paw atomic data for element V - Generated by AtomPAW + AtomPAW2Abinit v3.2.0
- 23.00000  13.00000  20070917                znucl, zion, pspdat
    7    7    2    0      1505   0.00000      pspcod,pspxc,lmax,lloc,mmax,r2well
 Pseudopotential format is: paw3
 basis_size (lnmax)=  8 (lmn_size= 22), orbitals=   0   0   0   1   1   1   2   2
 Spheres core radius: rc_sph= 2.35000000
 3 radial meshes are used:
  - mesh 1: r(i)=AA*[exp(BB*(i-1))-1], size=1505 , AA= 0.26380E-03 BB= 0.60673E-02
  - mesh 2: r(i)=AA*[exp(BB*(i-1))-1], size=1500 , AA= 0.26380E-03 BB= 0.60673E-02
  - mesh 3: r(i)=AA*[exp(BB*(i-1))-1], size=1738 , AA= 0.26380E-03 BB= 0.60673E-02
 Shapefunction is SIN type: shapef(r)=[sin(pi*r/rshp)/(pi*r/rshp)]**2
 Radius for shape functions =  2.00701120
 Radial grid used for partial waves is grid 1
 Radial grid used for projectors is grid  2
 Radial grid used for (t)core density is grid 1
 Radial grid used for Vloc is grid 3
 Compensation charge density is taken into account in XC energy/potential
 pspatm: atomic psp has been read  and splines computed

- pspini: atom type   2  psp file is /opt/ABINIT/atlas_gnu_14.2_triqs/castiel_dmft_triqs/tests/Pspdir/38sr.paw
- pspatm: opening atomic psp file    /opt/ABINIT/atlas_gnu_14.2_triqs/castiel_dmft_triqs/tests/Pspdir/38sr.paw
- Paw atomic data for element Sr - Generated by AtomPAW + AtomPAW2Abinit v3.2.0
- 38.00000  10.00000  20070917                znucl, zion, pspdat
    7    7    2    0      1068   0.00000      pspcod,pspxc,lmax,lloc,mmax,r2well
 Pseudopotential format is: paw3
 basis_size (lnmax)=  6 (lmn_size= 18), orbitals=   0   0   1   1   2   2
 Spheres core radius: rc_sph= 1.92519986
 4 radial meshes are used:
  - mesh 1: r(i)=AA*[exp(BB*(i-1))-1], size=1068 , AA= 0.22443E-03 BB= 0.85283E-02
  - mesh 2: r(i)=AA*[exp(BB*(i-1))-1], size=1063 , AA= 0.22443E-03 BB= 0.85283E-02
  - mesh 3: r(i)=AA*[exp(BB*(i-1))-1], size=1134 , AA= 0.22443E-03 BB= 0.85283E-02
  - mesh 4: r(i)=AA*[exp(BB*(i-1))-1], size=1256 , AA= 0.22443E-03 BB= 0.85283E-02
 Shapefunction is SIN type: shapef(r)=[sin(pi*r/rshp)/(pi*r/rshp)]**2
 Radius for shape functions =  1.81361893
 Radial grid used for partial waves is grid 1
 Radial grid used for projectors is grid  2
 Radial grid used for (t)core density is grid 3
 Radial grid used for Vloc is grid 4
 Compensation charge density is taken into account in XC energy/potential
 pspatm: atomic psp has been read  and splines computed

- pspini: atom type   3  psp file is /opt/ABINIT/atlas_gnu_14.2_triqs/castiel_dmft_triqs/tests/Pspdir/8o.paw
- pspatm: opening atomic psp file    /opt/ABINIT/atlas_gnu_14.2_triqs/castiel_dmft_triqs/tests/Pspdir/8o.paw
- Paw atomic data for element O - Generated by AtomPAW (N. Holzwarth)
-  8.00000   6.00000  20040423                znucl, zion, pspdat
    7    7    1    0       350   0.00000      pspcod,pspxc,lmax,lloc,mmax,r2well
 Pseudopotential format is: paw2
 basis_size (lnmax)=  4 (lmn_size=  8), orbitals=   0   0   1   1
 Spheres core radius: rc_sph= 1.41000000
 2 radial meshes are used:
  - mesh 1: r(i)=AA*exp(BB*(i-2)), size= 350 , AA= 0.72362E-05 BB= 0.35000E-01
  - mesh 2: r(i)=step*(i-1), size= 566 , step= 0.25000E-02
 Shapefunction is SIN type: shapef(r)=[sin(pi*r/rshp)/(pi*r/rshp)]**2
 Radius for shape functions = sphere core radius
 Radial grid used for partial waves is grid 1
 Radial grid used for projectors is grid  2
 Radial grid used for (t)core density is grid 1
 Radial grid used for Vloc is grid 1
 Compensation charge density is taken into account in XC energy/potential
 pspatm: atomic psp has been read  and splines computed

   2.50191820E+03                                ecore*ucvol(ha*bohr**3)
--------------------------------------------------------------------------------

P newkpt: treating     64 bands with npw=     150 for ikpt=   1 by node    0
P newkpt: treating     64 bands with npw=     136 for ikpt=   2 by node    0
P newkpt: treating     64 bands with npw=     152 for ikpt=   3 by node    1
P newkpt: treating     64 bands with npw=     147 for ikpt=   4 by node    1
P newkpt: treating     64 bands with npw=     136 for ikpt=   5 by node    2
_setup2: Arith. and geom. avg. npw (full set) are     142.313     142.130

================================================================================

--- !BeginCycle
iteration_state: {dtset: 1, }
solver: {iscf: 17, nstep: 30, nline: 4, wfoptalg: 10, }
tolerances: {tolvrs: 1.00E-05, }
...

     iter   Etot(hartree)      deltaE(h)  residm     nres2
 ETOT  1  -144.60674777313    -1.446E+02 7.257E+00 2.672E+01
 ETOT  2  -143.37826176254     1.228E+00 1.819E-02 2.214E+00
 ETOT  3  -143.24199458497     1.363E-01 2.101E-03 2.008E-01
 ETOT  4  -143.22648093021     1.551E-02 4.430E-04 4.264E-03
 ETOT  5  -143.22623614902     2.448E-04 1.137E-04 4.690E-05
 ETOT  6  -143.22623618531    -3.629E-08 2.068E-05 5.514E-06

 At SCF step    6       nres2   =  5.51E-06 < tolvrs=  1.00E-05 =>converged.

 Cartesian components of stress tensor (hartree/bohr^3)
  sigma(1 1)=  2.97527378E-02  sigma(3 2)=  0.00000000E+00
  sigma(2 2)=  2.97527378E-02  sigma(3 1)=  0.00000000E+00
  sigma(3 3)=  2.97527378E-02  sigma(2 1)=  0.00000000E+00


--- !ResultsGS
iteration_state: {dtset: 1, }
comment   : Summary of ground state results
lattice_vectors:
- [  7.2605000,   0.0000000,   0.0000000, ]
- [  0.0000000,   7.2605000,   0.0000000, ]
- [  0.0000000,   0.0000000,   7.2605000, ]
lattice_lengths: [   7.26050,    7.26050,    7.26050, ]
lattice_angles: [ 90.000,  90.000,  90.000, ] # degrees, (23, 13, 12)
lattice_volume:   3.8273624E+02
convergence: {deltae: -3.629E-08, res2:  5.514E-06, residm:  2.068E-05, diffor: null, }
etotal    :  -1.43226236E+02
entropy   :   0.00000000E+00
fermie    :   4.43761191E-01
cartesian_stress_tensor: # hartree/bohr^3
- [  2.97527378E-02,   0.00000000E+00,   0.00000000E+00, ]
- [  0.00000000E+00,   2.97527378E-02,   0.00000000E+00, ]
- [  0.00000000E+00,   0.00000000E+00,   2.97527378E-02, ]
pressure_GPa:  -8.7536E+02
xred      :
- [  0.0000E+00,   0.0000E+00,   0.0000E+00,  V]
- [  5.0000E-01,   5.0000E-01,   5.0000E-01, Sr]
- [  5.0000E-01,   0.0000E+00,   0.0000E+00,  O]
- [  0.0000E+00,   5.0000E-01,   0.0000E+00,  O]
- [  0.0000E+00,   0.0000E+00,   5.0000E-01,  O]
cartesian_forces: # hartree/bohr
- [ -0.00000000E+00,  -0.00000000E+00,  -0.00000000E+00, ]
- [ -0.00000000E+00,  -0.00000000E+00,  -0.00000000E+00, ]
- [ -0.00000000E+00,  -0.00000000E+00,  -0.00000000E+00, ]
- [ -0.00000000E+00,  -0.00000000E+00,  -0.00000000E+00, ]
- [ -0.00000000E+00,  -0.00000000E+00,  -0.00000000E+00, ]
force_length_stats: {min:   0.00000000E+00, max:   0.00000000E+00, mean:   0.00000000E+00, }
...

 Integrated electronic and magnetization densities in atomic spheres:
 ---------------------------------------------------------------------
 Radius=ratsph(iatom), smearing ratsm=  0.0000. mag(i)=approximate local magnetic moment.
 Atom    Radius     Total density     mag(x)      mag(y)      mag(z)
    1   2.35000       11.889218      0.000000    0.000000   -0.000000
    2   1.92520        6.304820      0.000000   -0.000000   -0.000000
    3   1.41000        3.600553     -0.000000    0.000000    0.000000
    4   1.41000        3.600553      0.000000   -0.000000    0.000000
    5   1.41000        3.600553      0.000000   -0.000000   -0.000000
 ---------------------------------------------------------------------
 Total magnetization (spheres)       0.000000    0.000000   -0.000000
 Total magnetization (exact)        -0.000000    0.000000   -0.000000

 PAW TEST:
 ==== Compensation charge inside spheres ============
 The following values must be close to each other ...
 Compensation charge over spherical meshes =      4.214133394998420
 Compensation charge over fine fft grid    =      4.211843169089393

 ==== Results concerning PAW augmentation regions ====

 Total pseudopotential strength Dij (hartree):
 Atom #  1 - Component up-up
   === REAL PART:
  -1.85594   0.44328  -2.59696   0.00000   0.00000   0.00000   0.00000  -0.00000   0.00000   0.00000   0.00000   0.00000 ...
   0.44328   0.15499  -1.43976   0.00000  -0.00000   0.00000   0.00000  -0.00000   0.00000   0.00000   0.00000   0.00000 ...
  -2.59696  -1.43976  15.36266   0.00000   0.00000   0.00000   0.00000   0.00000   0.00000   0.00000  -0.00000   0.00000 ...
   0.00000   0.00000   0.00000  -1.49783   0.00000   0.00000   0.15729   0.00000   0.00000  -0.14872   0.00000   0.00000 ...
   0.00000  -0.00000   0.00000   0.00000  -1.49783   0.00000   0.00000   0.15729   0.00000   0.00000  -0.14872   0.00000 ...
   0.00000   0.00000   0.00000   0.00000   0.00000  -1.49783   0.00000   0.00000   0.15729   0.00000   0.00000  -0.14872 ...
   0.00000   0.00000   0.00000   0.15729   0.00000   0.00000   0.02770   0.00000   0.00000  -0.13087   0.00000   0.00000 ...
  -0.00000  -0.00000   0.00000   0.00000   0.15729   0.00000   0.00000   0.02770   0.00000   0.00000  -0.13087   0.00000 ...
   0.00000   0.00000   0.00000   0.00000   0.00000   0.15729   0.00000   0.00000   0.02770   0.00000   0.00000  -0.13087 ...
   0.00000   0.00000   0.00000  -0.14872   0.00000   0.00000  -0.13087   0.00000   0.00000   2.09068   0.00000   0.00000 ...
   0.00000   0.00000  -0.00000   0.00000  -0.14872   0.00000   0.00000  -0.13087   0.00000   0.00000   2.09068   0.00000 ...
   0.00000   0.00000   0.00000   0.00000   0.00000  -0.14872   0.00000   0.00000  -0.13087   0.00000   0.00000   2.09068 ...
   ...  only 12  components have been written...
   === IMAGINARY PART:
  -0.00000  -0.00000  -0.00000  -0.00000  -0.00000  -0.00000  -0.00000  -0.00000  -0.00000  -0.00000  -0.00000  -0.00000 ...
   0.00000  -0.00000  -0.00000  -0.00000  -0.00000  -0.00000  -0.00000  -0.00000  -0.00000  -0.00000  -0.00000  -0.00000 ...
   0.00000   0.00000  -0.00000  -0.00000  -0.00000  -0.00000  -0.00000  -0.00000  -0.00000  -0.00000  -0.00000  -0.00000 ...
   0.00000   0.00000   0.00000  -0.00000  -0.00000  -0.01020  -0.00000  -0.00000   0.00204  -0.00000  -0.00000  -0.01030 ...
   0.00000   0.00000   0.00000   0.00000  -0.00000  -0.00000  -0.00000  -0.00000  -0.00000  -0.00000  -0.00000  -0.00000 ...
   0.00000   0.00000   0.00000   0.01020   0.00000  -0.00000  -0.00204  -0.00000  -0.00000   0.01030  -0.00000  -0.00000 ...
   0.00000   0.00000   0.00000   0.00000   0.00000   0.00204  -0.00000  -0.00000  -0.00041  -0.00000  -0.00000   0.00207 ...
   0.00000   0.00000   0.00000   0.00000   0.00000   0.00000   0.00000  -0.00000  -0.00000  -0.00000  -0.00000  -0.00000 ...
   0.00000   0.00000   0.00000  -0.00204   0.00000   0.00000   0.00041   0.00000  -0.00000  -0.00207  -0.00000  -0.00000 ...
   0.00000   0.00000   0.00000   0.00000   0.00000  -0.01030   0.00000   0.00000   0.00207  -0.00000  -0.00000  -0.01053 ...
   0.00000   0.00000   0.00000   0.00000   0.00000   0.00000   0.00000   0.00000   0.00000   0.00000  -0.00000  -0.00000 ...
   0.00000   0.00000   0.00000   0.01030   0.00000   0.00000  -0.00207   0.00000   0.00000   0.01053   0.00000  -0.00000 ...
   ...  only 12  components have been written...
 Atom #  1 - Component dwn-dwn
   === REAL PART:
  -1.85594   0.44328  -2.59696   0.00000  -0.00000   0.00000   0.00000   0.00000   0.00000   0.00000  -0.00000   0.00000 ...
   0.44328   0.15499  -1.43976   0.00000   0.00000   0.00000   0.00000   0.00000   0.00000   0.00000  -0.00000   0.00000 ...
  -2.59696  -1.43976  15.36266   0.00000  -0.00000   0.00000   0.00000  -0.00000   0.00000   0.00000   0.00000   0.00000 ...
   0.00000   0.00000   0.00000  -1.49783   0.00000   0.00000   0.15729   0.00000   0.00000  -0.14872   0.00000   0.00000 ...
  -0.00000   0.00000  -0.00000   0.00000  -1.49783   0.00000   0.00000   0.15729   0.00000   0.00000  -0.14872   0.00000 ...
   0.00000   0.00000   0.00000   0.00000   0.00000  -1.49783   0.00000   0.00000   0.15729   0.00000   0.00000  -0.14872 ...
   0.00000   0.00000   0.00000   0.15729   0.00000   0.00000   0.02770   0.00000   0.00000  -0.13087   0.00000   0.00000 ...
   0.00000   0.00000  -0.00000   0.00000   0.15729   0.00000   0.00000   0.02770   0.00000   0.00000  -0.13087   0.00000 ...
   0.00000   0.00000   0.00000   0.00000   0.00000   0.15729   0.00000   0.00000   0.02770   0.00000   0.00000  -0.13087 ...
   0.00000   0.00000   0.00000  -0.14872   0.00000   0.00000  -0.13087   0.00000   0.00000   2.09068   0.00000   0.00000 ...
  -0.00000  -0.00000   0.00000   0.00000  -0.14872   0.00000   0.00000  -0.13087   0.00000   0.00000   2.09068   0.00000 ...
   0.00000   0.00000   0.00000   0.00000   0.00000  -0.14872   0.00000   0.00000  -0.13087   0.00000   0.00000   2.09068 ...
   ...  only 12  components have been written...
   === IMAGINARY PART:
  -0.00000  -0.00000  -0.00000  -0.00000  -0.00000  -0.00000  -0.00000  -0.00000  -0.00000  -0.00000  -0.00000  -0.00000 ...
   0.00000  -0.00000  -0.00000  -0.00000  -0.00000  -0.00000  -0.00000  -0.00000  -0.00000  -0.00000  -0.00000  -0.00000 ...
   0.00000   0.00000  -0.00000  -0.00000  -0.00000  -0.00000  -0.00000  -0.00000  -0.00000  -0.00000  -0.00000  -0.00000 ...
   0.00000   0.00000   0.00000  -0.00000  -0.00000   0.01020  -0.00000  -0.00000  -0.00204  -0.00000  -0.00000   0.01030 ...
   0.00000   0.00000   0.00000   0.00000  -0.00000  -0.00000  -0.00000  -0.00000  -0.00000  -0.00000  -0.00000  -0.00000 ...
   0.00000   0.00000   0.00000  -0.01020   0.00000  -0.00000   0.00204  -0.00000  -0.00000  -0.01030  -0.00000  -0.00000 ...
   0.00000   0.00000   0.00000   0.00000   0.00000  -0.00204  -0.00000  -0.00000   0.00041  -0.00000  -0.00000  -0.00207 ...
   0.00000   0.00000   0.00000   0.00000   0.00000   0.00000   0.00000  -0.00000  -0.00000  -0.00000  -0.00000  -0.00000 ...
   0.00000   0.00000   0.00000   0.00204   0.00000   0.00000  -0.00041   0.00000  -0.00000   0.00207  -0.00000  -0.00000 ...
   0.00000   0.00000   0.00000   0.00000   0.00000   0.01030   0.00000   0.00000  -0.00207  -0.00000  -0.00000   0.01053 ...
   0.00000   0.00000   0.00000   0.00000   0.00000   0.00000   0.00000   0.00000   0.00000   0.00000  -0.00000  -0.00000 ...
   0.00000   0.00000   0.00000  -0.01030   0.00000   0.00000   0.00207   0.00000   0.00000  -0.01053   0.00000  -0.00000 ...
   ...  only 12  components have been written...
 Atom #  1 - Component up-dwn
   === REAL PART:
   0.00000   0.00000   0.00000   0.00000   0.00000   0.00000   0.00000   0.00000  -0.00000   0.00000   0.00000   0.00000 ...
   0.00000   0.00000   0.00000   0.00000   0.00000  -0.00000   0.00000   0.00000  -0.00000   0.00000   0.00000   0.00000 ...
   0.00000   0.00000   0.00000   0.00000   0.00000   0.00000   0.00000   0.00000   0.00000   0.00000   0.00000  -0.00000 ...
   0.00000   0.00000   0.00000   0.00000   0.00000   0.00000   0.00000   0.00000   0.00000   0.00000   0.00000   0.00000 ...
   0.00000   0.00000   0.00000   0.00000   0.00000   0.01020   0.00000   0.00000  -0.00204   0.00000   0.00000   0.01030 ...
   0.00000  -0.00000   0.00000   0.00000  -0.01020   0.00000   0.00000   0.00204   0.00000   0.00000  -0.01030   0.00000 ...
   0.00000   0.00000   0.00000   0.00000   0.00000   0.00000   0.00000   0.00000   0.00000   0.00000   0.00000   0.00000 ...
   0.00000   0.00000   0.00000   0.00000   0.00000  -0.00204   0.00000   0.00000   0.00041   0.00000   0.00000  -0.00207 ...
  -0.00000  -0.00000   0.00000   0.00000   0.00204   0.00000   0.00000  -0.00041   0.00000   0.00000   0.00207   0.00000 ...
   0.00000   0.00000   0.00000   0.00000   0.00000   0.00000   0.00000   0.00000   0.00000   0.00000   0.00000   0.00000 ...
   0.00000   0.00000   0.00000   0.00000   0.00000   0.01030   0.00000   0.00000  -0.00207   0.00000   0.00000   0.01053 ...
   0.00000   0.00000  -0.00000   0.00000  -0.01030   0.00000   0.00000   0.00207   0.00000   0.00000  -0.01053   0.00000 ...
   ...  only 12  components have been written...
   === IMAGINARY PART:
  -0.00000  -0.00000  -0.00000  -0.00000  -0.00000  -0.00000   0.00000  -0.00000  -0.00000  -0.00000  -0.00000  -0.00000 ...
   0.00000  -0.00000  -0.00000   0.00000  -0.00000  -0.00000   0.00000  -0.00000  -0.00000  -0.00000  -0.00000  -0.00000 ...
   0.00000   0.00000  -0.00000  -0.00000  -0.00000  -0.00000  -0.00000  -0.00000  -0.00000   0.00000  -0.00000  -0.00000 ...
  -0.00000   0.00000  -0.00000  -0.00000   0.01020  -0.00000  -0.00000  -0.00204  -0.00000  -0.00000   0.01030  -0.00000 ...
   0.00000   0.00000   0.00000  -0.01020  -0.00000  -0.00000   0.00204  -0.00000  -0.00000  -0.01030  -0.00000  -0.00000 ...
   0.00000   0.00000   0.00000   0.00000   0.00000  -0.00000  -0.00000  -0.00000  -0.00000  -0.00000  -0.00000  -0.00000 ...
   0.00000   0.00000  -0.00000   0.00000  -0.00204   0.00000  -0.00000   0.00041  -0.00000  -0.00000  -0.00207  -0.00000 ...
   0.00000   0.00000   0.00000   0.00204   0.00000   0.00000  -0.00041  -0.00000  -0.00000   0.00207  -0.00000  -0.00000 ...
   0.00000   0.00000   0.00000   0.00000   0.00000   0.00000   0.00000   0.00000  -0.00000  -0.00000  -0.00000  -0.00000 ...
  -0.00000  -0.00000   0.00000   0.00000   0.01030   0.00000   0.00000  -0.00207   0.00000  -0.00000   0.01053  -0.00000 ...
   0.00000   0.00000   0.00000  -0.01030   0.00000   0.00000   0.00207   0.00000   0.00000  -0.01053  -0.00000  -0.00000 ...
   0.00000   0.00000   0.00000   0.00000   0.00000   0.00000   0.00000   0.00000   0.00000   0.00000   0.00000  -0.00000 ...
   ...  only 12  components have been written...
 Atom #  1 - Component dwn-up
   === REAL PART:
   0.00000   0.00000   0.00000   0.00000   0.00000   0.00000   0.00000   0.00000  -0.00000   0.00000   0.00000   0.00000 ...
   0.00000   0.00000   0.00000   0.00000   0.00000  -0.00000   0.00000   0.00000  -0.00000   0.00000   0.00000   0.00000 ...
   0.00000   0.00000   0.00000   0.00000   0.00000   0.00000   0.00000   0.00000   0.00000   0.00000   0.00000  -0.00000 ...
   0.00000   0.00000   0.00000   0.00000   0.00000   0.00000   0.00000   0.00000   0.00000   0.00000   0.00000   0.00000 ...
   0.00000   0.00000   0.00000   0.00000   0.00000  -0.01020   0.00000   0.00000   0.00204   0.00000   0.00000  -0.01030 ...
   0.00000  -0.00000   0.00000   0.00000   0.01020   0.00000   0.00000  -0.00204   0.00000   0.00000   0.01030   0.00000 ...
   0.00000   0.00000   0.00000   0.00000   0.00000   0.00000   0.00000   0.00000   0.00000   0.00000   0.00000   0.00000 ...
   0.00000   0.00000   0.00000   0.00000   0.00000   0.00204   0.00000   0.00000  -0.00041   0.00000   0.00000   0.00207 ...
  -0.00000  -0.00000   0.00000   0.00000  -0.00204   0.00000   0.00000   0.00041   0.00000   0.00000  -0.00207   0.00000 ...
   0.00000   0.00000   0.00000   0.00000   0.00000   0.00000   0.00000   0.00000   0.00000   0.00000   0.00000   0.00000 ...
   0.00000   0.00000   0.00000   0.00000   0.00000  -0.01030   0.00000   0.00000   0.00207   0.00000   0.00000  -0.01053 ...
   0.00000   0.00000  -0.00000   0.00000   0.01030   0.00000   0.00000  -0.00207   0.00000   0.00000   0.01053   0.00000 ...
   ...  only 12  components have been written...
   === IMAGINARY PART:
  -0.00000  -0.00000  -0.00000   0.00000  -0.00000  -0.00000  -0.00000  -0.00000  -0.00000   0.00000  -0.00000  -0.00000 ...
   0.00000  -0.00000  -0.00000  -0.00000  -0.00000  -0.00000  -0.00000  -0.00000  -0.00000   0.00000  -0.00000  -0.00000 ...
   0.00000   0.00000  -0.00000   0.00000  -0.00000  -0.00000   0.00000  -0.00000  -0.00000  -0.00000  -0.00000  -0.00000 ...
   0.00000  -0.00000   0.00000  -0.00000   0.01020  -0.00000  -0.00000  -0.00204  -0.00000  -0.00000   0.01030  -0.00000 ...
   0.00000   0.00000   0.00000  -0.01020  -0.00000  -0.00000   0.00204  -0.00000  -0.00000  -0.01030  -0.00000  -0.00000 ...
   0.00000   0.00000   0.00000   0.00000   0.00000  -0.00000  -0.00000  -0.00000  -0.00000  -0.00000  -0.00000  -0.00000 ...
  -0.00000  -0.00000   0.00000   0.00000  -0.00204   0.00000  -0.00000   0.00041  -0.00000  -0.00000  -0.00207  -0.00000 ...
   0.00000   0.00000   0.00000   0.00204   0.00000   0.00000  -0.00041  -0.00000  -0.00000   0.00207  -0.00000  -0.00000 ...
   0.00000   0.00000   0.00000   0.00000   0.00000   0.00000   0.00000   0.00000  -0.00000  -0.00000  -0.00000  -0.00000 ...
   0.00000   0.00000  -0.00000   0.00000   0.01030   0.00000   0.00000  -0.00207   0.00000  -0.00000   0.01053  -0.00000 ...
   0.00000   0.00000   0.00000  -0.01030   0.00000   0.00000   0.00207   0.00000   0.00000  -0.01053  -0.00000  -0.00000 ...
   0.00000   0.00000   0.00000   0.00000   0.00000   0.00000   0.00000   0.00000   0.00000   0.00000   0.00000  -0.00000 ...
   ...  only 12  components have been written...
 Atom #  5 - Component up-up
   === REAL PART:
   0.11366   0.03776   0.00000  -0.00000   0.00000   0.00000  -0.00000   0.00000
   0.03776   0.05448   0.00000   0.00000   0.00000   0.00000  -0.00000   0.00000
   0.00000   0.00000  -0.81714   0.00000   0.00000   0.07715   0.00000   0.00000
  -0.00000   0.00000   0.00000  -0.81865   0.00000   0.00000   0.07607   0.00000
   0.00000   0.00000   0.00000   0.00000  -0.81714   0.00000   0.00000   0.07715
   0.00000   0.00000   0.07715   0.00000   0.00000  -1.26476   0.00000   0.00000
  -0.00000  -0.00000   0.00000   0.07607   0.00000   0.00000  -1.26609   0.00000
   0.00000   0.00000   0.00000   0.00000   0.07715   0.00000   0.00000  -1.26476
   === IMAGINARY PART:
  -0.00000  -0.00000  -0.00000  -0.00000  -0.00000  -0.00000  -0.00000  -0.00000
   0.00000  -0.00000  -0.00000  -0.00000  -0.00000  -0.00000  -0.00000  -0.00000
   0.00000   0.00000  -0.00000  -0.00000  -0.00046  -0.00000  -0.00000   0.00039
   0.00000   0.00000   0.00000  -0.00000  -0.00000  -0.00000  -0.00000  -0.00000
   0.00000   0.00000   0.00046   0.00000  -0.00000  -0.00039  -0.00000  -0.00000
   0.00000   0.00000   0.00000   0.00000   0.00039  -0.00000  -0.00000  -0.00056
   0.00000   0.00000   0.00000   0.00000   0.00000   0.00000  -0.00000  -0.00000
   0.00000   0.00000  -0.00039   0.00000   0.00000   0.00056   0.00000  -0.00000
 Atom #  5 - Component dwn-dwn
   === REAL PART:
   0.11366   0.03776   0.00000   0.00000   0.00000   0.00000   0.00000   0.00000
   0.03776   0.05448   0.00000  -0.00000   0.00000   0.00000   0.00000   0.00000
   0.00000   0.00000  -0.81714   0.00000   0.00000   0.07715   0.00000   0.00000
   0.00000  -0.00000   0.00000  -0.81865   0.00000   0.00000   0.07607   0.00000
   0.00000   0.00000   0.00000   0.00000  -0.81714   0.00000   0.00000   0.07715
   0.00000   0.00000   0.07715   0.00000   0.00000  -1.26476   0.00000   0.00000
   0.00000   0.00000   0.00000   0.07607   0.00000   0.00000  -1.26609   0.00000
   0.00000   0.00000   0.00000   0.00000   0.07715   0.00000   0.00000  -1.26476
   === IMAGINARY PART:
  -0.00000  -0.00000  -0.00000  -0.00000  -0.00000  -0.00000  -0.00000  -0.00000
   0.00000  -0.00000  -0.00000  -0.00000  -0.00000  -0.00000  -0.00000  -0.00000
   0.00000   0.00000  -0.00000  -0.00000   0.00046  -0.00000  -0.00000  -0.00039
   0.00000   0.00000   0.00000  -0.00000  -0.00000  -0.00000  -0.00000  -0.00000
   0.00000   0.00000  -0.00046   0.00000  -0.00000   0.00039  -0.00000  -0.00000
   0.00000   0.00000   0.00000   0.00000  -0.00039  -0.00000  -0.00000   0.00056
   0.00000   0.00000   0.00000   0.00000   0.00000   0.00000  -0.00000  -0.00000
   0.00000   0.00000   0.00039   0.00000   0.00000  -0.00056   0.00000  -0.00000
 Atom #  5 - Component up-dwn
   === REAL PART:
   0.00000   0.00000   0.00000   0.00000   0.00000   0.00000   0.00000   0.00000
   0.00000   0.00000   0.00000   0.00000  -0.00000   0.00000   0.00000   0.00000
   0.00000   0.00000   0.00000   0.00000   0.00000   0.00000   0.00000   0.00000
   0.00000   0.00000   0.00000   0.00000   0.00046   0.00000   0.00000  -0.00039
   0.00000  -0.00000   0.00000  -0.00046   0.00000   0.00000   0.00039   0.00000
   0.00000   0.00000   0.00000   0.00000   0.00000   0.00000   0.00000   0.00000
   0.00000   0.00000   0.00000   0.00000  -0.00039   0.00000   0.00000   0.00056
   0.00000   0.00000   0.00000   0.00039   0.00000   0.00000  -0.00056   0.00000
   === IMAGINARY PART:
  -0.00000  -0.00000  -0.00000  -0.00000  -0.00000  -0.00000  -0.00000  -0.00000
   0.00000  -0.00000   0.00000  -0.00000  -0.00000  -0.00000  -0.00000  -0.00000
  -0.00000   0.00000  -0.00000   0.00046  -0.00000  -0.00000  -0.00039  -0.00000
   0.00000   0.00000  -0.00046  -0.00000   0.00000   0.00039  -0.00000   0.00000
   0.00000   0.00000   0.00000   0.00000  -0.00000  -0.00000   0.00000  -0.00000
  -0.00000  -0.00000   0.00000  -0.00039   0.00000  -0.00000   0.00056  -0.00000
   0.00000   0.00000   0.00039   0.00000   0.00000  -0.00056  -0.00000   0.00000
   0.00000   0.00000   0.00000   0.00000   0.00000   0.00000   0.00000  -0.00000
 Atom #  5 - Component dwn-up
   === REAL PART:
   0.00000   0.00000   0.00000   0.00000   0.00000   0.00000   0.00000   0.00000
   0.00000   0.00000   0.00000   0.00000  -0.00000   0.00000   0.00000   0.00000
   0.00000   0.00000   0.00000   0.00000   0.00000   0.00000   0.00000   0.00000
   0.00000   0.00000   0.00000   0.00000  -0.00046   0.00000   0.00000   0.00039
   0.00000  -0.00000   0.00000   0.00046   0.00000   0.00000  -0.00039   0.00000
   0.00000   0.00000   0.00000   0.00000   0.00000   0.00000   0.00000   0.00000
   0.00000   0.00000   0.00000   0.00000   0.00039   0.00000   0.00000  -0.00056
   0.00000   0.00000   0.00000  -0.00039   0.00000   0.00000   0.00056   0.00000
   === IMAGINARY PART:
  -0.00000  -0.00000   0.00000  -0.00000  -0.00000   0.00000  -0.00000  -0.00000
   0.00000  -0.00000  -0.00000  -0.00000  -0.00000   0.00000  -0.00000  -0.00000
   0.00000  -0.00000  -0.00000   0.00046  -0.00000  -0.00000  -0.00039  -0.00000
   0.00000   0.00000  -0.00046  -0.00000  -0.00000   0.00039  -0.00000  -0.00000
   0.00000   0.00000   0.00000  -0.00000  -0.00000  -0.00000  -0.00000  -0.00000
   0.00000   0.00000   0.00000  -0.00039   0.00000  -0.00000   0.00056  -0.00000
   0.00000   0.00000   0.00039   0.00000  -0.00000  -0.00056  -0.00000  -0.00000
   0.00000   0.00000   0.00000  -0.00000   0.00000   0.00000  -0.00000  -0.00000


 Augmentation waves occupancies Rhoij:
 Atom #  1 - Component dens (n)
   === REAL PART:
   1.98845  -0.11798  -0.00372   0.00000   0.00000   0.00000   0.00000  -0.00000   0.00000   0.00000   0.00000   0.00000 ...
  -0.11798   2.48787   0.02504   0.00000   0.00000   0.00000   0.00000  -0.00000   0.00000   0.00000  -0.00000   0.00000 ...
  -0.00372   0.02504   0.00058   0.00000  -0.00000   0.00000   0.00000   0.00000   0.00000   0.00000   0.00000   0.00000 ...
   0.00000   0.00000   0.00000   1.97627   0.00000   0.00000   0.26150   0.00000   0.00000  -0.14391   0.00000   0.00000 ...
   0.00000   0.00000  -0.00000   0.00000   1.97627   0.00000   0.00000   0.26150   0.00000   0.00000  -0.14391   0.00000 ...
   0.00000   0.00000   0.00000   0.00000   0.00000   1.97627   0.00000   0.00000   0.26150   0.00000   0.00000  -0.14391 ...
   0.00000   0.00000   0.00000   0.26150   0.00000   0.00000   4.11892   0.00000   0.00000   0.00253   0.00000   0.00000 ...
  -0.00000  -0.00000   0.00000   0.00000   0.26150   0.00000   0.00000   4.11892   0.00000   0.00000   0.00253   0.00000 ...
   0.00000   0.00000   0.00000   0.00000   0.00000   0.26150   0.00000   0.00000   4.11892   0.00000   0.00000   0.00253 ...
   0.00000   0.00000   0.00000  -0.14391   0.00000   0.00000   0.00253   0.00000   0.00000   0.01257   0.00000   0.00000 ...
   0.00000  -0.00000   0.00000   0.00000  -0.14391   0.00000   0.00000   0.00253   0.00000   0.00000   0.01257   0.00000 ...
   0.00000   0.00000   0.00000   0.00000   0.00000  -0.14391   0.00000   0.00000   0.00253   0.00000   0.00000   0.01257 ...
   ...  only 12  components have been written...
   === IMAGINARY PART:
   0.00000   0.00000  -0.00000  -0.00000   0.00000  -0.00000  -0.00000   0.00000  -0.00000  -0.00000   0.00000  -0.00000 ...
  -0.00000  -0.00000   0.00000  -0.00000   0.00000  -0.00000  -0.00000   0.00000  -0.00000  -0.00000  -0.00000  -0.00000 ...
   0.00000  -0.00000   0.00000  -0.00000   0.00000  -0.00000  -0.00000   0.00000  -0.00000  -0.00000  -0.00000  -0.00000 ...
   0.00000   0.00000   0.00000  -0.00000  -0.00000  -0.00000   0.00000  -0.00000  -0.00000  -0.00000  -0.00000   0.00000 ...
  -0.00000  -0.00000  -0.00000   0.00000  -0.00000  -0.00000  -0.00000   0.00000  -0.00000  -0.00000  -0.00000  -0.00000 ...
   0.00000   0.00000   0.00000   0.00000   0.00000  -0.00000   0.00000  -0.00000   0.00000  -0.00000  -0.00000  -0.00000 ...
   0.00000   0.00000   0.00000  -0.00000   0.00000  -0.00000   0.00000  -0.00000   0.00000   0.00000  -0.00000  -0.00000 ...
  -0.00000  -0.00000  -0.00000   0.00000  -0.00000   0.00000   0.00000   0.00000  -0.00000  -0.00000   0.00000  -0.00000 ...
   0.00000   0.00000   0.00000   0.00000   0.00000  -0.00000  -0.00000   0.00000   0.00000   0.00000  -0.00000   0.00000 ...
   0.00000   0.00000   0.00000   0.00000   0.00000   0.00000  -0.00000   0.00000  -0.00000   0.00000  -0.00000  -0.00000 ...
  -0.00000   0.00000   0.00000   0.00000   0.00000   0.00000   0.00000  -0.00000   0.00000   0.00000   0.00000  -0.00000 ...
   0.00000   0.00000   0.00000  -0.00000   0.00000   0.00000   0.00000   0.00000  -0.00000   0.00000   0.00000   0.00000 ...
   ...  only 12  components have been written...
 Atom #  1 - Component magn (x)
   === REAL PART:
   0.00000  -0.00000   0.00000   0.00000  -0.00000  -0.00000  -0.00000  -0.00000  -0.00000  -0.00000   0.00000   0.00000 ...
  -0.00000  -0.00000  -0.00000   0.00000  -0.00000  -0.00000  -0.00000   0.00000  -0.00005  -0.00000   0.00000   0.00000 ...
   0.00000  -0.00000  -0.00000   0.00000  -0.00000   0.00000   0.00000  -0.00000   0.00000   0.00000  -0.00000  -0.00000 ...
   0.00000   0.00000   0.00000  -0.00000  -0.00000   0.00000   0.00000  -0.00000   0.00000   0.00000   0.00000   0.00000 ...
  -0.00000  -0.00000  -0.00000  -0.00000  -0.00000   0.00000   0.00000  -0.00000   0.00000  -0.00000  -0.00000  -0.00000 ...
  -0.00000  -0.00000   0.00000   0.00000   0.00000   0.00000   0.00000   0.00000  -0.00000   0.00000  -0.00000  -0.00000 ...
  -0.00000  -0.00000   0.00000   0.00000   0.00000   0.00000   0.00000   0.00000   0.00000  -0.00000   0.00000  -0.00000 ...
  -0.00000   0.00000  -0.00000  -0.00000  -0.00000   0.00000   0.00000  -0.00000  -0.00000  -0.00000   0.00000   0.00000 ...
  -0.00000  -0.00005   0.00000   0.00000   0.00000  -0.00000   0.00000  -0.00000   0.00000   0.00000  -0.00000  -0.00000 ...
  -0.00000  -0.00000   0.00000   0.00000  -0.00000   0.00000  -0.00000  -0.00000   0.00000   0.00000  -0.00000   0.00000 ...
   0.00000   0.00000  -0.00000   0.00000  -0.00000  -0.00000   0.00000   0.00000  -0.00000  -0.00000  -0.00000   0.00000 ...
   0.00000   0.00000  -0.00000   0.00000  -0.00000  -0.00000  -0.00000   0.00000  -0.00000   0.00000   0.00000  -0.00000 ...
   ...  only 12  components have been written...
   === IMAGINARY PART:
  -0.00000  -0.00000  -0.00000   0.00000  -0.00000   0.00000   0.00000  -0.00000   0.00000  -0.00000   0.00000  -0.00000 ...
   0.00000   0.00000   0.00000   0.00000   0.00000  -0.00000  -0.00000   0.00000  -0.00000   0.00000  -0.00000   0.00000 ...
   0.00000  -0.00000   0.00000  -0.00000   0.00000   0.00000   0.00000   0.00000   0.00000   0.00000  -0.00000   0.00000 ...
  -0.00000  -0.00000   0.00000   0.00000  -0.00098   0.00000   0.00000  -0.00923   0.00000   0.00000   0.00073  -0.00000 ...
   0.00000  -0.00000  -0.00000   0.00098  -0.00000  -0.00000   0.00923  -0.00000  -0.00000  -0.00073  -0.00000   0.00000 ...
  -0.00000   0.00000  -0.00000  -0.00000   0.00000   0.00000  -0.00000   0.00000  -0.00000   0.00000  -0.00000  -0.00000 ...
  -0.00000   0.00000  -0.00000  -0.00000  -0.00923   0.00000  -0.00000   0.01872   0.00000   0.00000   0.00015  -0.00000 ...
   0.00000  -0.00000  -0.00000   0.00923   0.00000  -0.00000  -0.01872   0.00000  -0.00000  -0.00015  -0.00000   0.00000 ...
  -0.00000   0.00000  -0.00000  -0.00000   0.00000   0.00000  -0.00000   0.00000  -0.00000   0.00000  -0.00000   0.00000 ...
   0.00000  -0.00000  -0.00000  -0.00000   0.00073  -0.00000  -0.00000   0.00015  -0.00000   0.00000  -0.00010   0.00000 ...
  -0.00000   0.00000   0.00000  -0.00073   0.00000   0.00000  -0.00015   0.00000   0.00000   0.00010   0.00000  -0.00000 ...
   0.00000  -0.00000  -0.00000   0.00000  -0.00000   0.00000   0.00000  -0.00000  -0.00000  -0.00000   0.00000   0.00000 ...
   ...  only 12  components have been written...
 Atom #  1 - Component magn (y)
   === REAL PART:
  -0.00000  -0.00000   0.00000  -0.00000   0.00000  -0.00000  -0.00000   0.00000   0.00000   0.00000   0.00000   0.00000 ...
  -0.00000   0.00000  -0.00000  -0.00000   0.00000  -0.00000  -0.00005   0.00000   0.00000   0.00000   0.00000   0.00000 ...
   0.00000  -0.00000  -0.00000   0.00000  -0.00000  -0.00000   0.00000  -0.00000  -0.00000  -0.00000   0.00000  -0.00000 ...
  -0.00000  -0.00000   0.00000   0.00000   0.00000  -0.00000  -0.00000   0.00000  -0.00000  -0.00000  -0.00000  -0.00000 ...
   0.00000   0.00000  -0.00000   0.00000  -0.00000   0.00000   0.00000   0.00000  -0.00000  -0.00000   0.00000   0.00000 ...
  -0.00000  -0.00000  -0.00000  -0.00000   0.00000   0.00000  -0.00000   0.00000  -0.00000   0.00000  -0.00000  -0.00000 ...
  -0.00000  -0.00005   0.00000  -0.00000   0.00000  -0.00000   0.00000  -0.00000   0.00000  -0.00000   0.00000  -0.00000 ...
   0.00000   0.00000  -0.00000   0.00000   0.00000   0.00000  -0.00000   0.00000  -0.00000   0.00000   0.00000   0.00000 ...
   0.00000   0.00000  -0.00000  -0.00000  -0.00000  -0.00000   0.00000  -0.00000  -0.00000   0.00000  -0.00000  -0.00000 ...
   0.00000   0.00000  -0.00000  -0.00000  -0.00000   0.00000  -0.00000   0.00000   0.00000   0.00000   0.00000  -0.00000 ...
   0.00000   0.00000   0.00000  -0.00000   0.00000  -0.00000   0.00000   0.00000  -0.00000   0.00000   0.00000  -0.00000 ...
   0.00000   0.00000  -0.00000  -0.00000   0.00000  -0.00000  -0.00000   0.00000  -0.00000  -0.00000  -0.00000  -0.00000 ...
   ...  only 12  components have been written...
   === IMAGINARY PART:
  -0.00000   0.00000  -0.00000   0.00000  -0.00000  -0.00000   0.00000  -0.00000  -0.00000  -0.00000   0.00000   0.00000 ...
  -0.00000  -0.00000   0.00000  -0.00000   0.00000  -0.00000  -0.00000  -0.00000   0.00000   0.00000  -0.00000  -0.00000 ...
   0.00000  -0.00000  -0.00000   0.00000   0.00000   0.00000   0.00000   0.00000  -0.00000   0.00000   0.00000  -0.00000 ...
  -0.00000   0.00000  -0.00000   0.00000  -0.00000   0.00000   0.00000   0.00000   0.00000  -0.00000   0.00000  -0.00000 ...
   0.00000  -0.00000  -0.00000   0.00000   0.00000  -0.00098   0.00000   0.00000  -0.00923  -0.00000   0.00000   0.00073 ...
   0.00000   0.00000  -0.00000  -0.00000   0.00098  -0.00000  -0.00000   0.00923  -0.00000   0.00000  -0.00073  -0.00000 ...
  -0.00000   0.00000  -0.00000  -0.00000  -0.00000   0.00000   0.00000  -0.00000  -0.00000  -0.00000   0.00000   0.00000 ...
   0.00000   0.00000  -0.00000  -0.00000  -0.00000  -0.00923   0.00000  -0.00000   0.01872  -0.00000   0.00000   0.00015 ...
   0.00000  -0.00000   0.00000  -0.00000   0.00923   0.00000   0.00000  -0.01872   0.00000   0.00000  -0.00015  -0.00000 ...
   0.00000  -0.00000  -0.00000   0.00000   0.00000  -0.00000   0.00000   0.00000  -0.00000   0.00000  -0.00000   0.00000 ...
  -0.00000   0.00000  -0.00000  -0.00000  -0.00000   0.00073  -0.00000  -0.00000   0.00015   0.00000   0.00000  -0.00010 ...
  -0.00000   0.00000   0.00000   0.00000  -0.00073   0.00000  -0.00000  -0.00015   0.00000  -0.00000   0.00010  -0.00000 ...
   ...  only 12  components have been written...
 Atom #  1 - Component magn (z)
   === REAL PART:
  -0.00000  -0.00000   0.00000  -0.00000  -0.00000   0.00000  -0.00000  -0.00000   0.00000  -0.00000   0.00000  -0.00000 ...
  -0.00000   0.00000  -0.00000  -0.00000  -0.00000   0.00000  -0.00000  -0.00005  -0.00000  -0.00000   0.00000  -0.00000 ...
   0.00000  -0.00000  -0.00000   0.00000   0.00000   0.00000   0.00000   0.00000   0.00000  -0.00000  -0.00000   0.00000 ...
  -0.00000  -0.00000   0.00000   0.00000  -0.00000   0.00000  -0.00000   0.00000   0.00000  -0.00000   0.00000  -0.00000 ...
  -0.00000  -0.00000   0.00000  -0.00000   0.00000   0.00000  -0.00000   0.00000   0.00000  -0.00000  -0.00000   0.00000 ...
   0.00000   0.00000   0.00000   0.00000   0.00000  -0.00000  -0.00000   0.00000  -0.00000   0.00000   0.00000  -0.00000 ...
  -0.00000  -0.00000   0.00000  -0.00000  -0.00000  -0.00000   0.00000   0.00000  -0.00000   0.00000   0.00000  -0.00000 ...
  -0.00000  -0.00005   0.00000   0.00000   0.00000   0.00000   0.00000  -0.00000   0.00000   0.00000  -0.00000  -0.00000 ...
   0.00000  -0.00000   0.00000   0.00000   0.00000  -0.00000  -0.00000   0.00000   0.00000   0.00000   0.00000   0.00000 ...
  -0.00000  -0.00000  -0.00000  -0.00000  -0.00000   0.00000   0.00000   0.00000   0.00000  -0.00000   0.00000  -0.00000 ...
   0.00000   0.00000  -0.00000   0.00000  -0.00000   0.00000   0.00000  -0.00000   0.00000   0.00000   0.00000  -0.00000 ...
  -0.00000  -0.00000   0.00000  -0.00000   0.00000  -0.00000  -0.00000  -0.00000   0.00000  -0.00000  -0.00000  -0.00000 ...
   ...  only 12  components have been written...
   === IMAGINARY PART:
  -0.00000  -0.00000  -0.00000  -0.00000   0.00000  -0.00000   0.00000   0.00000  -0.00000  -0.00000  -0.00000   0.00000 ...
   0.00000   0.00000   0.00000   0.00000  -0.00000   0.00000   0.00000  -0.00000   0.00000  -0.00000   0.00000  -0.00000 ...
   0.00000  -0.00000   0.00000  -0.00000   0.00000  -0.00000   0.00000   0.00000   0.00000   0.00000   0.00000   0.00000 ...
   0.00000  -0.00000   0.00000  -0.00000  -0.00000   0.00098  -0.00000  -0.00000   0.00923   0.00000   0.00000  -0.00073 ...
  -0.00000   0.00000  -0.00000   0.00000   0.00000  -0.00000  -0.00000   0.00000  -0.00000  -0.00000  -0.00000   0.00000 ...
   0.00000  -0.00000   0.00000  -0.00098   0.00000   0.00000  -0.00923   0.00000   0.00000   0.00073  -0.00000   0.00000 ...
  -0.00000  -0.00000  -0.00000   0.00000   0.00000   0.00923   0.00000  -0.00000  -0.01872  -0.00000   0.00000  -0.00015 ...
  -0.00000   0.00000  -0.00000   0.00000  -0.00000  -0.00000   0.00000   0.00000   0.00000  -0.00000  -0.00000  -0.00000 ...
   0.00000  -0.00000  -0.00000  -0.00923   0.00000  -0.00000   0.01872  -0.00000  -0.00000   0.00015  -0.00000   0.00000 ...
   0.00000   0.00000  -0.00000  -0.00000   0.00000  -0.00073   0.00000   0.00000  -0.00015   0.00000  -0.00000   0.00010 ...
   0.00000  -0.00000  -0.00000  -0.00000   0.00000   0.00000  -0.00000   0.00000   0.00000   0.00000  -0.00000  -0.00000 ...
  -0.00000   0.00000  -0.00000   0.00073  -0.00000  -0.00000   0.00015   0.00000  -0.00000  -0.00010   0.00000   0.00000 ...
   ...  only 12  components have been written...
 Atom #  5 - Component dens (n)
   === REAL PART:
   1.65809   0.11095   0.00000   0.00000   0.00000   0.00000   0.00000   0.00000
   0.11095   0.00814   0.00000  -0.00000   0.00000   0.00000  -0.00000   0.00000
   0.00000   0.00000   0.49476   0.00000   0.00000   0.13012   0.00000   0.00000
   0.00000  -0.00000   0.00000   0.52340   0.00000   0.00000   0.13736   0.00000
   0.00000   0.00000   0.00000   0.00000   0.49476   0.00000   0.00000   0.13012
   0.00000   0.00000   0.13012   0.00000   0.00000   0.03430   0.00000   0.00000
   0.00000  -0.00000   0.00000   0.13736   0.00000   0.00000   0.03629   0.00000
   0.00000   0.00000   0.00000   0.00000   0.13012   0.00000   0.00000   0.03430
   === IMAGINARY PART:
  -0.00000  -0.00000  -0.00000   0.00000  -0.00000  -0.00000   0.00000  -0.00000
   0.00000  -0.00000  -0.00000  -0.00000  -0.00000  -0.00000  -0.00000  -0.00000
   0.00000   0.00000  -0.00000  -0.00000   0.00000  -0.00000  -0.00000   0.00000
  -0.00000   0.00000   0.00000  -0.00000  -0.00000  -0.00000  -0.00000  -0.00000
   0.00000   0.00000  -0.00000   0.00000  -0.00000  -0.00000  -0.00000  -0.00000
   0.00000   0.00000   0.00000   0.00000   0.00000   0.00000  -0.00000   0.00000
  -0.00000   0.00000   0.00000   0.00000   0.00000   0.00000   0.00000  -0.00000
   0.00000   0.00000  -0.00000   0.00000   0.00000  -0.00000   0.00000   0.00000
 Atom #  5 - Component magn (x)
   === REAL PART:
   0.00000   0.00000  -0.00000  -0.00000   0.00000  -0.00000  -0.00000   0.00000
   0.00000  -0.00000   0.00000  -0.00000  -0.00000   0.00000  -0.00000  -0.00000
  -0.00000   0.00000   0.00000  -0.00000   0.00000  -0.00000  -0.00000  -0.00000
  -0.00000  -0.00000  -0.00000  -0.00000   0.00000  -0.00000  -0.00000   0.00000
   0.00000  -0.00000   0.00000   0.00000   0.00000  -0.00000   0.00000   0.00000
  -0.00000   0.00000  -0.00000  -0.00000  -0.00000   0.00000  -0.00000   0.00000
  -0.00000  -0.00000  -0.00000  -0.00000   0.00000  -0.00000  -0.00000   0.00000
   0.00000  -0.00000  -0.00000   0.00000   0.00000   0.00000   0.00000  -0.00000
   === IMAGINARY PART:
  -0.00000  -0.00000   0.00000  -0.00000  -0.00000   0.00000  -0.00000  -0.00000
   0.00000   0.00000  -0.00000   0.00000   0.00000  -0.00000   0.00000   0.00000
  -0.00000   0.00000  -0.00000   0.00023   0.00000   0.00000   0.00005  -0.00000
   0.00000  -0.00000  -0.00023   0.00000  -0.00000  -0.00005   0.00000  -0.00000
   0.00000  -0.00000  -0.00000   0.00000  -0.00000   0.00000  -0.00000  -0.00000
  -0.00000   0.00000  -0.00000   0.00005  -0.00000   0.00000   0.00001  -0.00000
   0.00000  -0.00000  -0.00005  -0.00000   0.00000  -0.00001   0.00000   0.00000
   0.00000  -0.00000   0.00000   0.00000   0.00000   0.00000  -0.00000  -0.00000
 Atom #  5 - Component magn (y)
   === REAL PART:
  -0.00000   0.00000   0.00000   0.00000   0.00000   0.00000   0.00000   0.00000
   0.00000   0.00000  -0.00000   0.00000  -0.00000  -0.00000   0.00000  -0.00000
   0.00000  -0.00000  -0.00000   0.00000   0.00000  -0.00000   0.00000  -0.00000
   0.00000   0.00000   0.00000   0.00000   0.00000   0.00000   0.00000   0.00000
   0.00000  -0.00000   0.00000   0.00000  -0.00000  -0.00000   0.00000  -0.00000
   0.00000  -0.00000  -0.00000   0.00000  -0.00000   0.00000   0.00000   0.00000
   0.00000   0.00000   0.00000   0.00000   0.00000   0.00000   0.00000   0.00000
   0.00000  -0.00000  -0.00000   0.00000  -0.00000   0.00000   0.00000   0.00000
   === IMAGINARY PART:
   0.00000   0.00000  -0.00000   0.00000  -0.00000  -0.00000  -0.00000  -0.00000
  -0.00000  -0.00000   0.00000   0.00000   0.00000   0.00000   0.00000   0.00000
   0.00000  -0.00000   0.00000  -0.00000  -0.00000   0.00000  -0.00000   0.00000
  -0.00000  -0.00000   0.00000   0.00000   0.00023   0.00000   0.00000   0.00005
   0.00000  -0.00000   0.00000  -0.00023   0.00000  -0.00000  -0.00005   0.00000
   0.00000  -0.00000  -0.00000  -0.00000   0.00000   0.00000  -0.00000  -0.00000
   0.00000  -0.00000   0.00000  -0.00000   0.00005   0.00000   0.00000   0.00001
   0.00000  -0.00000  -0.00000  -0.00005  -0.00000   0.00000  -0.00001  -0.00000
 Atom #  5 - Component magn (z)
   === REAL PART:
  -0.00000  -0.00000  -0.00000  -0.00000  -0.00000   0.00000  -0.00000   0.00000
  -0.00000   0.00000   0.00000   0.00000  -0.00000   0.00000   0.00000  -0.00000
  -0.00000   0.00000  -0.00000  -0.00000  -0.00000  -0.00000  -0.00000   0.00000
  -0.00000   0.00000  -0.00000   0.00000   0.00000  -0.00000   0.00000  -0.00000
  -0.00000  -0.00000  -0.00000   0.00000  -0.00000  -0.00000   0.00000  -0.00000
   0.00000   0.00000  -0.00000  -0.00000  -0.00000  -0.00000  -0.00000  -0.00000
  -0.00000   0.00000  -0.00000   0.00000   0.00000  -0.00000   0.00000   0.00000
   0.00000  -0.00000   0.00000  -0.00000  -0.00000  -0.00000   0.00000  -0.00000
   === IMAGINARY PART:
  -0.00000  -0.00000   0.00000   0.00000   0.00000  -0.00000   0.00000  -0.00000
   0.00000  -0.00000  -0.00000  -0.00000  -0.00000  -0.00000  -0.00000  -0.00000
  -0.00000   0.00000   0.00000   0.00000  -0.00020   0.00000  -0.00000  -0.00005
  -0.00000   0.00000  -0.00000   0.00000   0.00000  -0.00000  -0.00000   0.00000
  -0.00000   0.00000   0.00020  -0.00000  -0.00000   0.00005   0.00000   0.00000
   0.00000   0.00000  -0.00000   0.00000  -0.00005  -0.00000   0.00000  -0.00001
  -0.00000   0.00000   0.00000   0.00000  -0.00000  -0.00000   0.00000   0.00000
   0.00000   0.00000   0.00005  -0.00000  -0.00000   0.00001  -0.00000   0.00000


================================================================================

 ----iterations are completed or convergence reached----

 Mean square residual over all n,k,spin=   13.021E-08; max=  20.678E-06
   0.5000  0.0000  0.0000    1  1.41787E-04 kpt; spin; max resid(k); each band:
  5.85E-08 3.88E-08 1.60E-08 1.60E-08 1.59E-08 1.59E-08 1.15E-08 7.07E-09
  6.06E-09 6.60E-09 2.44E-08 2.10E-08 1.53E-08 1.37E-08 2.51E-11 2.52E-11
  6.48E-09 6.12E-09 1.88E-09 1.88E-09 1.44E-08 1.36E-08 5.95E-08 5.95E-08
  5.88E-08 5.92E-08 3.02E-08 1.96E-08 1.00E-07 8.62E-08 1.66E-09 1.66E-09
  1.99E-09 1.99E-09 1.92E-08 1.87E-08 1.92E-08 1.86E-08 3.88E-08 3.85E-08
  3.97E-11 4.02E-11 5.95E-11 5.75E-11 1.13E-08 1.28E-08 2.78E-08 3.44E-08
  6.66E-10 2.17E-09 7.79E-10 1.60E-09 3.37E-10 4.59E-10 5.51E-08 5.91E-08
  3.84E-08 4.26E-08 1.59E-06 6.78E-06 2.74E-06 1.03E-04 1.42E-04 1.01E-04
  -0.2500  0.2500  0.2500    1  1.09748E-07 kpt; spin; max resid(k); each band:
  5.65E-08 5.66E-08 1.16E-08 1.16E-08 1.10E-08 1.10E-08 2.18E-08 2.18E-08
  3.38E-09 3.38E-09 2.75E-08 2.79E-08 7.44E-09 7.44E-09 7.49E-09 7.49E-09
  1.39E-08 1.40E-08 1.65E-08 1.65E-08 1.30E-08 1.29E-08 7.12E-08 7.12E-08
  3.40E-08 3.39E-08 2.54E-08 2.54E-08 2.62E-08 2.61E-08 3.53E-08 3.53E-08
  3.56E-08 3.53E-08 3.05E-11 3.01E-11 1.17E-08 1.17E-08 1.18E-08 1.17E-08
  4.26E-08 4.25E-08 3.12E-08 3.12E-08 3.12E-08 3.12E-08 4.44E-09 4.43E-09
  4.37E-09 4.37E-09 4.20E-08 4.21E-08 2.88E-08 2.88E-08 2.86E-08 2.86E-08
  1.10E-07 1.09E-07 4.75E-08 4.76E-08 4.64E-08 4.70E-08 4.76E-08 6.76E-08
   0.5000  0.5000  0.0000    1  2.06785E-05 kpt; spin; max resid(k); each band:
  3.20E-08 3.24E-08 2.25E-08 2.25E-08 2.23E-08 2.24E-08 1.78E-08 1.78E-08
  1.57E-09 1.58E-09 9.48E-09 9.36E-09 2.47E-08 2.47E-08 2.48E-08 2.46E-08
  1.60E-08 1.60E-08 1.95E-08 1.96E-08 2.26E-09 2.26E-09 8.03E-08 7.98E-08
  8.10E-09 8.34E-09 4.66E-08 4.64E-08 1.99E-08 2.01E-08 1.99E-08 2.01E-08
  2.70E-08 2.70E-08 2.79E-08 2.80E-08 7.43E-09 7.43E-09 1.45E-08 1.46E-08
  8.48E-09 8.52E-09 8.21E-10 8.38E-10 2.44E-08 2.51E-08 2.45E-08 2.66E-08
  1.26E-08 1.29E-08 1.68E-08 1.68E-08 1.02E-08 1.19E-08 7.70E-08 7.73E-08
  7.43E-08 7.52E-08 3.17E-06 2.07E-05 2.48E-06 1.14E-05 8.34E-06 1.16E-05
   0.0000  0.0000  0.0000    1  1.42729E-07 kpt; spin; max resid(k); each band:
  8.02E-08 8.01E-08 1.39E-08 1.39E-08 1.40E-08 1.40E-08 1.40E-08 1.40E-08
  2.99E-09 2.99E-09 1.45E-09 1.45E-09 1.45E-09 1.45E-09 3.04E-08 3.05E-08
  2.04E-08 2.04E-08 2.25E-08 2.25E-08 2.25E-08 2.25E-08 3.74E-08 3.74E-08
  3.77E-08 3.77E-08 3.77E-08 3.77E-08 3.43E-11 3.43E-11 3.43E-11 3.43E-11
  2.02E-11 2.02E-11 1.81E-08 1.80E-08 1.89E-08 1.89E-08 1.89E-08 1.89E-08
  1.33E-08 1.33E-08 1.33E-08 1.34E-08 6.41E-08 6.39E-08 2.14E-08 2.14E-08
  2.14E-08 2.14E-08 3.28E-08 3.28E-08 3.28E-08 3.28E-08 3.26E-08 3.26E-08
  1.43E-07 1.43E-07 2.97E-08 2.97E-08 2.98E-08 2.98E-08 2.97E-08 2.97E-08
   0.5000  0.5000  0.5000    1  1.74228E-05 kpt; spin; max resid(k); each band:
  3.34E-08 3.32E-08 1.52E-08 2.68E-08 1.13E-08 1.14E-08 1.71E-08 2.88E-08
  2.57E-09 2.56E-09 1.94E-08 1.80E-08 1.84E-08 1.89E-08 1.89E-08 2.02E-08
  2.29E-08 2.29E-08 2.64E-08 2.64E-08 2.64E-08 2.64E-08 8.87E-08 8.86E-08
  1.82E-08 1.82E-08 2.12E-08 2.12E-08 2.12E-08 2.13E-08 2.58E-09 2.58E-09
  2.57E-09 2.58E-09 1.28E-11 1.30E-11 5.28E-12 5.29E-12 5.57E-12 5.86E-12
  3.42E-08 3.71E-08 3.26E-08 3.26E-08 3.38E-08 3.67E-08 1.95E-09 1.95E-09
  1.95E-09 1.94E-09 1.98E-09 2.25E-09 8.61E-11 2.21E-10 2.66E-10 4.04E-10
  4.70E-09 4.94E-09 4.80E-09 5.56E-09 4.62E-09 4.60E-09 1.74E-05 1.50E-05
 reduced coordinates (array xred) for    5 atoms
       0.000000000000      0.000000000000      0.000000000000
       0.500000000000      0.500000000000      0.500000000000
       0.500000000000      0.000000000000      0.000000000000
       0.000000000000      0.500000000000      0.000000000000
       0.000000000000      0.000000000000      0.500000000000
 rms dE/dt=  0.0000E+00; max dE/dt=  0.0000E+00; dE/dt below (all hartree)
    1       0.000000000000      0.000000000000      0.000000000000
    2       0.000000000000      0.000000000000      0.000000000000
    3       0.000000000000      0.000000000000      0.000000000000
    4       0.000000000000      0.000000000000      0.000000000000
    5       0.000000000000      0.000000000000      0.000000000000

 cartesian coordinates (angstrom) at end:
    1      0.00000000000000     0.00000000000000     0.00000000000000
    2      1.92104556148385     1.92104556148385     1.92104556148385
    3      1.92104556148385     0.00000000000000     0.00000000000000
    4      0.00000000000000     1.92104556148385     0.00000000000000
    5      0.00000000000000     0.00000000000000     1.92104556148385

 cartesian forces (hartree/bohr) at end:
    1     -0.00000000000000    -0.00000000000000    -0.00000000000000
    2     -0.00000000000000    -0.00000000000000    -0.00000000000000
    3     -0.00000000000000    -0.00000000000000    -0.00000000000000
    4     -0.00000000000000    -0.00000000000000    -0.00000000000000
    5     -0.00000000000000    -0.00000000000000    -0.00000000000000
 frms,max,avg= 0.0000000E+00 0.0000000E+00   0.000E+00  0.000E+00  0.000E+00 h/b

 cartesian forces (eV/Angstrom) at end:
    1     -0.00000000000000    -0.00000000000000    -0.00000000000000
    2     -0.00000000000000    -0.00000000000000    -0.00000000000000
    3     -0.00000000000000    -0.00000000000000    -0.00000000000000
    4     -0.00000000000000    -0.00000000000000    -0.00000000000000
    5     -0.00000000000000    -0.00000000000000    -0.00000000000000
 frms,max,avg= 0.0000000E+00 0.0000000E+00   0.000E+00  0.000E+00  0.000E+00 e/A
 length scales=  7.260500000000  7.260500000000  7.260500000000 bohr
              =  3.842091122968  3.842091122968  3.842091122968 angstroms
 prteigrs : about to open file t108_MPI4o_DS1_EIG
 Fermi (or HOMO) energy (hartree) =   0.44376   Average Vxc (hartree)=  -0.46464
 Eigenvalues (hartree) for nkpt=   5  k points:
 kpt#   1, nband= 64, wtk=  0.18750, kpt=  0.5000  0.0000  0.0000 (reduced coord)
  -2.63031   -2.63031   -1.53607   -1.53607   -1.51517   -1.51517   -1.48132   -1.48132
  -0.95011   -0.95011   -0.69952   -0.69952   -0.65477   -0.65477   -0.62403   -0.62403
  -0.20595   -0.20595   -0.17962   -0.17962   -0.17886   -0.17886    0.12960    0.12960
   0.13116    0.13116    0.16288    0.16288    0.17018    0.17018    0.21144    0.21144
   0.21256    0.21256    0.22774    0.22774    0.22811    0.22811    0.25332    0.25332
   0.41189    0.41189    0.43792    0.43792    0.49103    0.49103    0.62456    0.62456
   0.63060    0.63060    0.63104    0.63104    0.63184    0.63184    0.65558    0.65558
   0.71231    0.71231    0.80760    0.80774    0.80801    0.80855    0.83405    0.84268
      occupation numbers for kpt#   1
   1.00000    1.00000    1.00000    1.00000    1.00000    1.00000    1.00000    1.00000
   1.00000    1.00000    1.00000    1.00000    1.00000    1.00000    1.00000    1.00000
   1.00000    1.00000    1.00000    1.00000    1.00000    1.00000    1.00000    1.00000
   1.00000    1.00000    1.00000    1.00000    1.00000    1.00000    1.00000    1.00000
   1.00000    1.00000    1.00000    1.00000    1.00000    1.00000    1.00000    1.00000
   0.99977    0.99977    0.82292    0.82292    0.00000    0.00000    0.00000    0.00000
   0.00000    0.00000    0.00000    0.00000    0.00000    0.00000    0.00000    0.00000
   0.00000    0.00000    0.00000    0.00000    0.00000    0.00000    0.00000    0.00000
 kpt#   2, nband= 64, wtk=  0.50000, kpt= -0.2500  0.2500  0.2500 (reduced coord)
  -2.62469   -2.62469   -1.47287   -1.47287   -1.45403   -1.45403   -1.41892   -1.41892
  -0.94535   -0.94535   -0.65857   -0.65857   -0.62738   -0.62738   -0.62720   -0.62720
  -0.19480   -0.19480   -0.17414   -0.17414   -0.16330   -0.16330    0.06863    0.06863
   0.18139    0.18139    0.20408    0.20408    0.20627    0.20627    0.24410    0.24410
   0.24481    0.24481    0.31225    0.31225    0.32454    0.32454    0.32521    0.32521
   0.57594    0.57594    0.60235    0.60235    0.60279    0.60279    0.63027    0.63027
   0.63084    0.63084    0.64252    0.64252    0.70341    0.70341    0.70348    0.70348
   0.74621    0.74621    0.80683    0.80683    0.80694    0.80694    0.84417    0.84417
      occupation numbers for kpt#   2
   1.00000    1.00000    1.00000    1.00000    1.00000    1.00000    1.00000    1.00000
   1.00000    1.00000    1.00000    1.00000    1.00000    1.00000    1.00000    1.00000
   1.00000    1.00000    1.00000    1.00000    1.00000    1.00000    1.00000    1.00000
   1.00000    1.00000    1.00000    1.00000    1.00000    1.00000    1.00000    1.00000
   1.00000    1.00000    1.00000    1.00000    1.00000    1.00000    1.00000    1.00000
   0.00000    0.00000    0.00000    0.00000    0.00000    0.00000    0.00000    0.00000
   0.00000    0.00000    0.00000    0.00000    0.00000    0.00000    0.00000    0.00000
   0.00000    0.00000    0.00000    0.00000    0.00000    0.00000    0.00000    0.00000
 kpt#   3, nband= 64, wtk=  0.18750, kpt=  0.5000  0.5000  0.0000 (reduced coord)
  -2.63258   -2.63258   -1.54715   -1.54715   -1.52516   -1.52516   -1.50583   -1.50583
  -0.95310   -0.95310   -0.65838   -0.65838   -0.65700   -0.65700   -0.65666   -0.65666
  -0.21653   -0.21653   -0.19520   -0.19520   -0.17583   -0.17583    0.06456    0.06456
   0.12918    0.12918    0.15013    0.15013    0.18162    0.18162    0.18163    0.18163
   0.24033    0.24033    0.24200    0.24200    0.31143    0.31143    0.32965    0.32965
   0.44954    0.44954    0.48151    0.48151    0.50119    0.50119    0.50157    0.50157
   0.52700    0.52700    0.64456    0.64456    0.67825    0.67825    0.72789    0.72789
   0.72933    0.72933    0.78121    0.78125    0.79200    0.79205    0.79245    0.79247
      occupation numbers for kpt#   3
   1.00000    1.00000    1.00000    1.00000    1.00000    1.00000    1.00000    1.00000
   1.00000    1.00000    1.00000    1.00000    1.00000    1.00000    1.00000    1.00000
   1.00000    1.00000    1.00000    1.00000    1.00000    1.00000    1.00000    1.00000
   1.00000    1.00000    1.00000    1.00000    1.00000    1.00000    1.00000    1.00000
   1.00000    1.00000    1.00000    1.00000    1.00000    1.00000    1.00000    1.00000
   0.17951    0.17951    0.00005    0.00005    0.00000    0.00000    0.00000    0.00000
   0.00000    0.00000    0.00000    0.00000    0.00000    0.00000    0.00000    0.00000
   0.00000    0.00000    0.00000    0.00000    0.00000    0.00000    0.00000    0.00000
 kpt#   4, nband= 64, wtk=  0.06250, kpt=  0.0000  0.0000  0.0000 (reduced coord)
  -2.63011   -2.63011   -1.51888   -1.51888   -1.49270   -1.49270   -1.49270   -1.49270
  -0.95120   -0.95120   -0.66621   -0.66621   -0.66621   -0.66621   -0.65415   -0.65415
  -0.21061   -0.21061   -0.18522   -0.18522   -0.18522   -0.18522    0.10507    0.10507
   0.10860    0.10860    0.10860    0.10860    0.22849    0.22849    0.22849    0.22849
   0.22865    0.22865    0.40618    0.40618    0.40794    0.40794    0.40794    0.40794
   0.42239    0.42239    0.42239    0.42239    0.47177    0.47177    0.51971    0.51971
   0.51971    0.51971    0.53524    0.53524    0.53524    0.53524    0.53554    0.53554
   0.66840    0.66840    0.69103    0.69103    0.69103    0.69103    0.69189    0.69189
      occupation numbers for kpt#   4
   1.00000    1.00000    1.00000    1.00000    1.00000    1.00000    1.00000    1.00000
   1.00000    1.00000    1.00000    1.00000    1.00000    1.00000    1.00000    1.00000
   1.00000    1.00000    1.00000    1.00000    1.00000    1.00000    1.00000    1.00000
   1.00000    1.00000    1.00000    1.00000    1.00000    1.00000    1.00000    1.00000
   1.00000    1.00000    0.99995    0.99995    0.99992    0.99992    0.99992    0.99992
   0.99640    0.99640    0.99640    0.99640    0.00063    0.00063    0.00000    0.00000
   0.00000    0.00000    0.00000    0.00000    0.00000    0.00000    0.00000    0.00000
   0.00000    0.00000    0.00000    0.00000    0.00000    0.00000    0.00000    0.00000
 kpt#   5, nband= 64, wtk=  0.06250, kpt=  0.5000  0.5000  0.5000 (reduced coord)
  -2.62645   -2.62645   -1.47232   -1.47232   -1.44834   -1.44834   -1.44834   -1.44834
  -0.94644   -0.94644   -0.64211   -0.64211   -0.64160   -0.64160   -0.64160   -0.64160
  -0.20839   -0.20839   -0.18576   -0.18576   -0.18576   -0.18576    0.01214    0.01214
   0.19720    0.19720    0.20193    0.20193    0.20193    0.20193    0.34938    0.34938
   0.34938    0.34938    0.37948    0.37948    0.37962    0.37962    0.37962    0.37962
   0.53902    0.53902    0.53998    0.53998    0.53998    0.53998    0.64062    0.64062
   0.64062    0.64062    0.67383    0.67383    0.74244    0.74244    0.74244    0.74244
   0.74731    0.74731    0.74731    0.74731    0.74764    0.74764    0.89485    0.89720
      occupation numbers for kpt#   5
   1.00000    1.00000    1.00000    1.00000    1.00000    1.00000    1.00000    1.00000
   1.00000    1.00000    1.00000    1.00000    1.00000    1.00000    1.00000    1.00000
   1.00000    1.00000    1.00000    1.00000    1.00000    1.00000    1.00000    1.00000
   1.00000    1.00000    1.00000    1.00000    1.00000    1.00000    1.00000    1.00000
   1.00000    1.00000    1.00000    1.00000    1.00000    1.00000    1.00000    1.00000
   0.00000    0.00000    0.00000    0.00000    0.00000    0.00000    0.00000    0.00000
   0.00000    0.00000    0.00000    0.00000    0.00000    0.00000    0.00000    0.00000
   0.00000    0.00000    0.00000    0.00000    0.00000    0.00000    0.00000    0.00000
 Total charge density [el/Bohr^3]
)     Maximum=    1.2698E+00  at reduced coord.    0.0000    0.0000    0.0000
)Next maximum=    1.1724E+00  at reduced coord.    0.0000    0.0000    0.9500
)     Minimum=    1.0277E-02  at reduced coord.    0.4500    0.4500    0.0000
)Next minimum=    1.0277E-02  at reduced coord.    0.5500    0.4500    0.0000
   Integrated=    4.0998E+01
 x component of magnetization [el/Bohr^3]
)     Maximum=    2.2817E-06  at reduced coord.    0.7500    0.0000    0.0000
)Next maximum=    2.2723E-06  at reduced coord.    0.7500    0.0000    0.9500
)     Minimum=   -2.2817E-06  at reduced coord.    0.2500    0.0000    0.0000
)Next minimum=   -2.2723E-06  at reduced coord.    0.2500    0.0500    0.0000
   Integrated=    0.0000E+00
 y component of magnetization [el/Bohr^3]
)     Maximum=    2.2817E-06  at reduced coord.    0.0000    0.7500    0.0000
)Next maximum=    2.2723E-06  at reduced coord.    0.0000    0.7500    0.9500
)     Minimum=   -2.2817E-06  at reduced coord.    0.0000    0.2500    0.0000
)Next minimum=   -2.2723E-06  at reduced coord.    0.0500    0.2500    0.0000
   Integrated=    0.0000E+00
 z component of magnetization [el/Bohr^3]
)     Maximum=    2.2817E-06  at reduced coord.    0.0000    0.0000    0.7500
)Next maximum=    2.2723E-06  at reduced coord.    0.0000    0.9500    0.7500
)     Minimum=   -2.2817E-06  at reduced coord.    0.0000    0.0000    0.2500
)Next minimum=   -2.2723E-06  at reduced coord.    0.0500    0.0000    0.2500
   Integrated=    0.0000E+00
 Magnetization (absolute value) [el/Bohr^3]
)     Maximum=    2.4319E-06  at reduced coord.    0.0000    0.7500    0.9000
)Next maximum=    2.4319E-06  at reduced coord.    0.0000    0.2500    0.9000
)     Minimum=    0.0000E+00  at reduced coord.    0.0000    0.0000    0.0000
)Next minimum=    0.0000E+00  at reduced coord.    0.1000    0.0000    0.0000
   Integrated=    4.2524E-04
 Relative magnetization (=zeta, between -1 and 1)
)     Maximum=    7.5038E-05  at reduced coord.    0.8000    0.8000    0.8000
)Next maximum=    7.5038E-05  at reduced coord.    0.2000    0.8000    0.8000
)     Minimum=    0.0000E+00  at reduced coord.    0.0000    0.0000    0.0000
)Next minimum=    0.0000E+00  at reduced coord.    0.1000    0.0000    0.0000

--- !EnergyTerms
iteration_state     : {dtset: 1, }
comment             : Components of total free energy in Hartree
kinetic             :  3.84522150638963E+01
hartree             :  2.20589788808487E+01
xc                  : -2.06845099121275E+01
Ewald energy        : -1.14220316979058E+02
psp_core            :  6.53692522600457E+00
local_psp           : -7.86198145012676E+01
spherical_terms     :  3.25328463532336E+00
internal            : -1.43223237586380E+02
'-kT*entropy'       : -1.36620096650964E-03
total_energy        : -1.43224603787346E+02
total_energy_eV     : -3.89733967185389E+03
...


--- !EnergyTermsDC
iteration_state     : {dtset: 1, }
comment             : '"Double-counting" decomposition of free energy'
band_energy         : -1.65604592051772E+01
Ewald energy        : -1.14220316979058E+02
psp_core            :  6.53692522600457E+00
xc_dc               : -1.57011469030675E+01
spherical_terms     : -3.27987212304313E+00
internal            : -1.43224869984341E+02
'-kT*entropy'       : -1.36620096650964E-03
total_energy_dc     : -1.43226236185307E+02
total_energy_dc_eV  : -3.89738409166142E+03
...


 Cartesian components of stress tensor (hartree/bohr^3)
  sigma(1 1)=  2.97527378E-02  sigma(3 2)=  0.00000000E+00
  sigma(2 2)=  2.97527378E-02  sigma(3 1)=  0.00000000E+00
  sigma(3 3)=  2.97527378E-02  sigma(2 1)=  0.00000000E+00

-Cartesian components of stress tensor (GPa)         [Pressure= -8.7536E+02 GPa]
- sigma(1 1)=  8.75355621E+02  sigma(3 2)=  0.00000000E+00
- sigma(2 2)=  8.75355621E+02  sigma(3 1)=  0.00000000E+00
- sigma(3 3)=  8.75355621E+02  sigma(2 1)=  0.00000000E+00

================================================================================
== DATASET  2 ==================================================================
-   mpi_nproc: 4, omp_nthreads: -1 (-1 if OMP is not activated)
-    --> not optimal distribution: autoparal keyword recommended in input file <--


--- !DatasetInfo
iteration_state: {dtset: 2, }
dimensions: {natom: 5, nkpt: 5, mband: 64, nsppol: 1, nspinor: 2, nspden: 4, mpw: 152, }
cutoff_energies: {ecut:   4.0, pawecutdg:   8.0, }
electrons: {nelect:   4.10000000E+01, charge:   0.00000000E+00, occopt:   3.00000000E+00, tsmear:   3.80017850E-03, }
meta: {optdriver: 0, ionmov: 0, optcell: 0, iscf: 17, paral_kgb: 0, }
...

 mkfilename : getden/=0, take file _DEN from output of DATASET   1.

 mkfilename : getself/=0, take file _Self-omega from output of DATASET   2.

 Exchange-correlation functional for the present dataset will be:
  LDA: Perdew-Wang 92 LSD fit to Ceperley-Alder data - ixc=7
 Citation for XC functional:
  J.P.Perdew and Y.Wang, PRB 45, 13244 (1992)

 Real(R)+Recip(G) space primitive vectors, cartesian coordinates (Bohr,Bohr^-1):
 R(1)=  7.2605000  0.0000000  0.0000000  G(1)=  0.1377316  0.0000000  0.0000000
 R(2)=  0.0000000  7.2605000  0.0000000  G(2)=  0.0000000  0.1377316  0.0000000
 R(3)=  0.0000000  0.0000000  7.2605000  G(3)=  0.0000000  0.0000000  0.1377316
 Unit cell volume ucvol=  3.8273624E+02 bohr^3
 Angles (23,13,12)=  9.00000000E+01  9.00000000E+01  9.00000000E+01 degrees

[...]
                       9.9999999999E+99  9.9999999999E+99  9.9999999999E+99
                       9.9999999999E+99  9.9999999999E+99  9.9999999999E+99
                       9.9999999999E+99  9.9999999999E+99  9.9999999999E+99
-          fftalg         512
           getden1          0
           getden2          1
          getself           2
           istwfk        1    0    1    1    1
              ixc           7
           jdtset        1    2
            jpawu1     0.00000000E+00  0.00000000E+00  0.00000000E+00 Hartree
            jpawu2     2.78682384E-02  0.00000000E+00  0.00000000E+00 Hartree
              kpt      5.00000000E-01  0.00000000E+00  0.00000000E+00
                      -2.50000000E-01  2.50000000E-01  2.50000000E-01
                       5.00000000E-01  5.00000000E-01  0.00000000E+00
                       0.00000000E+00  0.00000000E+00  0.00000000E+00
                       5.00000000E-01  5.00000000E-01  5.00000000E-01
           kptopt           4
         kptrlatt        2    0    2     -2    2    0     -2    0    2
          kptrlen      2.05357951E+01
          kssform           3
            lpawu1         -1      -1      -1
            lpawu2          2       1      -1
P           mkmem           2
            natom           5
            nband          64
           nbdbuf           4
           ndtset           2
            ngfft          15      15      15
          ngfftdg          20      20      20
             nkpt           5
            nline1          4
            nline2          5
           nnsclo1          0
           nnsclo2          5
           nspden           4
          nspinor           2
            nstep1         30
            nstep2          1
             nsym          24
           ntypat           3
              occ1     1.000000  1.000000  1.000000  1.000000  1.000000  1.000000
                       1.000000  1.000000  1.000000  1.000000  1.000000  1.000000
                       1.000000  1.000000  1.000000  1.000000  1.000000  1.000000
                       1.000000  1.000000  1.000000  1.000000  1.000000  1.000000
                       1.000000  1.000000  1.000000  1.000000  1.000000  1.000000
                       1.000000  1.000000  1.000000  1.000000  1.000000  1.000000
                       1.000000  1.000000  1.000000  1.000000  0.999772  0.999772
                       0.822924  0.822924  0.000004  0.000004  0.000000  0.000000
                       0.000000  0.000000  0.000000  0.000000  0.000000  0.000000
                       0.000000  0.000000  0.000000  0.000000  0.000000  0.000000
                       0.000000  0.000000  0.000000  0.000000
                       1.000000  1.000000  1.000000  1.000000  1.000000  1.000000
                       1.000000  1.000000  1.000000  1.000000  1.000000  1.000000
                       1.000000  1.000000  1.000000  1.000000  1.000000  1.000000
                       1.000000  1.000000  1.000000  1.000000  1.000000  1.000000
                       1.000000  1.000000  1.000000  1.000000  1.000000  1.000000
                       1.000000  1.000000  1.000000  1.000000  1.000000  1.000000
                       1.000000  1.000000  1.000000  1.000000  0.000000  0.000000
                       0.000000  0.000000  0.000000  0.000000  0.000000  0.000000
                       0.000000  0.000000  0.000000  0.000000  0.000000  0.000000
                       0.000000  0.000000  0.000000  0.000000  0.000000  0.000000
                       0.000000  0.000000  0.000000  0.000000
                       1.000000  1.000000  1.000000  1.000000  1.000000  1.000000
                       1.000000  1.000000  1.000000  1.000000  1.000000  1.000000
                       1.000000  1.000000  1.000000  1.000000  1.000000  1.000000
                       1.000000  1.000000  1.000000  1.000000  1.000000  1.000000
                       1.000000  1.000000  1.000000  1.000000  1.000000  1.000000
                       1.000000  1.000000  1.000000  1.000000  1.000000  1.000000
                       1.000000  1.000000  1.000000  1.000000  0.179509  0.179509
                       0.000049  0.000049  0.000000  0.000000  0.000000  0.000000
                       0.000000  0.000000  0.000000  0.000000  0.000000  0.000000
                       0.000000  0.000000  0.000000  0.000000  0.000000  0.000000
                       0.000000  0.000000  0.000000  0.000000
                       1.000000  1.000000  1.000000  1.000000  1.000000  1.000000
                       1.000000  1.000000  1.000000  1.000000  1.000000  1.000000
                       1.000000  1.000000  1.000000  1.000000  1.000000  1.000000
                       1.000000  1.000000  1.000000  1.000000  1.000000  1.000000
                       1.000000  1.000000  1.000000  1.000000  1.000000  1.000000
                       1.000000  1.000000  1.000000  1.000000  0.999949  0.999949
                       0.999920  0.999920  0.999920  0.999920  0.996405  0.996405
                       0.996405  0.996405  0.000629  0.000629  0.000000  0.000000
                       0.000000  0.000000  0.000000  0.000000  0.000000  0.000000
                       0.000000  0.000000  0.000000  0.000000  0.000000  0.000000
                       0.000000  0.000000  0.000000  0.000000
                       1.000000  1.000000  1.000000  1.000000  1.000000  1.000000
                       1.000000  1.000000  1.000000  1.000000  1.000000  1.000000
                       1.000000  1.000000  1.000000  1.000000  1.000000  1.000000
                       1.000000  1.000000  1.000000  1.000000  1.000000  1.000000
                       1.000000  1.000000  1.000000  1.000000  1.000000  1.000000
                       1.000000  1.000000  1.000000  1.000000  1.000000  1.000000
                       1.000000  1.000000  1.000000  1.000000  0.000000  0.000000
                       0.000000  0.000000  0.000000  0.000000  0.000000  0.000000
                       0.000000  0.000000  0.000000  0.000000  0.000000  0.000000
                       0.000000  0.000000  0.000000  0.000000  0.000000  0.000000
                       0.000000  0.000000  0.000000  0.000000
              occ2     1.000000  1.000000  1.000000  1.000000  1.000000  1.000000
                       1.000000  1.000000  0.999998  0.999998  0.999780  0.999811
                       0.999999  0.999999  0.999557  0.999557  0.896079  0.896134
                       0.902083  0.902083  0.907565  0.907320  1.000000  1.000000
                       1.000000  1.000000  1.000000  1.000000  0.989593  0.993354
                       0.980832  0.981471  0.979632  0.979633  1.000000  1.000000
                       1.000000  1.000000  1.000000  1.000000  0.542216  0.542216
                       0.816998  0.816998  0.479412  0.469374  0.000000  0.000000
                       0.000000  0.000000  0.000000  0.000000  0.000000  0.000000
                       0.000000  0.000000  0.000000  0.000000  0.000000  0.000000
                       0.000000  0.000000  0.000000  0.000000
                       1.000000  1.000000  1.000000  1.000000  1.000000  1.000000
                       1.000000  1.000000  0.999997  0.999997  0.999990  0.999990
                       0.999976  0.999975  0.999979  0.999979  0.901207  0.901204
                       0.909246  0.909246  0.908507  0.908506  0.999567  0.999567
                       0.995629  0.995630  0.985046  0.985037  0.984463  0.984463
                       0.995794  0.995752  0.995929  0.995929  1.000000  1.000000
                       0.972377  0.972471  0.977110  0.977110  0.049455  0.049447
                       0.046595  0.046596  0.047673  0.000000  0.000000  0.000000
                       0.000000  0.000000  0.000000  0.000000  0.000000  0.000000
                       0.000000  0.000000  0.000000  0.000000  0.000000  0.000000
                       0.000000  0.000000  0.000000  0.000000
                       1.000000  1.000000  1.000000  1.000000  1.000000  1.000000
                       1.000000  1.000000  0.999993  0.999993  0.999997  0.999998
                       0.999984  0.999984  0.999983  0.999983  0.900518  0.900518
                       0.908853  0.908853  0.902488  0.902488  0.997464  0.998142
                       0.998575  0.998575  1.000000  1.000000  0.977899  0.984544
                       0.968970  0.968970  0.983757  0.983757  0.983929  0.983929
                       0.953663  0.953663  1.000000  1.000000  0.591351  0.591351
                       0.775751  0.775751  0.746235  0.058542  0.053322  0.053322
                       0.000070  0.000070  0.000000  0.000000  0.000000  0.000000
                       0.000000  0.000000  0.000000  0.000000  0.000000  0.000000
                       0.000000  0.000000  0.000000  0.000000
                       1.000000  1.000000  1.000000  1.000000  1.000000  1.000000
                       1.000000  1.000000  0.999998  0.999998  0.999522  0.999522
                       0.999522  0.999522  0.999999  0.999999  0.900393  0.900393
                       0.908765  0.908765  0.908765  0.908765  0.994808  0.994808
                       0.994462  0.994462  0.994462  0.994462  1.000000  1.000000
                       1.000000  1.000000  1.000000  1.000000  0.987698  0.987698
                       0.988132  0.988132  0.988132  0.988132  0.554085  0.554085
                       0.554085  0.554085  0.993515  0.993515  0.000520  0.000520
                       0.000520  0.000520  0.000008  0.000008  0.000008  0.000008
                       0.000008  0.000008  0.000000  0.000000  0.000000  0.000000
                       0.000000  0.000000  0.000000  0.000000
                       1.000000  1.000000  1.000000  1.000000  1.000000  1.000000
                       1.000000  1.000000  0.999998  0.999998  1.000000  1.000000
                       1.000000  1.000000  1.000000  1.000000  0.906459  0.906459
                       0.915035  0.915035  0.915035  0.915035  1.000000  1.000000
                       0.961952  0.961952  0.963438  0.963438  0.963438  0.963438
                       0.984539  0.984539  0.984539  0.984539  1.000000  1.000000
                       1.000000  1.000000  1.000000  1.000000  0.000003  0.000003
                       0.000002  0.000002  0.000002  0.000002  0.000000  0.000000
                       0.000000  0.000000  0.000000  0.000000  0.000000  0.000000
                       0.000000  0.000000  0.000000  0.000000  0.000000  0.000000
                       0.000000  0.000000  0.000000  0.000000
           occopt           3
        optforces1          2
        optforces2          0
-      paral_atom1          1
-      paral_atom2          0
        pawcpxocc           2
        pawecutdg      8.00000000E+00 Hartree
        pawprtvol           2
        pawspnorb           1
           prtvol           4
            prtwf           0
          spgroup         207
           strten1     2.9752737819E-02  2.9752737819E-02  2.9752737819E-02
                       0.0000000000E+00  0.0000000000E+00  0.0000000000E+00
           strten2     3.4107508150E-02  3.4107508150E-02  3.4107508150E-02
                       0.0000000000E+00  0.0000000000E+00  0.0000000000E+00
           symrel      1  0  0   0  1  0   0  0  1      -1  0  0   0  1  0   0  0 -1
                      -1  0  0   0 -1  0   0  0  1       1  0  0   0 -1  0   0  0 -1
                       0 -1  0  -1  0  0   0  0 -1       0  1  0  -1  0  0   0  0  1
                       0  1  0   1  0  0   0  0 -1       0 -1  0   1  0  0   0  0  1
                       0  0  1   1  0  0   0  1  0       0  0 -1   1  0  0   0 -1  0
                       0  0 -1  -1  0  0   0  1  0       0  0  1  -1  0  0   0 -1  0
                      -1  0  0   0  0 -1   0 -1  0       1  0  0   0  0 -1   0  1  0
                       1  0  0   0  0  1   0 -1  0      -1  0  0   0  0  1   0  1  0
                       0  1  0   0  0  1   1  0  0       0 -1  0   0  0  1  -1  0  0
                       0 -1  0   0  0 -1   1  0  0       0  1  0   0  0 -1  -1  0  0
                       0  0 -1   0 -1  0  -1  0  0       0  0  1   0 -1  0   1  0  0
                       0  0  1   0  1  0  -1  0  0       0  0 -1   0  1  0   1  0  0
           tolvrs      1.00000000E-05
           tsmear      3.80017850E-03 Hartree
            typat      1  2  3  3  3
            upawu1     0.00000000E+00  0.00000000E+00  0.00000000E+00 Hartree
            upawu2     1.15147886E-01  3.67493254E-02  0.00000000E+00 Hartree
          usedmft1          0
          usedmft2          1
          usepawu1          0
          usepawu2         14
           useylm           1
              wtk        0.18750    0.50000    0.18750    0.06250    0.06250
           xangst      0.0000000000E+00  0.0000000000E+00  0.0000000000E+00
                       1.9210455615E+00  1.9210455615E+00  1.9210455615E+00
                       1.9210455615E+00  0.0000000000E+00  0.0000000000E+00
                       0.0000000000E+00  1.9210455615E+00  0.0000000000E+00
                       0.0000000000E+00  0.0000000000E+00  1.9210455615E+00
            xcart      0.0000000000E+00  0.0000000000E+00  0.0000000000E+00
                       3.6302500000E+00  3.6302500000E+00  3.6302500000E+00
                       3.6302500000E+00  0.0000000000E+00  0.0000000000E+00
                       0.0000000000E+00  3.6302500000E+00  0.0000000000E+00
                       0.0000000000E+00  0.0000000000E+00  3.6302500000E+00
             xred      0.0000000000E+00  0.0000000000E+00  0.0000000000E+00
                       5.0000000000E-01  5.0000000000E-01  5.0000000000E-01
                       5.0000000000E-01  0.0000000000E+00  0.0000000000E+00
                       0.0000000000E+00  5.0000000000E-01  0.0000000000E+00
                       0.0000000000E+00  0.0000000000E+00  5.0000000000E-01
            znucl       23.00000   38.00000    8.00000

================================================================================


- Timing analysis has been suppressed with timopt=0



================================================================================

 Suggested references for the acknowledgment of ABINIT usage.

 The users of ABINIT have little formal obligations with respect to the ABINIT group
 (those specified in the GNU General Public License, http://www.gnu.org/copyleft/gpl.txt).
 However, it is common practice in the scientific literature,
 to acknowledge the efforts of people that have made the research possible.
 In this spirit, please find below suggested citations of work written by ABINIT developers,
 corresponding to implementations inside of ABINIT that you have used in the present run.
 Note also that it will be of great value to readers of publications presenting these results,
 to read papers enabling them to understand the theoretical formalism and details
 of the ABINIT implementation.
 For information on why they are suggested, see also https://docs.abinit.org/theory/acknowledgments.
-
- [1] A self-consistent DFT + DMFT scheme in the projector augmented wave method: 
- applications to cerium, Ce2O3 and Pu2O3 with the Hubbard I solver and comparison to DFT + U,
- B. Amadon,  J. Phys.: Condens. Matter 24 075604 (2012).
- Comment : Describes the self-consistent implementation of DFT+DMFT in PAW
- DOI and bibtex: see https://docs.abinit.org/theory/bibliography/#amadon2012
-
- [2] Plane-wave based electronic structure calculations for correlated materials.
- using dynamical mean-field theory and projected local orbitals,
- B. Amadon, F. Lechermann, A. Georges, F. Jollet, T.O. Wehling, A.I. Lichenstein,
- Phys. Rev. B 77, 205112 (2008).
- Comment: to be cited in case the computation of overlap operator for Wannier90 interface within PAW is used,
- i.e. prtwant=2 and usepaw=1. The paper describes also the DFT+DMFT implementation on Wannier functions
- DOI and bibtex: see https://docs.abinit.org/theory/bibliography/#amadon2008
-
- [3] Implementation of the Projector Augmented-Wave Method in the ABINIT code.
- M. Torrent, F. Jollet, F. Bottin, G. Zerah, and X. Gonze Comput. Mat. Science 42, 337, (2008).
- Comment: PAW calculations. Strong suggestion to cite this paper.
- DOI and bibtex: see https://docs.abinit.org/theory/bibliography/#torrent2008
-
- [4] The Abinit project: Impact, environment and recent developments.
- Computer Phys. Comm. 248, 107042 (2020).
- X.Gonze, B. Amadon, G. Antonius, F.Arnardi, L.Baguet, J.-M.Beuken,
- J.Bieder, F.Bottin, J.Bouchet, E.Bousquet, N.Brouwer, F.Bruneval,
- G.Brunin, T.Cavignac, J.-B. Charraud, Wei Chen, M.Cote, S.Cottenier,
- J.Denier, G.Geneste, Ph.Ghosez, M.Giantomassi, Y.Gillet, O.Gingras,
- D.R.Hamann, G.Hautier, Xu He, N.Helbig, N.Holzwarth, Y.Jia, F.Jollet,
- W.Lafargue-Dit-Hauret, K.Lejaeghere, M.A.L.Marques, A.Martin, C.Martins,
- H.P.C. Miranda, F.Naccarato, K. Persson, G.Petretto, V.Planes, Y.Pouillon,
- S.Prokhorenko, F.Ricci, G.-M.Rignanese, A.H.Romero, M.M.Schmitt, M.Torrent,
- M.J.van Setten, B.Van Troeye, M.J.Verstraete, G.Zerah and J.W.Zwanzig
- Comment: the fifth generic paper describing the ABINIT project.
- Note that a version of this paper, that is not formatted for Computer Phys. Comm. 
- is available at https://www.abinit.org/sites/default/files/ABINIT20.pdf .
- The licence allows the authors to put it on the Web.
- DOI and bibtex: see https://docs.abinit.org/theory/bibliography/#gonze2020
-
- [5] ABINIT: Overview, and focus on selected capabilities
- J. Chem. Phys. 152, 124102 (2020).
- A. Romero, D.C. Allan, B. Amadon, G. Antonius, T. Applencourt, L.Baguet,
- J.Bieder, F.Bottin, J.Bouchet, E.Bousquet, F.Bruneval,
- G.Brunin, D.Caliste, M.Cote,
- J.Denier, C. Dreyer, Ph.Ghosez, M.Giantomassi, Y.Gillet, O.Gingras,
- D.R.Hamann, G.Hautier, F.Jollet, G. Jomard,
- A.Martin, 
- H.P.C. Miranda, F.Naccarato, G.Petretto, N.A. Pike, V.Planes,
- S.Prokhorenko, T. Rangel, F.Ricci, G.-M.Rignanese, M.Royo, M.Stengel, M.Torrent,
- M.J.van Setten, B.Van Troeye, M.J.Verstraete, J.Wiktor, J.W.Zwanziger, and X.Gonze.
- Comment: a global overview of ABINIT, with focus on selected capabilities .
- Note that a version of this paper, that is not formatted for J. Chem. Phys 
- is available at https://www.abinit.org/sites/default/files/ABINIT20_JPC.pdf .
- The licence allows the authors to put it on the Web.
- DOI and bibtex: see https://docs.abinit.org/theory/bibliography/#romero2020
-
- [6] Recent developments in the ABINIT software package.
- Computer Phys. Comm. 205, 106 (2016).
- X.Gonze, F.Jollet, F.Abreu Araujo, D.Adams, B.Amadon, T.Applencourt,
- C.Audouze, J.-M.Beuken, J.Bieder, A.Bokhanchuk, E.Bousquet, F.Bruneval
- D.Caliste, M.Cote, F.Dahm, F.Da Pieve, M.Delaveau, M.Di Gennaro,
- B.Dorado, C.Espejo, G.Geneste, L.Genovese, A.Gerossier, M.Giantomassi,
- Y.Gillet, D.R.Hamann, L.He, G.Jomard, J.Laflamme Janssen, S.Le Roux,
- A.Levitt, A.Lherbier, F.Liu, I.Lukacevic, A.Martin, C.Martins,
- M.J.T.Oliveira, S.Ponce, Y.Pouillon, T.Rangel, G.-M.Rignanese,
- A.H.Romero, B.Rousseau, O.Rubel, A.A.Shukri, M.Stankovski, M.Torrent,
- M.J.Van Setten, B.Van Troeye, M.J.Verstraete, D.Waroquier, J.Wiktor,
- B.Xu, A.Zhou, J.W.Zwanziger.
- Comment: the fourth generic paper describing the ABINIT project.
- Note that a version of this paper, that is not formatted for Computer Phys. Comm. 
- is available at https://www.abinit.org/sites/default/files/ABINIT16.pdf .
- The licence allows the authors to put it on the Web.
- DOI and bibtex: see https://docs.abinit.org/theory/bibliography/#gonze2016
-
- Proc.   0 individual time (sec): cpu=         22.6  wall=         23.6

================================================================================

 Calculation completed.
.Delivered   3 WARNINGs and   0 COMMENTs to log file.
+Overall time at end (sec) : cpu=         92.7  wall=         94.1
