
.Version 10.6.4.5 of ABINIT, released Dec 2025.
.(MPI version, prepared for a x86_64_linux_gnu14.3 computer) 

.Copyright (C) 1998-2026 ABINIT group . 
 ABINIT comes with ABSOLUTELY NO WARRANTY.
 It is free software, and you are welcome to redistribute it
 under certain conditions (GNU General Public License,
 see ~abinit/COPYING or http://www.gnu.org/copyleft/gpl.txt).

 ABINIT is a project of the Universite Catholique de Louvain,
 Corning Inc. and other collaborators, see ~abinit/doc/developers/contributors.txt .
 Please read https://docs.abinit.org/theory/acknowledgments for suggested
 acknowledgments of the ABINIT effort.
 For more information, see https://www.abinit.org .

.Starting date : Wed  4 Mar 2026.
- ( at 16h58 )
  
- input  file    -> /opt/ABINIT/atlas_gnu_14.2_triqs/baguetl_fix-nhat-fft/tests/TestBot_MPI8_OMP1/paral_t111_MPI8/t111.abi
- output file    -> t111_MPI8.abo
- root for input  files -> t111_MPI8i
- root for output files -> t111_MPI8o

 DATASET    1 : space group P1 (#  1); Bravais aP (primitive triclinic)
================================================================================
 Values of the parameters that define the memory need for DATASET  1.
     intxc =       0    ionmov =       0      iscf =      17    lmnmax =      18
     lnmax =       6     mgfft =      20  mpssoang =       3    mqgrid =    3001
     natom =       1  nloc_mem =       2    nspden =       2   nspinor =       1
    nsppol =       2      nsym =       1    n1xccc =       1    ntypat =       1
    occopt =       3   xclevel =       1
-    mband =          20        mffmem =           1         mkmem =          16
       mpw =         352          nfft =        8000          nkpt =          64
 PAW method is used; the additional fine FFT grid is defined by:
   mgfftf=        32    nfftf =     32768
================================================================================
P This job should need less than                      18.468 Mbytes of memory.
  Rough estimation (10% accuracy) of disk space for files :
_ WF disk file :     13.752 Mbytes ; DEN or POT disk file :      0.502 Mbytes.
================================================================================

 DATASET    2 : space group P1 (#  1); Bravais aP (primitive triclinic)
================================================================================
 Values of the parameters that define the memory need for DATASET  2.
     intxc =       0    ionmov =       0      iscf =      17    lmnmax =      18
     lnmax =       6     mgfft =      20  mpssoang =       3    mqgrid =    3001
     natom =       1  nloc_mem =       2    nspden =       2   nspinor =       1
    nsppol =       2      nsym =       1    n1xccc =       1    ntypat =       1
    occopt =       3   xclevel =       1
-    mband =          20        mffmem =           1         mkmem =          16
       mpw =         352          nfft =        8000          nkpt =          64
 PAW method is used; the additional fine FFT grid is defined by:
   mgfftf=        32    nfftf =     32768
================================================================================
P This job should need less than                      18.468 Mbytes of memory.
  Rough estimation (10% accuracy) of disk space for files :
_ WF disk file :     13.752 Mbytes ; DEN or POT disk file :      0.502 Mbytes.
================================================================================

 DATASET    3 : space group P1 (#  1); Bravais aP (primitive triclinic)
================================================================================
 Values of the parameters that define the memory need for DATASET  3.
     intxc =       0    ionmov =       0      iscf =      17    lmnmax =      18
     lnmax =       6     mgfft =      20  mpssoang =       3    mqgrid =    3001
     natom =       1  nloc_mem =       2    nspden =       2   nspinor =       1
    nsppol =       2      nsym =       1    n1xccc =       1    ntypat =       1
    occopt =       3   xclevel =       1
-    mband =          20        mffmem =           1         mkmem =          16
       mpw =         352          nfft =        8000          nkpt =          64
 PAW method is used; the additional fine FFT grid is defined by:
   mgfftf=        32    nfftf =     32768
================================================================================
P This job should need less than                      18.468 Mbytes of memory.
  Rough estimation (10% accuracy) of disk space for files :
_ WF disk file :     13.752 Mbytes ; DEN or POT disk file :      0.502 Mbytes.
================================================================================

 DATASET    4 : space group P1 (#  1); Bravais aP (primitive triclinic)
================================================================================
 Values of the parameters that define the memory need for DATASET  4.
     intxc =       0    ionmov =       0      iscf =      17    lmnmax =      18
     lnmax =       6     mgfft =      20  mpssoang =       3    mqgrid =    3001
     natom =       1  nloc_mem =       2    nspden =       2   nspinor =       1
    nsppol =       2      nsym =       1    n1xccc =       1    ntypat =       1
    occopt =       3   xclevel =       1
-    mband =          20        mffmem =           1         mkmem =          16
       mpw =         352          nfft =        8000          nkpt =          64
 PAW method is used; the additional fine FFT grid is defined by:
   mgfftf=        32    nfftf =     32768
================================================================================
P This job should need less than                      18.468 Mbytes of memory.
  Rough estimation (10% accuracy) of disk space for files :
_ WF disk file :     13.752 Mbytes ; DEN or POT disk file :      0.502 Mbytes.
================================================================================

--------------------------------------------------------------------------------
------------- Echo of variables that govern the present computation ------------
--------------------------------------------------------------------------------
-
- outvars: echo of selected default values
-   iomode0 =  0 , fftalg0 =512 , wfoptalg0 = 10
-
- outvars: echo of global parameters not present in the input file
-  max_nthreads =    0
-
 -outvars: echo values of preprocessed input variables --------
            acell      5.4476100000E+00  5.4476100000E+00  5.4476100000E+00 Bohr
              amu      5.58470000E+01
        dmftbandf1          0
        dmftbandf2         13
        dmftbandf3         13
        dmftbandf4         13
        dmftbandi1          0
        dmftbandi2          5
        dmftbandi3          5
        dmftbandi4          5
          dmft_dc1          1
          dmft_dc2          2
          dmft_dc3          2
          dmft_dc4          2
        dmft_iter1         10
        dmft_iter2          1
        dmft_iter3          1
        dmft_iter4          1
        dmft_mxsf1     6.0000000000E-01
        dmft_mxsf2     7.0000000000E-01
        dmft_mxsf3     7.0000000000E-01
        dmft_mxsf4     7.0000000000E-01
   dmft_shiftself1     0.0000000000E+00
   dmft_shiftself2     1.0000000000E-01
   dmft_shiftself3     1.0000000000E-01
   dmft_shiftself4     1.0000000000E-01
        dmft_solv1          5
        dmft_solv2          7
        dmft_solv3          7
        dmft_solv4          7
 dmft_triqs_basis1         -1
 dmft_triqs_basis2          1
 dmft_triqs_basis3          2
 dmft_triqs_basis4          3
 dmft_triqs_dlr_e1    -1.0000000000E+00
 dmft_triqs_dlr_e2     1.0000000000E-02
 dmft_triqs_dlr_e3     1.0000000000E-02
 dmft_triqs_dlr_e4     1.0000000000E-02
 dmft_triqs_dlr_w1    -1.0000000000E+00
 dmft_triqs_dlr_w2     1.0000000000E+00
 dmft_triqs_dlr_w3     1.0000000000E+00
 dmft_triqs_dlr_w4     1.0000000000E+00
 dmft_triqs_lengt1          0
 dmft_triqs_lengt2         10
 dmft_triqs_lengt3         10
 dmft_triqs_lengt4         10
 dmft_triqs_n_cyc1          0
 dmft_triqs_n_cyc2      12500
 dmft_triqs_n_cyc3      12500
 dmft_triqs_n_cyc4      12500
  dmft_triqs_n_iw1          0
  dmft_triqs_n_iw2       1000
  dmft_triqs_n_iw3       1000
  dmft_triqs_n_iw4       1000
 dmft_triqs_n_tau1          0
 dmft_triqs_n_tau2        500
 dmft_triqs_n_tau3        500
 dmft_triqs_n_tau4        500
 dmft_triqs_n_wai1         -1
 dmft_triqs_n_wai2       1000
 dmft_triqs_n_wai3       1000
 dmft_triqs_n_wai4       1000
 dmft_triqs_n_war1         -1
 dmft_triqs_n_war2          0
 dmft_triqs_n_war3          0
 dmft_triqs_n_war4          0
 dmft_triqs_off_d1         -1
 dmft_triqs_off_d2          1
 dmft_triqs_off_d3          1
 dmft_triqs_off_d4          1
             ecut      2.00000000E+01 Hartree
-          fftalg         512
           getden1          0
           getden2          1
           getden3          1
           getden4          1
              ixc           7
           jdtset        1    2    3    4
            jpawu1     0.00000000E+00 Hartree
            jpawu2     3.08694306E-02 Hartree
            jpawu3     3.08694306E-02 Hartree
            jpawu4     3.08694306E-02 Hartree
              kpt     -6.25000000E-02 -6.25000000E-02  1.87500000E-01
                      -6.25000000E-02 -6.25000000E-02  4.37500000E-01
                      -6.25000000E-02 -6.25000000E-02 -3.12500000E-01
                      -6.25000000E-02 -6.25000000E-02 -6.25000000E-02
                      -1.87500000E-01 -1.87500000E-01  6.25000000E-02
                      -6.25000000E-02 -3.12500000E-01  1.87500000E-01
                      -3.12500000E-01 -6.25000000E-02  1.87500000E-01
                      -1.87500000E-01 -1.87500000E-01  3.12500000E-01
                      -6.25000000E-02 -3.12500000E-01  4.37500000E-01
                      -3.12500000E-01 -6.25000000E-02  4.37500000E-01
                      -1.87500000E-01 -1.87500000E-01 -4.37500000E-01
                      -6.25000000E-02 -3.12500000E-01 -3.12500000E-01
                      -3.12500000E-01 -6.25000000E-02 -3.12500000E-01
                      -1.87500000E-01 -1.87500000E-01 -1.87500000E-01
                      -6.25000000E-02 -3.12500000E-01 -6.25000000E-02
                      -3.12500000E-01 -6.25000000E-02 -6.25000000E-02
                      -1.87500000E-01 -4.37500000E-01  6.25000000E-02
                      -6.25000000E-02  4.37500000E-01  1.87500000E-01
                      -4.37500000E-01 -1.87500000E-01  6.25000000E-02
                      -3.12500000E-01 -3.12500000E-01  1.87500000E-01
                      -1.87500000E-01 -4.37500000E-01  3.12500000E-01
                      -6.25000000E-02  4.37500000E-01  4.37500000E-01
                       4.37500000E-01 -6.25000000E-02  1.87500000E-01
                      -4.37500000E-01 -1.87500000E-01  3.12500000E-01
                      -3.12500000E-01 -3.12500000E-01  4.37500000E-01
                      -1.87500000E-01 -4.37500000E-01 -4.37500000E-01
                      -6.25000000E-02  4.37500000E-01 -3.12500000E-01
                       4.37500000E-01 -6.25000000E-02  4.37500000E-01
                      -4.37500000E-01 -1.87500000E-01 -4.37500000E-01
                      -3.12500000E-01 -3.12500000E-01 -3.12500000E-01
                      -1.87500000E-01 -4.37500000E-01 -1.87500000E-01
                      -6.25000000E-02  4.37500000E-01 -6.25000000E-02
                       4.37500000E-01 -6.25000000E-02 -3.12500000E-01
                      -4.37500000E-01 -1.87500000E-01 -1.87500000E-01
                      -3.12500000E-01 -3.12500000E-01 -6.25000000E-02
                       4.37500000E-01 -6.25000000E-02 -6.25000000E-02
                      -1.87500000E-01  3.12500000E-01  6.25000000E-02
                      -6.25000000E-02  1.87500000E-01  1.87500000E-01
                      -4.37500000E-01 -4.37500000E-01  6.25000000E-02
                      -3.12500000E-01  4.37500000E-01  1.87500000E-01
                      -1.87500000E-01  3.12500000E-01  3.12500000E-01
                      -6.25000000E-02  1.87500000E-01  4.37500000E-01
                       3.12500000E-01 -1.87500000E-01  6.25000000E-02
                       4.37500000E-01 -3.12500000E-01  1.87500000E-01
                      -4.37500000E-01 -4.37500000E-01  3.12500000E-01
                      -3.12500000E-01  4.37500000E-01  4.37500000E-01
                      -1.87500000E-01  3.12500000E-01 -4.37500000E-01
                      -6.25000000E-02  1.87500000E-01 -3.12500000E-01
                       1.87500000E-01 -6.25000000E-02  1.87500000E-01
                       3.12500000E-01 -1.87500000E-01  3.12500000E-01
                       4.37500000E-01 -3.12500000E-01  4.37500000E-01
                      -4.37500000E-01 -4.37500000E-01 -4.37500000E-01
                      -3.12500000E-01  4.37500000E-01 -3.12500000E-01
                      -1.87500000E-01  3.12500000E-01 -1.87500000E-01
                      -6.25000000E-02  1.87500000E-01 -6.25000000E-02
                       1.87500000E-01 -6.25000000E-02  4.37500000E-01
                       3.12500000E-01 -1.87500000E-01 -4.37500000E-01
                       4.37500000E-01 -3.12500000E-01 -3.12500000E-01
                      -4.37500000E-01 -4.37500000E-01 -1.87500000E-01
                      -3.12500000E-01  4.37500000E-01 -6.25000000E-02
                       1.87500000E-01 -6.25000000E-02 -3.12500000E-01
                       3.12500000E-01 -1.87500000E-01 -1.87500000E-01
                       4.37500000E-01 -3.12500000E-01 -6.25000000E-02
                       1.87500000E-01 -6.25000000E-02 -6.25000000E-02
         kptrlatt        4    0    4      0    4    4     -4   -4    0
          kptrlen      2.17904400E+01
            lpawu           2
P           mkmem          16
            natom           1
            nband          20
           ndtset           4
            ngfft          20      20      20
          ngfftdg          32      32      32
             nkpt          64
            nline           5
           nnsclo1          0
           nnsclo2         10
           nnsclo3         10
           nnsclo4         10
           nspden           2
           nsppol           2
            nstep1         30
            nstep2          1
            nstep3          1
            nstep4          1
             nsym           1
           ntypat           1
              occ      1.000000  1.000000  1.000000  1.000000  1.000000  1.000000
                       1.000000  1.000000  0.000000  0.000000  0.000000  0.000000
                       0.000000  0.000000  0.000000  0.000000  0.000000  0.000000
                       0.000000  0.000000
                       1.000000  1.000000  1.000000  1.000000  1.000000  1.000000
                       1.000000  1.000000  0.000000  0.000000  0.000000  0.000000
                       0.000000  0.000000  0.000000  0.000000  0.000000  0.000000
                       0.000000  0.000000
                       1.000000  1.000000  1.000000  1.000000  1.000000  1.000000
                       1.000000  1.000000  0.000000  0.000000  0.000000  0.000000
                       0.000000  0.000000  0.000000  0.000000  0.000000  0.000000
                       0.000000  0.000000
                       1.000000  1.000000  1.000000  1.000000  1.000000  1.000000
                       1.000000  1.000000  0.000000  0.000000  0.000000  0.000000
                       0.000000  0.000000  0.000000  0.000000  0.000000  0.000000
                       0.000000  0.000000
                       1.000000  1.000000  1.000000  1.000000  1.000000  1.000000
                       1.000000  1.000000  0.000000  0.000000  0.000000  0.000000
                       0.000000  0.000000  0.000000  0.000000  0.000000  0.000000
                       0.000000  0.000000
                       1.000000  1.000000  1.000000  1.000000  1.000000  1.000000
                       1.000000  1.000000  0.000000  0.000000  0.000000  0.000000
                       0.000000  0.000000  0.000000  0.000000  0.000000  0.000000
                       0.000000  0.000000
                       1.000000  1.000000  1.000000  1.000000  1.000000  1.000000
                       1.000000  1.000000  0.000000  0.000000  0.000000  0.000000
                       0.000000  0.000000  0.000000  0.000000  0.000000  0.000000
                       0.000000  0.000000
                       1.000000  1.000000  1.000000  1.000000  1.000000  1.000000
                       1.000000  1.000000  0.000000  0.000000  0.000000  0.000000
                       0.000000  0.000000  0.000000  0.000000  0.000000  0.000000
                       0.000000  0.000000
                       1.000000  1.000000  1.000000  1.000000  1.000000  1.000000
                       1.000000  1.000000  0.000000  0.000000  0.000000  0.000000
                       0.000000  0.000000  0.000000  0.000000  0.000000  0.000000
                       0.000000  0.000000
                       1.000000  1.000000  1.000000  1.000000  1.000000  1.000000
                       1.000000  1.000000  0.000000  0.000000  0.000000  0.000000
                       0.000000  0.000000  0.000000  0.000000  0.000000  0.000000
                       0.000000  0.000000
                       1.000000  1.000000  1.000000  1.000000  1.000000  1.000000
                       1.000000  1.000000  0.000000  0.000000  0.000000  0.000000
                       0.000000  0.000000  0.000000  0.000000  0.000000  0.000000
                       0.000000  0.000000
                       1.000000  1.000000  1.000000  1.000000  1.000000  1.000000
                       1.000000  1.000000  0.000000  0.000000  0.000000  0.000000
                       0.000000  0.000000  0.000000  0.000000  0.000000  0.000000
                       0.000000  0.000000
                       1.000000  1.000000  1.000000  1.000000  1.000000  1.000000
                       1.000000  1.000000  0.000000  0.000000  0.000000  0.000000
                       0.000000  0.000000  0.000000  0.000000  0.000000  0.000000
                       0.000000  0.000000
                       1.000000  1.000000  1.000000  1.000000  1.000000  1.000000
                       1.000000  1.000000  0.000000  0.000000  0.000000  0.000000
                       0.000000  0.000000  0.000000  0.000000  0.000000  0.000000
                       0.000000  0.000000
                       1.000000  1.000000  1.000000  1.000000  1.000000  1.000000
                       1.000000  1.000000  0.000000  0.000000  0.000000  0.000000
                       0.000000  0.000000  0.000000  0.000000  0.000000  0.000000
                       0.000000  0.000000
                       1.000000  1.000000  1.000000  1.000000  1.000000  1.000000
                       1.000000  1.000000  0.000000  0.000000  0.000000  0.000000
                       0.000000  0.000000  0.000000  0.000000  0.000000  0.000000
                       0.000000  0.000000
                       1.000000  1.000000  1.000000  1.000000  1.000000  1.000000
                       1.000000  1.000000  0.000000  0.000000  0.000000  0.000000
                       0.000000  0.000000  0.000000  0.000000  0.000000  0.000000
                       0.000000  0.000000
                       1.000000  1.000000  1.000000  1.000000  1.000000  1.000000
                       1.000000  1.000000  0.000000  0.000000  0.000000  0.000000
                       0.000000  0.000000  0.000000  0.000000  0.000000  0.000000
                       0.000000  0.000000
                       1.000000  1.000000  1.000000  1.000000  1.000000  1.000000
                       1.000000  1.000000  0.000000  0.000000  0.000000  0.000000
                       0.000000  0.000000  0.000000  0.000000  0.000000  0.000000
                       0.000000  0.000000
                       1.000000  1.000000  1.000000  1.000000  1.000000  1.000000
                       1.000000  1.000000  0.000000  0.000000  0.000000  0.000000
                       0.000000  0.000000  0.000000  0.000000  0.000000  0.000000
                       0.000000  0.000000
                       1.000000  1.000000  1.000000  1.000000  1.000000  1.000000
                       1.000000  1.000000  0.000000  0.000000  0.000000  0.000000
                       0.000000  0.000000  0.000000  0.000000  0.000000  0.000000
                       0.000000  0.000000
                       1.000000  1.000000  1.000000  1.000000  1.000000  1.000000
                       1.000000  1.000000  0.000000  0.000000  0.000000  0.000000
                       0.000000  0.000000  0.000000  0.000000  0.000000  0.000000
                       0.000000  0.000000
                       1.000000  1.000000  1.000000  1.000000  1.000000  1.000000
                       1.000000  1.000000  0.000000  0.000000  0.000000  0.000000
                       0.000000  0.000000  0.000000  0.000000  0.000000  0.000000
                       0.000000  0.000000
                       1.000000  1.000000  1.000000  1.000000  1.000000  1.000000
                       1.000000  1.000000  0.000000  0.000000  0.000000  0.000000
                       0.000000  0.000000  0.000000  0.000000  0.000000  0.000000
                       0.000000  0.000000
                       1.000000  1.000000  1.000000  1.000000  1.000000  1.000000
                       1.000000  1.000000  0.000000  0.000000  0.000000  0.000000
                       0.000000  0.000000  0.000000  0.000000  0.000000  0.000000
                       0.000000  0.000000
                       1.000000  1.000000  1.000000  1.000000  1.000000  1.000000
                       1.000000  1.000000  0.000000  0.000000  0.000000  0.000000
                       0.000000  0.000000  0.000000  0.000000  0.000000  0.000000
                       0.000000  0.000000
                       1.000000  1.000000  1.000000  1.000000  1.000000  1.000000
                       1.000000  1.000000  0.000000  0.000000  0.000000  0.000000
                       0.000000  0.000000  0.000000  0.000000  0.000000  0.000000
                       0.000000  0.000000
                       1.000000  1.000000  1.000000  1.000000  1.000000  1.000000
                       1.000000  1.000000  0.000000  0.000000  0.000000  0.000000
                       0.000000  0.000000  0.000000  0.000000  0.000000  0.000000
                       0.000000  0.000000
                       1.000000  1.000000  1.000000  1.000000  1.000000  1.000000
                       1.000000  1.000000  0.000000  0.000000  0.000000  0.000000
                       0.000000  0.000000  0.000000  0.000000  0.000000  0.000000
                       0.000000  0.000000
                       1.000000  1.000000  1.000000  1.000000  1.000000  1.000000
                       1.000000  1.000000  0.000000  0.000000  0.000000  0.000000
                       0.000000  0.000000  0.000000  0.000000  0.000000  0.000000
                       0.000000  0.000000
                       1.000000  1.000000  1.000000  1.000000  1.000000  1.000000
                       1.000000  1.000000  0.000000  0.000000  0.000000  0.000000
                       0.000000  0.000000  0.000000  0.000000  0.000000  0.000000
                       0.000000  0.000000
                       1.000000  1.000000  1.000000  1.000000  1.000000  1.000000
                       1.000000  1.000000  0.000000  0.000000  0.000000  0.000000
                       0.000000  0.000000  0.000000  0.000000  0.000000  0.000000
                       0.000000  0.000000
                       1.000000  1.000000  1.000000  1.000000  1.000000  1.000000
                       1.000000  1.000000  0.000000  0.000000  0.000000  0.000000
                       0.000000  0.000000  0.000000  0.000000  0.000000  0.000000
                       0.000000  0.000000
                       1.000000  1.000000  1.000000  1.000000  1.000000  1.000000
                       1.000000  1.000000  0.000000  0.000000  0.000000  0.000000
                       0.000000  0.000000  0.000000  0.000000  0.000000  0.000000
                       0.000000  0.000000
                       1.000000  1.000000  1.000000  1.000000  1.000000  1.000000
                       1.000000  1.000000  0.000000  0.000000  0.000000  0.000000
                       0.000000  0.000000  0.000000  0.000000  0.000000  0.000000
                       0.000000  0.000000
                       1.000000  1.000000  1.000000  1.000000  1.000000  1.000000
                       1.000000  1.000000  0.000000  0.000000  0.000000  0.000000
                       0.000000  0.000000  0.000000  0.000000  0.000000  0.000000
                       0.000000  0.000000
                       1.000000  1.000000  1.000000  1.000000  1.000000  1.000000
                       1.000000  1.000000  0.000000  0.000000  0.000000  0.000000
                       0.000000  0.000000  0.000000  0.000000  0.000000  0.000000
                       0.000000  0.000000
                       1.000000  1.000000  1.000000  1.000000  1.000000  1.000000
                       1.000000  1.000000  0.000000  0.000000  0.000000  0.000000
                       0.000000  0.000000  0.000000  0.000000  0.000000  0.000000
                       0.000000  0.000000
                       1.000000  1.000000  1.000000  1.000000  1.000000  1.000000
                       1.000000  1.000000  0.000000  0.000000  0.000000  0.000000
                       0.000000  0.000000  0.000000  0.000000  0.000000  0.000000
                       0.000000  0.000000
                       1.000000  1.000000  1.000000  1.000000  1.000000  1.000000
                       1.000000  1.000000  0.000000  0.000000  0.000000  0.000000
                       0.000000  0.000000  0.000000  0.000000  0.000000  0.000000
                       0.000000  0.000000
                       1.000000  1.000000  1.000000  1.000000  1.000000  1.000000
                       1.000000  1.000000  0.000000  0.000000  0.000000  0.000000
                       0.000000  0.000000  0.000000  0.000000  0.000000  0.000000
                       0.000000  0.000000
                       1.000000  1.000000  1.000000  1.000000  1.000000  1.000000
                       1.000000  1.000000  0.000000  0.000000  0.000000  0.000000
                       0.000000  0.000000  0.000000  0.000000  0.000000  0.000000
                       0.000000  0.000000
                       1.000000  1.000000  1.000000  1.000000  1.000000  1.000000
                       1.000000  1.000000  0.000000  0.000000  0.000000  0.000000
                       0.000000  0.000000  0.000000  0.000000  0.000000  0.000000
                       0.000000  0.000000
                       1.000000  1.000000  1.000000  1.000000  1.000000  1.000000
                       1.000000  1.000000  0.000000  0.000000  0.000000  0.000000
                       0.000000  0.000000  0.000000  0.000000  0.000000  0.000000
                       0.000000  0.000000
                       1.000000  1.000000  1.000000  1.000000  1.000000  1.000000
                       1.000000  1.000000  0.000000  0.000000  0.000000  0.000000
                       0.000000  0.000000  0.000000  0.000000  0.000000  0.000000
                       0.000000  0.000000
                       1.000000  1.000000  1.000000  1.000000  1.000000  1.000000
                       1.000000  1.000000  0.000000  0.000000  0.000000  0.000000
                       0.000000  0.000000  0.000000  0.000000  0.000000  0.000000
                       0.000000  0.000000
                       1.000000  1.000000  1.000000  1.000000  1.000000  1.000000
                       1.000000  1.000000  0.000000  0.000000  0.000000  0.000000
                       0.000000  0.000000  0.000000  0.000000  0.000000  0.000000
                       0.000000  0.000000
                       1.000000  1.000000  1.000000  1.000000  1.000000  1.000000
                       1.000000  1.000000  0.000000  0.000000  0.000000  0.000000
                       0.000000  0.000000  0.000000  0.000000  0.000000  0.000000
                       0.000000  0.000000
                       1.000000  1.000000  1.000000  1.000000  1.000000  1.000000
                       1.000000  1.000000  0.000000  0.000000  0.000000  0.000000
                       0.000000  0.000000  0.000000  0.000000  0.000000  0.000000
                       0.000000  0.000000
                       1.000000  1.000000  1.000000  1.000000  1.000000  1.000000
                       1.000000  1.000000  0.000000  0.000000  0.000000  0.000000
                       0.000000  0.000000  0.000000  0.000000  0.000000  0.000000
                       0.000000  0.000000
                       1.000000  1.000000  1.000000  1.000000  1.000000  1.000000
                       1.000000  1.000000  0.000000  0.000000  0.000000  0.000000
                       0.000000  0.000000  0.000000  0.000000  0.000000  0.000000
                       0.000000  0.000000
                       1.000000  1.000000  1.000000  1.000000  1.000000  1.000000
                       1.000000  1.000000  0.000000  0.000000  0.000000  0.000000
                       0.000000  0.000000  0.000000  0.000000  0.000000  0.000000
                       0.000000  0.000000
                       1.000000  1.000000  1.000000  1.000000  1.000000  1.000000
                       1.000000  1.000000  0.000000  0.000000  0.000000  0.000000
                       0.000000  0.000000  0.000000  0.000000  0.000000  0.000000
                       0.000000  0.000000
                       1.000000  1.000000  1.000000  1.000000  1.000000  1.000000
                       1.000000  1.000000  0.000000  0.000000  0.000000  0.000000
                       0.000000  0.000000  0.000000  0.000000  0.000000  0.000000
                       0.000000  0.000000
                       1.000000  1.000000  1.000000  1.000000  1.000000  1.000000
                       1.000000  1.000000  0.000000  0.000000  0.000000  0.000000
                       0.000000  0.000000  0.000000  0.000000  0.000000  0.000000
                       0.000000  0.000000
                       1.000000  1.000000  1.000000  1.000000  1.000000  1.000000
                       1.000000  1.000000  0.000000  0.000000  0.000000  0.000000
                       0.000000  0.000000  0.000000  0.000000  0.000000  0.000000
                       0.000000  0.000000
                       1.000000  1.000000  1.000000  1.000000  1.000000  1.000000
                       1.000000  1.000000  0.000000  0.000000  0.000000  0.000000
                       0.000000  0.000000  0.000000  0.000000  0.000000  0.000000
                       0.000000  0.000000
                       1.000000  1.000000  1.000000  1.000000  1.000000  1.000000
                       1.000000  1.000000  0.000000  0.000000  0.000000  0.000000
                       0.000000  0.000000  0.000000  0.000000  0.000000  0.000000
                       0.000000  0.000000
                       1.000000  1.000000  1.000000  1.000000  1.000000  1.000000
                       1.000000  1.000000  0.000000  0.000000  0.000000  0.000000
                       0.000000  0.000000  0.000000  0.000000  0.000000  0.000000
                       0.000000  0.000000
                       1.000000  1.000000  1.000000  1.000000  1.000000  1.000000
                       1.000000  1.000000  0.000000  0.000000  0.000000  0.000000
                       0.000000  0.000000  0.000000  0.000000  0.000000  0.000000
                       0.000000  0.000000
                       1.000000  1.000000  1.000000  1.000000  1.000000  1.000000
                       1.000000  1.000000  0.000000  0.000000  0.000000  0.000000
                       0.000000  0.000000  0.000000  0.000000  0.000000  0.000000
                       0.000000  0.000000
                       1.000000  1.000000  1.000000  1.000000  1.000000  1.000000
                       1.000000  1.000000  0.000000  0.000000  0.000000  0.000000
                       0.000000  0.000000  0.000000  0.000000  0.000000  0.000000
                       0.000000  0.000000
                       1.000000  1.000000  1.000000  1.000000  1.000000  1.000000
                       1.000000  1.000000  0.000000  0.000000  0.000000  0.000000
                       0.000000  0.000000  0.000000  0.000000  0.000000  0.000000
                       0.000000  0.000000
                       1.000000  1.000000  1.000000  1.000000  1.000000  1.000000
                       1.000000  1.000000  0.000000  0.000000  0.000000  0.000000
                       0.000000  0.000000  0.000000  0.000000  0.000000  0.000000
                       0.000000  0.000000
                       1.000000  1.000000  1.000000  1.000000  1.000000  1.000000
                       1.000000  1.000000  0.000000  0.000000  0.000000  0.000000
                       0.000000  0.000000  0.000000  0.000000  0.000000  0.000000
                       0.000000  0.000000
                       1.000000  1.000000  1.000000  1.000000  1.000000  1.000000
                       1.000000  1.000000  0.000000  0.000000  0.000000  0.000000
                       0.000000  0.000000  0.000000  0.000000  0.000000  0.000000
                       0.000000  0.000000
                       1.000000  1.000000  1.000000  1.000000  1.000000  1.000000
                       1.000000  1.000000  0.000000  0.000000  0.000000  0.000000
                       0.000000  0.000000  0.000000  0.000000  0.000000  0.000000
                       0.000000  0.000000
                       1.000000  1.000000  1.000000  1.000000  1.000000  1.000000
                       1.000000  1.000000  0.000000  0.000000  0.000000  0.000000
                       0.000000  0.000000  0.000000  0.000000  0.000000  0.000000
                       0.000000  0.000000
                       1.000000  1.000000  1.000000  1.000000  1.000000  1.000000
                       1.000000  1.000000  0.000000  0.000000  0.000000  0.000000
                       0.000000  0.000000  0.000000  0.000000  0.000000  0.000000
                       0.000000  0.000000
                       1.000000  1.000000  1.000000  1.000000  1.000000  1.000000
                       1.000000  1.000000  0.000000  0.000000  0.000000  0.000000
                       0.000000  0.000000  0.000000  0.000000  0.000000  0.000000
                       0.000000  0.000000
                       1.000000  1.000000  1.000000  1.000000  1.000000  1.000000
                       1.000000  1.000000  0.000000  0.000000  0.000000  0.000000
                       0.000000  0.000000  0.000000  0.000000  0.000000  0.000000
                       0.000000  0.000000
                       1.000000  1.000000  1.000000  1.000000  1.000000  1.000000
                       1.000000  1.000000  0.000000  0.000000  0.000000  0.000000
                       0.000000  0.000000  0.000000  0.000000  0.000000  0.000000
                       0.000000  0.000000
                       1.000000  1.000000  1.000000  1.000000  1.000000  1.000000
                       1.000000  1.000000  0.000000  0.000000  0.000000  0.000000
                       0.000000  0.000000  0.000000  0.000000  0.000000  0.000000
                       0.000000  0.000000
                       1.000000  1.000000  1.000000  1.000000  1.000000  1.000000
                       1.000000  1.000000  0.000000  0.000000  0.000000  0.000000
                       0.000000  0.000000  0.000000  0.000000  0.000000  0.000000
                       0.000000  0.000000
                       1.000000  1.000000  1.000000  1.000000  1.000000  1.000000
                       1.000000  1.000000  0.000000  0.000000  0.000000  0.000000
                       0.000000  0.000000  0.000000  0.000000  0.000000  0.000000
                       0.000000  0.000000
                       1.000000  1.000000  1.000000  1.000000  1.000000  1.000000
                       1.000000  1.000000  0.000000  0.000000  0.000000  0.000000
                       0.000000  0.000000  0.000000  0.000000  0.000000  0.000000
                       0.000000  0.000000
                       1.000000  1.000000  1.000000  1.000000  1.000000  1.000000
                       1.000000  1.000000  0.000000  0.000000  0.000000  0.000000
                       0.000000  0.000000  0.000000  0.000000  0.000000  0.000000
                       0.000000  0.000000
                       1.000000  1.000000  1.000000  1.000000  1.000000  1.000000
                       1.000000  1.000000  0.000000  0.000000  0.000000  0.000000
                       0.000000  0.000000  0.000000  0.000000  0.000000  0.000000
                       0.000000  0.000000
                       1.000000  1.000000  1.000000  1.000000  1.000000  1.000000
                       1.000000  1.000000  0.000000  0.000000  0.000000  0.000000
                       0.000000  0.000000  0.000000  0.000000  0.000000  0.000000
                       0.000000  0.000000
                       1.000000  1.000000  1.000000  1.000000  1.000000  1.000000
                       1.000000  1.000000  0.000000  0.000000  0.000000  0.000000
                       0.000000  0.000000  0.000000  0.000000  0.000000  0.000000
                       0.000000  0.000000
                       1.000000  1.000000  1.000000  1.000000  1.000000  1.000000
                       1.000000  1.000000  0.000000  0.000000  0.000000  0.000000
                       0.000000  0.000000  0.000000  0.000000  0.000000  0.000000
                       0.000000  0.000000
                       1.000000  1.000000  1.000000  1.000000  1.000000  1.000000
                       1.000000  1.000000  0.000000  0.000000  0.000000  0.000000
                       0.000000  0.000000  0.000000  0.000000  0.000000  0.000000
                       0.000000  0.000000
                       1.000000  1.000000  1.000000  1.000000  1.000000  1.000000
                       1.000000  1.000000  0.000000  0.000000  0.000000  0.000000
                       0.000000  0.000000  0.000000  0.000000  0.000000  0.000000
                       0.000000  0.000000
                       1.000000  1.000000  1.000000  1.000000  1.000000  1.000000
                       1.000000  1.000000  0.000000  0.000000  0.000000  0.000000
                       0.000000  0.000000  0.000000  0.000000  0.000000  0.000000
                       0.000000  0.000000
                       1.000000  1.000000  1.000000  1.000000  1.000000  1.000000
                       1.000000  1.000000  0.000000  0.000000  0.000000  0.000000
                       0.000000  0.000000  0.000000  0.000000  0.000000  0.000000
                       0.000000  0.000000
                       1.000000  1.000000  1.000000  1.000000  1.000000  1.000000
                       1.000000  1.000000  0.000000  0.000000  0.000000  0.000000
                       0.000000  0.000000  0.000000  0.000000  0.000000  0.000000
                       0.000000  0.000000
                       1.000000  1.000000  1.000000  1.000000  1.000000  1.000000
                       1.000000  1.000000  0.000000  0.000000  0.000000  0.000000
                       0.000000  0.000000  0.000000  0.000000  0.000000  0.000000
                       0.000000  0.000000
                       1.000000  1.000000  1.000000  1.000000  1.000000  1.000000
                       1.000000  1.000000  0.000000  0.000000  0.000000  0.000000
                       0.000000  0.000000  0.000000  0.000000  0.000000  0.000000
                       0.000000  0.000000
                       1.000000  1.000000  1.000000  1.000000  1.000000  1.000000
                       1.000000  1.000000  0.000000  0.000000  0.000000  0.000000
                       0.000000  0.000000  0.000000  0.000000  0.000000  0.000000
                       0.000000  0.000000
                       1.000000  1.000000  1.000000  1.000000  1.000000  1.000000
                       1.000000  1.000000  0.000000  0.000000  0.000000  0.000000
                       0.000000  0.000000  0.000000  0.000000  0.000000  0.000000
                       0.000000  0.000000
                       1.000000  1.000000  1.000000  1.000000  1.000000  1.000000
                       1.000000  1.000000  0.000000  0.000000  0.000000  0.000000
                       0.000000  0.000000  0.000000  0.000000  0.000000  0.000000
                       0.000000  0.000000
                       1.000000  1.000000  1.000000  1.000000  1.000000  1.000000
                       1.000000  1.000000  0.000000  0.000000  0.000000  0.000000
                       0.000000  0.000000  0.000000  0.000000  0.000000  0.000000
                       0.000000  0.000000
                       1.000000  1.000000  1.000000  1.000000  1.000000  1.000000
                       1.000000  1.000000  0.000000  0.000000  0.000000  0.000000
                       0.000000  0.000000  0.000000  0.000000  0.000000  0.000000
                       0.000000  0.000000
                       1.000000  1.000000  1.000000  1.000000  1.000000  1.000000
                       1.000000  1.000000  0.000000  0.000000  0.000000  0.000000
                       0.000000  0.000000  0.000000  0.000000  0.000000  0.000000
                       0.000000  0.000000
                       1.000000  1.000000  1.000000  1.000000  1.000000  1.000000
                       1.000000  1.000000  0.000000  0.000000  0.000000  0.000000
                       0.000000  0.000000  0.000000  0.000000  0.000000  0.000000
                       0.000000  0.000000
                       1.000000  1.000000  1.000000  1.000000  1.000000  1.000000
                       1.000000  1.000000  0.000000  0.000000  0.000000  0.000000
                       0.000000  0.000000  0.000000  0.000000  0.000000  0.000000
                       0.000000  0.000000
                       1.000000  1.000000  1.000000  1.000000  1.000000  1.000000
                       1.000000  1.000000  0.000000  0.000000  0.000000  0.000000
                       0.000000  0.000000  0.000000  0.000000  0.000000  0.000000
                       0.000000  0.000000
                       1.000000  1.000000  1.000000  1.000000  1.000000  1.000000
                       1.000000  1.000000  0.000000  0.000000  0.000000  0.000000
                       0.000000  0.000000  0.000000  0.000000  0.000000  0.000000
                       0.000000  0.000000
                       1.000000  1.000000  1.000000  1.000000  1.000000  1.000000
                       1.000000  1.000000  0.000000  0.000000  0.000000  0.000000
                       0.000000  0.000000  0.000000  0.000000  0.000000  0.000000
                       0.000000  0.000000
                       1.000000  1.000000  1.000000  1.000000  1.000000  1.000000
                       1.000000  1.000000  0.000000  0.000000  0.000000  0.000000
                       0.000000  0.000000  0.000000  0.000000  0.000000  0.000000
                       0.000000  0.000000
                       1.000000  1.000000  1.000000  1.000000  1.000000  1.000000
                       1.000000  1.000000  0.000000  0.000000  0.000000  0.000000
                       0.000000  0.000000  0.000000  0.000000  0.000000  0.000000
                       0.000000  0.000000
                       1.000000  1.000000  1.000000  1.000000  1.000000  1.000000
                       1.000000  1.000000  0.000000  0.000000  0.000000  0.000000
                       0.000000  0.000000  0.000000  0.000000  0.000000  0.000000
                       0.000000  0.000000
                       1.000000  1.000000  1.000000  1.000000  1.000000  1.000000
                       1.000000  1.000000  0.000000  0.000000  0.000000  0.000000
                       0.000000  0.000000  0.000000  0.000000  0.000000  0.000000
                       0.000000  0.000000
                       1.000000  1.000000  1.000000  1.000000  1.000000  1.000000
                       1.000000  1.000000  0.000000  0.000000  0.000000  0.000000
                       0.000000  0.000000  0.000000  0.000000  0.000000  0.000000
                       0.000000  0.000000
                       1.000000  1.000000  1.000000  1.000000  1.000000  1.000000
                       1.000000  1.000000  0.000000  0.000000  0.000000  0.000000
                       0.000000  0.000000  0.000000  0.000000  0.000000  0.000000
                       0.000000  0.000000
                       1.000000  1.000000  1.000000  1.000000  1.000000  1.000000
                       1.000000  1.000000  0.000000  0.000000  0.000000  0.000000
                       0.000000  0.000000  0.000000  0.000000  0.000000  0.000000
                       0.000000  0.000000
                       1.000000  1.000000  1.000000  1.000000  1.000000  1.000000
                       1.000000  1.000000  0.000000  0.000000  0.000000  0.000000
                       0.000000  0.000000  0.000000  0.000000  0.000000  0.000000
                       0.000000  0.000000
                       1.000000  1.000000  1.000000  1.000000  1.000000  1.000000
                       1.000000  1.000000  0.000000  0.000000  0.000000  0.000000
                       0.000000  0.000000  0.000000  0.000000  0.000000  0.000000
                       0.000000  0.000000
                       1.000000  1.000000  1.000000  1.000000  1.000000  1.000000
                       1.000000  1.000000  0.000000  0.000000  0.000000  0.000000
                       0.000000  0.000000  0.000000  0.000000  0.000000  0.000000
                       0.000000  0.000000
                       1.000000  1.000000  1.000000  1.000000  1.000000  1.000000
                       1.000000  1.000000  0.000000  0.000000  0.000000  0.000000
                       0.000000  0.000000  0.000000  0.000000  0.000000  0.000000
                       0.000000  0.000000
                       1.000000  1.000000  1.000000  1.000000  1.000000  1.000000
                       1.000000  1.000000  0.000000  0.000000  0.000000  0.000000
                       0.000000  0.000000  0.000000  0.000000  0.000000  0.000000
                       0.000000  0.000000
                       1.000000  1.000000  1.000000  1.000000  1.000000  1.000000
                       1.000000  1.000000  0.000000  0.000000  0.000000  0.000000
                       0.000000  0.000000  0.000000  0.000000  0.000000  0.000000
                       0.000000  0.000000
                       1.000000  1.000000  1.000000  1.000000  1.000000  1.000000
                       1.000000  1.000000  0.000000  0.000000  0.000000  0.000000
                       0.000000  0.000000  0.000000  0.000000  0.000000  0.000000
                       0.000000  0.000000
                       1.000000  1.000000  1.000000  1.000000  1.000000  1.000000
                       1.000000  1.000000  0.000000  0.000000  0.000000  0.000000
                       0.000000  0.000000  0.000000  0.000000  0.000000  0.000000
                       0.000000  0.000000
                       1.000000  1.000000  1.000000  1.000000  1.000000  1.000000
                       1.000000  1.000000  0.000000  0.000000  0.000000  0.000000
                       0.000000  0.000000  0.000000  0.000000  0.000000  0.000000
                       0.000000  0.000000
                       1.000000  1.000000  1.000000  1.000000  1.000000  1.000000
                       1.000000  1.000000  0.000000  0.000000  0.000000  0.000000
                       0.000000  0.000000  0.000000  0.000000  0.000000  0.000000
                       0.000000  0.000000
                       1.000000  1.000000  1.000000  1.000000  1.000000  1.000000
                       1.000000  1.000000  0.000000  0.000000  0.000000  0.000000
                       0.000000  0.000000  0.000000  0.000000  0.000000  0.000000
                       0.000000  0.000000
                       1.000000  1.000000  1.000000  1.000000  1.000000  1.000000
                       1.000000  1.000000  0.000000  0.000000  0.000000  0.000000
                       0.000000  0.000000  0.000000  0.000000  0.000000  0.000000
                       0.000000  0.000000
                       1.000000  1.000000  1.000000  1.000000  1.000000  1.000000
                       1.000000  1.000000  0.000000  0.000000  0.000000  0.000000
                       0.000000  0.000000  0.000000  0.000000  0.000000  0.000000
                       0.000000  0.000000
                       1.000000  1.000000  1.000000  1.000000  1.000000  1.000000
                       1.000000  1.000000  0.000000  0.000000  0.000000  0.000000
                       0.000000  0.000000  0.000000  0.000000  0.000000  0.000000
                       0.000000  0.000000
                       1.000000  1.000000  1.000000  1.000000  1.000000  1.000000
                       1.000000  1.000000  0.000000  0.000000  0.000000  0.000000
                       0.000000  0.000000  0.000000  0.000000  0.000000  0.000000
                       0.000000  0.000000
                       1.000000  1.000000  1.000000  1.000000  1.000000  1.000000
                       1.000000  1.000000  0.000000  0.000000  0.000000  0.000000
                       0.000000  0.000000  0.000000  0.000000  0.000000  0.000000
                       0.000000  0.000000
                       1.000000  1.000000  1.000000  1.000000  1.000000  1.000000
                       1.000000  1.000000  0.000000  0.000000  0.000000  0.000000
                       0.000000  0.000000  0.000000  0.000000  0.000000  0.000000
                       0.000000  0.000000
                       1.000000  1.000000  1.000000  1.000000  1.000000  1.000000
                       1.000000  1.000000  0.000000  0.000000  0.000000  0.000000
                       0.000000  0.000000  0.000000  0.000000  0.000000  0.000000
                       0.000000  0.000000
                       1.000000  1.000000  1.000000  1.000000  1.000000  1.000000
                       1.000000  1.000000  0.000000  0.000000  0.000000  0.000000
                       0.000000  0.000000  0.000000  0.000000  0.000000  0.000000
                       0.000000  0.000000
                       1.000000  1.000000  1.000000  1.000000  1.000000  1.000000
                       1.000000  1.000000  0.000000  0.000000  0.000000  0.000000
                       0.000000  0.000000  0.000000  0.000000  0.000000  0.000000
                       0.000000  0.000000
                       1.000000  1.000000  1.000000  1.000000  1.000000  1.000000
                       1.000000  1.000000  0.000000  0.000000  0.000000  0.000000
                       0.000000  0.000000  0.000000  0.000000  0.000000  0.000000
                       0.000000  0.000000
                       1.000000  1.000000  1.000000  1.000000  1.000000  1.000000
                       1.000000  1.000000  0.000000  0.000000  0.000000  0.000000
                       0.000000  0.000000  0.000000  0.000000  0.000000  0.000000
                       0.000000  0.000000
           occopt           3
        optforces1          2
        optforces2          0
        optforces3          0
        optforces4          0
-      paral_atom           0
        pawecutdg      5.00000000E+01 Hartree
        pawprtvol           3
           prtvol           4
            rprim     -5.0000000000E-01  5.0000000000E-01  5.0000000000E-01
                       5.0000000000E-01 -5.0000000000E-01  5.0000000000E-01
                       5.0000000000E-01  5.0000000000E-01 -5.0000000000E-01
           shiftk      5.00000000E-01  5.00000000E-01 -5.00000000E-01
          spgroup           1
           spinat      0.0000000000E+00  0.0000000000E+00  2.0000000000E+00
           tolvrs      1.00000000E-10
           tsmear      6.33362313E-03 Hartree
            typat      1
            upawu1     0.00000000E+00 Hartree
            upawu2     2.02121272E-01 Hartree
            upawu3     2.02121272E-01 Hartree
            upawu4     2.02121272E-01 Hartree
          usedmft1          0
          usedmft2          1
          usedmft3          1
          usedmft4          1
          usepawu1          1
          usepawu2         10
          usepawu3         10
          usepawu4         10
           useylm           1
              wtk        0.01563    0.01563    0.01563    0.01563    0.01563    0.01563
                         0.01563    0.01563    0.01563    0.01563    0.01563    0.01563
                         0.01563    0.01563    0.01563    0.01563    0.01563    0.01563
                         0.01563    0.01563    0.01563    0.01563    0.01563    0.01563
                         0.01563    0.01563    0.01563    0.01563    0.01563    0.01563
                         0.01563    0.01563    0.01563    0.01563    0.01563    0.01563
                         0.01563    0.01563    0.01563    0.01563    0.01563    0.01563
                         0.01563    0.01563    0.01563    0.01563    0.01563    0.01563
                         0.01563    0.01563    0.01563    0.01563    0.01563    0.01563
                         0.01563    0.01563    0.01563    0.01563    0.01563    0.01563
                         0.01563    0.01563    0.01563    0.01563
            znucl       26.00000

================================================================================

 chkinp: Checking input parameters for consistency, jdtset=   1.

 chkinp: Checking input parameters for consistency, jdtset=   2.

 chkinp: Checking input parameters for consistency, jdtset=   3.

 chkinp: Checking input parameters for consistency, jdtset=   4.

================================================================================
== DATASET  1 ==================================================================
-   mpi_nproc: 8, omp_nthreads: -1 (-1 if OMP is not activated)


--- !DatasetInfo
iteration_state: {dtset: 1, }
dimensions: {natom: 1, nkpt: 64, mband: 20, nsppol: 2, nspinor: 1, nspden: 2, mpw: 352, }
cutoff_energies: {ecut:  20.0, pawecutdg:  50.0, }
electrons: {nelect:   1.60000000E+01, charge:   0.00000000E+00, occopt:   3.00000000E+00, tsmear:   6.33362313E-03, }
meta: {optdriver: 0, ionmov: 0, optcell: 0, iscf: 17, paral_kgb: 0, }
...

 Exchange-correlation functional for the present dataset will be:
  LDA: Perdew-Wang 92 LSD fit to Ceperley-Alder data - ixc=7
 Citation for XC functional:
  J.P.Perdew and Y.Wang, PRB 45, 13244 (1992)

 Real(R)+Recip(G) space primitive vectors, cartesian coordinates (Bohr,Bohr^-1):
 R(1)= -2.7238050  2.7238050  2.7238050  G(1)=  0.0000000  0.1835667  0.1835667
 R(2)=  2.7238050 -2.7238050  2.7238050  G(2)=  0.1835667  0.0000000  0.1835667
 R(3)=  2.7238050  2.7238050 -2.7238050  G(3)=  0.1835667  0.1835667  0.0000000
 Unit cell volume ucvol=  8.0832876E+01 bohr^3
 Angles (23,13,12)=  1.09471221E+02  1.09471221E+02  1.09471221E+02 degrees

 Coarse grid specifications (used for wave-functions):

 getcut: wavevector=  0.0000  0.0000  0.0000  ngfft=  20  20  20
         ecut(hartree)=     20.000   => boxcut(ratio)=   2.11104

 Fine grid specifications (used for densities):

 getcut: wavevector=  0.0000  0.0000  0.0000  ngfft=  32  32  32
         ecut(hartree)=     50.000   => boxcut(ratio)=   2.13298

--- Pseudopotential description ------------------------------------------------
- pspini: atom type   1  psp file is /opt/ABINIT/atlas_gnu_14.2_triqs/baguetl_fix-nhat-fft/tests/Pspdir/26fe.lda2.paw
- pspatm: opening atomic psp file    /opt/ABINIT/atlas_gnu_14.2_triqs/baguetl_fix-nhat-fft/tests/Pspdir/26fe.lda2.paw
- Paw atomic data for element Fe - Generated by AtomPAW + AtomPAW2Abinit v3.2.0
- 26.00000  16.00000  20120514                znucl, zion, pspdat
    7    7    2    0      1061   0.00000      pspcod,pspxc,lmax,lloc,mmax,r2well
 Pseudopotential format is: paw4
 basis_size (lnmax)=  6 (lmn_size= 18), orbitals=   0   0   1   1   2   2
 Spheres core radius: rc_sph= 2.01261267
 3 radial meshes are used:
  - mesh 1: r(i)=AA*[exp(BB*(i-1))-1], size=1061 , AA= 0.31899E-03 BB= 0.82938E-02
  - mesh 2: r(i)=AA*[exp(BB*(i-1))-1], size=1121 , AA= 0.31899E-03 BB= 0.82938E-02
  - mesh 3: r(i)=AA*[exp(BB*(i-1))-1], size=1249 , AA= 0.31899E-03 BB= 0.82938E-02
 Shapefunction is BESSEL type: shapef(r,l)=aa(1,l)*jl(q(1,l)*r)+aa(2,l)*jl(q(2,l)*r)
 Radius for shape functions = sphere core radius
 Radial grid used for partial waves is grid 1
 Radial grid used for projectors is grid  2
 Radial grid used for (t)core density is grid 1
 Radial grid used for Vloc is grid 3
 Radial grid used for pseudo valence density is grid 3
 Compensation charge density is taken into account in XC energy/potential
 pspatm: atomic psp has been read  and splines computed

   4.81326310E+02                                ecore*ucvol(ha*bohr**3)
--------------------------------------------------------------------------------

P newkpt: treating     20 bands with npw=     348 for ikpt=   1 by node    0
P newkpt: treating     20 bands with npw=     346 for ikpt=   2 by node    0
P newkpt: treating     20 bands with npw=     346 for ikpt=   3 by node    0
P newkpt: treating     20 bands with npw=     348 for ikpt=   4 by node    0
P newkpt: treating     20 bands with npw=     342 for ikpt=   5 by node    0
P newkpt: treating     20 bands with npw=     342 for ikpt=   6 by node    0
P newkpt: treating     20 bands with npw=     342 for ikpt=   7 by node    0
P newkpt: treating     20 bands with npw=     342 for ikpt=   8 by node    0
P newkpt: treating     20 bands with npw=     346 for ikpt=   9 by node    0
P newkpt: treating     20 bands with npw=     346 for ikpt=  10 by node    0
P newkpt: treating     20 bands with npw=     339 for ikpt=  11 by node    0
P newkpt: treating     20 bands with npw=     339 for ikpt=  12 by node    0
P newkpt: treating     20 bands with npw=     339 for ikpt=  13 by node    0
P newkpt: treating     20 bands with npw=     339 for ikpt=  14 by node    0
P newkpt: treating     20 bands with npw=     346 for ikpt=  15 by node    0
P newkpt: treating     20 bands with npw=     346 for ikpt=  16 by node    0
P newkpt: treating     20 bands with npw=     349 for ikpt=  17 by node    1
P newkpt: treating     20 bands with npw=     349 for ikpt=  18 by node    1
P newkpt: treating     20 bands with npw=     349 for ikpt=  19 by node    1
P newkpt: treating     20 bands with npw=     346 for ikpt=  20 by node    1
P newkpt: treating     20 bands with npw=     346 for ikpt=  21 by node    1
P newkpt: treating     20 bands with npw=     349 for ikpt=  22 by node    1
P newkpt: treating     20 bands with npw=     349 for ikpt=  23 by node    1
P newkpt: treating     20 bands with npw=     346 for ikpt=  24 by node    1
P newkpt: treating     20 bands with npw=     346 for ikpt=  25 by node    1
P newkpt: treating     20 bands with npw=     349 for ikpt=  26 by node    1
P newkpt: treating     20 bands with npw=     346 for ikpt=  27 by node    1
P newkpt: treating     20 bands with npw=     349 for ikpt=  28 by node    1
P newkpt: treating     20 bands with npw=     349 for ikpt=  29 by node    1
P newkpt: treating     20 bands with npw=     339 for ikpt=  30 by node    1
P newkpt: treating     20 bands with npw=     339 for ikpt=  31 by node    1
P newkpt: treating     20 bands with npw=     346 for ikpt=  32 by node    1
P newkpt: treating     20 bands with npw=     346 for ikpt=  33 by node    2
P newkpt: treating     20 bands with npw=     339 for ikpt=  34 by node    2
P newkpt: treating     20 bands with npw=     339 for ikpt=  35 by node    2
P newkpt: treating     20 bands with npw=     346 for ikpt=  36 by node    2
P newkpt: treating     20 bands with npw=     342 for ikpt=  37 by node    2
P newkpt: treating     20 bands with npw=     342 for ikpt=  38 by node    2
P newkpt: treating     20 bands with npw=     349 for ikpt=  39 by node    2
P newkpt: treating     20 bands with npw=     346 for ikpt=  40 by node    2
P newkpt: treating     20 bands with npw=     346 for ikpt=  41 by node    2
P newkpt: treating     20 bands with npw=     349 for ikpt=  42 by node    2
P newkpt: treating     20 bands with npw=     342 for ikpt=  43 by node    2
P newkpt: treating     20 bands with npw=     346 for ikpt=  44 by node    2
P newkpt: treating     20 bands with npw=     352 for ikpt=  45 by node    2
P newkpt: treating     20 bands with npw=     352 for ikpt=  46 by node    2
P newkpt: treating     20 bands with npw=     346 for ikpt=  47 by node    2
P newkpt: treating     20 bands with npw=     342 for ikpt=  48 by node    2
P newkpt: treating     20 bands with npw=     342 for ikpt=  49 by node    3
P newkpt: treating     20 bands with npw=     346 for ikpt=  50 by node    3
P newkpt: treating     20 bands with npw=     352 for ikpt=  51 by node    3
P newkpt: treating     20 bands with npw=     352 for ikpt=  52 by node    3
P newkpt: treating     20 bands with npw=     346 for ikpt=  53 by node    3
P newkpt: treating     20 bands with npw=     342 for ikpt=  54 by node    3
P newkpt: treating     20 bands with npw=     348 for ikpt=  55 by node    3
P newkpt: treating     20 bands with npw=     349 for ikpt=  56 by node    3
P newkpt: treating     20 bands with npw=     346 for ikpt=  57 by node    3
P newkpt: treating     20 bands with npw=     346 for ikpt=  58 by node    3
P newkpt: treating     20 bands with npw=     349 for ikpt=  59 by node    3
P newkpt: treating     20 bands with npw=     346 for ikpt=  60 by node    3
P newkpt: treating     20 bands with npw=     342 for ikpt=  61 by node    3
P newkpt: treating     20 bands with npw=     342 for ikpt=  62 by node    3
P newkpt: treating     20 bands with npw=     346 for ikpt=  63 by node    3
P newkpt: treating     20 bands with npw=     348 for ikpt=  64 by node    3
P newkpt: treating     20 bands with npw=     348 for ikpt=   1 by node    7
P newkpt: treating     20 bands with npw=     346 for ikpt=   2 by node    7
P newkpt: treating     20 bands with npw=     346 for ikpt=   3 by node    7
P newkpt: treating     20 bands with npw=     348 for ikpt=   4 by node    7
P newkpt: treating     20 bands with npw=     342 for ikpt=   5 by node    7
P newkpt: treating     20 bands with npw=     342 for ikpt=   6 by node    7
P newkpt: treating     20 bands with npw=     342 for ikpt=   7 by node    7
P newkpt: treating     20 bands with npw=     342 for ikpt=   8 by node    7
P newkpt: treating     20 bands with npw=     346 for ikpt=   9 by node    7
P newkpt: treating     20 bands with npw=     346 for ikpt=  10 by node    7
P newkpt: treating     20 bands with npw=     339 for ikpt=  11 by node    7
P newkpt: treating     20 bands with npw=     339 for ikpt=  12 by node    7
P newkpt: treating     20 bands with npw=     339 for ikpt=  13 by node    7
P newkpt: treating     20 bands with npw=     339 for ikpt=  14 by node    7
P newkpt: treating     20 bands with npw=     346 for ikpt=  15 by node    7
P newkpt: treating     20 bands with npw=     346 for ikpt=  16 by node    7
P newkpt: treating     20 bands with npw=     349 for ikpt=  17 by node    6
P newkpt: treating     20 bands with npw=     349 for ikpt=  18 by node    6
P newkpt: treating     20 bands with npw=     349 for ikpt=  19 by node    6
P newkpt: treating     20 bands with npw=     346 for ikpt=  20 by node    6
P newkpt: treating     20 bands with npw=     346 for ikpt=  21 by node    6
P newkpt: treating     20 bands with npw=     349 for ikpt=  22 by node    6
P newkpt: treating     20 bands with npw=     349 for ikpt=  23 by node    6
P newkpt: treating     20 bands with npw=     346 for ikpt=  24 by node    6
P newkpt: treating     20 bands with npw=     346 for ikpt=  25 by node    6
P newkpt: treating     20 bands with npw=     349 for ikpt=  26 by node    6
P newkpt: treating     20 bands with npw=     346 for ikpt=  27 by node    6
P newkpt: treating     20 bands with npw=     349 for ikpt=  28 by node    6
P newkpt: treating     20 bands with npw=     349 for ikpt=  29 by node    6
P newkpt: treating     20 bands with npw=     339 for ikpt=  30 by node    6
P newkpt: treating     20 bands with npw=     339 for ikpt=  31 by node    6
P newkpt: treating     20 bands with npw=     346 for ikpt=  32 by node    6
P newkpt: treating     20 bands with npw=     346 for ikpt=  33 by node    5
P newkpt: treating     20 bands with npw=     339 for ikpt=  34 by node    5
P newkpt: treating     20 bands with npw=     339 for ikpt=  35 by node    5
P newkpt: treating     20 bands with npw=     346 for ikpt=  36 by node    5
P newkpt: treating     20 bands with npw=     342 for ikpt=  37 by node    5
P newkpt: treating     20 bands with npw=     342 for ikpt=  38 by node    5
P newkpt: treating     20 bands with npw=     349 for ikpt=  39 by node    5
P newkpt: treating     20 bands with npw=     346 for ikpt=  40 by node    5
P newkpt: treating     20 bands with npw=     346 for ikpt=  41 by node    5
P newkpt: treating     20 bands with npw=     349 for ikpt=  42 by node    5
P newkpt: treating     20 bands with npw=     342 for ikpt=  43 by node    5
P newkpt: treating     20 bands with npw=     346 for ikpt=  44 by node    5
P newkpt: treating     20 bands with npw=     352 for ikpt=  45 by node    5
P newkpt: treating     20 bands with npw=     352 for ikpt=  46 by node    5
P newkpt: treating     20 bands with npw=     346 for ikpt=  47 by node    5
P newkpt: treating     20 bands with npw=     342 for ikpt=  48 by node    5
P newkpt: treating     20 bands with npw=     342 for ikpt=  49 by node    4
P newkpt: treating     20 bands with npw=     346 for ikpt=  50 by node    4
P newkpt: treating     20 bands with npw=     352 for ikpt=  51 by node    4
P newkpt: treating     20 bands with npw=     352 for ikpt=  52 by node    4
P newkpt: treating     20 bands with npw=     346 for ikpt=  53 by node    4
P newkpt: treating     20 bands with npw=     342 for ikpt=  54 by node    4
P newkpt: treating     20 bands with npw=     348 for ikpt=  55 by node    4
P newkpt: treating     20 bands with npw=     349 for ikpt=  56 by node    4
P newkpt: treating     20 bands with npw=     346 for ikpt=  57 by node    4
P newkpt: treating     20 bands with npw=     346 for ikpt=  58 by node    4
P newkpt: treating     20 bands with npw=     349 for ikpt=  59 by node    4
P newkpt: treating     20 bands with npw=     346 for ikpt=  60 by node    4
P newkpt: treating     20 bands with npw=     342 for ikpt=  61 by node    4
P newkpt: treating     20 bands with npw=     342 for ikpt=  62 by node    4
P newkpt: treating     20 bands with npw=     346 for ikpt=  63 by node    4
P newkpt: treating     20 bands with npw=     348 for ikpt=  64 by node    4
_setup2: Arith. and geom. avg. npw (full set) are     345.438     345.419


 ******************************************
 DFT+U Method used: FLL
 ******************************************

================================================================================

--- !BeginCycle
iteration_state: {dtset: 1, }
solver: {iscf: 17, nstep: 30, nline: 5, wfoptalg: 10, }
tolerances: {tolvrs: 1.00E-10, }
...

     iter   Etot(hartree)      deltaE(h)  residm     nres2   difmagsph maxmagsph
 ETOT  1  -122.64872146328    -1.226E+02 2.029E+01 1.378E+02 6.493E-01 6.493E-01
 ETOT  2  -124.65010828225    -2.001E+00 1.673E-01 1.179E+02 1.095E+00 1.744E+00
 ETOT  3  -124.57103947296     7.907E-02 1.568E-01 4.666E+00 1.130E-01 1.631E+00
 ETOT  4  -124.55822264284     1.282E-02 2.288E-02 3.008E+00 1.504E-01 1.782E+00
 ETOT  5  -124.55842156953    -1.989E-04 3.743E-02 2.380E+00 4.332E-02 1.825E+00
 ETOT  6  -124.55715109971     1.270E-03 3.519E-03 1.104E+00 2.146E-01 2.039E+00
 ETOT  7  -124.55693531246     2.158E-04 2.850E-03 1.494E-01 1.298E-01 2.169E+00
 ETOT  8  -124.55685994300     7.537E-05 3.260E-03 4.457E-02 1.103E-02 2.180E+00
 ETOT  9  -124.55684493351     1.501E-05 4.541E-04 1.270E-03 2.276E-02 2.203E+00
 ETOT 10  -124.55684443758     4.959E-07 3.018E-04 1.063E-04 9.915E-03 2.193E+00
 ETOT 11  -124.55684449695    -5.937E-08 3.887E-05 7.439E-05 2.603E-04 2.193E+00
 ETOT 12  -124.55684456103    -6.409E-08 2.516E-05 7.760E-06 1.558E-03 2.195E+00
 ETOT 13  -124.55684458967    -2.864E-08 3.262E-06 2.191E-06 6.824E-04 2.196E+00
 ETOT 14  -124.55684459012    -4.457E-10 2.159E-06 1.013E-06 5.314E-05 2.196E+00
 ETOT 15  -124.55684459036    -2.383E-10 2.827E-07 1.671E-07 2.266E-05 2.196E+00
 ETOT 16  -124.55684459055    -1.880E-10 1.981E-07 6.970E-09 2.959E-05 2.196E+00
 ETOT 17  -124.55684459055    -5.542E-12 2.657E-08 5.392E-10 1.302E-06 2.196E+00
 ETOT 18  -124.55684459055    -9.521E-13 1.916E-08 2.895E-10 5.373E-07 2.196E+00
 ETOT 19  -124.55684459055    -9.948E-14 2.601E-09 1.084E-11 1.068E-06 2.196E+00

 At SCF step   19       nres2   =  1.08E-11 < tolvrs=  1.00E-10 =>converged.

 Cartesian components of stress tensor (hartree/bohr^3)
  sigma(1 1)=  8.33872531E-04  sigma(3 2)= -7.69808583E-11
  sigma(2 2)=  8.33872339E-04  sigma(3 1)=  1.73477028E-11
  sigma(3 3)=  8.33871895E-04  sigma(2 1)= -9.47248857E-11


--- !ResultsGS
iteration_state: {dtset: 1, }
comment   : Summary of ground state results
lattice_vectors:
- [ -2.7238050,   2.7238050,   2.7238050, ]
- [  2.7238050,  -2.7238050,   2.7238050, ]
- [  2.7238050,   2.7238050,  -2.7238050, ]
lattice_lengths: [   4.71777,    4.71777,    4.71777, ]
lattice_angles: [109.471, 109.471, 109.471, ] # degrees, (23, 13, 12)
lattice_volume:   8.0832876E+01
convergence: {deltae: -9.948E-14, res2:  1.084E-11, residm:  2.601E-09, diffor: null, }
etotal    :  -1.24556845E+02
entropy   :   0.00000000E+00
fermie    :   3.13075142E-01
cartesian_stress_tensor: # hartree/bohr^3
- [  8.33872531E-04,  -9.47248857E-11,   1.73477028E-11, ]
- [ -9.47248857E-11,   8.33872339E-04,  -7.69808583E-11, ]
- [  1.73477028E-11,  -7.69808583E-11,   8.33871895E-04, ]
pressure_GPa:  -2.4533E+01
xred      :
- [  0.0000E+00,   0.0000E+00,   0.0000E+00, Fe]
cartesian_forces: # hartree/bohr
- [  0.00000000E+00,   0.00000000E+00,   0.00000000E+00, ]
force_length_stats: {min:   0.00000000E+00, max:   0.00000000E+00, mean:   0.00000000E+00, }
...

 Integrated electronic and magnetization densities in atomic spheres:
 ------------------------------------------------------------------------------------------------------------
 Radius=ratsph(iatom), smearing ratsm=  0.0000. Diff(up-dn)=approximate z local magnetic moment.
    Atom    Radius    up_density   dn_density  Total(up+dn)  Diff(up-dn)
    1 Fe   2.01261     8.147711     5.951953     14.099663     2.195758
 ------------------------------------------------------------------------------------------------------------
  Sum:                 8.147711     5.951953     14.099663     2.195758
 Total magnetization (from the atomic spheres):                2.195758
 Total magnetization (exact up - dn):                          2.184159


 PAW TEST:
 ==== Compensation charge inside spheres ============
 The following values must be close to each other ...
 Compensation charge over spherical meshes =      9.749594199013327
 Compensation charge over fine fft grid    =      9.749590164451472

 ==== Results concerning PAW augmentation regions ====

 Total pseudopotential strength Dij (hartree):
 Atom #  1 - Spin component 1
  -2.09671   0.24991  -0.00000  -0.00000  -0.00000   0.00000   0.00000   0.00000   0.00000   0.00000   0.00000   0.00000 ...
   0.24991   0.07002   0.00000   0.00000   0.00000  -0.00000  -0.00000   0.00000   0.00000   0.00000   0.00000  -0.00000 ...
  -0.00000   0.00000  -1.62295   0.00000   0.00000   0.07594   0.00000   0.00000  -0.00000  -0.00000   0.00000   0.00000 ...
  -0.00000   0.00000   0.00000  -1.62295   0.00000   0.00000   0.07594  -0.00000   0.00000  -0.00000  -0.00000  -0.00000 ...
  -0.00000   0.00000   0.00000   0.00000  -1.62295   0.00000  -0.00000   0.07594  -0.00000   0.00000   0.00000  -0.00000 ...
   0.00000  -0.00000   0.07594   0.00000   0.00000   0.02066   0.00000   0.00000   0.00000   0.00000  -0.00000   0.00000 ...
   0.00000  -0.00000   0.00000   0.07594  -0.00000   0.00000   0.02066   0.00000   0.00000   0.00000   0.00000   0.00000 ...
   0.00000   0.00000   0.00000  -0.00000   0.07594   0.00000   0.00000   0.02066   0.00000   0.00000   0.00000   0.00000 ...
   0.00000   0.00000  -0.00000   0.00000  -0.00000   0.00000   0.00000   0.00000  -0.12025   0.00000  -0.00000   0.00000 ...
   0.00000   0.00000  -0.00000  -0.00000   0.00000   0.00000   0.00000   0.00000   0.00000  -0.12025   0.00000   0.00000 ...
   0.00000   0.00000   0.00000  -0.00000   0.00000  -0.00000   0.00000   0.00000  -0.00000   0.00000  -0.12502   0.00000 ...
   0.00000  -0.00000   0.00000  -0.00000  -0.00000   0.00000   0.00000   0.00000   0.00000   0.00000   0.00000  -0.12025 ...
   ...  only 12  components have been written...
 Atom #  1 - Spin component 2
  -2.04272   0.23620  -0.00000  -0.00000  -0.00000   0.00000   0.00000   0.00000   0.00000   0.00000   0.00000   0.00000 ...
   0.23620   0.07134   0.00000   0.00000   0.00000  -0.00000  -0.00000   0.00000   0.00000   0.00000   0.00000   0.00000 ...
  -0.00000   0.00000  -1.55205   0.00000   0.00000   0.06661   0.00000   0.00000   0.00000  -0.00000   0.00000   0.00000 ...
  -0.00000   0.00000   0.00000  -1.55205   0.00000   0.00000   0.06661   0.00000   0.00000  -0.00000  -0.00000   0.00000 ...
  -0.00000   0.00000   0.00000   0.00000  -1.55205   0.00000   0.00000   0.06661  -0.00000   0.00000   0.00000  -0.00000 ...
   0.00000  -0.00000   0.06661   0.00000   0.00000   0.02149   0.00000   0.00000   0.00000   0.00000  -0.00000   0.00000 ...
   0.00000  -0.00000   0.00000   0.06661   0.00000   0.00000   0.02149   0.00000   0.00000   0.00000   0.00000   0.00000 ...
   0.00000   0.00000   0.00000   0.00000   0.06661   0.00000   0.00000   0.02149   0.00000   0.00000   0.00000   0.00000 ...
   0.00000   0.00000   0.00000   0.00000  -0.00000   0.00000   0.00000   0.00000  -0.06903   0.00000   0.00000   0.00000 ...
   0.00000   0.00000  -0.00000  -0.00000   0.00000   0.00000   0.00000   0.00000   0.00000  -0.06903   0.00000   0.00000 ...
   0.00000   0.00000   0.00000  -0.00000   0.00000  -0.00000   0.00000   0.00000   0.00000   0.00000  -0.06403   0.00000 ...
   0.00000   0.00000   0.00000   0.00000  -0.00000   0.00000   0.00000   0.00000   0.00000   0.00000   0.00000  -0.06903 ...
   ...  only 12  components have been written...


 Augmentation waves occupancies Rhoij:
 Atom #  1 - Spin component 1
   0.99803  -0.02224  -0.00000  -0.00000   0.00000  -0.00000  -0.00000   0.00000   0.00000   0.00000   0.00000   0.00000 ...
  -0.02224   0.67490   0.00000  -0.00000   0.00000   0.00000  -0.00000  -0.00000   0.00000  -0.00000  -0.00000   0.00000 ...
  -0.00000   0.00000   0.99638   0.00000  -0.00000  -0.05176   0.00000  -0.00000   0.00000  -0.00000   0.00000  -0.00000 ...
  -0.00000  -0.00000   0.00000   0.99638  -0.00000   0.00000  -0.05176   0.00000  -0.00000   0.00000  -0.00000   0.00000 ...
   0.00000   0.00000  -0.00000  -0.00000   0.99638  -0.00000   0.00000  -0.05176  -0.00000  -0.00000  -0.00000  -0.00000 ...
  -0.00000   0.00000  -0.05176   0.00000  -0.00000   0.72012  -0.00000   0.00000   0.00000  -0.00000   0.00000   0.00000 ...
  -0.00000  -0.00000   0.00000  -0.05176   0.00000  -0.00000   0.72012   0.00000  -0.00000   0.00000  -0.00000   0.00000 ...
   0.00000  -0.00000  -0.00000   0.00000  -0.05176   0.00000   0.00000   0.72012  -0.00000  -0.00000  -0.00000  -0.00000 ...
   0.00000   0.00000   0.00000  -0.00000  -0.00000   0.00000  -0.00000  -0.00000   0.88199  -0.00000   0.00000  -0.00000 ...
   0.00000  -0.00000  -0.00000   0.00000  -0.00000  -0.00000   0.00000  -0.00000  -0.00000   0.88199  -0.00000  -0.00000 ...
   0.00000  -0.00000   0.00000  -0.00000  -0.00000   0.00000  -0.00000  -0.00000   0.00000  -0.00000   0.96450  -0.00000 ...
   0.00000   0.00000  -0.00000   0.00000  -0.00000   0.00000   0.00000  -0.00000  -0.00000  -0.00000  -0.00000   0.88199 ...
   ...  only 12  components have been written...
 Atom #  1 - Spin component 2
   0.99900  -0.01334  -0.00000  -0.00000   0.00000  -0.00000  -0.00000   0.00000   0.00000  -0.00000   0.00000   0.00000 ...
  -0.01334   0.67558   0.00000  -0.00000  -0.00000   0.00000   0.00000  -0.00000  -0.00000   0.00000  -0.00000  -0.00000 ...
  -0.00000   0.00000   0.99835  -0.00000   0.00000  -0.02334  -0.00000  -0.00000   0.00000  -0.00000  -0.00000  -0.00000 ...
  -0.00000  -0.00000  -0.00000   0.99835   0.00000  -0.00000  -0.02334   0.00000  -0.00000   0.00000  -0.00000  -0.00000 ...
   0.00000  -0.00000   0.00000   0.00000   0.99835   0.00000   0.00000  -0.02334   0.00000  -0.00000  -0.00000  -0.00000 ...
  -0.00000   0.00000  -0.02334  -0.00000   0.00000   0.84706   0.00000  -0.00000  -0.00000  -0.00000  -0.00000  -0.00000 ...
  -0.00000   0.00000  -0.00000  -0.02334   0.00000   0.00000   0.84706  -0.00000  -0.00000  -0.00000  -0.00000  -0.00000 ...
   0.00000  -0.00000  -0.00000   0.00000  -0.02334  -0.00000  -0.00000   0.84706  -0.00000  -0.00000   0.00000  -0.00000 ...
   0.00000  -0.00000   0.00000  -0.00000   0.00000  -0.00000  -0.00000  -0.00000   0.50630   0.00000  -0.00000   0.00000 ...
  -0.00000   0.00000  -0.00000   0.00000  -0.00000  -0.00000  -0.00000  -0.00000   0.00000   0.50630  -0.00000   0.00000 ...
   0.00000  -0.00000  -0.00000  -0.00000  -0.00000  -0.00000  -0.00000   0.00000  -0.00000  -0.00000   0.30547  -0.00000 ...
   0.00000  -0.00000  -0.00000  -0.00000  -0.00000  -0.00000  -0.00000  -0.00000   0.00000   0.00000  -0.00000   0.50630 ...
   ...  only 12  components have been written...

 "PAW+U" part of augmentation waves occupancies Rhoij:
 Atom #  1 - L=2 ONLY - Spin component 1
   0.88199  -0.00000   0.00000  -0.00000  -0.00000  -0.00863   0.00000   0.00000   0.00000  -0.00000
  -0.00000   0.88199  -0.00000  -0.00000   0.00000   0.00000  -0.00863  -0.00000   0.00000   0.00000
   0.00000  -0.00000   0.96450  -0.00000  -0.00000  -0.00000  -0.00000  -0.02739   0.00000  -0.00000
  -0.00000  -0.00000  -0.00000   0.88199  -0.00000  -0.00000   0.00000   0.00000  -0.00863   0.00000
  -0.00000   0.00000  -0.00000  -0.00000   0.96450  -0.00000  -0.00000  -0.00000   0.00000  -0.02739
  -0.00863   0.00000  -0.00000  -0.00000  -0.00000   0.00261  -0.00000   0.00000   0.00000   0.00000
   0.00000  -0.00863  -0.00000   0.00000  -0.00000  -0.00000   0.00261   0.00000   0.00000   0.00000
   0.00000  -0.00000  -0.02739   0.00000  -0.00000   0.00000   0.00000   0.00402  -0.00000   0.00000
   0.00000   0.00000   0.00000  -0.00863   0.00000   0.00000   0.00000  -0.00000   0.00261  -0.00000
  -0.00000   0.00000  -0.00000   0.00000  -0.02739   0.00000   0.00000   0.00000  -0.00000   0.00402
 Atom #  1 - L=2 ONLY - Spin component 2
   0.50630   0.00000  -0.00000   0.00000   0.00000   0.03030   0.00000  -0.00000  -0.00000   0.00000
   0.00000   0.50630  -0.00000   0.00000  -0.00000   0.00000   0.03030  -0.00000   0.00000   0.00000
  -0.00000  -0.00000   0.30547  -0.00000  -0.00000  -0.00000  -0.00000   0.02718   0.00000  -0.00000
   0.00000   0.00000  -0.00000   0.50630  -0.00000  -0.00000   0.00000   0.00000   0.03030   0.00000
   0.00000  -0.00000  -0.00000  -0.00000   0.30547  -0.00000   0.00000  -0.00000   0.00000   0.02718
   0.03030   0.00000  -0.00000  -0.00000  -0.00000   0.00235   0.00000   0.00000   0.00000   0.00000
   0.00000   0.03030  -0.00000   0.00000   0.00000   0.00000   0.00235   0.00000   0.00000   0.00000
  -0.00000  -0.00000   0.02718   0.00000  -0.00000   0.00000   0.00000   0.00276   0.00000  -0.00000
  -0.00000   0.00000   0.00000   0.03030   0.00000   0.00000   0.00000   0.00000   0.00235   0.00000
[...]
                       0.000000  0.000000
                       1.000000  1.000000  1.000000  1.000000  0.918183  0.865091
                       0.913781  0.093627  0.077732  0.109874  0.041518  0.008026
                       0.000307  0.000000  0.000000  0.000000  0.000000  0.000000
                       0.000000  0.000000
                       1.000000  1.000000  1.000000  1.000000  0.886482  0.900531
                       0.924026  0.052767  0.100828  0.053202  0.054410  0.019986
                       0.004117  0.000000  0.000000  0.000000  0.000000  0.000000
                       0.000000  0.000000
                       1.000000  1.000000  1.000000  1.000000  0.935482  0.872135
                       0.900394  0.047393  0.106336  0.088828  0.019606  0.020369
                       0.000060  0.000000  0.000000  0.000000  0.000000  0.000000
                       0.000000  0.000000
                       1.000000  1.000000  1.000000  1.000000  0.953336  0.863224
                       0.909018  0.091243  0.056381  0.098194  0.023148  0.004101
                       0.001026  0.000000  0.000000  0.000000  0.000000  0.000000
                       0.000000  0.000000
                       1.000000  1.000000  1.000000  1.000000  0.953334  0.863247
                       0.909022  0.091250  0.056375  0.098199  0.023151  0.004101
                       0.001026  0.000000  0.000000  0.000000  0.000000  0.000000
                       0.000000  0.000000
                       1.000000  1.000000  1.000000  1.000000  0.935482  0.878208
                       0.894332  0.045555  0.108173  0.088829  0.020520  0.019455
                       0.000060  0.000000  0.000000  0.000000  0.000000  0.000000
                       0.000000  0.000000
                       1.000000  1.000000  1.000000  1.000000  0.886483  0.929082
                       0.895482  0.054014  0.099576  0.057138  0.050461  0.019986
                       0.004117  0.000000  0.000000  0.000000  0.000000  0.000000
                       0.000000  0.000000
                       1.000000  1.000000  1.000000  1.000000  0.953254  0.863690
                       0.909002  0.085578  0.062164  0.098177  0.023129  0.004116
                       0.001013  0.000000  0.000000  0.000000  0.000000  0.000000
                       0.000000  0.000000
                       1.000000  1.000000  1.000000  1.000000  0.990518  0.860827
                       0.767263  0.099723  0.082610  0.091897  0.009070  0.003923
                       0.001077  0.000000  0.000000  0.000000  0.000000  0.000000
                       0.000000  0.000000
                       1.000000  1.000000  1.000000  1.000000  0.990518  0.860844
                       0.767285  0.099732  0.082607  0.091894  0.009070  0.003923
                       0.001077  0.000000  0.000000  0.000000  0.000000  0.000000
                       0.000000  0.000000
                       1.000000  1.000000  1.000000  1.000000  0.952858  0.835222
                       0.903021  0.073115  0.085233  0.114978  0.047083  0.006708
                       0.000261  0.000000  0.000000  0.000000  0.000000  0.000000
                       0.000000  0.000000
                       1.000000  1.000000  1.000000  1.000000  0.937972  0.960922
                       0.674016  0.105519  0.070649  0.095668  0.017138  0.008968
                       0.003208  0.000000  0.000000  0.000000  0.000000  0.000000
                       0.000000  0.000000
                       1.000000  1.000000  1.000000  1.000000  0.937972  0.960922
                       0.673989  0.105523  0.070642  0.095676  0.017139  0.008967
                       0.003208  0.000000  0.000000  0.000000  0.000000  0.000000
                       0.000000  0.000000
                       1.000000  1.000000  1.000000  1.000000  0.952859  0.835221
                       0.903015  0.073113  0.085225  0.114988  0.047084  0.006708
                       0.000261  0.000000  0.000000  0.000000  0.000000  0.000000
                       0.000000  0.000000
                       1.000000  1.000000  1.000000  1.000000  0.990612  0.862644
                       0.767369  0.087693  0.082766  0.097132  0.009007  0.003927
                       0.001040  0.000000  0.000000  0.000000  0.000000  0.000000
                       0.000000  0.000000
                       1.000000  1.000000  1.000000  1.000000  0.939183  0.960917
                       0.675193  0.102183  0.071411  0.096469  0.017157  0.008992
                       0.003100  0.000000  0.000000  0.000000  0.000000  0.000000
                       0.000000  0.000000
                       1.000000  1.000000  1.000000  1.000000  0.986730  0.928858
                       0.107003  0.080861  0.062295  0.016398  0.020142  0.004513
                       0.005640  0.000000  0.000000  0.000000  0.000000  0.000000
                       0.000000  0.000000
                       1.000000  1.000000  1.000000  1.000000  0.987281  0.928487
                       0.106988  0.060971  0.082191  0.017774  0.018753  0.004513
                       0.005619  0.000000  0.000000  0.000000  0.000000  0.000000
                       0.000000  0.000000
                       1.000000  1.000000  1.000000  1.000000  0.939181  0.960914
                       0.675186  0.102187  0.071411  0.096469  0.017158  0.008992
                       0.003100  0.000000  0.000000  0.000000  0.000000  0.000000
                       0.000000  0.000000
                       1.000000  1.000000  1.000000  1.000000  0.990612  0.862586
                       0.767349  0.087688  0.082768  0.097124  0.009007  0.003927
                       0.001040  0.000000  0.000000  0.000000  0.000000  0.000000
                       0.000000  0.000000
                       1.000000  1.000000  1.000000  1.000000  0.990612  0.862625
                       0.767406  0.087715  0.082756  0.097131  0.009007  0.003927
                       0.001040  0.000000  0.000000  0.000000  0.000000  0.000000
                       0.000000  0.000000
                       1.000000  1.000000  1.000000  1.000000  0.939185  0.960912
                       0.675157  0.102210  0.071403  0.096478  0.017157  0.008992
                       0.003099  0.000000  0.000000  0.000000  0.000000  0.000000
                       0.000000  0.000000
                       1.000000  1.000000  1.000000  1.000000  0.986278  0.929208
                       0.106995  0.059450  0.083724  0.016426  0.020120  0.004513
                       0.005551  0.000000  0.000000  0.000000  0.000000  0.000000
                       0.000000  0.000000
                       1.000000  1.000000  1.000000  1.000000  0.986283  0.929519
                       0.106975  0.062657  0.080516  0.016718  0.019811  0.004513
                       0.005608  0.000000  0.000000  0.000000  0.000000  0.000000
                       0.000000  0.000000
                       1.000000  1.000000  1.000000  1.000000  0.939182  0.960907
                       0.675180  0.102216  0.071404  0.096483  0.017158  0.008992
                       0.003100  0.000000  0.000000  0.000000  0.000000  0.000000
                       0.000000  0.000000
                       1.000000  1.000000  1.000000  1.000000  0.990612  0.862572
                       0.767383  0.087719  0.082760  0.097136  0.009007  0.003927
                       0.001040  0.000000  0.000000  0.000000  0.000000  0.000000
                       0.000000  0.000000
                       1.000000  1.000000  1.000000  1.000000  0.999395  0.646313
                       0.565868  0.164883  0.048312  0.115003  0.001983  0.001753
                       0.000000  0.000000  0.000000  0.000000  0.000000  0.000000
                       0.000000  0.000000
                       1.000000  1.000000  1.000000  1.000000  0.952859  0.835224
                       0.903018  0.073116  0.085225  0.114985  0.047083  0.006708
                       0.000261  0.000000  0.000000  0.000000  0.000000  0.000000
                       0.000000  0.000000
                       1.000000  1.000000  1.000000  1.000000  0.937972  0.960926
                       0.674001  0.105543  0.070650  0.095665  0.017141  0.008968
                       0.003208  0.000000  0.000000  0.000000  0.000000  0.000000
                       0.000000  0.000000
                       1.000000  1.000000  1.000000  1.000000  0.937975  0.960924
                       0.673962  0.105553  0.070646  0.095673  0.017140  0.008967
                       0.003208  0.000000  0.000000  0.000000  0.000000  0.000000
                       0.000000  0.000000
                       1.000000  1.000000  1.000000  1.000000  0.952859  0.835220
                       0.903014  0.073121  0.085224  0.114995  0.047082  0.006708
                       0.000261  0.000000  0.000000  0.000000  0.000000  0.000000
                       0.000000  0.000000
                       1.000000  1.000000  1.000000  1.000000  0.971583  0.828884
                       0.935345  0.065082  0.111442  0.078886  0.027067  0.003635
                       0.000934  0.000000  0.000000  0.000000  0.000000  0.000000
                       0.000000  0.000000
                       1.000000  1.000000  1.000000  1.000000  0.990519  0.860790
                       0.767262  0.099746  0.082620  0.091889  0.009071  0.003923
                       0.001077  0.000000  0.000000  0.000000  0.000000  0.000000
                       0.000000  0.000000
                       1.000000  1.000000  1.000000  1.000000  0.990519  0.860792
                       0.767282  0.099758  0.082620  0.091901  0.009071  0.003923
                       0.001077  0.000000  0.000000  0.000000  0.000000  0.000000
                       0.000000  0.000000
                       1.000000  1.000000  1.000000  1.000000  0.971585  0.828889
                       0.935348  0.065079  0.111444  0.078893  0.027069  0.003635
                       0.000934  0.000000  0.000000  0.000000  0.000000  0.000000
                       0.000000  0.000000
                       1.000000  1.000000  1.000000  1.000000  0.999395  0.640043
                       0.572102  0.164896  0.047036  0.116276  0.001713  0.002023
                       0.000000  0.000000  0.000000  0.000000  0.000000  0.000000
                       0.000000  0.000000
           occopt           3
        optforces1          2
        optforces2          0
        optforces3          0
        optforces4          0
-      paral_atom           0
        pawecutdg      5.00000000E+01 Hartree
        pawprtvol           3
           prtvol           4
            rprim     -5.0000000000E-01  5.0000000000E-01  5.0000000000E-01
                       5.0000000000E-01 -5.0000000000E-01  5.0000000000E-01
                       5.0000000000E-01  5.0000000000E-01 -5.0000000000E-01
           shiftk      5.00000000E-01  5.00000000E-01 -5.00000000E-01
          spgroup           1
           spinat      0.0000000000E+00  0.0000000000E+00  2.0000000000E+00
           strten1     8.3387253069E-04  8.3387233929E-04  8.3387189481E-04
                      -7.6980858294E-11  1.7347702839E-11 -9.4724885678E-11
           strten2     8.1266040810E-04 -9.0670451585E-04 -2.2703718422E-04
                      -3.6998101834E-05 -7.0327999956E-05  1.0336557725E-04
           strten3    -5.9143054828E-03 -6.3681421946E-03 -5.6038325642E-03
                       8.1803400544E-05  1.6743497357E-04 -3.3256350273E-05
           strten4    -9.3910358922E-03 -9.2881583986E-03 -7.5141935877E-03
                      -2.5863488645E-06 -5.8618121460E-06 -3.6294109953E-06
           tolvrs      1.00000000E-10
           tsmear      6.33362313E-03 Hartree
            typat      1
            upawu1     0.00000000E+00 Hartree
            upawu2     2.02121272E-01 Hartree
            upawu3     2.02121272E-01 Hartree
            upawu4     2.02121272E-01 Hartree
          usedmft1          0
          usedmft2          1
          usedmft3          1
          usedmft4          1
          usepawu1          1
          usepawu2         10
          usepawu3         10
          usepawu4         10
           useylm           1
              wtk        0.01563    0.01563    0.01563    0.01563    0.01563    0.01563
                         0.01563    0.01563    0.01563    0.01563    0.01563    0.01563
                         0.01563    0.01563    0.01563    0.01563    0.01563    0.01563
                         0.01563    0.01563    0.01563    0.01563    0.01563    0.01563
                         0.01563    0.01563    0.01563    0.01563    0.01563    0.01563
                         0.01563    0.01563    0.01563    0.01563    0.01563    0.01563
                         0.01563    0.01563    0.01563    0.01563    0.01563    0.01563
                         0.01563    0.01563    0.01563    0.01563    0.01563    0.01563
                         0.01563    0.01563    0.01563    0.01563    0.01563    0.01563
                         0.01563    0.01563    0.01563    0.01563    0.01563    0.01563
                         0.01563    0.01563    0.01563    0.01563
            znucl       26.00000

================================================================================

 The spacegroup number, the magnetic point group, and/or the number of symmetries
 have changed between the initial recognition based on the input file
 and a postprocessing based on the final acell, rprim, and xred.
 More details in the log file.


- Timing analysis has been suppressed with timopt=0



================================================================================

 Suggested references for the acknowledgment of ABINIT usage.

 The users of ABINIT have little formal obligations with respect to the ABINIT group
 (those specified in the GNU General Public License, http://www.gnu.org/copyleft/gpl.txt).
 However, it is common practice in the scientific literature,
 to acknowledge the efforts of people that have made the research possible.
 In this spirit, please find below suggested citations of work written by ABINIT developers,
 corresponding to implementations inside of ABINIT that you have used in the present run.
 Note also that it will be of great value to readers of publications presenting these results,
 to read papers enabling them to understand the theoretical formalism and details
 of the ABINIT implementation.
 For information on why they are suggested, see also https://docs.abinit.org/theory/acknowledgments.
-
- [1] A self-consistent DFT + DMFT scheme in the projector augmented wave method: 
- applications to cerium, Ce2O3 and Pu2O3 with the Hubbard I solver and comparison to DFT + U,
- B. Amadon,  J. Phys.: Condens. Matter 24 075604 (2012).
- Comment : Describes the self-consistent implementation of DFT+DMFT in PAW
- DOI and bibtex: see https://docs.abinit.org/theory/bibliography/#amadon2012
-
- [2] Plane-wave based electronic structure calculations for correlated materials.
- using dynamical mean-field theory and projected local orbitals,
- B. Amadon, F. Lechermann, A. Georges, F. Jollet, T.O. Wehling, A.I. Lichenstein,
- Phys. Rev. B 77, 205112 (2008).
- Comment: to be cited in case the computation of overlap operator for Wannier90 interface within PAW is used,
- i.e. prtwant=2 and usepaw=1. The paper describes also the DFT+DMFT implementation on Wannier functions
- DOI and bibtex: see https://docs.abinit.org/theory/bibliography/#amadon2008
-
- [3] Gamma and beta cerium: DFT+U calculations of ground-state parameters.
- B. Amadon, F. Jollet and M. Torrent, Phys. Rev. B 77, 155104 (2008).
- Comment: DFT+U calculations, usepawu/=0. Strong suggestion to cite this paper.
- DOI and bibtex: see https://docs.abinit.org/theory/bibliography/#amadon2008a
-
- [4] Implementation of the Projector Augmented-Wave Method in the ABINIT code.
- M. Torrent, F. Jollet, F. Bottin, G. Zerah, and X. Gonze Comput. Mat. Science 42, 337, (2008).
- Comment: PAW calculations. Strong suggestion to cite this paper.
- DOI and bibtex: see https://docs.abinit.org/theory/bibliography/#torrent2008
-
- [5] Abinit 2025: New Capabilities for the Predictive Modeling of Solids and Nanomaterials.
- J. Chem. Phys. 163, 164126 (2025).
- M.J. Verstraete, J. Abreu, G. Allemand, B. Amadon, G. Antonius,
- M. Azizi, L. Baguet, C. Barat, L. Bastogne, R. Bejaud, J.-M. Beuken,
- J. Bieder, A. Blanchet, F. Bottin, J. Bouchet, J. Bouquiaux, E. Bousquet,
- J. Boust, F. Brieuc, V. Brousseau-Couture, N. Brouwer, F. Bruneval,
- A. Castellano, E. Castiel, J.-B. Charraud, J. Clerouin, M. Cote, C. Duval,
- A. Gallo, F. Gendron, G. Geneste, Ph. Ghosez, M. Giantomassi, O. Gingras,
- F. Gomez-Ortiz, X. Gonze, F. Goudreault, A. Gruneis, R. Gupta, B. Guster,
- D.R. Hamann, Xu He, O. Hellman, N. Holzwarth, F. Jollet, P. Kestener,
- I.-M. Lygatsika, O. Nadeau, L. MacEnulty, E. Mara
- Comment: the sixth generic paper describing the ABINIT project.
- Note that a version of this paper, that is not formatted for J. Chem. Phys. 
- is available at
- https://github.com/abinit/abinit_assets/tree/main/abinit_package/papers/ABINIT25.pdf .
- The licence allows the authors to put it on the Web.
- DOI and bibtex: see https://docs.abinit.org/theory/bibliography/#verstraete2025
-
- [6] The Abinit project: Impact, environment and recent developments.
- Computer Phys. Comm. 248, 107042 (2020).
- X.Gonze, B. Amadon, G. Antonius, F.Arnardi, L.Baguet, J.-M.Beuken,
- J.Bieder, F.Bottin, J.Bouchet, E.Bousquet, N.Brouwer, F.Bruneval,
- G.Brunin, T.Cavignac, J.-B. Charraud, Wei Chen, M.Cote, S.Cottenier,
- J.Denier, G.Geneste, Ph.Ghosez, M.Giantomassi, Y.Gillet, O.Gingras,
- D.R.Hamann, G.Hautier, Xu He, N.Helbig, N.Holzwarth, Y.Jia, F.Jollet,
- W.Lafargue-Dit-Hauret, K.Lejaeghere, M.A.L.Marques, A.Martin, C.Martins,
- H.P.C. Miranda, F.Naccarato, K. Persson, G.Petretto, V.Planes, Y.Pouillon,
- S.Prokhorenko, F.Ricci, G.-M.Rignanese, A.H.Romero, M.M.Schmitt, M.Torrent,
- M.J.van Setten, B.Van Troeye, M.J.Verstraete, G.Zerah and J.W.Zwanzig
- Comment: the fifth generic paper describing the ABINIT project.
- Note that a version of this paper, that is not formatted for Computer Phys. Comm. 
- is available at
- https://github.com/abinit/abinit_assets/tree/main/abinit_package/papers/ABINIT20.pdf .
- The licence allows the authors to put it on the Web.
- DOI and bibtex: see https://docs.abinit.org/theory/bibliography/#gonze2020
-
- [7] The Abinit project: Impact, environment and recent developments.
- Computer Phys. Comm. 248, 107042 (2020).
- X.Gonze, B. Amadon, G. Antonius, F.Arnardi, L.Baguet, J.-M.Beuken,
- J.Bieder, F.Bottin, J.Bouchet, E.Bousquet, N.Brouwer, F.Bruneval,
- G.Brunin, T.Cavignac, J.-B. Charraud, Wei Chen, M.Cote, S.Cottenier,
- J.Denier, G.Geneste, Ph.Ghosez, M.Giantomassi, Y.Gillet, O.Gingras,
- D.R.Hamann, G.Hautier, Xu He, N.Helbig, N.Holzwarth, Y.Jia, F.Jollet,
- W.Lafargue-Dit-Hauret, K.Lejaeghere, M.A.L.Marques, A.Martin, C.Martins,
- H.P.C. Miranda, F.Naccarato, K. Persson, G.Petretto, V.Planes, Y.Pouillon,
- S.Prokhorenko, F.Ricci, G.-M.Rignanese, A.H.Romero, M.M.Schmitt, M.Torrent,
- M.J.van Setten, B.Van Troeye, M.J.Verstraete, G.Zerah and J.W.Zwanzig
- Comment: a global overview of ABINIT, with focus on selected capabilities .
- Note that a version of this paper, that is not formatted for J. Chem. Phys. 
- is available at
-  https://github.com/abinit/abinit_assets/tree/main/abinit_package/papers/ABINIT20_JPC.pdf .
- The licence allows the authors to put it on the Web.
- DOI and bibtex: see https://docs.abinit.org/theory/bibliography/#romero2020
-
- Proc.   0 individual time (sec): cpu=        103.5  wall=        113.5

================================================================================

 Calculation completed.
.Delivered   3 WARNINGs and   0 COMMENTs to log file.
+Overall time at end (sec) : cpu=        893.4  wall=        907.0
