
.Version 10.4.5.8 of ABINIT, released Sep 2025.
.(MPI version, prepared for a x86_64_linux_gnu14.2 computer) 

.Copyright (C) 1998-2025 ABINIT group . 
 ABINIT comes with ABSOLUTELY NO WARRANTY.
 It is free software, and you are welcome to redistribute it
 under certain conditions (GNU General Public License,
 see ~abinit/COPYING or http://www.gnu.org/copyleft/gpl.txt).

 ABINIT is a project of the Universite Catholique de Louvain,
 Corning Inc. and other collaborators, see ~abinit/doc/developers/contributors.txt .
 Please read https://docs.abinit.org/theory/acknowledgments for suggested
 acknowledgments of the ABINIT effort.
 For more information, see https://www.abinit.org .

.Starting date : Wed 24 Sep 2025.
- ( at 18h20 )
  
- input  file    -> /opt/ABINIT/atlas_gnu_14.2_triqs/srostami_test/tests/TestBot_MPI8_OMP1/paral_t112_MPI8/t112.abi
- output file    -> t112_MPI8.abo
- root for input  files -> t112_MPI8i
- root for output files -> t112_MPI8o


 invars1: COMMENT -
  With nspinor=2 and usepaw=1, pawspnorb=1 has been switched on by default.

 invars1: COMMENT -
  With nspinor=2 and usepaw=1, pawspnorb=1 has been switched on by default.
 DATASET    3 : space group I4 3 2 (#211); Bravais cI (body-center cubic)
================================================================================
 Values of the parameters that define the memory need for DATASET  3.
     intxc =       0    ionmov =       0      iscf =      -2    lmnmax =      18
     lnmax =       6     mgfft =      24  mpssoang =       3    mqgrid =    3001
     natom =       1  nloc_mem =       2    nspden =       4   nspinor =       2
    nsppol =       1      nsym =      24    n1xccc =       1    ntypat =       1
    occopt =       3   xclevel =       1
-    mband =          40        mffmem =           1         mkmem =           1
       mpw =         476          nfft =       13824          nkpt =           5
 PAW method is used; the additional fine FFT grid is defined by:
   mgfftf=        30    nfftf =     27000
================================================================================
P This job should need less than                      12.402 Mbytes of memory.
  Rough estimation (10% accuracy) of disk space for files :
_ WF disk file :      1.455 Mbytes ; DEN or POT disk file :      0.208 Mbytes.
================================================================================

 DATASET    4 : space group I4 3 2 (#211); Bravais cI (body-center cubic)
================================================================================
 Values of the parameters that define the memory need for DATASET  4.
     intxc =       0    ionmov =       0      iscf =      -2    lmnmax =      18
     lnmax =       6     mgfft =      24  mpssoang =       3    mqgrid =    3001
     natom =       1  nloc_mem =       2    nspden =       4   nspinor =       2
    nsppol =       1      nsym =      24    n1xccc =       1    ntypat =       1
    occopt =       3   xclevel =       1
-    mband =          40        mffmem =           1         mkmem =           1
       mpw =         475          nfft =       13824          nkpt =           2
 PAW method is used; the additional fine FFT grid is defined by:
   mgfftf=        30    nfftf =     27000
================================================================================
P This job should need less than                      12.332 Mbytes of memory.
  Rough estimation (10% accuracy) of disk space for files :
_ WF disk file :      0.582 Mbytes ; DEN or POT disk file :      0.208 Mbytes.
================================================================================

--------------------------------------------------------------------------------
------------- Echo of variables that govern the present computation ------------
--------------------------------------------------------------------------------
-
- outvars: echo of selected default values
-   iomode0 =  0 , fftalg0 =512 , wfoptalg0 = 10
-
- outvars: echo of global parameters not present in the input file
-  max_nthreads =    0
-
 -outvars: echo values of preprocessed input variables --------
            acell      5.5000000000E+00  5.5000000000E+00  5.5000000000E+00 Bohr
              amu      5.58470000E+01
        dmftbandf          25
        dmftbandi           9
  dmftctqmc_basis           2
   dmftctqmc_meas         100
          dmft_dc           6
        dmft_iter           1
        dmft_mxsf      8.0000000000E-01
        dmft_nwli        1000
        dmftqmc_l         500
        dmftqmc_n      1.0000000000E+05
    dmftqmc_therm        1000
        dmft_solv           6
  dmft_triqs_wmax      1.0000000000E+00
             ecut      2.40000000E+01 Hartree
-          fftalg         112
           getden           2
          getself           2
             iscf          -2
           istwfk3       1    0    0    0    1
              ixc           7
           jdtset        3    4
              kpt3     0.00000000E+00  0.00000000E+00  0.00000000E+00
                       0.00000000E+00  1.25000000E-01  0.00000000E+00
                       0.00000000E+00  2.50000000E-01  0.00000000E+00
                       0.00000000E+00  3.75000000E-01  0.00000000E+00
                       0.00000000E+00  5.00000000E-01  0.00000000E+00
              kpt4    -1.25000000E-01 -1.25000000E-01  3.75000000E-01
                      -3.75000000E-01 -3.75000000E-01  1.25000000E-01
           kptopt3         -1
           kptopt4          4
         kptrlatt        2    0    2      0    2    2     -2   -2    0
          kptrlen3     3.00000000E+01
          kptrlen4     1.10000000E+01
          kssform           3
            lpawu           2
P           mkmem           1
            natom           1
            nband3         40
            nband4         40
         nbandkss          20
           nbdbuf          10
           ndtset           2
           ndivsm3          4
           ndivsm4          0
            ngfft          24      24      24
          ngfftdg          30      30      30
             nkpt3          5
             nkpt4          2
           nspden           4
          nspinor           2
            nstep          75
             nsym          24
           ntypat           1
           occopt           3
        optforces           0
-      paral_atom           0
        pawcpxocc           2
        pawecutdg      4.80000000E+01 Hartree
        pawprtvol           3
        pawspnorb           1
            rprim     -5.0000000000E-01  5.0000000000E-01  5.0000000000E-01
                       5.0000000000E-01 -5.0000000000E-01  5.0000000000E-01
                       5.0000000000E-01  5.0000000000E-01 -5.0000000000E-01
           shiftk3     5.00000000E-01  5.00000000E-01  5.00000000E-01
           shiftk4     5.00000000E-01  5.00000000E-01 -5.00000000E-01
          spgroup         211
           symrel      1  0  0   0  1  0   0  0  1      -1 -1 -1   0  0  1   0  1  0
                       0  1  0   1  0  0  -1 -1 -1       0  0  1  -1 -1 -1   1  0  0
                       0 -1  0  -1  0  0   0  0 -1       1  1  1   0  0 -1  -1  0  0
                      -1  0  0   0 -1  0   1  1  1       0  0 -1   1  1  1   0 -1  0
                      -1 -1 -1   1  0  0   0  0  1       0  1  0   0  0  1   1  0  0
                       1  0  0  -1 -1 -1   0  1  0       0  0  1   0  1  0  -1 -1 -1
                      -1  0  0   1  1  1   0  0 -1       0 -1  0   0  0 -1   1  1  1
                       1  1  1  -1  0  0   0 -1  0       0  0 -1   0 -1  0  -1  0  0
                       0  1  0  -1 -1 -1   0  0  1       1  0  0   0  0  1  -1 -1 -1
                      -1 -1 -1   0  1  0   1  0  0       0  0  1   1  0  0   0  1  0
                       1  1  1   0 -1  0   0  0 -1      -1  0  0   0  0 -1   0 -1  0
                       0 -1  0   1  1  1  -1  0  0       0  0 -1  -1  0  0   1  1  1
           tolvrs      1.00000000E-15
           tolwfr      1.00000000E-12
           tsmear      3.16681542E-03 Hartree
            typat      1
          usedmft           1
          usepawu          14
           useylm           1
              wtk3       1.00000    1.00000    1.00000    1.00000    1.00000
              wtk4       0.50000    0.50000
            znucl       26.00000

================================================================================

 chkinp: Checking input parameters for consistency, jdtset=   3.

 chkinp: Checking input parameters for consistency, jdtset=   4.

================================================================================
== DATASET  3 ==================================================================
-   mpi_nproc: 8, omp_nthreads: -1 (-1 if OMP is not activated)
-    --> not optimal distribution: autoparal keyword recommended in input file <--


--- !DatasetInfo
iteration_state: {dtset: 3, }
dimensions: {natom: 1, nkpt: 5, mband: 40, nsppol: 1, nspinor: 2, nspden: 4, mpw: 476, }
cutoff_energies: {ecut:  24.0, pawecutdg:  48.0, }
electrons: {nelect:   1.60000000E+01, charge:   0.00000000E+00, occopt:   3.00000000E+00, tsmear:   3.16681542E-03, }
meta: {optdriver: 0, ionmov: 0, optcell: 0, iscf: -2, paral_kgb: 0, }
...

 mkfilename : getden/=0, take file _DEN from output of DATASET   2.

 mkfilename : getself/=0, take file _Self-omega from output of DATASET   2.

 Exchange-correlation functional for the present dataset will be:
  LDA: Perdew-Wang 92 LSD fit to Ceperley-Alder data - ixc=7
 Citation for XC functional:
  J.P.Perdew and Y.Wang, PRB 45, 13244 (1992)

 Real(R)+Recip(G) space primitive vectors, cartesian coordinates (Bohr,Bohr^-1):
 R(1)= -2.7500000  2.7500000  2.7500000  G(1)=  0.0000000  0.1818182  0.1818182
 R(2)=  2.7500000 -2.7500000  2.7500000  G(2)=  0.1818182  0.0000000  0.1818182
 R(3)=  2.7500000  2.7500000 -2.7500000  G(3)=  0.1818182  0.1818182  0.0000000
 Unit cell volume ucvol=  8.3187500E+01 bohr^3
 Angles (23,13,12)=  1.09471221E+02  1.09471221E+02  1.09471221E+02 degrees

 Coarse grid specifications (used for wave-functions):

 getcut: wavevector=  0.0000  0.0000  0.0000  ngfft=  24  24  24
         ecut(hartree)=     24.000   => boxcut(ratio)=   2.28479

 getcut : COMMENT -
  Note that boxcut > 2.2 ; recall that boxcut=Gcut(box)/Gcut(sphere) = 2
  is sufficient for exact treatment of convolution.
  Such a large boxcut is a waste : you could raise ecut
  e.g. ecut=   31.321720 Hartrees makes boxcut=2


 Fine grid specifications (used for densities):

 getcut: wavevector=  0.0000  0.0000  0.0000  ngfft=  30  30  30
         ecut(hartree)=     48.000   => boxcut(ratio)=   2.01949

--- Pseudopotential description ------------------------------------------------
- pspini: atom type   1  psp file is /opt/ABINIT/atlas_gnu_14.2_triqs/srostami_test/tests/Pspdir/26fe.lda2.paw
- pspatm: opening atomic psp file    /opt/ABINIT/atlas_gnu_14.2_triqs/srostami_test/tests/Pspdir/26fe.lda2.paw
- Paw atomic data for element Fe - Generated by AtomPAW + AtomPAW2Abinit v3.2.0
- 26.00000  16.00000  20120514                znucl, zion, pspdat
    7    7    2    0      1061   0.00000      pspcod,pspxc,lmax,lloc,mmax,r2well
 Pseudopotential format is: paw4
 basis_size (lnmax)=  6 (lmn_size= 18), orbitals=   0   0   1   1   2   2
 Spheres core radius: rc_sph= 2.01261267
 3 radial meshes are used:
  - mesh 1: r(i)=AA*[exp(BB*(i-1))-1], size=1061 , AA= 0.31899E-03 BB= 0.82938E-02
  - mesh 2: r(i)=AA*[exp(BB*(i-1))-1], size=1121 , AA= 0.31899E-03 BB= 0.82938E-02
  - mesh 3: r(i)=AA*[exp(BB*(i-1))-1], size=1249 , AA= 0.31899E-03 BB= 0.82938E-02
 Shapefunction is BESSEL type: shapef(r,l)=aa(1,l)*jl(q(1,l)*r)+aa(2,l)*jl(q(2,l)*r)
 Radius for shape functions = sphere core radius
 Radial grid used for partial waves is grid 1
 Radial grid used for projectors is grid  2
 Radial grid used for (t)core density is grid 1
 Radial grid used for Vloc is grid 3
 Radial grid used for pseudo valence density is grid 3
 Compensation charge density is taken into account in XC energy/potential
 pspatm: atomic psp has been read  and splines computed

--------------------------------------------------------------------------------


-       ( number of procs used in dmft ) =    8


 ******************************************
 DFT+DMFT Method is used
 ******************************************

 DMFT uses the Continuous Time Quantum Monte Carlo solver of TRIQS (with density density interactions)

 Non Magnetic DFT, with Non-Magnetic AMF (Around Mean Field) double counting

 Entropy is not computed, only the internal energy is printed

 The off-diagonal elements of the Green's function are neglected

================================================================================
 prteigrs : about to open file t112_MPI8o_DS3_EIG
 Non-SCF case, kpt    1 (  0.00000  0.00000  0.00000), residuals and eigenvalues=
  2.40E-13  8.64E-13  1.50E-13  2.03E-13  3.60E-13  7.81E-13  4.97E-13  6.73E-13
  2.30E-13  4.53E-13  2.91E-13  6.79E-13  1.78E-13  4.29E-13  5.14E-14  6.34E-13
  2.47E-13  2.66E-13  1.89E-13  5.66E-13  4.09E-13  8.09E-13  6.40E-13  8.17E-13
  4.40E-13  7.85E-13  7.78E-13  8.01E-13  5.88E-13  9.43E-13  3.54E-13  1.06E-12
  4.19E-07  4.82E-07  4.13E-09  8.06E-09  2.10E-08  4.24E-09  6.86E-13  9.16E-13
 -2.8442E+00 -2.8442E+00 -1.6428E+00 -1.6428E+00 -1.5863E+00 -1.5863E+00
 -1.5863E+00 -1.5863E+00  9.2187E-03  9.2187E-03  2.6592E-01  2.6592E-01
  2.6592E-01  2.6592E-01  2.6917E-01  2.6917E-01  3.1942E-01  3.1942E-01
  3.1942E-01  3.1942E-01  1.1727E+00  1.1727E+00  1.1727E+00  1.1727E+00
  1.1727E+00  1.1727E+00  1.3602E+00  1.3602E+00  1.3602E+00  1.3602E+00
  1.4321E+00  1.4321E+00  1.4321E+00  1.4321E+00  1.4343E+00  1.4343E+00
  1.4373E+00  1.4373E+00  1.4505E+00  1.4505E+00
 Non-SCF case, kpt    2 (  0.00000  0.12500  0.00000), residuals and eigenvalues=
  3.62E-13  3.79E-13  2.35E-13  7.28E-13  4.19E-13  9.19E-13  2.67E-13  5.29E-13
  4.26E-13  7.44E-13  4.32E-13  2.50E-13  9.95E-13  1.58E-13  3.35E-13  4.51E-13
  2.81E-13  2.83E-13  2.01E-13  8.35E-13  1.08E-13  2.23E-13  6.37E-13  3.45E-13
  4.48E-13  8.91E-13  2.02E-13  2.83E-13  2.75E-13  4.47E-13  2.21E-13  2.21E-13
  2.68E-13  1.18E-12  2.93E-12  1.54E-11  2.85E-08  7.09E-07  4.66E-05  5.79E-05
 -2.8438E+00 -2.8438E+00 -1.6436E+00 -1.6436E+00 -1.5877E+00 -1.5877E+00
 -1.5866E+00 -1.5866E+00  3.1349E-02  3.1349E-02  2.6058E-01  2.6058E-01
  2.6545E-01  2.6545E-01  2.7913E-01  2.7913E-01  3.1394E-01  3.1394E-01
  3.1998E-01  3.1998E-01  1.0603E+00  1.0603E+00  1.1380E+00  1.1380E+00
  1.1623E+00  1.1623E+00  1.2812E+00  1.2812E+00  1.3090E+00  1.3090E+00
  1.3188E+00  1.3188E+00  1.4282E+00  1.4282E+00  1.4870E+00  1.4870E+00
  1.5798E+00  1.5798E+00  1.6081E+00  1.6083E+00
 Non-SCF case, kpt    3 (  0.00000  0.25000  0.00000), residuals and eigenvalues=
  2.64E-13  2.20E-13  7.87E-13  6.36E-13  9.47E-13  7.77E-13  9.44E-13  6.35E-13
  1.57E-13  4.99E-13  7.95E-13  3.35E-13  6.88E-13  2.80E-13  4.51E-13  5.55E-13
  8.63E-13  4.51E-13  5.31E-13  9.73E-14  1.82E-13  9.53E-13  5.39E-13  7.27E-13
  2.32E-13  6.93E-13  5.97E-13  8.12E-13  9.44E-13  1.51E-13  2.68E-13  2.49E-13
  3.29E-13  5.89E-12  4.13E-10  5.56E-10  1.78E-05  2.50E-05  7.75E-07  1.39E-06
 -2.8430E+00 -2.8430E+00 -1.6455E+00 -1.6455E+00 -1.5911E+00 -1.5911E+00
 -1.5873E+00 -1.5873E+00  9.0682E-02  9.0682E-02  2.4630E-01  2.4630E-01
  2.5793E-01  2.5793E-01  3.0963E-01  3.0963E-01  3.1189E-01  3.1189E-01
  3.2216E-01  3.2216E-01  8.6161E-01  8.6161E-01  1.0454E+00  1.0454E+00
  1.1427E+00  1.1427E+00  1.1459E+00  1.1459E+00  1.2605E+00  1.2605E+00
  1.3804E+00  1.3804E+00  1.4907E+00  1.4907E+00  1.6294E+00  1.6294E+00
  1.7798E+00  1.7799E+00  1.7868E+00  1.7868E+00
 Non-SCF case, kpt    4 (  0.00000  0.37500  0.00000), residuals and eigenvalues=
  1.86E-13  3.90E-13  3.27E-13  6.44E-13  4.45E-13  7.29E-13  7.04E-13  4.68E-13
  6.64E-13  6.23E-13  2.73E-13  3.34E-13  2.47E-13  8.35E-13  3.10E-13  2.20E-13
  2.71E-13  4.01E-13  1.71E-13  5.82E-13  2.51E-13  7.92E-13  4.45E-13  3.03E-13
  4.06E-13  3.88E-13  2.83E-13  2.16E-13  5.50E-13  5.36E-13  4.11E-13  2.85E-13
  8.67E-13  6.21E-13  2.76E-08  9.14E-08  1.99E-07  4.02E-06  3.73E-06  5.89E-05
 -2.8422E+00 -2.8422E+00 -1.6476E+00 -1.6476E+00 -1.5943E+00 -1.5943E+00
 -1.5879E+00 -1.5879E+00  1.5029E-01  1.5029E-01  2.3268E-01  2.3268E-01
  2.7479E-01  2.7479E-01  3.1689E-01  3.1689E-01  3.2516E-01  3.2516E-01
  3.4667E-01  3.4667E-01  6.7356E-01  6.7356E-01  9.7083E-01  9.7083E-01
  1.0406E+00  1.0406E+00  1.1354E+00  1.1354E+00  1.2524E+00  1.2524E+00
  1.5019E+00  1.5019E+00  1.5109E+00  1.5109E+00  1.8350E+00  1.8350E+00
  1.8786E+00  1.8786E+00  1.9203E+00  1.9204E+00
 Non-SCF case, kpt    5 (  0.00000  0.50000  0.00000), residuals and eigenvalues=
  3.06E-13  6.21E-13  6.45E-13  3.93E-13  3.03E-13  5.16E-13  4.85E-13  3.49E-13
  3.34E-13  5.38E-13  1.65E-13  2.85E-13  1.70E-13  5.13E-13  8.82E-14  2.27E-13
  1.61E-13  4.96E-13  1.29E-13  5.64E-13  3.47E-13  7.44E-13  6.25E-13  6.32E-13
  4.18E-13  8.42E-13  2.17E-13  9.76E-13  3.44E-13  7.36E-13  9.81E-13  2.77E-13
  1.82E-13  5.40E-13  1.02E-12  7.34E-12  1.32E-09  2.51E-09  1.61E-06  3.80E-05
 -2.8419E+00 -2.8419E+00 -1.6485E+00 -1.6485E+00 -1.5956E+00 -1.5956E+00
 -1.5882E+00 -1.5882E+00  1.6389E-01  1.6389E-01  2.2724E-01  2.2724E-01
  3.1820E-01  3.1820E-01  3.2187E-01  3.2187E-01  3.2674E-01  3.2674E-01
  3.6350E-01  3.6350E-01  5.7479E-01  5.7479E-01  9.4362E-01  9.4362E-01
  1.0015E+00  1.0015E+00  1.1320E+00  1.1320E+00  1.2547E+00  1.2547E+00
  1.4969E+00  1.4969E+00  1.6585E+00  1.6585E+00  1.7097E+00  1.7097E+00
  1.9136E+00  1.9136E+00  2.0288E+00  2.0288E+00


--- !ResultsGS
iteration_state: {dtset: 3, }
comment   : Summary of ground state results
lattice_vectors:
- [ -2.7500000,   2.7500000,   2.7500000, ]
- [  2.7500000,  -2.7500000,   2.7500000, ]
- [  2.7500000,   2.7500000,  -2.7500000, ]
lattice_lengths: [   4.76314,    4.76314,    4.76314, ]
lattice_angles: [109.471, 109.471, 109.471, ] # degrees, (23, 13, 12)
lattice_volume:   8.3187500E+01
convergence: {deltae:  0.000E+00, res2:  0.000E+00, residm:  9.951E-13, diffor:  0.000E+00, }
etotal    :  -1.24689577E+02
entropy   :   0.00000000E+00
fermie    :   3.10649919E-01
cartesian_stress_tensor: null
pressure_GPa: null
xred      :
- [  0.0000E+00,   0.0000E+00,   0.0000E+00, Fe]
cartesian_forces: null
force_length_stats: {min: null, max: null, mean: null, }
...

 Integrated electronic and magnetization densities in atomic spheres:
 ------------------------------------------------------------------------------------------------------------
 Radius=ratsph(iatom), smearing ratsm=  0.0000. mag(i)=approximate local magnetic moment.
    Atom    Radius     Total density      |mag|      mag(x)      mag(y)      mag(z)    mag(theta)  mag(phi)
    1 Fe   2.01261       14.099326      0.000000   -0.000000   -0.000000    0.000000    0.000000    0.000000
 ------------------------------------------------------------------------------------------------------------
 Total magnetization (spheres)          0.000000   -0.000000   -0.000000    0.000000    0.000000    0.000000
 Total magnetization (exact)            0.000000    0.000000   -0.000000    0.000000    0.000000    0.000000

 PAW TEST:
 ==== Compensation charge inside spheres ============
 Compensation charge over spherical meshes =      9.778069091598175

 ==== Results concerning PAW augmentation regions ====

 Total pseudopotential strength Dij (hartree):
 Atom #  1 - Component up-up
   === REAL PART:
  -2.06670   0.24239   0.00000   0.00000   0.00000   0.00000   0.00000   0.00000   0.00000   0.00000   0.00000   0.00000 ...
   0.24239   0.07097   0.00000   0.00000   0.00000   0.00000   0.00000   0.00000   0.00000   0.00000   0.00000   0.00000 ...
   0.00000   0.00000  -1.58495   0.00000   0.00000   0.07087   0.00000   0.00000   0.00000   0.00000   0.00000   0.00000 ...
   0.00000   0.00000   0.00000  -1.58495   0.00000   0.00000   0.07087   0.00000   0.00000   0.00000   0.00000   0.00000 ...
   0.00000   0.00000   0.00000   0.00000  -1.58495   0.00000   0.00000   0.07087   0.00000   0.00000   0.00000   0.00000 ...
   0.00000   0.00000   0.07087   0.00000   0.00000   0.02117   0.00000   0.00000   0.00000   0.00000   0.00000   0.00000 ...
   0.00000   0.00000   0.00000   0.07087   0.00000   0.00000   0.02117   0.00000   0.00000   0.00000   0.00000   0.00000 ...
   0.00000   0.00000   0.00000   0.00000   0.07087   0.00000   0.00000   0.02117   0.00000   0.00000   0.00000   0.00000 ...
   0.00000   0.00000   0.00000   0.00000   0.00000   0.00000   0.00000   0.00000  -0.09260   0.00000   0.00000   0.00000 ...
   0.00000   0.00000   0.00000   0.00000   0.00000   0.00000   0.00000   0.00000   0.00000  -0.09260   0.00000   0.00000 ...
   0.00000   0.00000   0.00000   0.00000   0.00000   0.00000   0.00000   0.00000   0.00000   0.00000  -0.09375   0.00000 ...
   0.00000   0.00000   0.00000   0.00000   0.00000   0.00000   0.00000   0.00000   0.00000   0.00000   0.00000  -0.09260 ...
   ...  only 12  components have been written...
   === IMAGINARY PART:
  -0.00000  -0.00000  -0.00000  -0.00000  -0.00000  -0.00000  -0.00000  -0.00000  -0.00000  -0.00000  -0.00000  -0.00000 ...
   0.00000  -0.00000  -0.00000  -0.00000  -0.00000  -0.00000  -0.00000  -0.00000  -0.00000  -0.00000  -0.00000  -0.00000 ...
   0.00000   0.00000  -0.00000  -0.00000  -0.01850  -0.00000  -0.00000   0.00273  -0.00000  -0.00000  -0.00000  -0.00000 ...
   0.00000   0.00000   0.00000  -0.00000  -0.00000  -0.00000  -0.00000  -0.00000  -0.00000  -0.00000  -0.00000  -0.00000 ...
   0.00000   0.00000   0.01850   0.00000  -0.00000  -0.00273  -0.00000  -0.00000  -0.00000  -0.00000  -0.00000  -0.00000 ...
   0.00000   0.00000   0.00000   0.00000   0.00273  -0.00000  -0.00000  -0.00041  -0.00000  -0.00000  -0.00000  -0.00000 ...
   0.00000   0.00000   0.00000   0.00000   0.00000   0.00000  -0.00000  -0.00000  -0.00000  -0.00000  -0.00000  -0.00000 ...
   0.00000   0.00000  -0.00273   0.00000   0.00000   0.00041   0.00000  -0.00000  -0.00000  -0.00000  -0.00000  -0.00000 ...
   0.00000   0.00000   0.00000   0.00000   0.00000   0.00000   0.00000   0.00000  -0.00000  -0.00000  -0.00000  -0.00000 ...
   0.00000   0.00000   0.00000   0.00000   0.00000   0.00000   0.00000   0.00000   0.00000  -0.00000  -0.00000  -0.00100 ...
   0.00000   0.00000   0.00000   0.00000   0.00000   0.00000   0.00000   0.00000   0.00000   0.00000  -0.00000  -0.00000 ...
   0.00000   0.00000   0.00000   0.00000   0.00000   0.00000   0.00000   0.00000   0.00000   0.00100   0.00000  -0.00000 ...
   ...  only 12  components have been written...
 Atom #  1 - Component dwn-dwn
   === REAL PART:
  -2.06670   0.24239   0.00000   0.00000   0.00000   0.00000   0.00000   0.00000   0.00000   0.00000   0.00000   0.00000 ...
   0.24239   0.07097   0.00000   0.00000   0.00000   0.00000   0.00000   0.00000   0.00000   0.00000   0.00000   0.00000 ...
   0.00000   0.00000  -1.58495   0.00000   0.00000   0.07087   0.00000   0.00000   0.00000   0.00000   0.00000   0.00000 ...
   0.00000   0.00000   0.00000  -1.58495   0.00000   0.00000   0.07087   0.00000   0.00000   0.00000   0.00000   0.00000 ...
   0.00000   0.00000   0.00000   0.00000  -1.58495   0.00000   0.00000   0.07087   0.00000   0.00000   0.00000   0.00000 ...
   0.00000   0.00000   0.07087   0.00000   0.00000   0.02117   0.00000   0.00000   0.00000   0.00000   0.00000   0.00000 ...
   0.00000   0.00000   0.00000   0.07087   0.00000   0.00000   0.02117   0.00000   0.00000   0.00000   0.00000   0.00000 ...
   0.00000   0.00000   0.00000   0.00000   0.07087   0.00000   0.00000   0.02117   0.00000   0.00000   0.00000   0.00000 ...
   0.00000   0.00000   0.00000   0.00000   0.00000   0.00000   0.00000   0.00000  -0.09260   0.00000   0.00000   0.00000 ...
   0.00000   0.00000   0.00000   0.00000   0.00000   0.00000   0.00000   0.00000   0.00000  -0.09260   0.00000   0.00000 ...
   0.00000   0.00000   0.00000   0.00000   0.00000   0.00000   0.00000   0.00000   0.00000   0.00000  -0.09375   0.00000 ...
   0.00000   0.00000   0.00000   0.00000   0.00000   0.00000   0.00000   0.00000   0.00000   0.00000   0.00000  -0.09260 ...
   ...  only 12  components have been written...
   === IMAGINARY PART:
  -0.00000  -0.00000  -0.00000  -0.00000  -0.00000  -0.00000  -0.00000  -0.00000  -0.00000  -0.00000  -0.00000  -0.00000 ...
   0.00000  -0.00000  -0.00000  -0.00000  -0.00000  -0.00000  -0.00000  -0.00000  -0.00000  -0.00000  -0.00000  -0.00000 ...
   0.00000   0.00000  -0.00000  -0.00000   0.01850  -0.00000  -0.00000  -0.00273  -0.00000  -0.00000  -0.00000  -0.00000 ...
   0.00000   0.00000   0.00000  -0.00000  -0.00000  -0.00000  -0.00000  -0.00000  -0.00000  -0.00000  -0.00000  -0.00000 ...
   0.00000   0.00000  -0.01850   0.00000  -0.00000   0.00273  -0.00000  -0.00000  -0.00000  -0.00000  -0.00000  -0.00000 ...
   0.00000   0.00000   0.00000   0.00000  -0.00273  -0.00000  -0.00000   0.00041  -0.00000  -0.00000  -0.00000  -0.00000 ...
   0.00000   0.00000   0.00000   0.00000   0.00000   0.00000  -0.00000  -0.00000  -0.00000  -0.00000  -0.00000  -0.00000 ...
   0.00000   0.00000   0.00273   0.00000   0.00000  -0.00041   0.00000  -0.00000  -0.00000  -0.00000  -0.00000  -0.00000 ...
   0.00000   0.00000   0.00000   0.00000   0.00000   0.00000   0.00000   0.00000  -0.00000  -0.00000  -0.00000  -0.00000 ...
   0.00000   0.00000   0.00000   0.00000   0.00000   0.00000   0.00000   0.00000   0.00000  -0.00000  -0.00000   0.00100 ...
   0.00000   0.00000   0.00000   0.00000   0.00000   0.00000   0.00000   0.00000   0.00000   0.00000  -0.00000  -0.00000 ...
   0.00000   0.00000   0.00000   0.00000   0.00000   0.00000   0.00000   0.00000   0.00000  -0.00100   0.00000  -0.00000 ...
   ...  only 12  components have been written...
 Atom #  1 - Component up-dwn
   === REAL PART:
   0.00000   0.00000   0.00000   0.00000   0.00000   0.00000   0.00000   0.00000   0.00000   0.00000   0.00000   0.00000 ...
   0.00000   0.00000   0.00000   0.00000   0.00000   0.00000   0.00000   0.00000   0.00000   0.00000   0.00000   0.00000 ...
   0.00000   0.00000   0.00000   0.00000   0.00000   0.00000   0.00000   0.00000   0.00000   0.00000   0.00000   0.00000 ...
   0.00000   0.00000   0.00000   0.00000   0.01850   0.00000   0.00000  -0.00273   0.00000   0.00000   0.00000   0.00000 ...
   0.00000   0.00000   0.00000  -0.01850   0.00000   0.00000   0.00273   0.00000   0.00000   0.00000   0.00000   0.00000 ...
   0.00000   0.00000   0.00000   0.00000   0.00000   0.00000   0.00000   0.00000   0.00000   0.00000   0.00000   0.00000 ...
   0.00000   0.00000   0.00000   0.00000  -0.00273   0.00000   0.00000   0.00041   0.00000   0.00000   0.00000   0.00000 ...
   0.00000   0.00000   0.00000   0.00273   0.00000   0.00000  -0.00041   0.00000   0.00000   0.00000   0.00000   0.00000 ...
   0.00000   0.00000   0.00000   0.00000   0.00000   0.00000   0.00000   0.00000   0.00000  -0.00100   0.00000   0.00000 ...
   0.00000   0.00000   0.00000   0.00000   0.00000   0.00000   0.00000   0.00000   0.00100   0.00000   0.00000   0.00000 ...
   0.00000   0.00000   0.00000   0.00000   0.00000   0.00000   0.00000   0.00000   0.00000   0.00000   0.00000   0.00174 ...
   0.00000   0.00000   0.00000   0.00000   0.00000   0.00000   0.00000   0.00000   0.00000   0.00000  -0.00174   0.00000 ...
   ...  only 12  components have been written...
   === IMAGINARY PART:
  -0.00000  -0.00000  -0.00000  -0.00000  -0.00000  -0.00000  -0.00000  -0.00000  -0.00000  -0.00000  -0.00000  -0.00000 ...
   0.00000  -0.00000  -0.00000  -0.00000  -0.00000  -0.00000  -0.00000  -0.00000  -0.00000  -0.00000  -0.00000  -0.00000 ...
   0.00000   0.00000  -0.00000   0.01850  -0.00000  -0.00000  -0.00273  -0.00000  -0.00000  -0.00000  -0.00000  -0.00000 ...
   0.00000   0.00000  -0.01850  -0.00000  -0.00000   0.00273  -0.00000  -0.00000  -0.00000  -0.00000  -0.00000  -0.00000 ...
   0.00000   0.00000   0.00000   0.00000  -0.00000  -0.00000  -0.00000  -0.00000  -0.00000  -0.00000  -0.00000  -0.00000 ...
   0.00000   0.00000   0.00000  -0.00273   0.00000  -0.00000   0.00041  -0.00000  -0.00000  -0.00000  -0.00000  -0.00000 ...
   0.00000   0.00000   0.00273   0.00000   0.00000  -0.00041  -0.00000  -0.00000  -0.00000  -0.00000  -0.00000  -0.00000 ...
   0.00000   0.00000   0.00000   0.00000   0.00000   0.00000   0.00000  -0.00000  -0.00000  -0.00000  -0.00000  -0.00000 ...
   0.00000   0.00000   0.00000   0.00000   0.00000   0.00000   0.00000   0.00000  -0.00000  -0.00000  -0.00000   0.00100 ...
   0.00000   0.00000   0.00000   0.00000   0.00000   0.00000   0.00000   0.00000   0.00000  -0.00000   0.00174  -0.00000 ...
   0.00000   0.00000   0.00000   0.00000   0.00000   0.00000   0.00000   0.00000   0.00000  -0.00174  -0.00000  -0.00000 ...
   0.00000   0.00000   0.00000   0.00000   0.00000   0.00000   0.00000   0.00000  -0.00100   0.00000   0.00000  -0.00000 ...
   ...  only 12  components have been written...
 Atom #  1 - Component dwn-up
   === REAL PART:
   0.00000   0.00000   0.00000   0.00000   0.00000   0.00000   0.00000   0.00000   0.00000   0.00000   0.00000   0.00000 ...
   0.00000   0.00000   0.00000   0.00000   0.00000   0.00000   0.00000   0.00000   0.00000   0.00000   0.00000   0.00000 ...
   0.00000   0.00000   0.00000   0.00000   0.00000   0.00000   0.00000   0.00000   0.00000   0.00000   0.00000   0.00000 ...
   0.00000   0.00000   0.00000   0.00000  -0.01850   0.00000   0.00000   0.00273   0.00000   0.00000   0.00000   0.00000 ...
   0.00000   0.00000   0.00000   0.01850   0.00000   0.00000  -0.00273   0.00000   0.00000   0.00000   0.00000   0.00000 ...
   0.00000   0.00000   0.00000   0.00000   0.00000   0.00000   0.00000   0.00000   0.00000   0.00000   0.00000   0.00000 ...
   0.00000   0.00000   0.00000   0.00000   0.00273   0.00000   0.00000  -0.00041   0.00000   0.00000   0.00000   0.00000 ...
   0.00000   0.00000   0.00000  -0.00273   0.00000   0.00000   0.00041   0.00000   0.00000   0.00000   0.00000   0.00000 ...
   0.00000   0.00000   0.00000   0.00000   0.00000   0.00000   0.00000   0.00000   0.00000   0.00100   0.00000   0.00000 ...
   0.00000   0.00000   0.00000   0.00000   0.00000   0.00000   0.00000   0.00000  -0.00100   0.00000   0.00000   0.00000 ...
   0.00000   0.00000   0.00000   0.00000   0.00000   0.00000   0.00000   0.00000   0.00000   0.00000   0.00000  -0.00174 ...
   0.00000   0.00000   0.00000   0.00000   0.00000   0.00000   0.00000   0.00000   0.00000   0.00000   0.00174   0.00000 ...
   ...  only 12  components have been written...
   === IMAGINARY PART:
  -0.00000  -0.00000  -0.00000  -0.00000  -0.00000  -0.00000  -0.00000  -0.00000  -0.00000  -0.00000  -0.00000  -0.00000 ...
   0.00000  -0.00000  -0.00000  -0.00000  -0.00000  -0.00000  -0.00000  -0.00000  -0.00000  -0.00000  -0.00000  -0.00000 ...
   0.00000   0.00000  -0.00000   0.01850  -0.00000  -0.00000  -0.00273  -0.00000  -0.00000  -0.00000  -0.00000  -0.00000 ...
   0.00000   0.00000  -0.01850  -0.00000  -0.00000   0.00273  -0.00000  -0.00000  -0.00000  -0.00000  -0.00000  -0.00000 ...
   0.00000   0.00000   0.00000   0.00000  -0.00000  -0.00000  -0.00000  -0.00000  -0.00000  -0.00000  -0.00000  -0.00000 ...
   0.00000   0.00000   0.00000  -0.00273   0.00000  -0.00000   0.00041  -0.00000  -0.00000  -0.00000  -0.00000  -0.00000 ...
   0.00000   0.00000   0.00273   0.00000   0.00000  -0.00041  -0.00000  -0.00000  -0.00000  -0.00000  -0.00000  -0.00000 ...
   0.00000   0.00000   0.00000   0.00000   0.00000   0.00000   0.00000  -0.00000  -0.00000  -0.00000  -0.00000  -0.00000 ...
   0.00000   0.00000   0.00000   0.00000   0.00000   0.00000   0.00000   0.00000  -0.00000  -0.00000  -0.00000   0.00100 ...
   0.00000   0.00000   0.00000   0.00000   0.00000   0.00000   0.00000   0.00000   0.00000  -0.00000   0.00174  -0.00000 ...
   0.00000   0.00000   0.00000   0.00000   0.00000   0.00000   0.00000   0.00000   0.00000  -0.00174  -0.00000  -0.00000 ...
   0.00000   0.00000   0.00000   0.00000   0.00000   0.00000   0.00000   0.00000  -0.00100   0.00000   0.00000  -0.00000 ...
   ...  only 12  components have been written...


 Augmentation waves occupancies Rhoij:
 Atom #  1 - Component dens (n)
   === REAL PART:
   1.99686  -0.03760   0.00000   0.00000   0.00000   0.00000  -0.00000   0.00000   0.00000   0.00000   0.00000   0.00000 ...
  -0.03760   1.40291   0.00000  -0.00000   0.00000   0.00000  -0.00000   0.00000   0.00000   0.00000   0.00000   0.00000 ...
   0.00000   0.00000   1.99436   0.00000   0.00000  -0.08066   0.00000   0.00000   0.00000   0.00000   0.00000   0.00000 ...
   0.00000  -0.00000   0.00000   1.99436   0.00000   0.00000  -0.08066   0.00000   0.00000   0.00000  -0.00000   0.00000 ...
   0.00000   0.00000   0.00000   0.00000   1.99436   0.00000   0.00000  -0.08066   0.00000   0.00000   0.00000   0.00000 ...
   0.00000   0.00000  -0.08066   0.00000   0.00000   1.43333   0.00000   0.00000   0.00000   0.00000   0.00000   0.00000 ...
  -0.00000  -0.00000   0.00000  -0.08066   0.00000   0.00000   1.43333   0.00000   0.00000   0.00000   0.00000   0.00000 ...
   0.00000   0.00000   0.00000   0.00000  -0.08066   0.00000   0.00000   1.43333   0.00000   0.00000   0.00000   0.00000 ...
   0.00000   0.00000   0.00000   0.00000   0.00000   0.00000   0.00000   0.00000   1.42406   0.00000   0.00000   0.00000 ...
   0.00000   0.00000   0.00000   0.00000   0.00000   0.00000   0.00000   0.00000   0.00000   1.42406   0.00000   0.00000 ...
   0.00000   0.00000   0.00000  -0.00000   0.00000   0.00000   0.00000   0.00000   0.00000   0.00000   1.21929   0.00000 ...
   0.00000   0.00000   0.00000   0.00000   0.00000   0.00000   0.00000   0.00000   0.00000   0.00000   0.00000   1.42406 ...
   ...  only 12  components have been written...
   === IMAGINARY PART:
   0.00000   0.00000  -0.00000  -0.00000  -0.00000  -0.00000   0.00000  -0.00000  -0.00000  -0.00000  -0.00000  -0.00000 ...
  -0.00000   0.00000  -0.00000   0.00000  -0.00000  -0.00000   0.00000  -0.00000  -0.00000  -0.00000  -0.00000  -0.00000 ...
   0.00000   0.00000  -0.00000  -0.00000   0.00000   0.00000  -0.00000   0.00000  -0.00000   0.00000  -0.00000  -0.00000 ...
   0.00000  -0.00000   0.00000  -0.00000  -0.00000  -0.00000   0.00000  -0.00000  -0.00000  -0.00000  -0.00000  -0.00000 ...
   0.00000   0.00000  -0.00000   0.00000  -0.00000  -0.00000  -0.00000   0.00000  -0.00000  -0.00000  -0.00000   0.00000 ...
   0.00000   0.00000  -0.00000   0.00000   0.00000  -0.00000  -0.00000   0.00000  -0.00000   0.00000  -0.00000  -0.00000 ...
  -0.00000  -0.00000   0.00000  -0.00000   0.00000   0.00000  -0.00000  -0.00000  -0.00000  -0.00000  -0.00000  -0.00000 ...
   0.00000   0.00000  -0.00000   0.00000  -0.00000  -0.00000   0.00000  -0.00000  -0.00000  -0.00000   0.00000   0.00000 ...
   0.00000   0.00000   0.00000   0.00000   0.00000   0.00000   0.00000   0.00000   0.00000  -0.00000  -0.00000  -0.00000 ...
   0.00000   0.00000  -0.00000   0.00000   0.00000  -0.00000   0.00000   0.00000   0.00000   0.00000   0.00000  -0.00000 ...
   0.00000   0.00000   0.00000   0.00000   0.00000   0.00000   0.00000  -0.00000   0.00000  -0.00000   0.00000  -0.00000 ...
   0.00000   0.00000   0.00000   0.00000  -0.00000   0.00000   0.00000  -0.00000   0.00000   0.00000   0.00000   0.00000 ...
   ...  only 12  components have been written...
 Atom #  1 - Component magn (x)
   === REAL PART:
   0.00000   0.00000   0.00000   0.00000   0.00000   0.00000   0.00000   0.00000   0.00000   0.00000   0.00000   0.00000 ...
   0.00000   0.00000   0.00000   0.00000   0.00000   0.00000   0.00000   0.00000   0.00000   0.00000   0.00000   0.00000 ...
   0.00000   0.00000   0.00000  -0.00000   0.00000   0.00000  -0.00000   0.00000   0.00000   0.00000   0.00000   0.00000 ...
   0.00000   0.00000  -0.00000   0.00000   0.00000   0.00000   0.00000   0.00000   0.00000   0.00000   0.00000   0.00000 ...
   0.00000   0.00000   0.00000   0.00000   0.00000   0.00000   0.00000   0.00000   0.00000   0.00000   0.00000   0.00000 ...
   0.00000   0.00000   0.00000   0.00000   0.00000   0.00000   0.00000   0.00000   0.00000   0.00000   0.00000   0.00000 ...
   0.00000   0.00000  -0.00000   0.00000   0.00000   0.00000   0.00000   0.00000   0.00000   0.00000   0.00000   0.00000 ...
   0.00000   0.00000   0.00000   0.00000   0.00000   0.00000   0.00000   0.00000  -0.00000   0.00000   0.00000   0.00000 ...
   0.00000   0.00000   0.00000   0.00000   0.00000   0.00000   0.00000  -0.00000   0.00000  -0.00000   0.00000   0.00000 ...
   0.00000   0.00000   0.00000   0.00000   0.00000   0.00000   0.00000   0.00000  -0.00000   0.00000  -0.00007   0.00000 ...
   0.00000   0.00000   0.00000   0.00000   0.00000   0.00000   0.00000   0.00000   0.00000  -0.00007   0.00000  -0.00000 ...
   0.00000   0.00000   0.00000   0.00000   0.00000   0.00000   0.00000   0.00000   0.00000   0.00000  -0.00000   0.00000 ...
   ...  only 12  components have been written...
   === IMAGINARY PART:
  -0.00000  -0.00000  -0.00000  -0.00000  -0.00000   0.00000  -0.00000   0.00000  -0.00000  -0.00000  -0.00000  -0.00000 ...
   0.00000  -0.00000  -0.00000  -0.00000  -0.00000   0.00000  -0.00000  -0.00000  -0.00000  -0.00000  -0.00000  -0.00000 ...
   0.00000   0.00000  -0.00000  -0.00321  -0.00000  -0.00000  -0.03898  -0.00000   0.00001  -0.00000  -0.00000  -0.00000 ...
   0.00000   0.00000   0.00321  -0.00000  -0.00000   0.03898  -0.00000  -0.00000  -0.00000  -0.00000  -0.00000   0.00001 ...
   0.00000   0.00000   0.00000   0.00000  -0.00000  -0.00000  -0.00000  -0.00000   0.00000  -0.00000  -0.00001  -0.00000 ...
  -0.00000  -0.00000   0.00000  -0.03898   0.00000  -0.00000   0.03081  -0.00000   0.00069  -0.00000  -0.00000  -0.00000 ...
   0.00000   0.00000   0.03898   0.00000   0.00000  -0.03081  -0.00000  -0.00000  -0.00000  -0.00000  -0.00000   0.00069 ...
  -0.00000   0.00000   0.00000   0.00000   0.00000   0.00000   0.00000  -0.00000   0.00000  -0.00000  -0.00028  -0.00000 ...
   0.00000   0.00000  -0.00001   0.00000  -0.00000  -0.00069   0.00000  -0.00000  -0.00000  -0.00000  -0.00000  -0.00502 ...
   0.00000   0.00000   0.00000   0.00000   0.00000   0.00000   0.00000   0.00000   0.00000  -0.00000  -0.00468  -0.00000 ...
   0.00000   0.00000   0.00000   0.00000   0.00001   0.00000   0.00000   0.00028   0.00000   0.00468  -0.00000  -0.00000 ...
   0.00000   0.00000   0.00000  -0.00001   0.00000   0.00000  -0.00069   0.00000   0.00502   0.00000   0.00000  -0.00000 ...
   ...  only 12  components have been written...
 Atom #  1 - Component magn (y)
   === REAL PART:
   0.00000   0.00000   0.00000   0.00000  -0.00000   0.00000   0.00000  -0.00000   0.00000   0.00000   0.00000   0.00000 ...
   0.00000   0.00000   0.00000   0.00000  -0.00000   0.00000   0.00000  -0.00000   0.00000   0.00000   0.00000   0.00000 ...
   0.00000   0.00000   0.00000   0.00000   0.00000   0.00000   0.00000   0.00000  -0.00000   0.00000   0.00000   0.00000 ...
   0.00000   0.00000   0.00000   0.00000   0.00000   0.00000   0.00000  -0.00000   0.00000   0.00000   0.00000  -0.00000 ...
  -0.00000  -0.00000   0.00000   0.00000   0.00000   0.00000   0.00000   0.00000   0.00000   0.00000  -0.00000   0.00000 ...
   0.00000   0.00000   0.00000   0.00000   0.00000   0.00000   0.00000   0.00000   0.00000   0.00000   0.00000   0.00000 ...
   0.00000   0.00000   0.00000   0.00000   0.00000   0.00000   0.00000   0.00000   0.00000   0.00000   0.00000  -0.00000 ...
  -0.00000  -0.00000   0.00000  -0.00000   0.00000   0.00000   0.00000   0.00000   0.00000   0.00000  -0.00000   0.00000 ...
   0.00000   0.00000  -0.00000   0.00000   0.00000   0.00000   0.00000   0.00000   0.00000   0.00000   0.00000  -0.00000 ...
   0.00000   0.00000   0.00000   0.00000   0.00000   0.00000   0.00000   0.00000   0.00000   0.00000  -0.00000   0.00000 ...
   0.00000   0.00000   0.00000   0.00000  -0.00000   0.00000   0.00000  -0.00000   0.00000  -0.00000   0.00000   0.00007 ...
   0.00000   0.00000   0.00000  -0.00000   0.00000   0.00000  -0.00000   0.00000  -0.00000   0.00000   0.00007   0.00000 ...
   ...  only 12  components have been written...
   === IMAGINARY PART:
  -0.00000  -0.00000  -0.00000  -0.00000   0.00000   0.00000  -0.00000  -0.00000  -0.00000  -0.00000  -0.00000  -0.00000 ...
   0.00000  -0.00000  -0.00000  -0.00000   0.00000  -0.00000  -0.00000  -0.00000  -0.00000  -0.00000  -0.00000  -0.00000 ...
   0.00000   0.00000  -0.00000  -0.00000  -0.00000  -0.00000  -0.00000  -0.00000  -0.00000  -0.00000  -0.00001  -0.00000 ...
   0.00000   0.00000   0.00000  -0.00000  -0.00321  -0.00000  -0.00000  -0.03898  -0.00000   0.00001   0.00000   0.00000 ...
  -0.00000  -0.00000   0.00000   0.00321  -0.00000  -0.00000   0.03898  -0.00000   0.00001  -0.00000   0.00000  -0.00000 ...
  -0.00000   0.00000   0.00000   0.00000   0.00000  -0.00000  -0.00000  -0.00000  -0.00000  -0.00000  -0.00028  -0.00000 ...
   0.00000   0.00000   0.00000   0.00000  -0.03898   0.00000  -0.00000   0.03081  -0.00000   0.00069  -0.00000   0.00000 ...
   0.00000   0.00000   0.00000   0.03898   0.00000   0.00000  -0.03081  -0.00000   0.00069  -0.00000   0.00000  -0.00000 ...
   0.00000   0.00000   0.00000   0.00000  -0.00001   0.00000   0.00000  -0.00069  -0.00000   0.00502  -0.00000  -0.00000 ...
   0.00000   0.00000   0.00000  -0.00001   0.00000   0.00000  -0.00069   0.00000  -0.00502  -0.00000   0.00000  -0.00000 ...
   0.00000   0.00000   0.00001  -0.00000  -0.00000   0.00028   0.00000  -0.00000   0.00000  -0.00000  -0.00000  -0.00468 ...
   0.00000   0.00000   0.00000  -0.00000   0.00000   0.00000  -0.00000   0.00000   0.00000   0.00000   0.00468  -0.00000 ...
   ...  only 12  components have been written...
 Atom #  1 - Component magn (z)
   === REAL PART:
   0.00000   0.00000   0.00000   0.00000   0.00000   0.00000   0.00000   0.00000   0.00000   0.00000   0.00000   0.00000 ...
   0.00000   0.00000   0.00000   0.00000   0.00000   0.00000   0.00000   0.00000   0.00000   0.00000   0.00000   0.00000 ...
   0.00000   0.00000   0.00000   0.00000   0.00000   0.00000   0.00000   0.00000   0.00000   0.00000   0.00000   0.00000 ...
   0.00000   0.00000   0.00000   0.00000   0.00000   0.00000   0.00000   0.00000   0.00000   0.00000  -0.00000   0.00000 ...
   0.00000   0.00000   0.00000   0.00000   0.00000  -0.00000   0.00000   0.00000   0.00000   0.00000   0.00000   0.00000 ...
   0.00000   0.00000   0.00000   0.00000  -0.00000   0.00000   0.00000   0.00000   0.00000   0.00000   0.00000   0.00000 ...
   0.00000   0.00000   0.00000   0.00000   0.00000   0.00000   0.00000   0.00000   0.00000   0.00000  -0.00000   0.00000 ...
   0.00000   0.00000   0.00000   0.00000   0.00000   0.00000   0.00000   0.00000   0.00000   0.00000   0.00000   0.00000 ...
   0.00000   0.00000   0.00000   0.00000   0.00000   0.00000   0.00000   0.00000   0.00000   0.00000   0.00000   0.00000 ...
   0.00000   0.00000   0.00000   0.00000   0.00000   0.00000   0.00000   0.00000   0.00000   0.00000   0.00000   0.00000 ...
   0.00000   0.00000   0.00000  -0.00000   0.00000   0.00000  -0.00000   0.00000   0.00000   0.00000   0.00000   0.00000 ...
   0.00000   0.00000   0.00000   0.00000   0.00000   0.00000   0.00000   0.00000   0.00000   0.00000   0.00000   0.00000 ...
   ...  only 12  components have been written...
   === IMAGINARY PART:
  -0.00000  -0.00000  -0.00000  -0.00000  -0.00000  -0.00000   0.00000  -0.00000  -0.00000  -0.00000  -0.00000  -0.00000 ...
   0.00000  -0.00000  -0.00000  -0.00000  -0.00000  -0.00000  -0.00000  -0.00000  -0.00000  -0.00000  -0.00000  -0.00000 ...
   0.00000   0.00000  -0.00000  -0.00000   0.00321  -0.00000  -0.00000   0.03898  -0.00000   0.00001  -0.00000  -0.00000 ...
   0.00000   0.00000   0.00000  -0.00000  -0.00000  -0.00000  -0.00000  -0.00000  -0.00000  -0.00000   0.00001  -0.00000 ...
   0.00000   0.00000  -0.00321   0.00000  -0.00000  -0.03898  -0.00000  -0.00000  -0.00000  -0.00000  -0.00000   0.00001 ...
   0.00000   0.00000   0.00000   0.00000   0.03898  -0.00000  -0.00000  -0.03081  -0.00000   0.00069  -0.00000  -0.00000 ...
  -0.00000   0.00000   0.00000   0.00000   0.00000   0.00000  -0.00000  -0.00000  -0.00000  -0.00000   0.00056  -0.00000 ...
   0.00000   0.00000  -0.03898   0.00000   0.00000   0.03081   0.00000  -0.00000  -0.00000  -0.00000  -0.00000   0.00069 ...
   0.00000   0.00000   0.00000   0.00000   0.00000   0.00000   0.00000   0.00000  -0.00000  -0.00000  -0.00000  -0.00000 ...
   0.00000   0.00000  -0.00001   0.00000   0.00000  -0.00069   0.00000   0.00000   0.00000  -0.00000  -0.00000   0.00502 ...
   0.00000   0.00000   0.00000  -0.00001   0.00000   0.00000  -0.00056   0.00000   0.00000   0.00000  -0.00000  -0.00000 ...
   0.00000   0.00000   0.00000   0.00000  -0.00001   0.00000   0.00000  -0.00069   0.00000  -0.00502   0.00000  -0.00000 ...
   ...  only 12  components have been written...

 "PAW+U" part of augmentation waves occupancies Rhoij:
 Atom #  1 - L=2 ONLY - Component dens (n)
   === REAL PART:
   1.42406   0.00000   0.00000   0.00000   0.00000   0.01242   0.00000   0.00000   0.00000   0.00000
   0.00000   1.42406   0.00000   0.00000   0.00000   0.00000   0.01242   0.00000   0.00000   0.00000
   0.00000   0.00000   1.21929   0.00000   0.00000   0.00000   0.00000   0.00065   0.00000   0.00000
   0.00000   0.00000   0.00000   1.42406  -0.00000   0.00000   0.00000   0.00000   0.01242   0.00000
   0.00000   0.00000   0.00000  -0.00000   1.21929   0.00000   0.00000   0.00000   0.00000   0.00065
   0.01242   0.00000   0.00000   0.00000   0.00000   0.00465   0.00000   0.00000   0.00000   0.00000
   0.00000   0.01242   0.00000   0.00000   0.00000   0.00000   0.00465   0.00000   0.00000   0.00000
   0.00000   0.00000   0.00065   0.00000   0.00000   0.00000   0.00000   0.00521   0.00000   0.00000
   0.00000   0.00000   0.00000   0.01242   0.00000   0.00000   0.00000   0.00000   0.00465   0.00000
   0.00000   0.00000   0.00000   0.00000   0.00065   0.00000   0.00000   0.00000   0.00000   0.00521
   === IMAGINARY PART:
   0.00000  -0.00000  -0.00000  -0.00000  -0.00000  -0.00000  -0.00000  -0.00000  -0.00000   0.00000
   0.00000   0.00000   0.00000  -0.00000  -0.00000  -0.00000  -0.00000  -0.00000   0.00000  -0.00000
   0.00000  -0.00000   0.00000  -0.00000  -0.00000  -0.00000  -0.00000   0.00000  -0.00000  -0.00000
   0.00000   0.00000   0.00000   0.00000  -0.00000  -0.00000  -0.00000  -0.00000  -0.00000  -0.00000
   0.00000   0.00000   0.00000   0.00000   0.00000  -0.00000  -0.00000  -0.00000  -0.00000   0.00000
   0.00000   0.00000   0.00000   0.00000   0.00000   0.00000  -0.00000  -0.00000  -0.00000  -0.00000
   0.00000   0.00000   0.00000   0.00000   0.00000   0.00000   0.00000   0.00000  -0.00000  -0.00000
   0.00000   0.00000  -0.00000   0.00000   0.00000   0.00000  -0.00000  -0.00000  -0.00000  -0.00000
   0.00000  -0.00000   0.00000   0.00000   0.00000   0.00000   0.00000   0.00000   0.00000  -0.00000
  -0.00000   0.00000   0.00000   0.00000  -0.00000   0.00000   0.00000   0.00000   0.00000  -0.00000
 Atom #  1 - L=2 ONLY - Component magn (x)
   === REAL PART:
   0.00000  -0.00000   0.00000   0.00000   0.00000   0.00000  -0.00000   0.00000   0.00000  -0.00000
  -0.00000   0.00000  -0.00007   0.00000  -0.00004  -0.00000   0.00000   0.00001   0.00000   0.00000
   0.00000  -0.00007   0.00000  -0.00000   0.00000   0.00000   0.00001   0.00000   0.00000   0.00000
   0.00000   0.00000  -0.00000   0.00000   0.00000  -0.00000   0.00000   0.00000   0.00000   0.00000
   0.00000  -0.00004   0.00000   0.00000   0.00000   0.00000   0.00000   0.00000   0.00000   0.00000
   0.00000  -0.00000   0.00000  -0.00000   0.00000   0.00000   0.00000   0.00000   0.00000   0.00000
  -0.00000   0.00000   0.00001   0.00000   0.00000   0.00000   0.00000  -0.00000   0.00000  -0.00000
   0.00000   0.00001   0.00000   0.00000   0.00000   0.00000  -0.00000   0.00000  -0.00000   0.00000
   0.00000   0.00000   0.00000   0.00000   0.00000   0.00000   0.00000  -0.00000   0.00000   0.00000
  -0.00000   0.00000   0.00000   0.00000   0.00000   0.00000  -0.00000   0.00000   0.00000   0.00000
   === IMAGINARY PART:
  -0.00000  -0.00000  -0.00000  -0.00502  -0.00000  -0.00000  -0.00000  -0.00000  -0.00097  -0.00000
   0.00000  -0.00000  -0.00468  -0.00000  -0.00270  -0.00000  -0.00000  -0.00273  -0.00000  -0.00158
   0.00000   0.00468  -0.00000  -0.00000  -0.00000  -0.00000   0.00286  -0.00000  -0.00000  -0.00000
   0.00502   0.00000   0.00000  -0.00000  -0.00000   0.00097  -0.00000  -0.00000  -0.00000  -0.00000
   0.00000   0.00270   0.00000   0.00000  -0.00000  -0.00000   0.00165  -0.00000  -0.00000  -0.00000
   0.00000   0.00000   0.00000  -0.00097   0.00000  -0.00000  -0.00000  -0.00000   0.00002  -0.00000
   0.00000   0.00000  -0.00286   0.00000  -0.00165   0.00000  -0.00000   0.00013  -0.00000   0.00007
   0.00000   0.00273   0.00000   0.00000   0.00000   0.00000  -0.00013  -0.00000  -0.00000  -0.00000
   0.00097   0.00000   0.00000   0.00000   0.00000  -0.00002   0.00000   0.00000  -0.00000  -0.00000
   0.00000   0.00158   0.00000   0.00000   0.00000   0.00000  -0.00007   0.00000   0.00000  -0.00000
 Atom #  1 - L=2 ONLY - Component magn (y)
   === REAL PART:
   0.00000   0.00000   0.00000  -0.00000   0.00000   0.00000  -0.00000   0.00000  -0.00000  -0.00000
   0.00000   0.00000  -0.00000   0.00000  -0.00000   0.00000   0.00000   0.00000   0.00000  -0.00000
   0.00000  -0.00000   0.00000   0.00007   0.00000   0.00000   0.00000   0.00000  -0.00001   0.00000
  -0.00000   0.00000   0.00007   0.00000  -0.00004  -0.00000   0.00000  -0.00001   0.00000   0.00000
   0.00000  -0.00000   0.00000  -0.00004   0.00000   0.00000   0.00000   0.00000   0.00000   0.00000
   0.00000   0.00000   0.00000  -0.00000   0.00000   0.00000   0.00000   0.00000   0.00000   0.00000
  -0.00000   0.00000   0.00000   0.00000   0.00000   0.00000   0.00000  -0.00000   0.00000  -0.00000
   0.00000   0.00000   0.00000  -0.00001   0.00000   0.00000  -0.00000  -0.00000   0.00000   0.00000
  -0.00000   0.00000  -0.00001   0.00000   0.00000   0.00000   0.00000   0.00000   0.00000  -0.00000
  -0.00000  -0.00000   0.00000   0.00000   0.00000   0.00000  -0.00000   0.00000  -0.00000   0.00000
   === IMAGINARY PART:
  -0.00000   0.00502  -0.00000  -0.00000  -0.00000  -0.00000   0.00097  -0.00000  -0.00000  -0.00000
  -0.00502  -0.00000   0.00000  -0.00000   0.00000  -0.00097  -0.00000  -0.00000  -0.00000  -0.00000
   0.00000  -0.00000  -0.00000  -0.00468  -0.00000  -0.00000  -0.00000   0.00000  -0.00286  -0.00000
   0.00000   0.00000   0.00468  -0.00000  -0.00270  -0.00000  -0.00000   0.00273  -0.00000  -0.00158
   0.00000  -0.00000   0.00000   0.00270  -0.00000  -0.00000   0.00000  -0.00000   0.00165  -0.00000
   0.00000   0.00097   0.00000   0.00000   0.00000  -0.00000  -0.00002  -0.00000  -0.00000  -0.00000
  -0.00097   0.00000   0.00000   0.00000  -0.00000   0.00002  -0.00000  -0.00000  -0.00000  -0.00000
   0.00000   0.00000  -0.00000  -0.00273   0.00000   0.00000   0.00000  -0.00000   0.00013  -0.00000
   0.00000   0.00000   0.00286   0.00000  -0.00165   0.00000   0.00000  -0.00013  -0.00000   0.00007
   0.00000   0.00000   0.00000   0.00158   0.00000   0.00000   0.00000   0.00000  -0.00007  -0.00000
 Atom #  1 - L=2 ONLY - Component magn (z)
   === REAL PART:
   0.00000   0.00000   0.00000   0.00000   0.00008   0.00000   0.00000   0.00000   0.00000  -0.00001
   0.00000   0.00000   0.00000   0.00000   0.00000   0.00000   0.00000   0.00000  -0.00000   0.00000
   0.00000   0.00000   0.00000   0.00000   0.00000   0.00000   0.00000   0.00000   0.00000   0.00000
   0.00000   0.00000   0.00000   0.00000   0.00000   0.00000   0.00000   0.00000   0.00000   0.00000
   0.00008   0.00000   0.00000   0.00000   0.00000  -0.00001   0.00000   0.00000   0.00000   0.00000
   0.00000   0.00000   0.00000   0.00000  -0.00001   0.00000   0.00000   0.00000   0.00000   0.00000
   0.00000   0.00000   0.00000   0.00000   0.00000   0.00000   0.00000   0.00000   0.00000   0.00000
   0.00000   0.00000   0.00000   0.00000   0.00000   0.00000   0.00000   0.00000   0.00000   0.00000
   0.00000  -0.00000   0.00000   0.00000   0.00000   0.00000   0.00000   0.00000   0.00000   0.00000
  -0.00001   0.00000   0.00000   0.00000   0.00000   0.00000   0.00000   0.00000   0.00000   0.00000
   === IMAGINARY PART:
  -0.00000  -0.00000  -0.00000  -0.00000   0.00541  -0.00000  -0.00000  -0.00000  -0.00000   0.00316
   0.00000  -0.00000  -0.00000   0.00502  -0.00000  -0.00000  -0.00000  -0.00000   0.00097  -0.00000
   0.00000   0.00000  -0.00000  -0.00000  -0.00000  -0.00000  -0.00000  -0.00000  -0.00000  -0.00000
   0.00000  -0.00502   0.00000  -0.00000  -0.00000  -0.00000  -0.00097  -0.00000  -0.00000  -0.00000
  -0.00541   0.00000   0.00000   0.00000  -0.00000  -0.00330  -0.00000  -0.00000  -0.00000  -0.00000
   0.00000   0.00000   0.00000   0.00000   0.00330  -0.00000  -0.00000  -0.00000  -0.00000  -0.00015
   0.00000   0.00000   0.00000   0.00097   0.00000   0.00000  -0.00000  -0.00000  -0.00002  -0.00000
   0.00000   0.00000   0.00000   0.00000   0.00000   0.00000   0.00000  -0.00000  -0.00000  -0.00000
   0.00000  -0.00097   0.00000   0.00000   0.00000   0.00000   0.00002   0.00000  -0.00000  -0.00000
  -0.00316   0.00000   0.00000   0.00000   0.00000   0.00015   0.00000   0.00000   0.00000  -0.00000

 ---------- DFT+U DATA --------------------------------------------------- 

 ====== For Atom     1, occupations for correlated orbitals. lpawu =   2

  (This is PAW atomic orbital occupations)
  (For Wannier orbital occupations, refer to DFT+DMFT occupations above)
 => On atom   1, for  lpawu, local Mag. x is     0.19392590E-21
                             local Mag. y is    -0.38785181E-21
                             local Mag. z is     0.47747479E-09
                             norm of Mag. is     0.47747479E-09
         (along mag axis)    occ. for majority spin is =      2.85384
         (along mag axis)    occ. for minority spin is =      2.85384

 == Occupation matrix for correlated orbitals:

 Occupation matrix for component up-up
  (  0.60419, -0.00000) (  0.00000, -0.00000) (  0.00000, -0.00000) (  0.00000, -0.00000) (  0.00004,  0.00131) (
  (  0.00000,  0.00000) (  0.60419, -0.00000) (  0.00000, -0.00000) (  0.00000,  0.00185) (  0.00000, -0.00000) (
  (  0.00000,  0.00000) (  0.00000,  0.00000) (  0.52064, -0.00000) (  0.00000, -0.00000) (  0.00000, -0.00000) (
  (  0.00000,  0.00000) (  0.00000, -0.00185) (  0.00000,  0.00000) (  0.60419, -0.00000) (  0.00000, -0.00000) (
  (  0.00004, -0.00131) (  0.00000,  0.00000) (  0.00000,  0.00000) (  0.00000,  0.00000) (  0.52064, -0.00000) (


 Occupation matrix for component dwn-dwn
  (  0.60419,  0.00000) ( -0.00000,  0.00000) (  0.00000,  0.00000) ( -0.00000,  0.00000) ( -0.00004, -0.00131) (
  ( -0.00000, -0.00000) (  0.60419,  0.00000) ( -0.00000,  0.00000) ( -0.00000, -0.00185) ( -0.00000,  0.00000) (
  (  0.00000,  0.00000) ( -0.00000, -0.00000) (  0.52064,  0.00000) ( -0.00000,  0.00000) (  0.00000,  0.00000) (
  ( -0.00000, -0.00000) ( -0.00000,  0.00185) ( -0.00000, -0.00000) (  0.60419,  0.00000) ( -0.00000,  0.00000) (
  ( -0.00004,  0.00131) ( -0.00000, -0.00000) (  0.00000,  0.00000) ( -0.00000, -0.00000) (  0.52064,  0.00000) (


 Occupation matrix for component up-dwn
  (  0.00000, -0.00000) (  0.00185, -0.00000) (  0.00000, -0.00000) (  0.00000, -0.00185) (  0.00000, -0.00000) (
  ( -0.00185, -0.00000) (  0.00000, -0.00000) ( -0.00003, -0.00113) (  0.00000, -0.00000) ( -0.00002, -0.00065) (
  (  0.00000,  0.00000) ( -0.00003,  0.00113) (  0.00000,  0.00000) ( -0.00113, -0.00003) (  0.00000, -0.00000) (
  (  0.00000,  0.00185) (  0.00000,  0.00000) (  0.00113, -0.00003) (  0.00000, -0.00000) ( -0.00065,  0.00002) (
  (  0.00000, -0.00000) ( -0.00002,  0.00065) (  0.00000,  0.00000) (  0.00065,  0.00002) (  0.00000, -0.00000) (


 Occupation matrix for component dwn-up
  (  0.00000,  0.00000) ( -0.00185,  0.00000) (  0.00000,  0.00000) (  0.00000, -0.00185) (  0.00000,  0.00000) (
  (  0.00185,  0.00000) (  0.00000,  0.00000) ( -0.00003, -0.00113) (  0.00000,  0.00000) ( -0.00002, -0.00065) (
  (  0.00000,  0.00000) ( -0.00003,  0.00113) (  0.00000, -0.00000) (  0.00113,  0.00003) (  0.00000,  0.00000) (
  (  0.00000,  0.00185) (  0.00000,  0.00000) ( -0.00113,  0.00003) (  0.00000,  0.00000) (  0.00065, -0.00002) (
  (  0.00000,  0.00000) ( -0.00002,  0.00065) (  0.00000,  0.00000) ( -0.00065, -0.00002) (  0.00000,  0.00000) (



== Occupation matrix in the complex harmonics basis for component up-up
  (  0.56111, -0.00000) (  0.00000,  0.00000) (  0.00000,  0.00000) (  0.00000, -0.00000) ( -0.04177,  0.00004) (
  (  0.00000,  0.00000) (  0.60234, -0.00000) (  0.00000,  0.00000) (  0.00000, -0.00000) (  0.00000, -0.00000) (
  (  0.00000,  0.00000) (  0.00000, -0.00000) (  0.52064, -0.00000) (  0.00000,  0.00000) (  0.00000,  0.00000) (
  (  0.00000,  0.00000) (  0.00000,  0.00000) (  0.00000, -0.00000) (  0.60603, -0.00000) (  0.00000,  0.00000) (
  ( -0.04177, -0.00004) (  0.00000,  0.00000) (  0.00000,  0.00000) (  0.00000,  0.00000) (  0.56372, -0.00000) (

== Occupation matrix in the complex harmonics basis for component dwn-dwn
  (  0.56372,  0.00000) ( -0.00000,  0.00000) (  0.00000,  0.00000) (  0.00000,  0.00000) ( -0.04177, -0.00004) (
  ( -0.00000,  0.00000) (  0.60603,  0.00000) ( -0.00000, -0.00000) (  0.00000,  0.00000) (  0.00000,  0.00000) (
  (  0.00000,  0.00000) ( -0.00000,  0.00000) (  0.52064,  0.00000) ( -0.00000, -0.00000) (  0.00000,  0.00000) (
  (  0.00000, -0.00000) (  0.00000, -0.00000) ( -0.00000,  0.00000) (  0.60234,  0.00000) ( -0.00000,  0.00000) (
  ( -0.04177,  0.00004) (  0.00000, -0.00000) (  0.00000,  0.00000) ( -0.00000,  0.00000) (  0.56111,  0.00000) (

== Occupation matrix in the complex harmonics basis for component up-dwn
  (  0.00000,  0.00000) (  0.00250,  0.00002) (  0.00000,  0.00000) (  0.00000, -0.00000) (  0.00000,  0.00000) (
  (  0.00000, -0.00000) (  0.00000,  0.00000) (  0.00160, -0.00004) (  0.00000,  0.00000) (  0.00000,  0.00000) (
  (  0.00000,  0.00000) (  0.00000,  0.00000) (  0.00000,  0.00000) (  0.00160,  0.00004) (  0.00000,  0.00000) (
  ( -0.00119, -0.00002) (  0.00000,  0.00000) (  0.00000,  0.00000) (  0.00000,  0.00000) (  0.00250, -0.00002) (
  ( -0.00000, -0.00000) ( -0.00119,  0.00002) (  0.00000,  0.00000) (  0.00000,  0.00000) (  0.00000,  0.00000) (

== Occupation matrix in the complex harmonics basis for component dwn-up
  (  0.00000,  0.00000) (  0.00000,  0.00000) (  0.00000,  0.00000) ( -0.00119,  0.00002) ( -0.00000,  0.00000) (
  (  0.00250, -0.00002) (  0.00000,  0.00000) (  0.00000,  0.00000) (  0.00000,  0.00000) ( -0.00119, -0.00002) (
  (  0.00000,  0.00000) (  0.00160,  0.00004) (  0.00000, -0.00000) (  0.00000,  0.00000) (  0.00000,  0.00000) (
  (  0.00000,  0.00000) (  0.00000,  0.00000) (  0.00160, -0.00004) (  0.00000,  0.00000) (  0.00000, -0.00000) (
  (  0.00000, -0.00000) (  0.00000, -0.00000) (  0.00000,  0.00000) (  0.00250,  0.00002) (  0.00000,  0.00000) (



== Occupation matrix in the J (= L-1/2, L+1/2) and M_J basis
  (  0.568, -0.000) (  0.000, -0.000) (  0.000,  0.000) ( -0.000, -0.000) ( -0.000,  0.000) (  0.016, -0.000) ( -0.000, -0.000) (  0.000,  0.000) ( -0.000,  0.000) (  0.037, -0.000) (
  (  0.000,  0.000) (  0.568, -0.000) (  0.000,  0.000) ( -0.000, -0.000) ( -0.000,  0.000) ( -0.000,  0.000) ( -0.040,  0.000) ( -0.000, -0.000) ( -0.000,  0.000) (  0.000,  0.000) (
  ( -0.000, -0.000) (  0.000, -0.000) (  0.568,  0.000) ( -0.000,  0.000) (  0.000, -0.000) (  0.000, -0.000) ( -0.000,  0.000) (  0.040, -0.000) ( -0.000, -0.000) (  0.000, -0.000) (
  ( -0.000,  0.000) (  0.000,  0.000) ( -0.000, -0.000) (  0.568,  0.000) ( -0.037,  0.000) (  0.000, -0.000) (  0.000, -0.000) ( -0.000,  0.000) ( -0.016,  0.000) ( -0.000,  0.000) (
  ( -0.000,  0.000) (  0.000, -0.000) (  0.000,  0.000) ( -0.037, -0.000) (  0.564,  0.000) ( -0.000,  0.000) (  0.000,  0.000) (  0.000,  0.000) ( -0.020, -0.000) ( -0.000,  0.000) (
  (  0.016,  0.000) ( -0.000, -0.000) (  0.000,  0.000) (  0.000,  0.000) ( -0.000,  0.000) (  0.599,  0.000) ( -0.000, -0.000) (  0.000,  0.000) (  0.000, -0.000) ( -0.020,  0.000) (
  ( -0.000,  0.000) ( -0.040, -0.000) ( -0.000, -0.000) (  0.000,  0.000) (  0.000, -0.000) ( -0.000,  0.000) (  0.555,  0.000) (  0.000,  0.000) (  0.000, -0.000) (  0.000, -0.000) (
  ( -0.000, -0.000) ( -0.000,  0.000) (  0.040,  0.000) ( -0.000, -0.000) (  0.000, -0.000) (  0.000, -0.000) (  0.000, -0.000) (  0.555, -0.000) (  0.000,  0.000) (  0.000, -0.000) (
  ( -0.000, -0.000) (  0.000, -0.000) ( -0.000,  0.000) ( -0.016, -0.000) ( -0.020,  0.000) (  0.000,  0.000) (  0.000,  0.000) (  0.000, -0.000) (  0.599, -0.000) (  0.000,  0.000) (
  (  0.037,  0.000) (  0.000, -0.000) (  0.000,  0.000) ( -0.000,  0.000) ( -0.000, -0.000) ( -0.020, -0.000) (  0.000,  0.000) (  0.000,  0.000) (  0.000,  0.000) (  0.564, -0.000) (




======================================================================
 Calculating and writing out Kohn-Sham electronic Structure file
 Using conjugate gradient wavefunctions and energies (kssform=3)
 number of Gamma centered plane waves    627
 number of Gamma centered shells     32
 number of bands     20
 maximum angular momentum components      3
 Conjugate gradient eigenvalues
   k    eigenvalues [Hartree]
   1     -2.8442 -2.8442 -1.6428 -1.6428 -1.5863 -1.5863 -1.5863 -1.5863  0.0092
          0.0092  0.2659  0.2659  0.2659  0.2659  0.2692  0.2692  0.3194  0.3194
          0.3194  0.3194
   2     -2.8438 -2.8438 -1.6436 -1.6436 -1.5877 -1.5877 -1.5866 -1.5866  0.0313
          0.0313  0.2606  0.2606  0.2655  0.2655  0.2791  0.2791  0.3139  0.3139
          0.3200  0.3200
   3     -2.8430 -2.8430 -1.6455 -1.6455 -1.5911 -1.5911 -1.5873 -1.5873  0.0907
          0.0907  0.2463  0.2463  0.2579  0.2579  0.3096  0.3096  0.3119  0.3119
          0.3222  0.3222
   4     -2.8422 -2.8422 -1.6476 -1.6476 -1.5943 -1.5943 -1.5879 -1.5879  0.1503
          0.1503  0.2327  0.2327  0.2748  0.2748  0.3169  0.3169  0.3252  0.3252
          0.3467  0.3467
   5     -2.8419 -2.8419 -1.6485 -1.6485 -1.5956 -1.5956 -1.5882 -1.5882  0.1639
          0.1639  0.2272  0.2272  0.3182  0.3182  0.3219  0.3219  0.3267  0.3267
          0.3635  0.3635
 Test on the normalization of the wavefunctions
  min sum_G |a(n,k,G)| =  1.000000
  max sum_G |a(n,k,G)| =  1.000000
 Test on the orthogonalization of the wavefunctions
  min sum_G a(n,k,G)a(n',k,G) =  0.000000
  max sum_G a(n,k,G)a(n',k,G) =  0.499716

================================================================================

 ----iterations are completed or convergence reached----

 Mean square residual over all n,k,spin=   47.319E-14; max=  99.510E-14
 reduced coordinates (array xred) for    1 atoms
       0.000000000000      0.000000000000      0.000000000000

 cartesian coordinates (angstrom) at end:
    1      0.00000000000000     0.00000000000000     0.00000000000000
 length scales=  5.500000000000  5.500000000000  5.500000000000 bohr
              =  2.910474647245  2.910474647245  2.910474647245 angstroms
 prteigrs : about to open file t112_MPI8o_DS3_EIG
 Eigenvalues (hartree) for nkpt=   5  k points:
 kpt#   1, nband= 40, wtk=  0.20000, kpt=  0.0000  0.0000  0.0000 (reduced coord)
  -2.84415   -2.84415   -1.64279   -1.64279   -1.58631   -1.58631   -1.58631   -1.58631
   0.00922    0.00922    0.26592    0.26592    0.26592    0.26592    0.26917    0.26917
   0.31942    0.31942    0.31942    0.31942    1.17266    1.17266    1.17266    1.17266
   1.17266    1.17266    1.36024    1.36024    1.36024    1.36024    1.43208    1.43208
   1.43208    1.43208    1.43434    1.43434    1.43727    1.43727    1.45051    1.45051
 kpt#   2, nband= 40, wtk=  0.20000, kpt=  0.0000  0.1250  0.0000 (reduced coord)
  -2.84382   -2.84382   -1.64357   -1.64357   -1.58774   -1.58774   -1.58660   -1.58660
   0.03135    0.03135    0.26058    0.26058    0.26545    0.26545    0.27913    0.27913
   0.31394    0.31394    0.31998    0.31998    1.06029    1.06029    1.13797    1.13797
   1.16225    1.16225    1.28123    1.28123    1.30904    1.30904    1.31883    1.31883
   1.42820    1.42820    1.48695    1.48695    1.57981    1.57981    1.60811    1.60827
 kpt#   3, nband= 40, wtk=  0.20000, kpt=  0.0000  0.2500  0.0000 (reduced coord)
  -2.84303   -2.84303   -1.64553   -1.64553   -1.59108   -1.59108   -1.58727   -1.58727
   0.09068    0.09068    0.24630    0.24630    0.25793    0.25793    0.30963    0.30963
   0.31189    0.31189    0.32216    0.32216    0.86161    0.86161    1.04540    1.04540
   1.14269    1.14269    1.14588    1.14588    1.26054    1.26054    1.38037    1.38037
   1.49068    1.49068    1.62940    1.62940    1.77981    1.77985    1.78680    1.78680
 kpt#   4, nband= 40, wtk=  0.20000, kpt=  0.0000  0.3750  0.0000 (reduced coord)
  -2.84223   -2.84223   -1.64760   -1.64760   -1.59429   -1.59429   -1.58792   -1.58792
   0.15029    0.15029    0.23268    0.23268    0.27479    0.27479    0.31689    0.31689
   0.32516    0.32516    0.34667    0.34667    0.67356    0.67356    0.97083    0.97083
   1.04062    1.04062    1.13540    1.13540    1.25237    1.25237    1.50189    1.50189
   1.51089    1.51089    1.83501    1.83501    1.87856    1.87856    1.92031    1.92038
 kpt#   5, nband= 40, wtk=  0.20000, kpt=  0.0000  0.5000  0.0000 (reduced coord)
  -2.84190   -2.84190   -1.64848   -1.64848   -1.59558   -1.59558   -1.58818   -1.58818
   0.16389    0.16389    0.22724    0.22724    0.31820    0.31820    0.32187    0.32187
   0.32674    0.32674    0.36350    0.36350    0.57479    0.57479    0.94362    0.94362
   1.00147    1.00147    1.13205    1.13205    1.25470    1.25470    1.49689    1.49689
   1.65852    1.65852    1.70975    1.70975    1.91363    1.91363    2.02876    2.02880

================================================================================
== DATASET  4 ==================================================================
-   mpi_nproc: 8, omp_nthreads: -1 (-1 if OMP is not activated)
-    --> not optimal distribution: autoparal keyword recommended in input file <--


--- !DatasetInfo
iteration_state: {dtset: 4, }
dimensions: {natom: 1, nkpt: 2, mband: 40, nsppol: 1, nspinor: 2, nspden: 4, mpw: 475, }
cutoff_energies: {ecut:  24.0, pawecutdg:  48.0, }
electrons: {nelect:   1.60000000E+01, charge:   0.00000000E+00, occopt:   3.00000000E+00, tsmear:   3.16681542E-03, }
meta: {optdriver: 0, ionmov: 0, optcell: 0, iscf: -2, paral_kgb: 0, }
...

 mkfilename : getden/=0, take file _DEN from output of DATASET   2.

 mkfilename : getself/=0, take file _Self-omega from output of DATASET   2.

 Exchange-correlation functional for the present dataset will be:
  LDA: Perdew-Wang 92 LSD fit to Ceperley-Alder data - ixc=7
 Citation for XC functional:
  J.P.Perdew and Y.Wang, PRB 45, 13244 (1992)

 Real(R)+Recip(G) space primitive vectors, cartesian coordinates (Bohr,Bohr^-1):
 R(1)= -2.7500000  2.7500000  2.7500000  G(1)=  0.0000000  0.1818182  0.1818182
 R(2)=  2.7500000 -2.7500000  2.7500000  G(2)=  0.1818182  0.0000000  0.1818182
 R(3)=  2.7500000  2.7500000 -2.7500000  G(3)=  0.1818182  0.1818182  0.0000000
 Unit cell volume ucvol=  8.3187500E+01 bohr^3
 Angles (23,13,12)=  1.09471221E+02  1.09471221E+02  1.09471221E+02 degrees

 Coarse grid specifications (used for wave-functions):

 getcut: wavevector=  0.0000  0.0000  0.0000  ngfft=  24  24  24
         ecut(hartree)=     24.000   => boxcut(ratio)=   2.28479

 getcut : COMMENT -
  Note that boxcut > 2.2 ; recall that boxcut=Gcut(box)/Gcut(sphere) = 2
  is sufficient for exact treatment of convolution.
  Such a large boxcut is a waste : you could raise ecut
  e.g. ecut=   31.321720 Hartrees makes boxcut=2


 Fine grid specifications (used for densities):

 getcut: wavevector=  0.0000  0.0000  0.0000  ngfft=  30  30  30
         ecut(hartree)=     48.000   => boxcut(ratio)=   2.01949
--------------------------------------------------------------------------------


-       ( number of procs used in dmft ) =    8


 ******************************************
 DFT+DMFT Method is used
 ******************************************

 DMFT uses the Continuous Time Quantum Monte Carlo solver of TRIQS (with density density interactions)

 Non Magnetic DFT, with Non-Magnetic AMF (Around Mean Field) double counting

 Entropy is not computed, only the internal energy is printed

 The off-diagonal elements of the Green's function are neglected

================================================================================
 prteigrs : about to open file t112_MPI8o_DS4_EIG
 Non-SCF case, kpt    1 ( -0.12500 -0.12500  0.37500), residuals and eigenvalues=
  3.30E-13  2.41E-13  1.99E-13  6.28E-13  9.80E-13  4.08E-13  4.71E-13  6.00E-13
  2.44E-13  4.81E-13  7.53E-13  4.60E-13  1.70E-13  1.74E-13  1.28E-13  6.09E-13
  1.71E-13  5.68E-13  2.04E-13  4.77E-13  3.41E-13  4.63E-13  1.51E-13  1.88E-13
  2.45E-13  9.00E-14  1.73E-13  9.50E-13  5.80E-13  2.56E-13  3.25E-13  6.47E-13
  6.58E-13  1.88E-13  6.96E-13  2.27E-13  2.05E-13  2.51E-13  1.21E-06  1.11E-06
 -2.8427E+00 -2.8427E+00 -1.6465E+00 -1.6465E+00 -1.5923E+00 -1.5923E+00
 -1.5879E+00 -1.5879E+00  1.2710E-01  1.2710E-01  2.3797E-01  2.3797E-01
  2.3802E-01  2.3802E-01  3.1818E-01  3.1818E-01  3.2024E-01  3.2024E-01
  3.4683E-01  3.4683E-01  8.7258E-01  8.7258E-01  8.7536E-01  8.7536E-01
  9.3618E-01  9.3618E-01  1.2941E+00  1.2941E+00  1.4558E+00  1.4558E+00
  1.4574E+00  1.4574E+00  1.5269E+00  1.5269E+00  1.5317E+00  1.5317E+00
  1.6356E+00  1.6356E+00  1.9923E+00  1.9928E+00
 prteigrs : prtvol=0 or 1, do not print more k-points.



--- !ResultsGS
iteration_state: {dtset: 4, }
comment   : Summary of ground state results
lattice_vectors:
- [ -2.7500000,   2.7500000,   2.7500000, ]
- [  2.7500000,  -2.7500000,   2.7500000, ]
- [  2.7500000,   2.7500000,  -2.7500000, ]
lattice_lengths: [   4.76314,    4.76314,    4.76314, ]
lattice_angles: [109.471, 109.471, 109.471, ] # degrees, (23, 13, 12)
lattice_volume:   8.3187500E+01
convergence: {deltae:  0.000E+00, res2:  0.000E+00, residm:  9.798E-13, diffor:  0.000E+00, }
etotal    :  -1.24689577E+02
entropy   :   0.00000000E+00
fermie    :   3.10649919E-01
cartesian_stress_tensor: null
pressure_GPa: null
xred      :
- [  0.0000E+00,   0.0000E+00,   0.0000E+00, Fe]
cartesian_forces: null
force_length_stats: {min: null, max: null, mean: null, }
...

 Integrated electronic and magnetization densities in atomic spheres:
 ------------------------------------------------------------------------------------------------------------
 Radius=ratsph(iatom), smearing ratsm=  0.0000. mag(i)=approximate local magnetic moment.
    Atom    Radius     Total density      |mag|      mag(x)      mag(y)      mag(z)    mag(theta)  mag(phi)
    1 Fe   2.01261       14.099326      0.000000   -0.000000   -0.000000    0.000000    0.000000    0.000000
 ------------------------------------------------------------------------------------------------------------
 Total magnetization (spheres)          0.000000   -0.000000   -0.000000    0.000000    0.000000    0.000000
 Total magnetization (exact)            0.000000    0.000000   -0.000000    0.000000    0.000000    0.000000

 PAW TEST:
 ==== Compensation charge inside spheres ============
 Compensation charge over spherical meshes =      9.778069091598175

 ==== Results concerning PAW augmentation regions ====

 Total pseudopotential strength Dij (hartree):
 Atom #  1 - Component up-up
   === REAL PART:
  -2.06670   0.24239   0.00000   0.00000   0.00000   0.00000   0.00000   0.00000   0.00000   0.00000   0.00000   0.00000 ...
   0.24239   0.07097   0.00000   0.00000   0.00000   0.00000   0.00000   0.00000   0.00000   0.00000   0.00000   0.00000 ...
   0.00000   0.00000  -1.58495   0.00000   0.00000   0.07087   0.00000   0.00000   0.00000   0.00000   0.00000   0.00000 ...
   0.00000   0.00000   0.00000  -1.58495   0.00000   0.00000   0.07087   0.00000   0.00000   0.00000   0.00000   0.00000 ...
   0.00000   0.00000   0.00000   0.00000  -1.58495   0.00000   0.00000   0.07087   0.00000   0.00000   0.00000   0.00000 ...
   0.00000   0.00000   0.07087   0.00000   0.00000   0.02117   0.00000   0.00000   0.00000   0.00000   0.00000   0.00000 ...
   0.00000   0.00000   0.00000   0.07087   0.00000   0.00000   0.02117   0.00000   0.00000   0.00000   0.00000   0.00000 ...
   0.00000   0.00000   0.00000   0.00000   0.07087   0.00000   0.00000   0.02117   0.00000   0.00000   0.00000   0.00000 ...
   0.00000   0.00000   0.00000   0.00000   0.00000   0.00000   0.00000   0.00000  -0.09260   0.00000   0.00000   0.00000 ...
   0.00000   0.00000   0.00000   0.00000   0.00000   0.00000   0.00000   0.00000   0.00000  -0.09260   0.00000   0.00000 ...
   0.00000   0.00000   0.00000   0.00000   0.00000   0.00000   0.00000   0.00000   0.00000   0.00000  -0.09375   0.00000 ...
   0.00000   0.00000   0.00000   0.00000   0.00000   0.00000   0.00000   0.00000   0.00000   0.00000   0.00000  -0.09260 ...
   ...  only 12  components have been written...
   === IMAGINARY PART:
  -0.00000  -0.00000  -0.00000  -0.00000  -0.00000  -0.00000  -0.00000  -0.00000  -0.00000  -0.00000  -0.00000  -0.00000 ...
   0.00000  -0.00000  -0.00000  -0.00000  -0.00000  -0.00000  -0.00000  -0.00000  -0.00000  -0.00000  -0.00000  -0.00000 ...
   0.00000   0.00000  -0.00000  -0.00000  -0.01850  -0.00000  -0.00000   0.00273  -0.00000  -0.00000  -0.00000  -0.00000 ...
   0.00000   0.00000   0.00000  -0.00000  -0.00000  -0.00000  -0.00000  -0.00000  -0.00000  -0.00000  -0.00000  -0.00000 ...
   0.00000   0.00000   0.01850   0.00000  -0.00000  -0.00273  -0.00000  -0.00000  -0.00000  -0.00000  -0.00000  -0.00000 ...
   0.00000   0.00000   0.00000   0.00000   0.00273  -0.00000  -0.00000  -0.00041  -0.00000  -0.00000  -0.00000  -0.00000 ...
   0.00000   0.00000   0.00000   0.00000   0.00000   0.00000  -0.00000  -0.00000  -0.00000  -0.00000  -0.00000  -0.00000 ...
   0.00000   0.00000  -0.00273   0.00000   0.00000   0.00041   0.00000  -0.00000  -0.00000  -0.00000  -0.00000  -0.00000 ...
   0.00000   0.00000   0.00000   0.00000   0.00000   0.00000   0.00000   0.00000  -0.00000  -0.00000  -0.00000  -0.00000 ...
   0.00000   0.00000   0.00000   0.00000   0.00000   0.00000   0.00000   0.00000   0.00000  -0.00000  -0.00000  -0.00100 ...
   0.00000   0.00000   0.00000   0.00000   0.00000   0.00000   0.00000   0.00000   0.00000   0.00000  -0.00000  -0.00000 ...
   0.00000   0.00000   0.00000   0.00000   0.00000   0.00000   0.00000   0.00000   0.00000   0.00100   0.00000  -0.00000 ...
   ...  only 12  components have been written...
 Atom #  1 - Component dwn-dwn
   === REAL PART:
  -2.06670   0.24239   0.00000   0.00000   0.00000   0.00000   0.00000   0.00000   0.00000   0.00000   0.00000   0.00000 ...
   0.24239   0.07097   0.00000   0.00000   0.00000   0.00000   0.00000   0.00000   0.00000   0.00000   0.00000   0.00000 ...
   0.00000   0.00000  -1.58495   0.00000   0.00000   0.07087   0.00000   0.00000   0.00000   0.00000   0.00000   0.00000 ...
   0.00000   0.00000   0.00000  -1.58495   0.00000   0.00000   0.07087   0.00000   0.00000   0.00000   0.00000   0.00000 ...
   0.00000   0.00000   0.00000   0.00000  -1.58495   0.00000   0.00000   0.07087   0.00000   0.00000   0.00000   0.00000 ...
   0.00000   0.00000   0.07087   0.00000   0.00000   0.02117   0.00000   0.00000   0.00000   0.00000   0.00000   0.00000 ...
   0.00000   0.00000   0.00000   0.07087   0.00000   0.00000   0.02117   0.00000   0.00000   0.00000   0.00000   0.00000 ...
   0.00000   0.00000   0.00000   0.00000   0.07087   0.00000   0.00000   0.02117   0.00000   0.00000   0.00000   0.00000 ...
   0.00000   0.00000   0.00000   0.00000   0.00000   0.00000   0.00000   0.00000  -0.09260   0.00000   0.00000   0.00000 ...
   0.00000   0.00000   0.00000   0.00000   0.00000   0.00000   0.00000   0.00000   0.00000  -0.09260   0.00000   0.00000 ...
   0.00000   0.00000   0.00000   0.00000   0.00000   0.00000   0.00000   0.00000   0.00000   0.00000  -0.09375   0.00000 ...
   0.00000   0.00000   0.00000   0.00000   0.00000   0.00000   0.00000   0.00000   0.00000   0.00000   0.00000  -0.09260 ...
   ...  only 12  components have been written...
   === IMAGINARY PART:
  -0.00000  -0.00000  -0.00000  -0.00000  -0.00000  -0.00000  -0.00000  -0.00000  -0.00000  -0.00000  -0.00000  -0.00000 ...
   0.00000  -0.00000  -0.00000  -0.00000  -0.00000  -0.00000  -0.00000  -0.00000  -0.00000  -0.00000  -0.00000  -0.00000 ...
   0.00000   0.00000  -0.00000  -0.00000   0.01850  -0.00000  -0.00000  -0.00273  -0.00000  -0.00000  -0.00000  -0.00000 ...
   0.00000   0.00000   0.00000  -0.00000  -0.00000  -0.00000  -0.00000  -0.00000  -0.00000  -0.00000  -0.00000  -0.00000 ...
   0.00000   0.00000  -0.01850   0.00000  -0.00000   0.00273  -0.00000  -0.00000  -0.00000  -0.00000  -0.00000  -0.00000 ...
   0.00000   0.00000   0.00000   0.00000  -0.00273  -0.00000  -0.00000   0.00041  -0.00000  -0.00000  -0.00000  -0.00000 ...
   0.00000   0.00000   0.00000   0.00000   0.00000   0.00000  -0.00000  -0.00000  -0.00000  -0.00000  -0.00000  -0.00000 ...
   0.00000   0.00000   0.00273   0.00000   0.00000  -0.00041   0.00000  -0.00000  -0.00000  -0.00000  -0.00000  -0.00000 ...
   0.00000   0.00000   0.00000   0.00000   0.00000   0.00000   0.00000   0.00000  -0.00000  -0.00000  -0.00000  -0.00000 ...
   0.00000   0.00000   0.00000   0.00000   0.00000   0.00000   0.00000   0.00000   0.00000  -0.00000  -0.00000   0.00100 ...
   0.00000   0.00000   0.00000   0.00000   0.00000   0.00000   0.00000   0.00000   0.00000   0.00000  -0.00000  -0.00000 ...
   0.00000   0.00000   0.00000   0.00000   0.00000   0.00000   0.00000   0.00000   0.00000  -0.00100   0.00000  -0.00000 ...
   ...  only 12  components have been written...
 Atom #  1 - Component up-dwn
   === REAL PART:
   0.00000   0.00000   0.00000   0.00000   0.00000   0.00000   0.00000   0.00000   0.00000   0.00000   0.00000   0.00000 ...
   0.00000   0.00000   0.00000   0.00000   0.00000   0.00000   0.00000   0.00000   0.00000   0.00000   0.00000   0.00000 ...
   0.00000   0.00000   0.00000   0.00000   0.00000   0.00000   0.00000   0.00000   0.00000   0.00000   0.00000   0.00000 ...
   0.00000   0.00000   0.00000   0.00000   0.01850   0.00000   0.00000  -0.00273   0.00000   0.00000   0.00000   0.00000 ...
   0.00000   0.00000   0.00000  -0.01850   0.00000   0.00000   0.00273   0.00000   0.00000   0.00000   0.00000   0.00000 ...
   0.00000   0.00000   0.00000   0.00000   0.00000   0.00000   0.00000   0.00000   0.00000   0.00000   0.00000   0.00000 ...
   0.00000   0.00000   0.00000   0.00000  -0.00273   0.00000   0.00000   0.00041   0.00000   0.00000   0.00000   0.00000 ...
   0.00000   0.00000   0.00000   0.00273   0.00000   0.00000  -0.00041   0.00000   0.00000   0.00000   0.00000   0.00000 ...
   0.00000   0.00000   0.00000   0.00000   0.00000   0.00000   0.00000   0.00000   0.00000  -0.00100   0.00000   0.00000 ...
   0.00000   0.00000   0.00000   0.00000   0.00000   0.00000   0.00000   0.00000   0.00100   0.00000   0.00000   0.00000 ...
   0.00000   0.00000   0.00000   0.00000   0.00000   0.00000   0.00000   0.00000   0.00000   0.00000   0.00000   0.00174 ...
   0.00000   0.00000   0.00000   0.00000   0.00000   0.00000   0.00000   0.00000   0.00000   0.00000  -0.00174   0.00000 ...
   ...  only 12  components have been written...
   === IMAGINARY PART:
  -0.00000  -0.00000  -0.00000  -0.00000  -0.00000  -0.00000  -0.00000  -0.00000  -0.00000  -0.00000  -0.00000  -0.00000 ...
   0.00000  -0.00000  -0.00000  -0.00000  -0.00000  -0.00000  -0.00000  -0.00000  -0.00000  -0.00000  -0.00000  -0.00000 ...
   0.00000   0.00000  -0.00000   0.01850  -0.00000  -0.00000  -0.00273  -0.00000  -0.00000  -0.00000  -0.00000  -0.00000 ...
   0.00000   0.00000  -0.01850  -0.00000  -0.00000   0.00273  -0.00000  -0.00000  -0.00000  -0.00000  -0.00000  -0.00000 ...
[...]
  -0.00316   0.00000   0.00000   0.00000   0.00000   0.00015   0.00000   0.00000   0.00000  -0.00000

 ---------- DFT+U DATA --------------------------------------------------- 

 ====== For Atom     1, occupations for correlated orbitals. lpawu =   2

  (This is PAW atomic orbital occupations)
  (For Wannier orbital occupations, refer to DFT+DMFT occupations above)
 => On atom   1, for  lpawu, local Mag. x is     0.19392590E-21
                             local Mag. y is    -0.38785181E-21
                             local Mag. z is     0.47747479E-09
                             norm of Mag. is     0.47747479E-09
         (along mag axis)    occ. for majority spin is =      2.85384
         (along mag axis)    occ. for minority spin is =      2.85384

 == Occupation matrix for correlated orbitals:

 Occupation matrix for component up-up
  (  0.60419, -0.00000) (  0.00000, -0.00000) (  0.00000, -0.00000) (  0.00000, -0.00000) (  0.00004,  0.00131) (
  (  0.00000,  0.00000) (  0.60419, -0.00000) (  0.00000, -0.00000) (  0.00000,  0.00185) (  0.00000, -0.00000) (
  (  0.00000,  0.00000) (  0.00000,  0.00000) (  0.52064, -0.00000) (  0.00000, -0.00000) (  0.00000, -0.00000) (
  (  0.00000,  0.00000) (  0.00000, -0.00185) (  0.00000,  0.00000) (  0.60419, -0.00000) (  0.00000, -0.00000) (
  (  0.00004, -0.00131) (  0.00000,  0.00000) (  0.00000,  0.00000) (  0.00000,  0.00000) (  0.52064, -0.00000) (


 Occupation matrix for component dwn-dwn
  (  0.60419,  0.00000) ( -0.00000,  0.00000) (  0.00000,  0.00000) ( -0.00000,  0.00000) ( -0.00004, -0.00131) (
  ( -0.00000, -0.00000) (  0.60419,  0.00000) ( -0.00000,  0.00000) ( -0.00000, -0.00185) ( -0.00000,  0.00000) (
  (  0.00000,  0.00000) ( -0.00000, -0.00000) (  0.52064,  0.00000) ( -0.00000,  0.00000) (  0.00000,  0.00000) (
  ( -0.00000, -0.00000) ( -0.00000,  0.00185) ( -0.00000, -0.00000) (  0.60419,  0.00000) ( -0.00000,  0.00000) (
  ( -0.00004,  0.00131) ( -0.00000, -0.00000) (  0.00000,  0.00000) ( -0.00000, -0.00000) (  0.52064,  0.00000) (


 Occupation matrix for component up-dwn
  (  0.00000, -0.00000) (  0.00185, -0.00000) (  0.00000, -0.00000) (  0.00000, -0.00185) (  0.00000, -0.00000) (
  ( -0.00185, -0.00000) (  0.00000, -0.00000) ( -0.00003, -0.00113) (  0.00000, -0.00000) ( -0.00002, -0.00065) (
  (  0.00000,  0.00000) ( -0.00003,  0.00113) (  0.00000,  0.00000) ( -0.00113, -0.00003) (  0.00000, -0.00000) (
  (  0.00000,  0.00185) (  0.00000,  0.00000) (  0.00113, -0.00003) (  0.00000, -0.00000) ( -0.00065,  0.00002) (
  (  0.00000, -0.00000) ( -0.00002,  0.00065) (  0.00000,  0.00000) (  0.00065,  0.00002) (  0.00000, -0.00000) (


 Occupation matrix for component dwn-up
  (  0.00000,  0.00000) ( -0.00185,  0.00000) (  0.00000,  0.00000) (  0.00000, -0.00185) (  0.00000,  0.00000) (
  (  0.00185,  0.00000) (  0.00000,  0.00000) ( -0.00003, -0.00113) (  0.00000,  0.00000) ( -0.00002, -0.00065) (
  (  0.00000,  0.00000) ( -0.00003,  0.00113) (  0.00000, -0.00000) (  0.00113,  0.00003) (  0.00000,  0.00000) (
  (  0.00000,  0.00185) (  0.00000,  0.00000) ( -0.00113,  0.00003) (  0.00000,  0.00000) (  0.00065, -0.00002) (
  (  0.00000,  0.00000) ( -0.00002,  0.00065) (  0.00000,  0.00000) ( -0.00065, -0.00002) (  0.00000,  0.00000) (



== Occupation matrix in the complex harmonics basis for component up-up
  (  0.56111, -0.00000) (  0.00000,  0.00000) (  0.00000,  0.00000) (  0.00000, -0.00000) ( -0.04177,  0.00004) (
  (  0.00000,  0.00000) (  0.60234, -0.00000) (  0.00000,  0.00000) (  0.00000, -0.00000) (  0.00000, -0.00000) (
  (  0.00000,  0.00000) (  0.00000, -0.00000) (  0.52064, -0.00000) (  0.00000,  0.00000) (  0.00000,  0.00000) (
  (  0.00000,  0.00000) (  0.00000,  0.00000) (  0.00000, -0.00000) (  0.60603, -0.00000) (  0.00000,  0.00000) (
  ( -0.04177, -0.00004) (  0.00000,  0.00000) (  0.00000,  0.00000) (  0.00000,  0.00000) (  0.56372, -0.00000) (

== Occupation matrix in the complex harmonics basis for component dwn-dwn
  (  0.56372,  0.00000) ( -0.00000,  0.00000) (  0.00000,  0.00000) (  0.00000,  0.00000) ( -0.04177, -0.00004) (
  ( -0.00000,  0.00000) (  0.60603,  0.00000) ( -0.00000, -0.00000) (  0.00000,  0.00000) (  0.00000,  0.00000) (
  (  0.00000,  0.00000) ( -0.00000,  0.00000) (  0.52064,  0.00000) ( -0.00000, -0.00000) (  0.00000,  0.00000) (
  (  0.00000, -0.00000) (  0.00000, -0.00000) ( -0.00000,  0.00000) (  0.60234,  0.00000) ( -0.00000,  0.00000) (
  ( -0.04177,  0.00004) (  0.00000, -0.00000) (  0.00000,  0.00000) ( -0.00000,  0.00000) (  0.56111,  0.00000) (

== Occupation matrix in the complex harmonics basis for component up-dwn
  (  0.00000,  0.00000) (  0.00250,  0.00002) (  0.00000,  0.00000) (  0.00000, -0.00000) (  0.00000,  0.00000) (
  (  0.00000, -0.00000) (  0.00000,  0.00000) (  0.00160, -0.00004) (  0.00000,  0.00000) (  0.00000,  0.00000) (
  (  0.00000,  0.00000) (  0.00000,  0.00000) (  0.00000,  0.00000) (  0.00160,  0.00004) (  0.00000,  0.00000) (
  ( -0.00119, -0.00002) (  0.00000,  0.00000) (  0.00000,  0.00000) (  0.00000,  0.00000) (  0.00250, -0.00002) (
  ( -0.00000, -0.00000) ( -0.00119,  0.00002) (  0.00000,  0.00000) (  0.00000,  0.00000) (  0.00000,  0.00000) (

== Occupation matrix in the complex harmonics basis for component dwn-up
  (  0.00000,  0.00000) (  0.00000,  0.00000) (  0.00000,  0.00000) ( -0.00119,  0.00002) ( -0.00000,  0.00000) (
  (  0.00250, -0.00002) (  0.00000,  0.00000) (  0.00000,  0.00000) (  0.00000,  0.00000) ( -0.00119, -0.00002) (
  (  0.00000,  0.00000) (  0.00160,  0.00004) (  0.00000, -0.00000) (  0.00000,  0.00000) (  0.00000,  0.00000) (
  (  0.00000,  0.00000) (  0.00000,  0.00000) (  0.00160, -0.00004) (  0.00000,  0.00000) (  0.00000, -0.00000) (
  (  0.00000, -0.00000) (  0.00000, -0.00000) (  0.00000,  0.00000) (  0.00250,  0.00002) (  0.00000,  0.00000) (



== Occupation matrix in the J (= L-1/2, L+1/2) and M_J basis
  (  0.568, -0.000) (  0.000, -0.000) (  0.000,  0.000) ( -0.000, -0.000) ( -0.000,  0.000) (  0.016, -0.000) ( -0.000, -0.000) (  0.000,  0.000) ( -0.000,  0.000) (  0.037, -0.000) (
  (  0.000,  0.000) (  0.568, -0.000) (  0.000,  0.000) ( -0.000, -0.000) ( -0.000,  0.000) ( -0.000,  0.000) ( -0.040,  0.000) ( -0.000, -0.000) ( -0.000,  0.000) (  0.000,  0.000) (
  ( -0.000, -0.000) (  0.000, -0.000) (  0.568,  0.000) ( -0.000,  0.000) (  0.000, -0.000) (  0.000, -0.000) ( -0.000,  0.000) (  0.040, -0.000) ( -0.000, -0.000) (  0.000, -0.000) (
  ( -0.000,  0.000) (  0.000,  0.000) ( -0.000, -0.000) (  0.568,  0.000) ( -0.037,  0.000) (  0.000, -0.000) (  0.000, -0.000) ( -0.000,  0.000) ( -0.016,  0.000) ( -0.000,  0.000) (
  ( -0.000,  0.000) (  0.000, -0.000) (  0.000,  0.000) ( -0.037, -0.000) (  0.564,  0.000) ( -0.000,  0.000) (  0.000,  0.000) (  0.000,  0.000) ( -0.020, -0.000) ( -0.000,  0.000) (
  (  0.016,  0.000) ( -0.000, -0.000) (  0.000,  0.000) (  0.000,  0.000) ( -0.000,  0.000) (  0.599,  0.000) ( -0.000, -0.000) (  0.000,  0.000) (  0.000, -0.000) ( -0.020,  0.000) (
  ( -0.000,  0.000) ( -0.040, -0.000) ( -0.000, -0.000) (  0.000,  0.000) (  0.000, -0.000) ( -0.000,  0.000) (  0.555,  0.000) (  0.000,  0.000) (  0.000, -0.000) (  0.000, -0.000) (
  ( -0.000, -0.000) ( -0.000,  0.000) (  0.040,  0.000) ( -0.000, -0.000) (  0.000, -0.000) (  0.000, -0.000) (  0.000, -0.000) (  0.555, -0.000) (  0.000,  0.000) (  0.000, -0.000) (
  ( -0.000, -0.000) (  0.000, -0.000) ( -0.000,  0.000) ( -0.016, -0.000) ( -0.020,  0.000) (  0.000,  0.000) (  0.000,  0.000) (  0.000, -0.000) (  0.599, -0.000) (  0.000,  0.000) (
  (  0.037,  0.000) (  0.000, -0.000) (  0.000,  0.000) ( -0.000,  0.000) ( -0.000, -0.000) ( -0.020, -0.000) (  0.000,  0.000) (  0.000,  0.000) (  0.000,  0.000) (  0.564, -0.000) (




======================================================================
 Calculating and writing out Kohn-Sham electronic Structure file
 Using conjugate gradient wavefunctions and energies (kssform=3)
 number of Gamma centered plane waves    675
 number of Gamma centered shells     34
 number of bands     20
 maximum angular momentum components      3
 Conjugate gradient eigenvalues
   k    eigenvalues [Hartree]
   1     -2.8427 -2.8427 -1.6465 -1.6465 -1.5923 -1.5923 -1.5879 -1.5879  0.1271
          0.1271  0.2380  0.2380  0.2380  0.2380  0.3182  0.3182  0.3202  0.3202
          0.3468  0.3468
   2     -2.8413 -2.8413 -1.6494 -1.6494 -1.5958 -1.5958 -1.5911 -1.5911  0.2188
          0.2188  0.2196  0.2196  0.2358  0.2358  0.3292  0.3292  0.3304  0.3304
          0.5650  0.5650
 Test on the normalization of the wavefunctions
  min sum_G |a(n,k,G)| =  1.000000
  max sum_G |a(n,k,G)| =  1.000000
 Test on the orthogonalization of the wavefunctions
  min sum_G a(n,k,G)a(n',k,G) =  0.000000
  max sum_G a(n,k,G)a(n',k,G) =  0.499909

================================================================================

 ----iterations are completed or convergence reached----

 Mean square residual over all n,k,spin=   40.143E-14; max=  97.982E-14
 reduced coordinates (array xred) for    1 atoms
       0.000000000000      0.000000000000      0.000000000000

 cartesian coordinates (angstrom) at end:
    1      0.00000000000000     0.00000000000000     0.00000000000000
 length scales=  5.500000000000  5.500000000000  5.500000000000 bohr
              =  2.910474647245  2.910474647245  2.910474647245 angstroms
 prteigrs : about to open file t112_MPI8o_DS4_EIG
 Eigenvalues (hartree) for nkpt=   2  k points:
 kpt#   1, nband= 40, wtk=  0.50000, kpt= -0.1250 -0.1250  0.3750 (reduced coord)
  -2.84267   -2.84267   -1.64645   -1.64645   -1.59234   -1.59234   -1.58788   -1.58788
   0.12710    0.12710    0.23797    0.23797    0.23802    0.23802    0.31818    0.31818
   0.32024    0.32024    0.34683    0.34683    0.87258    0.87258    0.87536    0.87536
   0.93618    0.93618    1.29414    1.29414    1.45582    1.45582    1.45744    1.45744
   1.52689    1.52689    1.53166    1.53166    1.63557    1.63557    1.99227    1.99277
 prteigrs : prtvol=0 or 1, do not print more k-points.


== END DATASET(S) ==============================================================
================================================================================
  
 -outvars: echo values of variables after computation  --------
            acell      5.5000000000E+00  5.5000000000E+00  5.5000000000E+00 Bohr
              amu      5.58470000E+01
        dmftbandf          25
        dmftbandi           9
  dmftctqmc_basis           2
   dmftctqmc_meas         100
          dmft_dc           6
        dmft_iter           1
        dmft_mxsf      8.0000000000E-01
        dmft_nwli        1000
        dmftqmc_l         500
        dmftqmc_n      1.0000000000E+05
    dmftqmc_therm        1000
        dmft_solv           6
  dmft_triqs_wmax      1.0000000000E+00
             ecut      2.40000000E+01 Hartree
-          fftalg         112
           getden           2
          getself           2
             iscf          -2
           istwfk3       1    0    0    0    1
              ixc           7
           jdtset        3    4
              kpt3     0.00000000E+00  0.00000000E+00  0.00000000E+00
                       0.00000000E+00  1.25000000E-01  0.00000000E+00
                       0.00000000E+00  2.50000000E-01  0.00000000E+00
                       0.00000000E+00  3.75000000E-01  0.00000000E+00
                       0.00000000E+00  5.00000000E-01  0.00000000E+00
              kpt4    -1.25000000E-01 -1.25000000E-01  3.75000000E-01
                      -3.75000000E-01 -3.75000000E-01  1.25000000E-01
           kptopt3         -1
           kptopt4          4
         kptrlatt        2    0    2      0    2    2     -2   -2    0
          kptrlen3     3.00000000E+01
          kptrlen4     1.10000000E+01
          kssform           3
            lpawu           2
P           mkmem           1
            natom           1
            nband3         40
            nband4         40
         nbandkss          20
           nbdbuf          10
           ndtset           2
           ndivsm3          4
           ndivsm4          0
            ngfft          24      24      24
          ngfftdg          30      30      30
             nkpt3          5
             nkpt4          2
           nspden           4
          nspinor           2
            nstep          75
             nsym          24
           ntypat           1
           occopt           3
        optforces           0
-      paral_atom           0
        pawcpxocc           2
        pawecutdg      4.80000000E+01 Hartree
        pawprtvol           3
        pawspnorb           1
            rprim     -5.0000000000E-01  5.0000000000E-01  5.0000000000E-01
                       5.0000000000E-01 -5.0000000000E-01  5.0000000000E-01
                       5.0000000000E-01  5.0000000000E-01 -5.0000000000E-01
           shiftk3     5.00000000E-01  5.00000000E-01  5.00000000E-01
           shiftk4     5.00000000E-01  5.00000000E-01 -5.00000000E-01
          spgroup         211
           symrel      1  0  0   0  1  0   0  0  1      -1 -1 -1   0  0  1   0  1  0
                       0  1  0   1  0  0  -1 -1 -1       0  0  1  -1 -1 -1   1  0  0
                       0 -1  0  -1  0  0   0  0 -1       1  1  1   0  0 -1  -1  0  0
                      -1  0  0   0 -1  0   1  1  1       0  0 -1   1  1  1   0 -1  0
                      -1 -1 -1   1  0  0   0  0  1       0  1  0   0  0  1   1  0  0
                       1  0  0  -1 -1 -1   0  1  0       0  0  1   0  1  0  -1 -1 -1
                      -1  0  0   1  1  1   0  0 -1       0 -1  0   0  0 -1   1  1  1
                       1  1  1  -1  0  0   0 -1  0       0  0 -1   0 -1  0  -1  0  0
                       0  1  0  -1 -1 -1   0  0  1       1  0  0   0  0  1  -1 -1 -1
                      -1 -1 -1   0  1  0   1  0  0       0  0  1   1  0  0   0  1  0
                       1  1  1   0 -1  0   0  0 -1      -1  0  0   0  0 -1   0 -1  0
                       0 -1  0   1  1  1  -1  0  0       0  0 -1  -1  0  0   1  1  1
           tolvrs      1.00000000E-15
           tolwfr      1.00000000E-12
           tsmear      3.16681542E-03 Hartree
            typat      1
          usedmft           1
          usepawu          14
           useylm           1
              wtk3       1.00000    1.00000    1.00000    1.00000    1.00000
              wtk4       0.50000    0.50000
            znucl       26.00000

================================================================================


- Timing analysis has been suppressed with timopt=0



================================================================================

 Suggested references for the acknowledgment of ABINIT usage.

 The users of ABINIT have little formal obligations with respect to the ABINIT group
 (those specified in the GNU General Public License, http://www.gnu.org/copyleft/gpl.txt).
 However, it is common practice in the scientific literature,
 to acknowledge the efforts of people that have made the research possible.
 In this spirit, please find below suggested citations of work written by ABINIT developers,
 corresponding to implementations inside of ABINIT that you have used in the present run.
 Note also that it will be of great value to readers of publications presenting these results,
 to read papers enabling them to understand the theoretical formalism and details
 of the ABINIT implementation.
 For information on why they are suggested, see also https://docs.abinit.org/theory/acknowledgments.
-
- [1] Plane-wave based electronic structure calculations for correlated materials.
- using dynamical mean-field theory and projected local orbitals,
- B. Amadon, F. Lechermann, A. Georges, F. Jollet, T.O. Wehling, A.I. Lichenstein,
- Phys. Rev. B 77, 205112 (2008).
- Comment: to be cited in case the computation of overlap operator for Wannier90 interface within PAW is used,
- i.e. prtwant=2 and usepaw=1. The paper describes also the DFT+DMFT implementation on Wannier functions
- DOI and bibtex: see https://docs.abinit.org/theory/bibliography/#amadon2008
-
- [2] Implementation of the Projector Augmented-Wave Method in the ABINIT code.
- M. Torrent, F. Jollet, F. Bottin, G. Zerah, and X. Gonze Comput. Mat. Science 42, 337, (2008).
- Comment: PAW calculations. Strong suggestion to cite this paper.
- DOI and bibtex: see https://docs.abinit.org/theory/bibliography/#torrent2008
-
- [3] The Abinit project: Impact, environment and recent developments.
- Computer Phys. Comm. 248, 107042 (2020).
- X.Gonze, B. Amadon, G. Antonius, F.Arnardi, L.Baguet, J.-M.Beuken,
- J.Bieder, F.Bottin, J.Bouchet, E.Bousquet, N.Brouwer, F.Bruneval,
- G.Brunin, T.Cavignac, J.-B. Charraud, Wei Chen, M.Cote, S.Cottenier,
- J.Denier, G.Geneste, Ph.Ghosez, M.Giantomassi, Y.Gillet, O.Gingras,
- D.R.Hamann, G.Hautier, Xu He, N.Helbig, N.Holzwarth, Y.Jia, F.Jollet,
- W.Lafargue-Dit-Hauret, K.Lejaeghere, M.A.L.Marques, A.Martin, C.Martins,
- H.P.C. Miranda, F.Naccarato, K. Persson, G.Petretto, V.Planes, Y.Pouillon,
- S.Prokhorenko, F.Ricci, G.-M.Rignanese, A.H.Romero, M.M.Schmitt, M.Torrent,
- M.J.van Setten, B.Van Troeye, M.J.Verstraete, G.Zerah and J.W.Zwanzig
- Comment: the fifth generic paper describing the ABINIT project.
- Note that a version of this paper, that is not formatted for Computer Phys. Comm. 
- is available at https://www.abinit.org/sites/default/files/ABINIT20.pdf .
- The licence allows the authors to put it on the Web.
- DOI and bibtex: see https://docs.abinit.org/theory/bibliography/#gonze2020
-
- [4] ABINIT: Overview, and focus on selected capabilities
- J. Chem. Phys. 152, 124102 (2020).
- A. Romero, D.C. Allan, B. Amadon, G. Antonius, T. Applencourt, L.Baguet,
- J.Bieder, F.Bottin, J.Bouchet, E.Bousquet, F.Bruneval,
- G.Brunin, D.Caliste, M.Cote,
- J.Denier, C. Dreyer, Ph.Ghosez, M.Giantomassi, Y.Gillet, O.Gingras,
- D.R.Hamann, G.Hautier, F.Jollet, G. Jomard,
- A.Martin, 
- H.P.C. Miranda, F.Naccarato, G.Petretto, N.A. Pike, V.Planes,
- S.Prokhorenko, T. Rangel, F.Ricci, G.-M.Rignanese, M.Royo, M.Stengel, M.Torrent,
- M.J.van Setten, B.Van Troeye, M.J.Verstraete, J.Wiktor, J.W.Zwanziger, and X.Gonze.
- Comment: a global overview of ABINIT, with focus on selected capabilities .
- Note that a version of this paper, that is not formatted for J. Chem. Phys 
- is available at https://www.abinit.org/sites/default/files/ABINIT20_JPC.pdf .
- The licence allows the authors to put it on the Web.
- DOI and bibtex: see https://docs.abinit.org/theory/bibliography/#romero2020
-
- [5] Recent developments in the ABINIT software package.
- Computer Phys. Comm. 205, 106 (2016).
- X.Gonze, F.Jollet, F.Abreu Araujo, D.Adams, B.Amadon, T.Applencourt,
- C.Audouze, J.-M.Beuken, J.Bieder, A.Bokhanchuk, E.Bousquet, F.Bruneval
- D.Caliste, M.Cote, F.Dahm, F.Da Pieve, M.Delaveau, M.Di Gennaro,
- B.Dorado, C.Espejo, G.Geneste, L.Genovese, A.Gerossier, M.Giantomassi,
- Y.Gillet, D.R.Hamann, L.He, G.Jomard, J.Laflamme Janssen, S.Le Roux,
- A.Levitt, A.Lherbier, F.Liu, I.Lukacevic, A.Martin, C.Martins,
- M.J.T.Oliveira, S.Ponce, Y.Pouillon, T.Rangel, G.-M.Rignanese,
- A.H.Romero, B.Rousseau, O.Rubel, A.A.Shukri, M.Stankovski, M.Torrent,
- M.J.Van Setten, B.Van Troeye, M.J.Verstraete, D.Waroquier, J.Wiktor,
- B.Xu, A.Zhou, J.W.Zwanziger.
- Comment: the fourth generic paper describing the ABINIT project.
- Note that a version of this paper, that is not formatted for Computer Phys. Comm. 
- is available at https://www.abinit.org/sites/default/files/ABINIT16.pdf .
- The licence allows the authors to put it on the Web.
- DOI and bibtex: see https://docs.abinit.org/theory/bibliography/#gonze2016
-
- Proc.   0 individual time (sec): cpu=          7.0  wall=          7.0

================================================================================

 Calculation completed.
.Delivered   0 WARNINGs and   2 COMMENTs to log file.
+Overall time at end (sec) : cpu=         55.7  wall=         55.9
