
.Version 10.5.1.5 of ABINIT, released Jul 2025.
.(MPI version, prepared for a x86_64_linux_gnu14.2 computer) 

.Copyright (C) 1998-2025 ABINIT group . 
 ABINIT comes with ABSOLUTELY NO WARRANTY.
 It is free software, and you are welcome to redistribute it
 under certain conditions (GNU General Public License,
 see ~abinit/COPYING or http://www.gnu.org/copyleft/gpl.txt).

 ABINIT is a project of the Universite Catholique de Louvain,
 Corning Inc. and other collaborators, see ~abinit/doc/developers/contributors.txt .
 Please read https://docs.abinit.org/theory/acknowledgments for suggested
 acknowledgments of the ABINIT effort.
 For more information, see https://www.abinit.org .

.Starting date : Thu 17 Jul 2025.
- ( at 15h05 )
  
- input  file    -> /opt/ABINIT/atlas_gnu_14.2_triqs/castiel_dmft_triqs/tests/TestBot_MPI8_OMP1/paral_t113_MPI8/t113.abi
- output file    -> t113_MPI8.abo
- root for input  files -> t113_MPI8i
- root for output files -> t113_MPI8o

- inpspheads : Reading pseudopotential header in XML form from 
-   /opt/ABINIT/atlas_gnu_14.2_triqs/castiel_dmft_triqs/tests/Pspdir/Fe-paw-abinit.xml
 DATASET    1 : space group Im -3 m (#229); Bravais cI (body-center cubic)
================================================================================
 Values of the parameters that define the memory need for DATASET  1.
     intxc =       0    ionmov =       0      iscf =      17    lmnmax =      18
     lnmax =       6     mgfft =      20  mpssoang =       3    mqgrid =    3001
     natom =       1  nloc_mem =       2    nspden =       2   nspinor =       1
    nsppol =       2      nsym =      48    n1xccc =       1    ntypat =       1
    occopt =       3   xclevel =       2
-    mband =          20        mffmem =           1         mkmem =           2
       mpw =         352          nfft =        8000          nkpt =           8
 PAW method is used; the additional fine FFT grid is defined by:
   mgfftf=        32    nfftf =     32768
================================================================================
P This job should need less than                      20.054 Mbytes of memory.
  Rough estimation (10% accuracy) of disk space for files :
_ WF disk file :      1.721 Mbytes ; DEN or POT disk file :      0.502 Mbytes.
================================================================================

 DATASET    2 : space group Im -3 m (#229); Bravais cI (body-center cubic)
================================================================================
 Values of the parameters that define the memory need for DATASET  2.
     intxc =       0    ionmov =       0      iscf =      17    lmnmax =      18
     lnmax =       6     mgfft =      20  mpssoang =       3    mqgrid =    3001
     natom =       1  nloc_mem =       2    nspden =       2   nspinor =       1
    nsppol =       2      nsym =      48    n1xccc =       1    ntypat =       1
    occopt =       3   xclevel =       2
-    mband =          20        mffmem =           1         mkmem =           2
       mpw =         352          nfft =        8000          nkpt =           8
 PAW method is used; the additional fine FFT grid is defined by:
   mgfftf=        32    nfftf =     32768
================================================================================
P This job should need less than                      20.054 Mbytes of memory.
  Rough estimation (10% accuracy) of disk space for files :
_ WF disk file :      1.721 Mbytes ; DEN or POT disk file :      0.502 Mbytes.
================================================================================

 DATASET    3 : space group Im -3 m (#229); Bravais cI (body-center cubic)
================================================================================
 Values of the parameters that define the memory need for DATASET  3.
     intxc =       0    ionmov =       0      iscf =      17    lmnmax =      18
     lnmax =       6     mgfft =      20  mpssoang =       3    mqgrid =    3001
     natom =       1  nloc_mem =       2    nspden =       2   nspinor =       1
    nsppol =       2      nsym =      48    n1xccc =       1    ntypat =       1
    occopt =       3   xclevel =       2
-    mband =          20        mffmem =           1         mkmem =           2
       mpw =         352          nfft =        8000          nkpt =           8
 PAW method is used; the additional fine FFT grid is defined by:
   mgfftf=        32    nfftf =     32768
================================================================================
P This job should need less than                      20.054 Mbytes of memory.
  Rough estimation (10% accuracy) of disk space for files :
_ WF disk file :      1.721 Mbytes ; DEN or POT disk file :      0.502 Mbytes.
================================================================================

--------------------------------------------------------------------------------
------------- Echo of variables that govern the present computation ------------
--------------------------------------------------------------------------------
-
- outvars: echo of selected default values
-   iomode0 =  0 , fftalg0 =512 , wfoptalg0 = 10
-
- outvars: echo of global parameters not present in the input file
-  max_nthreads =    0
-
 -outvars: echo values of preprocessed input variables --------
            acell      5.4476100000E+00  5.4476100000E+00  5.4476100000E+00 Bohr
              amu      5.58470000E+01
        dmftbandf1          0
        dmftbandf2         13
        dmftbandf3         13
        dmftbandi1          0
        dmftbandi2          5
        dmftbandi3          5
  dmftctqmc_basis1          1
  dmftctqmc_basis2          0
  dmftctqmc_basis3          0
   dmftctqmc_meas1          1
   dmftctqmc_meas2        100
   dmftctqmc_meas3        100
          dmft_dc1          1
          dmft_dc2          8
          dmft_dc3          8
        dmft_iter1         10
        dmft_iter2          1
        dmft_iter3          1
        dmft_mxsf1     6.0000000000E-01
        dmft_mxsf2     7.0000000000E-01
        dmft_mxsf3     7.0000000000E-01
        dmft_nwli1          0
        dmft_nwli2       1000
        dmft_nwli3       1000
        dmftqmc_l1          0
        dmftqmc_l2        500
        dmftqmc_l3        500
        dmftqmc_n1     0.0000000000E+00
        dmftqmc_n2     1.0000000000E+04
        dmftqmc_n3     1.0000000000E+04
    dmftqmc_therm1          0
    dmftqmc_therm2       1000
    dmftqmc_therm3       1000
        dmft_solv1          5
        dmft_solv2          6
        dmft_solv3          6
  dmft_triqs_wmax1    -1.0000000000E+00
  dmft_triqs_wmax2     1.0000000000E+00
  dmft_triqs_wmax3     1.0000000000E+00
             ecut      2.00000000E+01 Hartree
-          fftalg         512
           getden1          0
           getden2          1
           getden3          1
              ixc     -101130
           jdtset        1    2    3
            jpawu1     0.00000000E+00 Hartree
            jpawu2     3.08694333E-02 Hartree
            jpawu3     3.08694333E-02 Hartree
              kpt     -6.25000000E-02 -6.25000000E-02  1.87500000E-01
                      -6.25000000E-02 -6.25000000E-02  4.37500000E-01
                      -1.87500000E-01 -1.87500000E-01  6.25000000E-02
                      -1.87500000E-01 -1.87500000E-01 -4.37500000E-01
                      -6.25000000E-02 -3.12500000E-01 -3.12500000E-01
                      -1.87500000E-01 -4.37500000E-01  6.25000000E-02
                      -3.12500000E-01 -3.12500000E-01  1.87500000E-01
                      -4.37500000E-01 -4.37500000E-01  3.12500000E-01
         kptrlatt        4    0    4      0    4    4     -4   -4    0
          kptrlen      2.17904400E+01
            lpawu           2
P           mkmem           2
            natom           1
            nband          20
           ndtset           3
            ngfft          20      20      20
          ngfftdg          32      32      32
             nkpt           8
            nline1          4
            nline2         10
            nline3         10
           nnsclo1          0
           nnsclo2          7
           nnsclo3          7
           nspden           2
           nsppol           2
            nstep1         30
            nstep2          2
            nstep3          2
             nsym          48
           ntypat           1
              occ      1.000000  1.000000  1.000000  1.000000  1.000000  1.000000
                       1.000000  1.000000  0.000000  0.000000  0.000000  0.000000
                       0.000000  0.000000  0.000000  0.000000  0.000000  0.000000
                       0.000000  0.000000
                       1.000000  1.000000  1.000000  1.000000  1.000000  1.000000
                       1.000000  1.000000  0.000000  0.000000  0.000000  0.000000
                       0.000000  0.000000  0.000000  0.000000  0.000000  0.000000
                       0.000000  0.000000
                       1.000000  1.000000  1.000000  1.000000  1.000000  1.000000
                       1.000000  1.000000  0.000000  0.000000  0.000000  0.000000
                       0.000000  0.000000  0.000000  0.000000  0.000000  0.000000
                       0.000000  0.000000
                       1.000000  1.000000  1.000000  1.000000  1.000000  1.000000
                       1.000000  1.000000  0.000000  0.000000  0.000000  0.000000
                       0.000000  0.000000  0.000000  0.000000  0.000000  0.000000
                       0.000000  0.000000
                       1.000000  1.000000  1.000000  1.000000  1.000000  1.000000
                       1.000000  1.000000  0.000000  0.000000  0.000000  0.000000
                       0.000000  0.000000  0.000000  0.000000  0.000000  0.000000
                       0.000000  0.000000
                       1.000000  1.000000  1.000000  1.000000  1.000000  1.000000
                       1.000000  1.000000  0.000000  0.000000  0.000000  0.000000
                       0.000000  0.000000  0.000000  0.000000  0.000000  0.000000
                       0.000000  0.000000
                       1.000000  1.000000  1.000000  1.000000  1.000000  1.000000
                       1.000000  1.000000  0.000000  0.000000  0.000000  0.000000
                       0.000000  0.000000  0.000000  0.000000  0.000000  0.000000
                       0.000000  0.000000
                       1.000000  1.000000  1.000000  1.000000  1.000000  1.000000
                       1.000000  1.000000  0.000000  0.000000  0.000000  0.000000
                       0.000000  0.000000  0.000000  0.000000  0.000000  0.000000
                       0.000000  0.000000
                       1.000000  1.000000  1.000000  1.000000  1.000000  1.000000
                       1.000000  1.000000  0.000000  0.000000  0.000000  0.000000
                       0.000000  0.000000  0.000000  0.000000  0.000000  0.000000
                       0.000000  0.000000
                       1.000000  1.000000  1.000000  1.000000  1.000000  1.000000
                       1.000000  1.000000  0.000000  0.000000  0.000000  0.000000
                       0.000000  0.000000  0.000000  0.000000  0.000000  0.000000
                       0.000000  0.000000
                       1.000000  1.000000  1.000000  1.000000  1.000000  1.000000
                       1.000000  1.000000  0.000000  0.000000  0.000000  0.000000
                       0.000000  0.000000  0.000000  0.000000  0.000000  0.000000
                       0.000000  0.000000
                       1.000000  1.000000  1.000000  1.000000  1.000000  1.000000
                       1.000000  1.000000  0.000000  0.000000  0.000000  0.000000
                       0.000000  0.000000  0.000000  0.000000  0.000000  0.000000
                       0.000000  0.000000
                       1.000000  1.000000  1.000000  1.000000  1.000000  1.000000
                       1.000000  1.000000  0.000000  0.000000  0.000000  0.000000
                       0.000000  0.000000  0.000000  0.000000  0.000000  0.000000
                       0.000000  0.000000
                       1.000000  1.000000  1.000000  1.000000  1.000000  1.000000
                       1.000000  1.000000  0.000000  0.000000  0.000000  0.000000
                       0.000000  0.000000  0.000000  0.000000  0.000000  0.000000
                       0.000000  0.000000
                       1.000000  1.000000  1.000000  1.000000  1.000000  1.000000
                       1.000000  1.000000  0.000000  0.000000  0.000000  0.000000
                       0.000000  0.000000  0.000000  0.000000  0.000000  0.000000
                       0.000000  0.000000
                       1.000000  1.000000  1.000000  1.000000  1.000000  1.000000
                       1.000000  1.000000  0.000000  0.000000  0.000000  0.000000
                       0.000000  0.000000  0.000000  0.000000  0.000000  0.000000
                       0.000000  0.000000
           occopt           3
        optforces1          2
        optforces2          0
        optforces3          0
-      paral_atom           0
        pawecutdg      5.00000000E+01 Hartree
        pawprtvol           3
           prtvol           4
            rprim     -5.0000000000E-01  5.0000000000E-01  5.0000000000E-01
                       5.0000000000E-01 -5.0000000000E-01  5.0000000000E-01
                       5.0000000000E-01  5.0000000000E-01 -5.0000000000E-01
           shiftk      5.00000000E-01  5.00000000E-01 -5.00000000E-01
          spgroup         229
           symrel      1  0  0   0  1  0   0  0  1      -1  0  0   0 -1  0   0  0 -1
                      -1 -1 -1   0  0  1   0  1  0       1  1  1   0  0 -1   0 -1  0
                       0  1  0   1  0  0  -1 -1 -1       0 -1  0  -1  0  0   1  1  1
                       0  0  1  -1 -1 -1   1  0  0       0  0 -1   1  1  1  -1  0  0
                       0  1  0   1  0  0   0  0  1       0 -1  0  -1  0  0   0  0 -1
                      -1 -1 -1   0  0  1   1  0  0       1  1  1   0  0 -1  -1  0  0
                       1  0  0   0  1  0  -1 -1 -1      -1  0  0   0 -1  0   1  1  1
                       0  0  1  -1 -1 -1   0  1  0       0  0 -1   1  1  1   0 -1  0
                      -1 -1 -1   1  0  0   0  0  1       1  1  1  -1  0  0   0  0 -1
                       0  1  0   0  0  1   1  0  0       0 -1  0   0  0 -1  -1  0  0
                       1  0  0  -1 -1 -1   0  1  0      -1  0  0   1  1  1   0 -1  0
                       0  0  1   0  1  0  -1 -1 -1       0  0 -1   0 -1  0   1  1  1
                       1  0  0  -1 -1 -1   0  0  1      -1  0  0   1  1  1   0  0 -1
                       0  1  0   0  0  1  -1 -1 -1       0 -1  0   0  0 -1   1  1  1
                      -1 -1 -1   1  0  0   0  1  0       1  1  1  -1  0  0   0 -1  0
                       0  0  1   0  1  0   1  0  0       0  0 -1   0 -1  0  -1  0  0
                       0  1  0  -1 -1 -1   0  0  1       0 -1  0   1  1  1   0  0 -1
                       1  0  0   0  0  1  -1 -1 -1      -1  0  0   0  0 -1   1  1  1
                      -1 -1 -1   0  1  0   1  0  0       1  1  1   0 -1  0  -1  0  0
                       0  0  1   1  0  0   0  1  0       0  0 -1  -1  0  0   0 -1  0
                      -1 -1 -1   0  1  0   0  0  1       1  1  1   0 -1  0   0  0 -1
                       1  0  0   0  0  1   0  1  0      -1  0  0   0  0 -1   0 -1  0
                       0  1  0  -1 -1 -1   1  0  0       0 -1  0   1  1  1  -1  0  0
                       0  0  1   1  0  0  -1 -1 -1       0  0 -1  -1  0  0   1  1  1
           tolvrs      1.00000000E-10
           tsmear      3.16681542E-03 Hartree
            typat      1
            upawu1     0.00000000E+00 Hartree
            upawu2     2.02121290E-01 Hartree
            upawu3     2.02121290E-01 Hartree
          usedmft1          0
          usedmft2          1
          usedmft3          1
          usepawu1          4
          usepawu2         14
          usepawu3         14
           useylm           1
              wtk        0.06250    0.18750    0.18750    0.06250    0.06250    0.18750
                         0.18750    0.06250
            znucl       26.00000

================================================================================

 chkinp: Checking input parameters for consistency, jdtset=   1.

 chkinp: Checking input parameters for consistency, jdtset=   2.

 chkinp: Checking input parameters for consistency, jdtset=   3.

================================================================================
== DATASET  1 ==================================================================
-   mpi_nproc: 8, omp_nthreads: -1 (-1 if OMP is not activated)


--- !DatasetInfo
iteration_state: {dtset: 1, }
dimensions: {natom: 1, nkpt: 8, mband: 20, nsppol: 2, nspinor: 1, nspden: 2, mpw: 352, }
cutoff_energies: {ecut:  20.0, pawecutdg:  50.0, }
electrons: {nelect:   1.60000000E+01, charge:   0.00000000E+00, occopt:   3.00000000E+00, tsmear:   3.16681542E-03, }
meta: {optdriver: 0, ionmov: 0, optcell: 0, iscf: 17, paral_kgb: 0, }
...

 Real(R)+Recip(G) space primitive vectors, cartesian coordinates (Bohr,Bohr^-1):
 R(1)= -2.7238050  2.7238050  2.7238050  G(1)=  0.0000000  0.1835667  0.1835667
 R(2)=  2.7238050 -2.7238050  2.7238050  G(2)=  0.1835667  0.0000000  0.1835667
 R(3)=  2.7238050  2.7238050 -2.7238050  G(3)=  0.1835667  0.1835667  0.0000000
 Unit cell volume ucvol=  8.0832876E+01 bohr^3
 Angles (23,13,12)=  1.09471221E+02  1.09471221E+02  1.09471221E+02 degrees

 Coarse grid specifications (used for wave-functions):

 getcut: wavevector=  0.0000  0.0000  0.0000  ngfft=  20  20  20
         ecut(hartree)=     20.000   => boxcut(ratio)=   2.11104

 Fine grid specifications (used for densities):

 getcut: wavevector=  0.0000  0.0000  0.0000  ngfft=  32  32  32
         ecut(hartree)=     50.000   => boxcut(ratio)=   2.13298

--- Pseudopotential description ------------------------------------------------
- pspini: atom type   1  psp file is /opt/ABINIT/atlas_gnu_14.2_triqs/castiel_dmft_triqs/tests/Pspdir/Fe-paw-abinit.xml
- pspatm: opening atomic psp file    /opt/ABINIT/atlas_gnu_14.2_triqs/castiel_dmft_triqs/tests/Pspdir/Fe-paw-abinit.xml
- pspatm : Reading pseudopotential header in XML form from /opt/ABINIT/atlas_gnu_14.2_triqs/castiel_dmft_triqs/tests/Pspdir/Fe-paw-abinit.xml
 Pseudopotential format is: paw10
 basis_size (lnmax)=  6 (lmn_size= 18), orbitals=   0   0   1   1   2   2
 Spheres core radius: rc_sph= 2.02984247
 3 radial meshes are used:
  - mesh 1: r(i)=AA*[exp(BB*(i-1))-1], size= 594 , AA= 0.95337E-04 BB= 0.16949E-01
  - mesh 2: r(i)=AA*[exp(BB*(i-1))-1], size= 590 , AA= 0.95337E-04 BB= 0.16949E-01
  - mesh 3: r(i)=AA*[exp(BB*(i-1))-1], size= 683 , AA= 0.95337E-04 BB= 0.16949E-01
 Shapefunction is NUMERIC type: directly read from atomic data file
 Radius for shape functions =  2.02984247
 mmax=  594
 Radial grid used for partial waves is grid 1
 Radial grid used for projectors is grid 2
 Radial grid used for (t)core density is grid 1
 Radial grid used for Vloc is grid 3
 Radial grid used for shape functions is grid 1
 Compensation charge density is taken into account in XC energy/potential
 pspatm: atomic psp has been read  and splines computed

   5.80402498E+02                                ecore*ucvol(ha*bohr**3)
--------------------------------------------------------------------------------

P newkpt: treating     20 bands with npw=     348 for ikpt=   1 by node    0
P newkpt: treating     20 bands with npw=     346 for ikpt=   2 by node    0
P newkpt: treating     20 bands with npw=     342 for ikpt=   3 by node    1
P newkpt: treating     20 bands with npw=     339 for ikpt=   4 by node    1
P newkpt: treating     20 bands with npw=     339 for ikpt=   5 by node    2
P newkpt: treating     20 bands with npw=     349 for ikpt=   6 by node    2
P newkpt: treating     20 bands with npw=     346 for ikpt=   7 by node    3
P newkpt: treating     20 bands with npw=     352 for ikpt=   8 by node    3
P newkpt: treating     20 bands with npw=     348 for ikpt=   1 by node    7
P newkpt: treating     20 bands with npw=     346 for ikpt=   2 by node    7
P newkpt: treating     20 bands with npw=     342 for ikpt=   3 by node    6
P newkpt: treating     20 bands with npw=     339 for ikpt=   4 by node    6
P newkpt: treating     20 bands with npw=     339 for ikpt=   5 by node    5
P newkpt: treating     20 bands with npw=     349 for ikpt=   6 by node    5
P newkpt: treating     20 bands with npw=     346 for ikpt=   7 by node    4
P newkpt: treating     20 bands with npw=     352 for ikpt=   8 by node    4
_setup2: Arith. and geom. avg. npw (full set) are     345.438     345.419


 ******************************************
 DFT+U Method used: FLL with no spin polarization in the xc functional
 ******************************************

================================================================================

--- !BeginCycle
iteration_state: {dtset: 1, }
solver: {iscf: 17, nstep: 30, nline: 4, wfoptalg: 10, }
tolerances: {tolvrs: 1.00E-10, }
...

     iter   Etot(hartree)     deltaE(h) residm    nres2    magn
 ETOT  1  -153.57617271056    -1.54E+02 9.39E+01 3.20E+03 0.000
 ETOT  2  -124.83595647868     2.87E+01 9.89E-02 4.54E+02 0.000
 ETOT  3  -124.59269360659     2.43E-01 6.26E-01 1.69E+02 0.000
 ETOT  4  -124.42048509013     1.72E-01 1.25E-01 1.14E+01 0.000
 ETOT  5  -124.41772124266     2.76E-03 8.00E-03 8.35E-01 0.000
 ETOT  6  -124.41888291073    -1.16E-03 2.23E-03 7.11E-01 0.000
 ETOT  7  -124.41796056496     9.22E-04 8.46E-04 1.16E-02 0.000
 ETOT  8  -124.41796844590    -7.88E-06 1.53E-04 2.12E-04 0.000
 ETOT  9  -124.41796917610    -7.30E-07 7.25E-05 4.19E-04 0.000
 ETOT 10  -124.41796851917     6.57E-07 1.41E-05 2.30E-06 0.000
 ETOT 11  -124.41796852029    -1.12E-09 7.27E-06 6.24E-07 0.000
 ETOT 12  -124.41796851939     9.03E-10 1.49E-06 1.55E-07 0.000
 ETOT 13  -124.41796851867     7.16E-10 7.99E-07 1.44E-09 0.000
 ETOT 14  -124.41796851870    -3.06E-11 1.67E-07 1.78E-09 0.000
 ETOT 15  -124.41796851859     1.13E-10 9.21E-08 1.45E-11 0.000

 At SCF step   15       nres2   =  1.45E-11 < tolvrs=  1.00E-10 =>converged.

 Cartesian components of stress tensor (hartree/bohr^3)
  sigma(1 1)=  8.18432433E-04  sigma(3 2)=  0.00000000E+00
  sigma(2 2)=  8.18432433E-04  sigma(3 1)=  0.00000000E+00
  sigma(3 3)=  8.18432433E-04  sigma(2 1)=  0.00000000E+00


--- !ResultsGS
iteration_state: {dtset: 1, }
comment   : Summary of ground state results
lattice_vectors:
- [ -2.7238050,   2.7238050,   2.7238050, ]
- [  2.7238050,  -2.7238050,   2.7238050, ]
- [  2.7238050,   2.7238050,  -2.7238050, ]
lattice_lengths: [   4.71777,    4.71777,    4.71777, ]
lattice_angles: [109.471, 109.471, 109.471, ] # degrees, (23, 13, 12)
lattice_volume:   8.0832876E+01
convergence: {deltae:  1.130E-10, res2:  1.448E-11, residm:  9.205E-08, diffor: null, }
etotal    :  -1.24417969E+02
entropy   :   0.00000000E+00
fermie    :   2.57504680E-01
cartesian_stress_tensor: # hartree/bohr^3
- [  8.18432433E-04,   0.00000000E+00,   0.00000000E+00, ]
- [  0.00000000E+00,   8.18432433E-04,   0.00000000E+00, ]
- [  0.00000000E+00,   0.00000000E+00,   8.18432433E-04, ]
pressure_GPa:  -2.4079E+01
xred      :
- [  0.0000E+00,   0.0000E+00,   0.0000E+00, Fe]
cartesian_forces: # hartree/bohr
- [ -0.00000000E+00,  -0.00000000E+00,  -0.00000000E+00, ]
force_length_stats: {min:   0.00000000E+00, max:   0.00000000E+00, mean:   0.00000000E+00, }
...

 Integrated electronic and magnetization densities in atomic spheres:
 ---------------------------------------------------------------------
 Radius=ratsph(iatom), smearing ratsm=  0.0000. Diff(up-dn)=approximate z local magnetic moment.
 Atom    Radius    up_density   dn_density  Total(up+dn)  Diff(up-dn)
    1   2.02984     7.076267     7.076267     14.152535    -0.000000
 ---------------------------------------------------------------------
  Sum:              7.076267     7.076267     14.152535    -0.000000
 Total magnetization (from the atomic spheres):            -0.000000
 Total magnetization (exact up - dn):                      -0.000000

 PAW TEST:
 ==== Compensation charge inside spheres ============
 The following values must be close to each other ...
 Compensation charge over spherical meshes =      9.618851103018164
 Compensation charge over fine fft grid    =      9.618850519085454

 ==== Results concerning PAW augmentation regions ====

 Total pseudopotential strength Dij (hartree):
 Atom #  1 - Spin component 1
  -2.49660   0.25452   0.00000   0.00000   0.00000   0.00000   0.00000   0.00000   0.00000   0.00000   0.00000   0.00000 ...
   0.25452   0.06434   0.00000   0.00000   0.00000   0.00000   0.00000   0.00000   0.00000   0.00000   0.00000   0.00000 ...
   0.00000   0.00000  -1.76848   0.00000   0.00000   0.07368   0.00000   0.00000   0.00000   0.00000   0.00000   0.00000 ...
   0.00000   0.00000   0.00000  -1.76848   0.00000   0.00000   0.07368   0.00000   0.00000   0.00000   0.00000   0.00000 ...
   0.00000   0.00000   0.00000   0.00000  -1.76848   0.00000   0.00000   0.07368   0.00000   0.00000   0.00000   0.00000 ...
   0.00000   0.00000   0.07368   0.00000   0.00000   0.01748   0.00000   0.00000   0.00000   0.00000   0.00000   0.00000 ...
   0.00000   0.00000   0.00000   0.07368   0.00000   0.00000   0.01748   0.00000   0.00000   0.00000   0.00000   0.00000 ...
   0.00000   0.00000   0.00000   0.00000   0.07368   0.00000   0.00000   0.01748   0.00000   0.00000   0.00000   0.00000 ...
   0.00000   0.00000   0.00000   0.00000   0.00000   0.00000   0.00000   0.00000  -0.18737   0.00000   0.00000   0.00000 ...
   0.00000   0.00000   0.00000   0.00000   0.00000   0.00000   0.00000   0.00000   0.00000  -0.18737   0.00000   0.00000 ...
   0.00000   0.00000   0.00000   0.00000   0.00000   0.00000   0.00000   0.00000   0.00000   0.00000  -0.18819   0.00000 ...
   0.00000   0.00000   0.00000   0.00000   0.00000   0.00000   0.00000   0.00000   0.00000   0.00000   0.00000  -0.18737 ...
   ...  only 12  components have been written...
 Atom #  1 - Spin component 2
  -2.49660   0.25452   0.00000   0.00000   0.00000   0.00000   0.00000   0.00000   0.00000   0.00000   0.00000   0.00000 ...
   0.25452   0.06434   0.00000   0.00000   0.00000   0.00000   0.00000   0.00000   0.00000   0.00000   0.00000   0.00000 ...
   0.00000   0.00000  -1.76848   0.00000   0.00000   0.07368   0.00000   0.00000   0.00000   0.00000   0.00000   0.00000 ...
   0.00000   0.00000   0.00000  -1.76848   0.00000   0.00000   0.07368   0.00000   0.00000   0.00000   0.00000   0.00000 ...
   0.00000   0.00000   0.00000   0.00000  -1.76848   0.00000   0.00000   0.07368   0.00000   0.00000   0.00000   0.00000 ...
   0.00000   0.00000   0.07368   0.00000   0.00000   0.01748   0.00000   0.00000   0.00000   0.00000   0.00000   0.00000 ...
   0.00000   0.00000   0.00000   0.07368   0.00000   0.00000   0.01748   0.00000   0.00000   0.00000   0.00000   0.00000 ...
   0.00000   0.00000   0.00000   0.00000   0.07368   0.00000   0.00000   0.01748   0.00000   0.00000   0.00000   0.00000 ...
   0.00000   0.00000   0.00000   0.00000   0.00000   0.00000   0.00000   0.00000  -0.18737   0.00000   0.00000   0.00000 ...
   0.00000   0.00000   0.00000   0.00000   0.00000   0.00000   0.00000   0.00000   0.00000  -0.18737   0.00000   0.00000 ...
   0.00000   0.00000   0.00000   0.00000   0.00000   0.00000   0.00000   0.00000   0.00000   0.00000  -0.18819   0.00000 ...
   0.00000   0.00000   0.00000   0.00000   0.00000   0.00000   0.00000   0.00000   0.00000   0.00000   0.00000  -0.18737 ...
   ...  only 12  components have been written...


 Augmentation waves occupancies Rhoij:
 Atom #  1 - Spin component 1
   0.99853  -0.02002   0.00000   0.00000   0.00000   0.00000   0.00000   0.00000   0.00000   0.00000   0.00000   0.00000 ...
  -0.02002   0.67949   0.00000   0.00000   0.00000   0.00000   0.00000   0.00000   0.00000   0.00000   0.00000   0.00000 ...
   0.00000   0.00000   0.99668   0.00000   0.00000  -0.04895   0.00000   0.00000   0.00000   0.00000   0.00000   0.00000 ...
   0.00000   0.00000   0.00000   0.99668   0.00000   0.00000  -0.04895   0.00000   0.00000   0.00000   0.00000   0.00000 ...
   0.00000   0.00000   0.00000   0.00000   0.99668   0.00000   0.00000  -0.04895   0.00000   0.00000   0.00000   0.00000 ...
   0.00000   0.00000  -0.04895   0.00000   0.00000   0.86567   0.00000   0.00000   0.00000   0.00000   0.00000   0.00000 ...
   0.00000   0.00000   0.00000  -0.04895   0.00000   0.00000   0.86567   0.00000   0.00000   0.00000   0.00000   0.00000 ...
   0.00000   0.00000   0.00000   0.00000  -0.04895   0.00000   0.00000   0.86567   0.00000   0.00000   0.00000   0.00000 ...
   0.00000   0.00000   0.00000   0.00000   0.00000   0.00000   0.00000   0.00000   0.75399   0.00000   0.00000   0.00000 ...
   0.00000   0.00000   0.00000   0.00000   0.00000   0.00000   0.00000   0.00000   0.00000   0.75399   0.00000   0.00000 ...
   0.00000   0.00000   0.00000   0.00000   0.00000   0.00000   0.00000   0.00000   0.00000   0.00000   0.64545   0.00000 ...
   0.00000   0.00000   0.00000   0.00000   0.00000   0.00000   0.00000   0.00000   0.00000   0.00000   0.00000   0.75399 ...
   ...  only 12  components have been written...
 Atom #  1 - Spin component 2
   0.99853  -0.02002   0.00000   0.00000   0.00000   0.00000   0.00000   0.00000   0.00000   0.00000   0.00000   0.00000 ...
  -0.02002   0.67949   0.00000   0.00000   0.00000   0.00000   0.00000   0.00000   0.00000   0.00000   0.00000   0.00000 ...
   0.00000   0.00000   0.99668   0.00000   0.00000  -0.04895   0.00000   0.00000   0.00000   0.00000   0.00000   0.00000 ...
   0.00000   0.00000   0.00000   0.99668   0.00000   0.00000  -0.04895   0.00000   0.00000   0.00000   0.00000   0.00000 ...
   0.00000   0.00000   0.00000   0.00000   0.99668   0.00000   0.00000  -0.04895   0.00000   0.00000   0.00000   0.00000 ...
   0.00000   0.00000  -0.04895   0.00000   0.00000   0.86567   0.00000   0.00000   0.00000   0.00000   0.00000   0.00000 ...
   0.00000   0.00000   0.00000  -0.04895   0.00000   0.00000   0.86567   0.00000   0.00000   0.00000   0.00000   0.00000 ...
   0.00000   0.00000   0.00000   0.00000  -0.04895   0.00000   0.00000   0.86567   0.00000   0.00000   0.00000   0.00000 ...
   0.00000   0.00000   0.00000   0.00000   0.00000   0.00000   0.00000   0.00000   0.75399   0.00000   0.00000   0.00000 ...
   0.00000   0.00000   0.00000   0.00000   0.00000   0.00000   0.00000   0.00000   0.00000   0.75399   0.00000   0.00000 ...
   0.00000   0.00000   0.00000   0.00000   0.00000   0.00000   0.00000   0.00000   0.00000   0.00000   0.64545   0.00000 ...
   0.00000   0.00000   0.00000   0.00000   0.00000   0.00000   0.00000   0.00000   0.00000   0.00000   0.00000   0.75399 ...
   ...  only 12  components have been written...

 "PAW+U" part of augmentation waves occupancies Rhoij:
 Atom #  1 - L=2 ONLY - Spin component 1
   0.75399   0.00000   0.00000   0.00000   0.00000   0.01473   0.00000   0.00000   0.00000   0.00000
   0.00000   0.75399   0.00000   0.00000   0.00000   0.00000   0.01473   0.00000   0.00000   0.00000
   0.00000   0.00000   0.64545   0.00000   0.00000   0.00000   0.00000   0.00977   0.00000   0.00000
   0.00000   0.00000   0.00000   0.75399   0.00000   0.00000   0.00000   0.00000   0.01473   0.00000
   0.00000   0.00000   0.00000   0.00000   0.64545   0.00000   0.00000   0.00000   0.00000   0.00977
   0.01473   0.00000   0.00000   0.00000   0.00000   0.00136   0.00000   0.00000   0.00000   0.00000
   0.00000   0.01473   0.00000   0.00000   0.00000   0.00000   0.00136   0.00000   0.00000   0.00000
   0.00000   0.00000   0.00977   0.00000   0.00000   0.00000   0.00000   0.00177   0.00000   0.00000
   0.00000   0.00000   0.00000   0.01473   0.00000   0.00000   0.00000   0.00000   0.00136   0.00000
   0.00000   0.00000   0.00000   0.00000   0.00977   0.00000   0.00000   0.00000   0.00000   0.00177
 Atom #  1 - L=2 ONLY - Spin component 2
   0.75399   0.00000   0.00000   0.00000   0.00000   0.01473   0.00000   0.00000   0.00000   0.00000
   0.00000   0.75399   0.00000   0.00000   0.00000   0.00000   0.01473   0.00000   0.00000   0.00000
   0.00000   0.00000   0.64545   0.00000   0.00000   0.00000   0.00000   0.00977   0.00000   0.00000
   0.00000   0.00000   0.00000   0.75399   0.00000   0.00000   0.00000   0.00000   0.01473   0.00000
   0.00000   0.00000   0.00000   0.00000   0.64545   0.00000   0.00000   0.00000   0.00000   0.00977
   0.01473   0.00000   0.00000   0.00000   0.00000   0.00136   0.00000   0.00000   0.00000   0.00000
   0.00000   0.01473   0.00000   0.00000   0.00000   0.00000   0.00136   0.00000   0.00000   0.00000
   0.00000   0.00000   0.00977   0.00000   0.00000   0.00000   0.00000   0.00177   0.00000   0.00000
   0.00000   0.00000   0.00000   0.01473   0.00000   0.00000   0.00000   0.00000   0.00136   0.00000
   0.00000   0.00000   0.00000   0.00000   0.00977   0.00000   0.00000   0.00000   0.00000   0.00177

 ---------- DFT+U DATA --------------------------------------------------- 

 ====== For Atom     1, occupations for correlated orbitals. lpawu =   2

 Atom   1. Occ. for lpawu and for spin  1 =   2.86676
 Atom   1. Occ. for lpawu and for spin  2 =   2.86676
 => On atom   1,  local Mag. for lpawu is        0.000000

 == Occupation matrix for correlated orbitals:

 Occupation matrix for spin  1
     0.60367    0.00000    0.00000    0.00000    0.00000
     0.00000    0.60367    0.00000    0.00000    0.00000
     0.00000    0.00000    0.52787    0.00000    0.00000
     0.00000    0.00000    0.00000    0.60367    0.00000
     0.00000    0.00000    0.00000    0.00000    0.52787


 Occupation matrix for spin  2
     0.60367    0.00000    0.00000    0.00000    0.00000
     0.00000    0.60367    0.00000    0.00000    0.00000
     0.00000    0.00000    0.52787    0.00000    0.00000
     0.00000    0.00000    0.00000    0.60367    0.00000
     0.00000    0.00000    0.00000    0.00000    0.52787



================================================================================

 ----iterations are completed or convergence reached----

 Mean square residual over all n,k,spin=   57.559E-11; max=  92.052E-09
  -0.0625 -0.0625  0.1875    1  3.06340E-13 kpt; spin; max resid(k); each band:
  2.26E-14 2.23E-14 2.01E-14 2.68E-14 5.58E-14 1.44E-13 1.59E-13 1.19E-13
  5.13E-14 4.20E-14 2.69E-13 2.72E-13 2.19E-13 8.52E-17 6.87E-14 1.02E-13
  3.06E-13 3.03E-13 1.76E-13 2.02E-13
  -0.0625 -0.0625  0.4375    1  3.46018E-13 kpt; spin; max resid(k); each band:
  2.57E-14 2.61E-14 2.61E-14 2.39E-14 3.46E-13 2.22E-13 3.46E-13 4.05E-14
  4.18E-14 6.86E-14 3.08E-13 3.04E-13 1.64E-13 3.35E-13 1.98E-13 7.53E-14
  9.68E-14 1.06E-13 9.55E-14 1.25E-13
  -0.1875 -0.1875  0.0625    1  3.48394E-13 kpt; spin; max resid(k); each band:
  2.78E-14 2.41E-14 2.57E-14 2.98E-14 1.66E-13 1.66E-13 1.90E-13 8.42E-14
  5.11E-14 5.03E-14 3.48E-13 2.73E-13 2.82E-13 1.76E-13 2.09E-13 9.88E-14
  2.35E-13 7.72E-14 8.88E-14 1.41E-13
  -0.1875 -0.1875 -0.4375    1  3.79576E-13 kpt; spin; max resid(k); each band:
  2.42E-14 2.40E-14 2.62E-14 2.60E-14 2.77E-13 2.81E-13 2.42E-13 3.09E-14
  3.15E-14 1.92E-13 3.78E-13 3.80E-13 7.24E-14 1.95E-16 1.62E-13 1.36E-13
  2.55E-14 1.54E-13 1.32E-13 8.13E-14
  -0.0625 -0.3125 -0.3125    1  3.28682E-13 kpt; spin; max resid(k); each band:
  2.95E-14 2.54E-14 2.54E-14 2.58E-14 3.17E-13 2.35E-13 2.35E-13 2.43E-14
  2.43E-14 3.29E-13 3.29E-13 2.46E-13 2.18E-13 1.22E-13 1.22E-13 2.32E-13
  6.16E-14 6.12E-14 1.28E-13 1.59E-16
  -0.1875 -0.4375  0.0625    1  3.29393E-13 kpt; spin; max resid(k); each band:
  3.03E-14 2.60E-14 2.77E-14 2.35E-14 3.29E-13 2.21E-13 3.25E-13 5.32E-14
  2.70E-14 3.29E-13 2.61E-13 3.03E-13 1.32E-13 3.12E-13 1.55E-13 2.08E-13
  1.40E-13 2.66E-14 6.35E-14 7.10E-14
  -0.3125 -0.3125  0.1875    1  9.20516E-08 kpt; spin; max resid(k); each band:
  3.38E-14 2.84E-14 2.97E-14 2.67E-14 3.86E-13 2.73E-13 1.69E-13 8.68E-14
  3.61E-14 2.70E-13 3.50E-13 2.61E-13 3.38E-13 2.04E-13 2.01E-13 1.79E-13
  1.36E-13 1.22E-13 8.95E-14 9.21E-08
  -0.4375 -0.4375  0.3125    1  1.94174E-11 kpt; spin; max resid(k); each band:
  3.03E-14 3.52E-14 3.05E-14 2.84E-14 3.28E-13 3.36E-13 1.04E-13 4.14E-14
  3.37E-14 3.18E-13 3.49E-13 2.28E-13 3.87E-13 4.09E-13 9.04E-14 1.64E-13
  5.87E-14 1.28E-13 1.29E-13 1.94E-11
  -0.0625 -0.0625  0.1875    2  3.06341E-13 kpt; spin; max resid(k); each band:
  2.26E-14 2.23E-14 2.01E-14 2.68E-14 5.58E-14 1.44E-13 1.59E-13 1.19E-13
  5.13E-14 4.20E-14 2.69E-13 2.72E-13 2.19E-13 8.52E-17 6.87E-14 1.02E-13
  3.06E-13 3.03E-13 1.76E-13 2.02E-13
  -0.0625 -0.0625  0.4375    2  3.46019E-13 kpt; spin; max resid(k); each band:
  2.57E-14 2.61E-14 2.61E-14 2.39E-14 3.46E-13 2.22E-13 3.46E-13 4.05E-14
  4.18E-14 6.86E-14 3.08E-13 3.04E-13 1.64E-13 3.35E-13 1.98E-13 7.53E-14
  9.68E-14 1.06E-13 9.55E-14 1.25E-13
  -0.1875 -0.1875  0.0625    2  3.48395E-13 kpt; spin; max resid(k); each band:
  2.78E-14 2.41E-14 2.57E-14 2.98E-14 1.66E-13 1.66E-13 1.90E-13 8.42E-14
  5.11E-14 5.03E-14 3.48E-13 2.73E-13 2.82E-13 1.76E-13 2.09E-13 9.88E-14
  2.35E-13 7.72E-14 8.88E-14 1.41E-13
  -0.1875 -0.1875 -0.4375    2  3.79577E-13 kpt; spin; max resid(k); each band:
  2.42E-14 2.40E-14 2.62E-14 2.60E-14 2.77E-13 2.81E-13 2.42E-13 3.09E-14
  3.15E-14 1.92E-13 3.78E-13 3.80E-13 7.24E-14 1.95E-16 1.62E-13 1.36E-13
  2.55E-14 1.54E-13 1.32E-13 8.13E-14
  -0.0625 -0.3125 -0.3125    2  3.28683E-13 kpt; spin; max resid(k); each band:
  2.95E-14 2.54E-14 2.54E-14 2.58E-14 3.17E-13 2.35E-13 2.35E-13 2.43E-14
  2.43E-14 3.29E-13 3.29E-13 2.46E-13 2.18E-13 1.22E-13 1.22E-13 2.32E-13
  6.16E-14 6.12E-14 1.28E-13 1.59E-16
  -0.1875 -0.4375  0.0625    2  3.29394E-13 kpt; spin; max resid(k); each band:
  3.03E-14 2.60E-14 2.77E-14 2.35E-14 3.29E-13 2.21E-13 3.25E-13 5.32E-14
  2.70E-14 3.29E-13 2.61E-13 3.03E-13 1.32E-13 3.12E-13 1.55E-13 2.08E-13
  1.40E-13 2.66E-14 6.35E-14 7.10E-14
  -0.3125 -0.3125  0.1875    2  9.20516E-08 kpt; spin; max resid(k); each band:
  3.38E-14 2.84E-14 2.97E-14 2.67E-14 3.86E-13 2.73E-13 1.69E-13 8.68E-14
  3.61E-14 2.70E-13 3.50E-13 2.61E-13 3.38E-13 2.04E-13 2.01E-13 1.79E-13
  1.36E-13 1.22E-13 8.95E-14 9.21E-08
  -0.4375 -0.4375  0.3125    2  1.94174E-11 kpt; spin; max resid(k); each band:
  3.03E-14 3.52E-14 3.05E-14 2.84E-14 3.28E-13 3.36E-13 1.04E-13 4.14E-14
  3.37E-14 3.18E-13 3.49E-13 2.28E-13 3.87E-13 4.09E-13 9.04E-14 1.64E-13
  5.87E-14 1.28E-13 1.29E-13 1.94E-11
 reduced coordinates (array xred) for    1 atoms
       0.000000000000      0.000000000000      0.000000000000
 rms dE/dt=  0.0000E+00; max dE/dt=  0.0000E+00; dE/dt below (all hartree)
    1       0.000000000000      0.000000000000      0.000000000000

 cartesian coordinates (angstrom) at end:
    1      0.00000000000000     0.00000000000000     0.00000000000000

 cartesian forces (hartree/bohr) at end:
    1     -0.00000000000000    -0.00000000000000    -0.00000000000000
 frms,max,avg= 0.0000000E+00 0.0000000E+00   0.000E+00  0.000E+00  0.000E+00 h/b

 cartesian forces (eV/Angstrom) at end:
    1     -0.00000000000000    -0.00000000000000    -0.00000000000000
 frms,max,avg= 0.0000000E+00 0.0000000E+00   0.000E+00  0.000E+00  0.000E+00 e/A
 length scales=  5.447610000000  5.447610000000  5.447610000000 bohr
              =  2.882751053287  2.882751053287  2.882751053287 angstroms
 prteigrs : about to open file t113_MPI8o_DS1_EIG
 Fermi (or HOMO) energy (hartree) =   0.25750   Average Vxc (hartree)=  -0.50528
 Magnetization (Bohr magneton)=  4.50572912E-12
 Total spin up =  8.00000000E+00   Total spin down =  8.00000000E+00
 Eigenvalues (hartree) for nkpt=   8  k points, SPIN UP:
 kpt#   1, nband= 20, wtk=  0.06250, kpt= -0.0625 -0.0625  0.1875 (reduced coord)
  -2.94150   -1.68984   -1.68717   -1.68717   -0.00778    0.19685    0.19685    0.22545
   0.25417    0.25417    1.01657    1.01657    1.16148    1.16916    1.35847    1.35847
   1.40473    1.40473    1.59584    1.67177
      occupation numbers for kpt#   1
   1.00000    1.00000    1.00000    1.00000    1.00000    1.00000    1.00000    0.99996
   0.74139    0.74139    0.00000    0.00000    0.00000    0.00000    0.00000    0.00000
   0.00000    0.00000    0.00000    0.00000
 kpt#   2, nband= 20, wtk=  0.18750, kpt= -0.0625 -0.0625  0.4375 (reduced coord)
  -2.93994   -1.69774   -1.69067   -1.68725    0.10485    0.16875    0.20471    0.25502
   0.26261    0.30689    0.63495    0.87360    0.93554    1.17210    1.31611    1.49255
   1.50063    1.77114    1.85394    1.89371
      occupation numbers for kpt#   2
   1.00000    1.00000    1.00000    1.00000    1.00000    1.00000    1.00000    0.68679
   0.16625    0.00000    0.00000    0.00000    0.00000    0.00000    0.00000    0.00000
   0.00000    0.00000    0.00000    0.00000
 kpt#   3, nband= 20, wtk=  0.18750, kpt= -0.1875 -0.1875  0.0625 (reduced coord)
  -2.94045   -1.69413   -1.68975   -1.68799    0.06752    0.18721    0.19250    0.23536
   0.25709    0.27202    0.83052    0.86308    1.09378    1.10496    1.23782    1.40364
   1.52574    1.69043    1.72545    1.82566
      occupation numbers for kpt#   3
   1.00000    1.00000    1.00000    1.00000    1.00000    1.00000    1.00000    0.99908
   0.53242    0.01010    0.00000    0.00000    0.00000    0.00000    0.00000    0.00000
   0.00000    0.00000    0.00000    0.00000
 kpt#   4, nband= 20, wtk=  0.06250, kpt= -0.1875 -0.1875 -0.4375 (reduced coord)
  -2.93967   -1.69689   -1.69052   -1.69052    0.15716    0.16249    0.16249    0.26282
   0.26282    0.39315    0.68087    0.68087    0.72189    1.41692    1.52115    1.52115
   1.62723    1.71697    1.71697    1.95049
      occupation numbers for kpt#   4
   1.00000    1.00000    1.00000    1.00000    1.00000    1.00000    1.00000    0.15731
   0.15731    0.00000    0.00000    0.00000    0.00000    0.00000    0.00000    0.00000
   0.00000    0.00000    0.00000    0.00000
 kpt#   5, nband= 20, wtk=  0.06250, kpt= -0.0625 -0.3125 -0.3125 (reduced coord)
  -2.93944   -1.69528   -1.69528   -1.68892    0.14983    0.17326    0.17326    0.26350
   0.26350    0.51262    0.51262    0.59572    0.84144    1.35559    1.35559    1.62896
   1.75491    1.75491    1.79095    1.90987
      occupation numbers for kpt#   5
   1.00000    1.00000    1.00000    1.00000    1.00000    1.00000    1.00000    0.13071
   0.13071    0.00000    0.00000    0.00000    0.00000    0.00000    0.00000    0.00000
   0.00000    0.00000    0.00000    0.00000
 kpt#   6, nband= 20, wtk=  0.18750, kpt= -0.1875 -0.4375  0.0625 (reduced coord)
  -2.93939   -1.69876   -1.69255   -1.68815    0.12619    0.17437    0.19847    0.24930
   0.28303    0.38368    0.53163    0.75938    0.98579    1.14514    1.29155    1.40379
   1.55174    1.87663    1.94306    1.98097
      occupation numbers for kpt#   6
   1.00000    1.00000    1.00000    1.00000    1.00000    1.00000    1.00000    0.93029
   0.00032    0.00000    0.00000    0.00000    0.00000    0.00000    0.00000    0.00000
   0.00000    0.00000    0.00000    0.00000
 kpt#   7, nband= 20, wtk=  0.18750, kpt= -0.3125 -0.3125  0.1875 (reduced coord)
  -2.93910   -1.69688   -1.69354   -1.69062    0.13824    0.15915    0.20639    0.24245
   0.27688    0.36772    0.68039    0.69853    0.96860    1.02051    1.29776    1.40215
   1.60443    1.63709    1.95934    2.10029
      occupation numbers for kpt#   7
   1.00000    1.00000    1.00000    1.00000    1.00000    1.00000    1.00000    0.99145
   0.00219    0.00000    0.00000    0.00000    0.00000    0.00000    0.00000    0.00000
   0.00000    0.00000    0.00000    0.00000
 kpt#   8, nband= 20, wtk=  0.06250, kpt= -0.4375 -0.4375  0.3125 (reduced coord)
  -2.93826   -1.69632   -1.69632   -1.69371    0.13096    0.13096    0.24453    0.28202
   0.28202    0.56759    0.56759    0.60474    0.91180    0.91180    1.08597    1.51282
   1.76932    1.87000    1.87000    2.16187
      occupation numbers for kpt#   8
   1.00000    1.00000    1.00000    1.00000    1.00000    1.00000    0.98367    0.00043
   0.00043    0.00000    0.00000    0.00000    0.00000    0.00000    0.00000    0.00000
   0.00000    0.00000    0.00000    0.00000
 Eigenvalues (hartree) for nkpt=   8  k points, SPIN DOWN:
 kpt#   1, nband= 20, wtk=  0.06250, kpt= -0.0625 -0.0625  0.1875 (reduced coord)
  -2.94150   -1.68984   -1.68717   -1.68717   -0.00778    0.19685    0.19685    0.22545
   0.25417    0.25417    1.01657    1.01657    1.16148    1.16916    1.35847    1.35847
   1.40473    1.40473    1.59584    1.67177
      occupation numbers for kpt#   1
   1.00000    1.00000    1.00000    1.00000    1.00000    1.00000    1.00000    0.99996
   0.74139    0.74139    0.00000    0.00000    0.00000    0.00000    0.00000    0.00000
   0.00000    0.00000    0.00000    0.00000
 kpt#   2, nband= 20, wtk=  0.18750, kpt= -0.0625 -0.0625  0.4375 (reduced coord)
  -2.93994   -1.69774   -1.69067   -1.68725    0.10485    0.16875    0.20471    0.25502
   0.26261    0.30689    0.63495    0.87360    0.93554    1.17210    1.31611    1.49255
   1.50063    1.77114    1.85394    1.89371
      occupation numbers for kpt#   2
   1.00000    1.00000    1.00000    1.00000    1.00000    1.00000    1.00000    0.68679
   0.16625    0.00000    0.00000    0.00000    0.00000    0.00000    0.00000    0.00000
   0.00000    0.00000    0.00000    0.00000
 kpt#   3, nband= 20, wtk=  0.18750, kpt= -0.1875 -0.1875  0.0625 (reduced coord)
  -2.94045   -1.69413   -1.68975   -1.68799    0.06752    0.18721    0.19250    0.23536
   0.25709    0.27202    0.83052    0.86308    1.09378    1.10496    1.23782    1.40364
   1.52574    1.69043    1.72545    1.82566
      occupation numbers for kpt#   3
   1.00000    1.00000    1.00000    1.00000    1.00000    1.00000    1.00000    0.99908
   0.53242    0.01010    0.00000    0.00000    0.00000    0.00000    0.00000    0.00000
   0.00000    0.00000    0.00000    0.00000
 kpt#   4, nband= 20, wtk=  0.06250, kpt= -0.1875 -0.1875 -0.4375 (reduced coord)
  -2.93967   -1.69689   -1.69052   -1.69052    0.15716    0.16249    0.16249    0.26282
   0.26282    0.39315    0.68087    0.68087    0.72189    1.41692    1.52115    1.52115
   1.62723    1.71697    1.71697    1.95049
      occupation numbers for kpt#   4
   1.00000    1.00000    1.00000    1.00000    1.00000    1.00000    1.00000    0.15731
   0.15731    0.00000    0.00000    0.00000    0.00000    0.00000    0.00000    0.00000
   0.00000    0.00000    0.00000    0.00000
 kpt#   5, nband= 20, wtk=  0.06250, kpt= -0.0625 -0.3125 -0.3125 (reduced coord)
  -2.93944   -1.69528   -1.69528   -1.68892    0.14983    0.17326    0.17326    0.26350
   0.26350    0.51262    0.51262    0.59572    0.84144    1.35559    1.35559    1.62896
   1.75491    1.75491    1.79095    1.90987
      occupation numbers for kpt#   5
   1.00000    1.00000    1.00000    1.00000    1.00000    1.00000    1.00000    0.13071
   0.13071    0.00000    0.00000    0.00000    0.00000    0.00000    0.00000    0.00000
   0.00000    0.00000    0.00000    0.00000
 kpt#   6, nband= 20, wtk=  0.18750, kpt= -0.1875 -0.4375  0.0625 (reduced coord)
  -2.93939   -1.69876   -1.69255   -1.68815    0.12619    0.17437    0.19847    0.24930
   0.28303    0.38368    0.53163    0.75938    0.98579    1.14514    1.29155    1.40379
   1.55174    1.87663    1.94306    1.98097
      occupation numbers for kpt#   6
   1.00000    1.00000    1.00000    1.00000    1.00000    1.00000    1.00000    0.93029
   0.00032    0.00000    0.00000    0.00000    0.00000    0.00000    0.00000    0.00000
   0.00000    0.00000    0.00000    0.00000
 kpt#   7, nband= 20, wtk=  0.18750, kpt= -0.3125 -0.3125  0.1875 (reduced coord)
  -2.93910   -1.69688   -1.69354   -1.69062    0.13824    0.15915    0.20639    0.24245
   0.27688    0.36772    0.68039    0.69853    0.96860    1.02051    1.29776    1.40215
   1.60443    1.63709    1.95934    2.10029
      occupation numbers for kpt#   7
   1.00000    1.00000    1.00000    1.00000    1.00000    1.00000    1.00000    0.99145
   0.00219    0.00000    0.00000    0.00000    0.00000    0.00000    0.00000    0.00000
   0.00000    0.00000    0.00000    0.00000
 kpt#   8, nband= 20, wtk=  0.06250, kpt= -0.4375 -0.4375  0.3125 (reduced coord)
  -2.93826   -1.69632   -1.69632   -1.69371    0.13096    0.13096    0.24453    0.28202
   0.28202    0.56759    0.56759    0.60474    0.91180    0.91180    1.08597    1.51282
   1.76932    1.87000    1.87000    2.16187
      occupation numbers for kpt#   8
   1.00000    1.00000    1.00000    1.00000    1.00000    1.00000    0.98367    0.00043
   0.00043    0.00000    0.00000    0.00000    0.00000    0.00000    0.00000    0.00000
   0.00000    0.00000    0.00000    0.00000
 Total charge density [el/Bohr^3]
)     Maximum=    2.7108E+00  at reduced coord.    0.0000    0.0000    0.0000
)Next maximum=    2.6612E+00  at reduced coord.    0.9688    0.9688    0.9688
)     Minimum=    3.3810E-02  at reduced coord.    0.7500    0.5000    0.2500
)Next minimum=    3.3810E-02  at reduced coord.    0.5000    0.7500    0.2500
   Integrated=    1.6000E+01
 Spin up density      [el/Bohr^3]
)     Maximum=    1.3554E+00  at reduced coord.    0.0000    0.0000    0.0000
)Next maximum=    1.3306E+00  at reduced coord.    0.9688    0.9688    0.9688
)     Minimum=    1.6905E-02  at reduced coord.    0.7500    0.5000    0.2500
)Next minimum=    1.6905E-02  at reduced coord.    0.5000    0.7500    0.2500
   Integrated=    8.0000E+00
 Spin down density    [el/Bohr^3]
)     Maximum=    1.3554E+00  at reduced coord.    0.0000    0.0000    0.0000
)Next maximum=    1.3306E+00  at reduced coord.    0.9688    0.9688    0.9688
)     Minimum=    1.6905E-02  at reduced coord.    0.7500    0.5000    0.2500
)Next minimum=    1.6905E-02  at reduced coord.    0.5000    0.7500    0.2500
   Integrated=    8.0000E+00
 Magnetization (spin up - spin down) [el/Bohr^3]
)     Maximum=    0.0000E+00  at reduced coord.    0.9688    0.9688    0.9688
)Next maximum=    0.0000E+00  at reduced coord.    0.9375    0.9688    0.9688
)     Minimum=    0.0000E+00  at reduced coord.    0.0000    0.0000    0.0000
)Next minimum=    0.0000E+00  at reduced coord.    0.0313    0.0000    0.0000
   Integrated=    0.0000E+00
 Relative magnetization (=zeta, between -1 and 1)
)     Maximum=    0.0000E+00  at reduced coord.    0.9688    0.9688    0.9688
)Next maximum=    0.0000E+00  at reduced coord.    0.9375    0.9688    0.9688
)     Minimum=    0.0000E+00  at reduced coord.    0.0000    0.0000    0.0000
)Next minimum=    0.0000E+00  at reduced coord.    0.0313    0.0000    0.0000

--- !EnergyTerms
iteration_state     : {dtset: 1, }
comment             : Components of total free energy in Hartree
kinetic             :  9.05808723864101E+00
hartree             :  2.36494119484857E+01
xc                  : -1.16795452405155E+01
Ewald energy        : -8.55094034883421E+01
psp_core            :  7.18027773934149E+00
local_psp           : -5.99069649154331E+01
spherical_terms     : -7.20614294572025E+00
internal            : -1.24414279663543E+02
'-kT*entropy'       : -3.68990004188464E-03
total_energy        : -1.24417969563585E+02
total_energy_eV     : -3.38558512887650E+03
...


--- !EnergyTermsDC
iteration_state     : {dtset: 1, }
comment             : '"Double-counting" decomposition of free energy'
band_energy         : -1.45827270246299E+01
Ewald energy        : -8.55094034883421E+01
psp_core            :  7.18027773934149E+00
xc_dc               : -2.00840581498809E+01
spherical_terms     : -1.14183676950364E+01
internal            : -1.24414278618548E+02
'-kT*entropy'       : -3.68990004188464E-03
total_energy_dc     : -1.24417968518590E+02
total_energy_dc_eV  : -3.38558510044074E+03
...


 Cartesian components of stress tensor (hartree/bohr^3)
  sigma(1 1)=  8.18432433E-04  sigma(3 2)=  0.00000000E+00
  sigma(2 2)=  8.18432433E-04  sigma(3 1)=  0.00000000E+00
  sigma(3 3)=  8.18432433E-04  sigma(2 1)=  0.00000000E+00

-Cartesian components of stress tensor (GPa)         [Pressure= -2.4079E+01 GPa]
- sigma(1 1)=  2.40791094E+01  sigma(3 2)=  0.00000000E+00
- sigma(2 2)=  2.40791094E+01  sigma(3 1)=  0.00000000E+00
- sigma(3 3)=  2.40791094E+01  sigma(2 1)=  0.00000000E+00

================================================================================
== DATASET  2 ==================================================================
-   mpi_nproc: 8, omp_nthreads: -1 (-1 if OMP is not activated)


--- !DatasetInfo
iteration_state: {dtset: 2, }
dimensions: {natom: 1, nkpt: 8, mband: 20, nsppol: 2, nspinor: 1, nspden: 2, mpw: 352, }
cutoff_energies: {ecut:  20.0, pawecutdg:  50.0, }
electrons: {nelect:   1.60000000E+01, charge:   0.00000000E+00, occopt:   3.00000000E+00, tsmear:   3.16681542E-03, }
meta: {optdriver: 0, ionmov: 0, optcell: 0, iscf: 17, paral_kgb: 0, }
...

 mkfilename : getden/=0, take file _DEN from output of DATASET   1.

 Real(R)+Recip(G) space primitive vectors, cartesian coordinates (Bohr,Bohr^-1):
 R(1)= -2.7238050  2.7238050  2.7238050  G(1)=  0.0000000  0.1835667  0.1835667
 R(2)=  2.7238050 -2.7238050  2.7238050  G(2)=  0.1835667  0.0000000  0.1835667
 R(3)=  2.7238050  2.7238050 -2.7238050  G(3)=  0.1835667  0.1835667  0.0000000
 Unit cell volume ucvol=  8.0832876E+01 bohr^3
 Angles (23,13,12)=  1.09471221E+02  1.09471221E+02  1.09471221E+02 degrees

 Coarse grid specifications (used for wave-functions):

 getcut: wavevector=  0.0000  0.0000  0.0000  ngfft=  20  20  20
         ecut(hartree)=     20.000   => boxcut(ratio)=   2.11104

 Fine grid specifications (used for densities):

 getcut: wavevector=  0.0000  0.0000  0.0000  ngfft=  32  32  32
         ecut(hartree)=     50.000   => boxcut(ratio)=   2.13298
--------------------------------------------------------------------------------

P newkpt: treating     20 bands with npw=     348 for ikpt=   1 by node    0
P newkpt: treating     20 bands with npw=     346 for ikpt=   2 by node    0
P newkpt: treating     20 bands with npw=     342 for ikpt=   3 by node    1
P newkpt: treating     20 bands with npw=     339 for ikpt=   4 by node    1
P newkpt: treating     20 bands with npw=     339 for ikpt=   5 by node    2
P newkpt: treating     20 bands with npw=     349 for ikpt=   6 by node    2
P newkpt: treating     20 bands with npw=     346 for ikpt=   7 by node    3
P newkpt: treating     20 bands with npw=     352 for ikpt=   8 by node    3
P newkpt: treating     20 bands with npw=     348 for ikpt=   1 by node    7
P newkpt: treating     20 bands with npw=     346 for ikpt=   2 by node    7
P newkpt: treating     20 bands with npw=     342 for ikpt=   3 by node    6
P newkpt: treating     20 bands with npw=     339 for ikpt=   4 by node    6
P newkpt: treating     20 bands with npw=     339 for ikpt=   5 by node    5
P newkpt: treating     20 bands with npw=     349 for ikpt=   6 by node    5
P newkpt: treating     20 bands with npw=     346 for ikpt=   7 by node    4
P newkpt: treating     20 bands with npw=     352 for ikpt=   8 by node    4
_setup2: Arith. and geom. avg. npw (full set) are     345.438     345.419

-       ( number of procs used in dmft ) =    8


 ******************************************
 DFT+DMFT Method is used
 ******************************************

 DMFT uses the Continuous Time Quantum Monte Carlo solver of TRIQS (with density density interactions)

 Non Magnetic DFT, with Non-Magnetic exact double counting

 Entropy is not computed, only the internal energy is printed

 The off-diagonal elements of the Green's function are neglected

================================================================================

--- !BeginCycle
iteration_state: {dtset: 2, }
solver: {iscf: 17, nstep: 2, nline: 10, wfoptalg: 10, }
tolerances: {tolvrs: 1.00E-10, }
...

     iter   Etot(hartree)     deltaE(h) residm    nres2    magn
 (Edmft  1   0.25241164513)

  == The DFT+DMFT occupation matrix for correlated electrons is ==

   -------> For Correlated Atom 1

          -- polarization spin component 1
        0.57934  -0.00000   0.00000   0.00000   0.00000
        0.00000   0.57934  -0.00000   0.00000  -0.00000
        0.00000   0.00000   0.53445   0.00000   0.00000
        0.00000   0.00000  -0.00000   0.57934   0.00000
        0.00000   0.00000   0.00000   0.00000   0.53445

          -- polarization spin component 2
        0.57637   0.00000   0.00000   0.00000   0.00000
        0.00000   0.57637   0.00000   0.00000   0.00000
        0.00000   0.00000   0.53255  -0.00000   0.00000
        0.00000   0.00000   0.00000   0.57637   0.00000
        0.00000  -0.00000   0.00000   0.00000   0.53255

 ETOT  1  -124.03556268755    -1.24E+02 1.39E-11 4.15E+00 0.010
 (Edmft  2   0.29700624558)

  == The DFT+DMFT occupation matrix for correlated electrons is ==

   -------> For Correlated Atom 1

          -- polarization spin component 1
        0.55316   0.00000   0.00000   0.00000   0.00000
        0.00000   0.55316   0.00000   0.00000   0.00000
        0.00000   0.00000   0.49133   0.00000  -0.00000
        0.00000   0.00000  -0.00000   0.55316  -0.00000
       -0.00000   0.00000  -0.00000   0.00000   0.49133

          -- polarization spin component 2
        0.64224   0.00000  -0.00000   0.00000   0.00000
        0.00000   0.64224  -0.00000   0.00000   0.00000
        0.00000   0.00000   0.61686   0.00000   0.00000
       -0.00000   0.00000  -0.00000   0.64224   0.00000
        0.00000   0.00000   0.00000   0.00000   0.61686

 ETOT  2  -124.00394324830     3.16E-02 1.23E-15 2.02E+00 0.479

 Cartesian components of stress tensor (hartree/bohr^3)
  sigma(1 1)=  4.36306672E-03  sigma(3 2)=  0.00000000E+00
  sigma(2 2)=  4.36306672E-03  sigma(3 1)=  0.00000000E+00
  sigma(3 3)=  4.36306672E-03  sigma(2 1)=  0.00000000E+00


 scprqt:  WARNING -
  nstep=    2 was not enough SCF cycles to converge;
  density residual=  2.018E+00 exceeds tolvrs=  1.000E-10


--- !ResultsGS
iteration_state: {dtset: 2, }
comment   : Summary of ground state results
lattice_vectors:
- [ -2.7238050,   2.7238050,   2.7238050, ]
- [  2.7238050,  -2.7238050,   2.7238050, ]
- [  2.7238050,   2.7238050,  -2.7238050, ]
lattice_lengths: [   4.71777,    4.71777,    4.71777, ]
lattice_angles: [109.471, 109.471, 109.471, ] # degrees, (23, 13, 12)
lattice_volume:   8.0832876E+01
convergence: {deltae:  3.162E-02, res2:  2.018E+00, residm:  1.234E-15, diffor:  0.000E+00, }
etotal    :  -1.24003943E+02
entropy   :   0.00000000E+00
fermie    :   1.98938671E-01
cartesian_stress_tensor: # hartree/bohr^3
- [  4.36306672E-03,   0.00000000E+00,   0.00000000E+00, ]
- [  0.00000000E+00,   4.36306672E-03,   0.00000000E+00, ]
- [  0.00000000E+00,   0.00000000E+00,   4.36306672E-03, ]
pressure_GPa:  -1.2837E+02
xred      :
- [  0.0000E+00,   0.0000E+00,   0.0000E+00, Fe]
cartesian_forces: null
force_length_stats: {min: null, max: null, mean: null, }
...

 Integrated electronic and magnetization densities in atomic spheres:
 ---------------------------------------------------------------------
 Radius=ratsph(iatom), smearing ratsm=  0.0000. Diff(up-dn)=approximate z local magnetic moment.
 Atom    Radius    up_density   dn_density  Total(up+dn)  Diff(up-dn)
    1   2.02984     6.802452     7.288280     14.090732    -0.485828
 ---------------------------------------------------------------------
  Sum:              6.802452     7.288280     14.090732    -0.485828
 Total magnetization (from the atomic spheres):            -0.485828
 Total magnetization (exact up - dn):                      -0.478525

 PAW TEST:
 ==== Compensation charge inside spheres ============
 The following values must be close to each other ...
 Compensation charge over spherical meshes =      9.463058255449287
 Compensation charge over fine fft grid    =      9.654348403571788

 ==== Results concerning PAW augmentation regions ====

 Total pseudopotential strength Dij (hartree):
 Atom #  1 - Spin component 1
  -2.54588   0.26629   0.00000   0.00000   0.00000   0.00000   0.00000   0.00000   0.00000   0.00000   0.00000   0.00000 ...
   0.26629   0.06213   0.00000   0.00000   0.00000   0.00000   0.00000   0.00000   0.00000   0.00000   0.00000   0.00000 ...
   0.00000   0.00000  -1.82841   0.00000   0.00000   0.08118   0.00000   0.00000   0.00000   0.00000   0.00000   0.00000 ...
   0.00000   0.00000   0.00000  -1.82841   0.00000   0.00000   0.08118   0.00000   0.00000   0.00000   0.00000   0.00000 ...
   0.00000   0.00000   0.00000   0.00000  -1.82841   0.00000   0.00000   0.08118   0.00000   0.00000   0.00000   0.00000 ...
   0.00000   0.00000   0.08118   0.00000   0.00000   0.01659   0.00000   0.00000   0.00000   0.00000   0.00000   0.00000 ...
   0.00000   0.00000   0.00000   0.08118   0.00000   0.00000   0.01659   0.00000   0.00000   0.00000   0.00000   0.00000 ...
   0.00000   0.00000   0.00000   0.00000   0.08118   0.00000   0.00000   0.01659   0.00000   0.00000   0.00000   0.00000 ...
   0.00000   0.00000   0.00000   0.00000   0.00000   0.00000   0.00000   0.00000  -0.23186   0.00000   0.00000   0.00000 ...
   0.00000   0.00000   0.00000   0.00000   0.00000   0.00000   0.00000   0.00000   0.00000  -0.23186   0.00000   0.00000 ...
   0.00000   0.00000   0.00000   0.00000   0.00000   0.00000   0.00000   0.00000   0.00000   0.00000  -0.23224   0.00000 ...
   0.00000   0.00000   0.00000   0.00000   0.00000   0.00000   0.00000   0.00000   0.00000   0.00000   0.00000  -0.23186 ...
   ...  only 12  components have been written...
 Atom #  1 - Spin component 2
  -2.54588   0.26629   0.00000   0.00000   0.00000   0.00000   0.00000   0.00000   0.00000   0.00000   0.00000   0.00000 ...
   0.26629   0.06213   0.00000   0.00000   0.00000   0.00000   0.00000   0.00000   0.00000   0.00000   0.00000   0.00000 ...
   0.00000   0.00000  -1.82841   0.00000   0.00000   0.08118   0.00000   0.00000   0.00000   0.00000   0.00000   0.00000 ...
   0.00000   0.00000   0.00000  -1.82841   0.00000   0.00000   0.08118   0.00000   0.00000   0.00000   0.00000   0.00000 ...
   0.00000   0.00000   0.00000   0.00000  -1.82841   0.00000   0.00000   0.08118   0.00000   0.00000   0.00000   0.00000 ...
   0.00000   0.00000   0.08118   0.00000   0.00000   0.01659   0.00000   0.00000   0.00000   0.00000   0.00000   0.00000 ...
   0.00000   0.00000   0.00000   0.08118   0.00000   0.00000   0.01659   0.00000   0.00000   0.00000   0.00000   0.00000 ...
   0.00000   0.00000   0.00000   0.00000   0.08118   0.00000   0.00000   0.01659   0.00000   0.00000   0.00000   0.00000 ...
   0.00000   0.00000   0.00000   0.00000   0.00000   0.00000   0.00000   0.00000  -0.23186   0.00000   0.00000   0.00000 ...
   0.00000   0.00000   0.00000   0.00000   0.00000   0.00000   0.00000   0.00000   0.00000  -0.23186   0.00000   0.00000 ...
   0.00000   0.00000   0.00000   0.00000   0.00000   0.00000   0.00000   0.00000   0.00000   0.00000  -0.23224   0.00000 ...
   0.00000   0.00000   0.00000   0.00000   0.00000   0.00000   0.00000   0.00000   0.00000   0.00000   0.00000  -0.23186 ...
   ...  only 12  components have been written...


 Augmentation waves occupancies Rhoij:
 Atom #  1 - Spin component 1
   0.99718  -0.03327   0.00000   0.00000   0.00000   0.00000   0.00000   0.00000   0.00000   0.00000   0.00000   0.00000 ...
  -0.03327   0.83995   0.00000   0.00000   0.00000   0.00000   0.00000   0.00000   0.00000   0.00000   0.00000   0.00000 ...
   0.00000   0.00000   0.99356   0.00000   0.00000  -0.08964   0.00000   0.00000   0.00000   0.00000   0.00000   0.00000 ...
   0.00000   0.00000   0.00000   0.99356   0.00000   0.00000  -0.08964   0.00000   0.00000   0.00000   0.00000   0.00000 ...
   0.00000   0.00000   0.00000   0.00000   0.99356   0.00000   0.00000  -0.08964   0.00000   0.00000   0.00000   0.00000 ...
   0.00000   0.00000  -0.08964   0.00000   0.00000   1.23956   0.00000   0.00000   0.00000   0.00000   0.00000   0.00000 ...
   0.00000   0.00000   0.00000  -0.08964   0.00000   0.00000   1.23956   0.00000   0.00000   0.00000   0.00000   0.00000 ...
   0.00000   0.00000   0.00000   0.00000  -0.08964   0.00000   0.00000   1.23956   0.00000   0.00000   0.00000   0.00000 ...
   0.00000   0.00000   0.00000   0.00000   0.00000   0.00000   0.00000   0.00000   0.62732   0.00000   0.00000   0.00000 ...
   0.00000   0.00000   0.00000   0.00000   0.00000   0.00000   0.00000   0.00000   0.00000   0.62732   0.00000   0.00000 ...
   0.00000   0.00000   0.00000   0.00000   0.00000   0.00000   0.00000   0.00000   0.00000   0.00000   0.53918   0.00000 ...
   0.00000   0.00000   0.00000   0.00000   0.00000   0.00000   0.00000   0.00000   0.00000   0.00000   0.00000   0.62732 ...
   ...  only 12  components have been written...
 Atom #  1 - Spin component 2
   0.99718  -0.03343   0.00000   0.00000   0.00000   0.00000   0.00000   0.00000   0.00000   0.00000   0.00000   0.00000 ...
  -0.03343   0.82342   0.00000   0.00000   0.00000   0.00000   0.00000   0.00000   0.00000   0.00000   0.00000   0.00000 ...
   0.00000   0.00000   0.99356   0.00000   0.00000  -0.09003   0.00000   0.00000   0.00000   0.00000   0.00000   0.00000 ...
   0.00000   0.00000   0.00000   0.99356   0.00000   0.00000  -0.09003   0.00000   0.00000   0.00000   0.00000   0.00000 ...
   0.00000   0.00000   0.00000   0.00000   0.99356   0.00000   0.00000  -0.09003   0.00000   0.00000   0.00000   0.00000 ...
   0.00000   0.00000  -0.09003   0.00000   0.00000   1.18115   0.00000   0.00000   0.00000   0.00000   0.00000   0.00000 ...
   0.00000   0.00000   0.00000  -0.09003   0.00000   0.00000   1.18115   0.00000   0.00000   0.00000   0.00000   0.00000 ...
   0.00000   0.00000   0.00000   0.00000  -0.09003   0.00000   0.00000   1.18115   0.00000   0.00000   0.00000   0.00000 ...
   0.00000   0.00000   0.00000   0.00000   0.00000   0.00000   0.00000   0.00000   0.69917   0.00000   0.00000   0.00000 ...
   0.00000   0.00000   0.00000   0.00000   0.00000   0.00000   0.00000   0.00000   0.00000   0.69917   0.00000   0.00000 ...
   0.00000   0.00000   0.00000   0.00000   0.00000   0.00000   0.00000   0.00000   0.00000   0.00000   0.64470   0.00000 ...
   0.00000   0.00000   0.00000   0.00000   0.00000   0.00000   0.00000   0.00000   0.00000   0.00000   0.00000   0.69917 ...
   ...  only 12  components have been written...

 "PAW+U" part of augmentation waves occupancies Rhoij:
 Atom #  1 - L=2 ONLY - Spin component 1
   0.62732   0.00000   0.00000   0.00000   0.00000   0.00520   0.00000   0.00000   0.00000   0.00000
   0.00000   0.62732   0.00000   0.00000   0.00000   0.00000   0.00520   0.00000   0.00000   0.00000
   0.00000   0.00000   0.53918   0.00000   0.00000   0.00000   0.00000   0.00098   0.00000   0.00000
   0.00000   0.00000   0.00000   0.62732   0.00000   0.00000   0.00000   0.00000   0.00520   0.00000
   0.00000   0.00000   0.00000   0.00000   0.53918   0.00000   0.00000   0.00000   0.00000   0.00098
   0.00520   0.00000   0.00000   0.00000   0.00000   0.00244   0.00000   0.00000   0.00000   0.00000
   0.00000   0.00520   0.00000   0.00000   0.00000   0.00000   0.00244   0.00000   0.00000   0.00000
   0.00000   0.00000   0.00098   0.00000   0.00000   0.00000   0.00000   0.00331   0.00000   0.00000
   0.00000   0.00000   0.00000   0.00520   0.00000   0.00000   0.00000   0.00000   0.00244   0.00000
   0.00000   0.00000   0.00000   0.00000   0.00098   0.00000   0.00000   0.00000   0.00000   0.00331
 Atom #  1 - L=2 ONLY - Spin component 2
   0.69917   0.00000   0.00000   0.00000   0.00000  -0.00217   0.00000   0.00000   0.00000   0.00000
   0.00000   0.69917   0.00000   0.00000   0.00000   0.00000  -0.00217   0.00000   0.00000   0.00000
   0.00000   0.00000   0.64470   0.00000   0.00000   0.00000   0.00000  -0.00822   0.00000   0.00000
   0.00000   0.00000   0.00000   0.69917   0.00000   0.00000   0.00000   0.00000  -0.00217   0.00000
   0.00000   0.00000   0.00000   0.00000   0.64470   0.00000   0.00000   0.00000   0.00000  -0.00822
  -0.00217   0.00000   0.00000   0.00000   0.00000   0.00267   0.00000   0.00000   0.00000   0.00000
   0.00000  -0.00217   0.00000   0.00000   0.00000   0.00000   0.00267   0.00000   0.00000   0.00000
   0.00000   0.00000  -0.00822   0.00000   0.00000   0.00000   0.00000   0.00355   0.00000   0.00000
   0.00000   0.00000   0.00000  -0.00217   0.00000   0.00000   0.00000   0.00000   0.00267   0.00000
   0.00000   0.00000   0.00000   0.00000  -0.00822   0.00000   0.00000   0.00000   0.00000   0.00355

 ---------- DFT+U DATA --------------------------------------------------- 

 ====== For Atom     1, occupations for correlated orbitals. lpawu =   2

  (This is PAW atomic orbital occupations)
  (For Wannier orbital occupations, refer to DFT+DMFT occupations above)
 Atom   1. Occ. for lpawu and for spin  1 =   2.52746
 Atom   1. Occ. for lpawu and for spin  2 =   3.02197
 => On atom   1,  local Mag. for lpawu is        0.494513

 == Occupation matrix for correlated orbitals:

 Occupation matrix for spin  1
     0.52907    0.00000    0.00000    0.00000    0.00000
     0.00000    0.52907    0.00000    0.00000    0.00000
     0.00000    0.00000    0.47013    0.00000    0.00000
     0.00000    0.00000    0.00000    0.52907    0.00000
     0.00000    0.00000    0.00000    0.00000    0.47013


 Occupation matrix for spin  2
     0.61417    0.00000    0.00000    0.00000    0.00000
     0.00000    0.61417    0.00000    0.00000    0.00000
     0.00000    0.00000    0.58973    0.00000    0.00000
     0.00000    0.00000    0.00000    0.61417    0.00000
     0.00000    0.00000    0.00000    0.00000    0.58973



================================================================================

 ----iterations are completed or convergence reached----

 Mean square residual over all n,k,spin=   43.035E-19; max=  12.341E-16
  -0.0625 -0.0625  0.1875    1  1.20364E-17 kpt; spin; max resid(k); each band:
  3.58E-29 5.97E-29 2.04E-29 7.43E-29 6.02E-30 3.87E-30 9.83E-30 8.15E-30
  5.56E-30 1.48E-29 5.68E-30 2.75E-30 2.84E-30 7.17E-30 1.82E-29 7.31E-29
  1.18E-29 4.07E-30 1.10E-29 1.20E-17
  -0.0625 -0.0625  0.4375    1  1.41733E-24 kpt; spin; max resid(k); each band:
  7.43E-28 3.56E-29 2.33E-29 2.31E-29 1.67E-29 2.63E-30 5.77E-30 7.67E-30
  7.52E-30 2.81E-30 2.74E-30 4.53E-30 1.43E-29 1.09E-29 1.21E-26 4.18E-29
  3.29E-29 6.75E-28 1.42E-24 8.46E-29
  -0.1875 -0.1875  0.0625    1  3.24088E-25 kpt; spin; max resid(k); each band:
  5.53E-27 3.82E-29 3.26E-29 3.97E-29 5.39E-30 1.08E-30 6.80E-30 2.16E-29
  4.34E-30 5.04E-30 1.09E-29 4.60E-30 2.27E-30 4.81E-30 6.52E-29 1.74E-29
  8.30E-27 1.32E-29 5.42E-28 3.24E-25
  -0.1875 -0.1875 -0.4375    1  4.31553E-17 kpt; spin; max resid(k); each band:
  6.95E-29 2.22E-27 2.84E-29 1.83E-29 5.35E-30 3.38E-30 5.90E-30 2.68E-30
  2.53E-30 4.67E-30 2.13E-30 4.13E-30 1.55E-29 5.60E-30 7.67E-28 6.60E-27
  1.18E-29 5.94E-27 1.26E-29 4.32E-17
  -0.0625 -0.3125 -0.3125    1  5.15593E-26 kpt; spin; max resid(k); each band:
  2.95E-29 3.43E-29 1.26E-29 1.97E-29 2.94E-30 2.20E-30 7.34E-30 3.91E-30
  7.25E-30 4.72E-30 7.10E-30 2.77E-30 3.53E-30 1.74E-26 1.75E-26 2.34E-28
  5.16E-26 5.13E-26 3.34E-27 2.84E-30
  -0.1875 -0.4375  0.0625    1  9.48475E-25 kpt; spin; max resid(k); each band:
  2.49E-28 8.79E-29 3.82E-29 1.90E-29 5.46E-30 9.41E-30 4.13E-30 5.98E-30
  4.47E-30 4.37E-30 1.33E-29 3.05E-30 2.65E-30 4.75E-30 1.58E-29 9.48E-25
  1.07E-26 1.84E-25 9.37E-28 1.62E-28
  -0.3125 -0.3125  0.1875    1  2.27472E-24 kpt; spin; max resid(k); each band:
  4.76E-29 2.39E-29 1.26E-29 2.71E-29 5.76E-30 4.56E-30 2.35E-30 1.83E-30
  8.70E-31 2.73E-30 1.20E-29 9.26E-30 3.95E-30 6.25E-30 5.73E-30 2.27E-24
  7.23E-30 5.25E-28 2.71E-27 1.26E-25
  -0.4375 -0.4375  0.3125    1  1.58466E-20 kpt; spin; max resid(k); each band:
  3.15E-29 4.61E-29 3.65E-27 3.59E-27 1.08E-29 1.70E-29 6.28E-30 1.60E-30
  4.74E-30 3.84E-30 5.09E-30 2.48E-29 6.43E-30 1.49E-30 8.56E-30 5.74E-30
  2.68E-29 2.30E-29 9.43E-29 1.58E-20
  -0.0625 -0.0625  0.1875    2  8.77853E-17 kpt; spin; max resid(k); each band:
  1.41E-28 7.06E-29 2.60E-29 2.96E-29 5.50E-30 1.46E-29 1.41E-29 1.82E-30
  2.13E-29 2.08E-30 3.36E-30 1.55E-30 3.27E-30 6.61E-30 2.47E-29 3.52E-29
  2.10E-29 5.16E-30 1.89E-29 8.78E-17
  -0.0625 -0.0625  0.4375    2  1.41660E-24 kpt; spin; max resid(k); each band:
  7.36E-28 2.25E-29 2.21E-29 8.45E-30 7.17E-30 1.73E-30 8.21E-30 1.37E-30
  1.02E-29 4.20E-30 2.57E-30 1.13E-29 9.55E-30 5.08E-30 1.21E-26 1.55E-29
  3.36E-29 6.91E-28 1.42E-24 8.14E-29
  -0.1875 -0.1875  0.0625    2  3.24157E-25 kpt; spin; max resid(k); each band:
  5.62E-27 3.09E-29 5.03E-29 5.61E-29 2.80E-30 1.40E-30 2.25E-30 4.91E-30
  2.04E-30 2.17E-30 4.82E-30 2.54E-29 1.42E-30 1.19E-29 6.63E-29 1.28E-29
  8.35E-27 1.07E-29 5.42E-28 3.24E-25
  -0.1875 -0.1875 -0.4375    2  1.23414E-15 kpt; spin; max resid(k); each band:
  4.12E-29 2.15E-27 1.71E-29 1.71E-29 3.97E-30 2.27E-30 1.07E-29 3.74E-30
  3.64E-30 6.86E-30 4.55E-30 1.05E-29 1.07E-29 9.28E-30 1.74E-26 2.68E-29
  2.10E-29 2.27E-26 2.70E-28 1.23E-15
  -0.0625 -0.3125 -0.3125    2  5.13516E-26 kpt; spin; max resid(k); each band:
  2.96E-29 2.55E-29 3.48E-29 3.12E-29 4.41E-30 4.28E-30 7.47E-30 7.82E-30
  4.32E-30 9.23E-30 1.82E-30 8.73E-30 2.80E-30 1.74E-26 1.74E-26 2.11E-28
  5.14E-26 5.10E-26 3.60E-27 5.67E-30
  -0.1875 -0.4375  0.0625    2  9.48631E-25 kpt; spin; max resid(k); each band:
  2.14E-28 3.77E-29 2.67E-29 2.54E-29 8.56E-30 4.03E-30 7.92E-30 9.33E-30
  8.95E-30 5.52E-30 5.32E-30 6.00E-30 4.87E-30 6.75E-30 3.42E-30 9.49E-25
  1.07E-26 1.77E-25 9.37E-28 4.96E-28
  -0.3125 -0.3125  0.1875    2  2.27511E-24 kpt; spin; max resid(k); each band:
  6.47E-29 5.63E-29 2.53E-29 3.67E-29 5.10E-30 4.26E-30 1.51E-29 1.14E-29
  8.45E-30 3.17E-30 2.66E-30 6.08E-30 6.30E-30 6.58E-30 2.35E-29 2.28E-24
  1.18E-29 5.24E-28 2.69E-27 1.26E-25
  -0.4375 -0.4375  0.3125    2  7.01946E-21 kpt; spin; max resid(k); each band:
  6.65E-29 8.21E-27 4.59E-27 3.56E-27 3.19E-30 1.77E-29 1.84E-30 1.59E-29
  3.52E-30 2.86E-30 7.72E-30 1.93E-29 6.21E-30 2.08E-30 5.85E-30 6.40E-30
  1.95E-29 1.91E-29 1.13E-28 7.02E-21
 reduced coordinates (array xred) for    1 atoms
       0.000000000000      0.000000000000      0.000000000000
 rms dE/dt=  0.0000E+00; max dE/dt=  0.0000E+00; dE/dt below (all hartree)
    1       0.000000000000      0.000000000000      0.000000000000

 cartesian coordinates (angstrom) at end:
    1      0.00000000000000     0.00000000000000     0.00000000000000
 length scales=  5.447610000000  5.447610000000  5.447610000000 bohr
              =  2.882751053287  2.882751053287  2.882751053287 angstroms
 prteigrs : about to open file t113_MPI8o_DS2_EIG
 Fermi (or HOMO) energy (hartree) =   0.19894   Average Vxc (hartree)=  -0.51031
 Magnetization (Bohr magneton)=  4.78525126E-01
 Total spin up =  7.76073744E+00   Total spin down =  8.23926256E+00
 Eigenvalues (hartree) for nkpt=   8  k points, SPIN UP:
 kpt#   1, nband= 20, wtk=  0.06250, kpt= -0.0625 -0.0625  0.1875 (reduced coord)
  -3.01465   -1.76004   -1.75763   -1.75763   -0.01157    0.14447    0.14447    0.16999
   0.19631    0.19631    1.00846    1.00846    1.14436    1.17254    1.35399    1.35399
   1.38923    1.38923    1.58207    1.66098
      occupation numbers for kpt#   1
   1.00000    1.00000    1.00000    1.00000    0.99921    0.74152    0.74152    0.59748
   0.45649    0.45649    0.00075    0.00075    0.00025    0.00000    0.00000    0.00000
   0.00000    0.00000    0.00000    0.00000
 kpt#   2, nband= 20, wtk=  0.18750, kpt= -0.0625 -0.0625  0.4375 (reduced coord)
  -3.01323   -1.76717   -1.76082   -1.75769    0.07898    0.12044    0.17212    0.19649
   0.20311    0.25639    0.61099    0.86429    0.92291    1.16220    1.30368    1.48956
   1.49665    1.76496    1.84693    1.88581
      occupation numbers for kpt#   2
   1.00000    1.00000    1.00000    1.00000    0.93221    0.85024    0.82780    0.45541
   0.42552    0.38535    0.01621    0.00196    0.00038    0.00000    0.00000    0.00000
   0.00000    0.00000    0.00000    0.00000
 kpt#   3, nband= 20, wtk=  0.18750, kpt= -0.1875 -0.1875  0.0625 (reduced coord)
  -3.01369   -1.76391   -1.75998   -1.75837    0.05873    0.13878    0.14297    0.17987
   0.19868    0.21589    0.81279    0.84891    1.08472    1.09639    1.22687    1.39840
   1.51360    1.68734    1.72062    1.81523
      occupation numbers for kpt#   3
   1.00000    1.00000    1.00000    1.00000    0.97437    0.78857    0.78114    0.53750
   0.44076    0.42622    0.00389    0.00158    0.00041    0.00000    0.00000    0.00000
   0.00000    0.00000    0.00000    0.00000
 kpt#   4, nband= 20, wtk=  0.06250, kpt= -0.1875 -0.1875 -0.4375 (reduced coord)
  -3.01299   -1.76640   -1.76065   -1.76065    0.11833    0.11833    0.12855    0.20314
   0.20314    0.35367    0.65978    0.65978    0.71074    1.42016    1.51636    1.51636
   1.62540    1.70567    1.70567    1.94569
      occupation numbers for kpt#   4
   1.00000    1.00000    1.00000    1.00000    0.89252    0.89252    0.90874    0.42457
   0.42457    0.19578    0.01261    0.01261    0.00002    0.00000    0.00000    0.00000
   0.00000    0.00000    0.00000    0.00000
 kpt#   5, nband= 20, wtk=  0.06250, kpt= -0.0625 -0.3125 -0.3125 (reduced coord)
  -3.01277   -1.76495   -1.76495   -1.75921    0.10687    0.13338    0.13338    0.20391
   0.20391    0.48544    0.48544    0.57584    0.82826    1.35270    1.35270    1.61748
   1.75135    1.75135    1.78098    1.91259
      occupation numbers for kpt#   5
   1.00000    1.00000    1.00000    1.00000    0.91289    0.89901    0.89901    0.42664
   0.42664    0.05537    0.05537    0.01503    0.00200    0.00000    0.00000    0.00000
   0.00000    0.00000    0.00000    0.00000
 kpt#   6, nband= 20, wtk=  0.18750, kpt= -0.1875 -0.4375  0.0625 (reduced coord)
  -3.01272   -1.76809   -1.76252   -1.75851    0.09049    0.12631    0.15888    0.19218
   0.22278    0.35661    0.50044    0.74447    0.97986    1.13000    1.28722    1.39256
   1.53915    1.87679    1.93825    1.97503
      occupation numbers for kpt#   6
   1.00000    1.00000    1.00000    1.00000    0.92750    0.84143    0.80688    0.48762
   0.37717    0.26378    0.04921    0.00379    0.00010    0.00000    0.00000    0.00000
   0.00000    0.00000    0.00000    0.00000
 kpt#   7, nband= 20, wtk=  0.18750, kpt= -0.3125 -0.3125  0.1875 (reduced coord)
  -3.01246   -1.76641   -1.76342   -1.76076    0.10743    0.11658    0.15550    0.18671
   0.21639    0.33555    0.65823    0.68218    0.95457    1.01211    1.28685    1.38873
   1.59830    1.62935    1.95347    2.09877
      occupation numbers for kpt#   7
   1.00000    1.00000    1.00000    1.00000    0.88171    0.83928    0.72745    0.52750
   0.36834    0.27293    0.01082    0.00375    0.00142    0.00000    0.00000    0.00000
   0.00000    0.00000    0.00000    0.00000
 kpt#   8, nband= 20, wtk=  0.06250, kpt= -0.4375 -0.4375  0.3125 (reduced coord)
  -3.01168   -1.76594   -1.76594   -1.76358    0.09216    0.09216    0.18927    0.22079
   0.22079    0.55021    0.55021    0.59098    0.89400    0.89400    1.07237    1.50428
   1.76528    1.86331    1.86331    2.15649
      occupation numbers for kpt#   8
   1.00000    1.00000    1.00000    1.00000    0.88290    0.87647    0.52047    0.34186
   0.34187    0.01565    0.01579    0.00220    0.00358    0.00000    0.00000    0.00000
   0.00000    0.00000    0.00000    0.00000
 Eigenvalues (hartree) for nkpt=   8  k points, SPIN DOWN:
 kpt#   1, nband= 20, wtk=  0.06250, kpt= -0.0625 -0.0625  0.1875 (reduced coord)
  -3.01465   -1.76004   -1.75763   -1.75763   -0.01157    0.14447    0.14447    0.16999
   0.19631    0.19631    1.00846    1.00846    1.14436    1.17254    1.35399    1.35399
   1.38923    1.38923    1.58207    1.66098
      occupation numbers for kpt#   1
   1.00000    1.00000    1.00000    1.00000    0.99943    0.81311    0.81311    0.72804
   0.62016    0.62016    0.00072    0.00072    0.00030    0.00000    0.00000    0.00000
   0.00000    0.00000    0.00000    0.00000
[...]
                       0.000000  0.000000  0.000000  0.000000  0.000000  0.000000
                       0.000000  0.000000
                       1.000000  1.000000  1.000000  1.000000  1.000000  1.000000
                       0.983667  0.000435  0.000435  0.000000  0.000000  0.000000
                       0.000000  0.000000  0.000000  0.000000  0.000000  0.000000
                       0.000000  0.000000
              occ2     1.000000  1.000000  1.000000  1.000000  0.999207  0.741518
                       0.741518  0.597483  0.456486  0.456486  0.000755  0.000755
                       0.000251  0.000000  0.000000  0.000000  0.000000  0.000000
                       0.000000  0.000000
                       1.000000  1.000000  1.000000  1.000000  0.932206  0.850240
                       0.827804  0.455409  0.425523  0.385347  0.016209  0.001963
                       0.000379  0.000000  0.000000  0.000000  0.000000  0.000000
                       0.000000  0.000000
                       1.000000  1.000000  1.000000  1.000000  0.974372  0.788573
                       0.781145  0.537504  0.440765  0.426224  0.003891  0.001577
                       0.000410  0.000000  0.000000  0.000000  0.000000  0.000000
                       0.000000  0.000000
                       1.000000  1.000000  1.000000  1.000000  0.892515  0.892515
                       0.908742  0.424574  0.424574  0.195781  0.012609  0.012609
                       0.000015  0.000000  0.000000  0.000000  0.000000  0.000000
                       0.000000  0.000000
                       1.000000  1.000000  1.000000  1.000000  0.912894  0.899015
                       0.899015  0.426640  0.426640  0.055370  0.055370  0.015033
                       0.002005  0.000000  0.000000  0.000000  0.000000  0.000000
                       0.000000  0.000000
                       1.000000  1.000000  1.000000  1.000000  0.927498  0.841427
                       0.806880  0.487615  0.377174  0.263776  0.049210  0.003793
                       0.000101  0.000000  0.000000  0.000000  0.000000  0.000000
                       0.000000  0.000000
                       1.000000  1.000000  1.000000  1.000000  0.881707  0.839278
                       0.727450  0.527496  0.368341  0.272927  0.010822  0.003752
                       0.001422  0.000000  0.000000  0.000000  0.000000  0.000000
                       0.000000  0.000000
                       1.000000  1.000000  1.000000  1.000000  0.882903  0.876470
                       0.520474  0.341864  0.341868  0.015645  0.015791  0.002199
                       0.003581  0.000000  0.000000  0.000000  0.000000  0.000000
                       0.000000  0.000000
                       1.000000  1.000000  1.000000  1.000000  0.999428  0.813106
                       0.813106  0.728036  0.620155  0.620155  0.000717  0.000717
                       0.000304  0.000000  0.000000  0.000000  0.000000  0.000000
                       0.000000  0.000000
                       1.000000  1.000000  1.000000  1.000000  0.941964  0.874743
                       0.861631  0.618591  0.592712  0.497371  0.011852  0.001587
                       0.000335  0.000000  0.000000  0.000000  0.000000  0.000000
                       0.000000  0.000000
                       1.000000  1.000000  1.000000  1.000000  0.981335  0.838701
                       0.835486  0.683993  0.605270  0.586447  0.003098  0.001429
                       0.000458  0.000000  0.000000  0.000000  0.000000  0.000000
                       0.000000  0.000000
                       1.000000  1.000000  1.000000  1.000000  0.901750  0.901750
                       0.929131  0.591726  0.591726  0.212163  0.009407  0.009407
                       0.000017  0.000000  0.000000  0.000000  0.000000  0.000000
                       0.000000  0.000000
                       1.000000  1.000000  1.000000  1.000000  0.917146  0.910928
                       0.910928  0.592122  0.592122  0.041420  0.041420  0.011066
                       0.001622  0.000000  0.000000  0.000000  0.000000  0.000000
                       0.000000  0.000000
                       1.000000  1.000000  1.000000  1.000000  0.937177  0.869161
                       0.859823  0.644322  0.531374  0.249602  0.039057  0.002924
                       0.000111  0.000000  0.000000  0.000000  0.000000  0.000000
                       0.000000  0.000000
                       1.000000  1.000000  1.000000  1.000000  0.914824  0.871489
                       0.803130  0.675973  0.528182  0.313342  0.007736  0.003228
                       0.001216  0.000000  0.000000  0.000000  0.000000  0.000000
                       0.000000  0.000000
                       1.000000  1.000000  1.000000  1.000000  0.902185  0.898320
                       0.671545  0.500117  0.500094  0.010135  0.010093  0.002548
                       0.002570  0.000000  0.000000  0.000000  0.000000  0.000000
                       0.000000  0.000000
              occ3     1.000000  1.000000  1.000000  1.000000  0.998698  0.367894
                       0.367894  0.335755  0.313448  0.313448  0.002812  0.002812
                       0.001191  0.000000  0.000000  0.000000  0.000000  0.000000
                       0.000000  0.000000
                       1.000000  1.000000  1.000000  1.000000  0.891543  0.486947
                       0.810210  0.316023  0.311035  0.368502  0.136088  0.007533
                       0.002707  0.000000  0.000000  0.000000  0.000000  0.000000
                       0.000000  0.000000
                       1.000000  1.000000  1.000000  1.000000  0.968397  0.473749
                       0.403310  0.322851  0.318574  0.327088  0.018254  0.006008
                       0.002064  0.000000  0.000000  0.000000  0.000000  0.000000
                       0.000000  0.000000
                       1.000000  1.000000  1.000000  1.000000  0.855781  0.751952
                       0.751952  0.311535  0.311535  0.398267  0.097285  0.097285
                       0.000131  0.000000  0.000000  0.000000  0.000000  0.000000
                       0.000000  0.000000
                       1.000000  1.000000  1.000000  1.000000  0.777949  0.806016
                       0.806016  0.313705  0.313705  0.315624  0.315624  0.125399
                       0.014083  0.000000  0.000000  0.000000  0.000000  0.000000
                       0.000000  0.000000
                       1.000000  1.000000  1.000000  1.000000  0.828505  0.511873
                       0.724561  0.323340  0.333221  0.507823  0.271937  0.018793
                       0.000589  0.000000  0.000000  0.000000  0.000000  0.000000
                       0.000000  0.000000
                       1.000000  1.000000  1.000000  1.000000  0.801622  0.743874
                       0.391935  0.326156  0.315341  0.449551  0.091449  0.016650
                       0.008972  0.000000  0.000000  0.000000  0.000000  0.000000
                       0.000000  0.000000
                       1.000000  1.000000  1.000000  1.000000  0.790993  0.774658
                       0.324128  0.309891  0.306264  0.142268  0.155455  0.015197
                       0.023663  0.000000  0.000000  0.000000  0.000000  0.000000
                       0.000000  0.000000
                       1.000000  1.000000  1.000000  1.000000  0.999429  0.749476
                       0.749476  0.726214  0.700880  0.700880  0.004519  0.004519
                       0.001963  0.000000  0.000000  0.000000  0.000000  0.000000
                       0.000000  0.000000
                       1.000000  1.000000  1.000000  1.000000  0.935496  0.781790
                       0.882961  0.704224  0.697435  0.705459  0.112635  0.008043
                       0.002924  0.000000  0.000000  0.000000  0.000000  0.000000
                       0.000000  0.000000
                       1.000000  1.000000  1.000000  1.000000  0.986407  0.761720
                       0.762743  0.711034  0.705594  0.702552  0.020547  0.008704
                       0.003474  0.000000  0.000000  0.000000  0.000000  0.000000
                       0.000000  0.000000
                       1.000000  1.000000  1.000000  1.000000  0.941525  0.833835
                       0.833835  0.698079  0.698079  0.670239  0.073692  0.073692
                       0.000209  0.000000  0.000000  0.000000  0.000000  0.000000
                       0.000000  0.000000
                       1.000000  1.000000  1.000000  1.000000  0.863786  0.922367
                       0.922367  0.699907  0.699907  0.386771  0.386771  0.100314
                       0.011850  0.000000  0.000000  0.000000  0.000000  0.000000
                       0.000000  0.000000
                       1.000000  1.000000  1.000000  1.000000  0.930043  0.781088
                       0.886557  0.709490  0.702915  0.734286  0.353625  0.019139
                       0.000985  0.000000  0.000000  0.000000  0.000000  0.000000
                       0.000000  0.000000
                       1.000000  1.000000  1.000000  1.000000  0.918307  0.820539
                       0.748601  0.710301  0.695919  0.717667  0.071035  0.024277
                       0.009796  0.000000  0.000000  0.000000  0.000000  0.000000
                       0.000000  0.000000
                       1.000000  1.000000  1.000000  1.000000  0.876155  0.871599
                       0.709917  0.690143  0.687990  0.128133  0.125080  0.028473
                       0.021465  0.000000  0.000000  0.000000  0.000000  0.000000
                       0.000000  0.000000
           occopt           3
        optforces1          2
        optforces2          0
        optforces3          0
-      paral_atom           0
        pawecutdg      5.00000000E+01 Hartree
        pawprtvol           3
           prtvol           4
            rprim     -5.0000000000E-01  5.0000000000E-01  5.0000000000E-01
                       5.0000000000E-01 -5.0000000000E-01  5.0000000000E-01
                       5.0000000000E-01  5.0000000000E-01 -5.0000000000E-01
           shiftk      5.00000000E-01  5.00000000E-01 -5.00000000E-01
          spgroup         229
           strten1     8.1843243275E-04  8.1843243275E-04  8.1843243275E-04
                       0.0000000000E+00  0.0000000000E+00  0.0000000000E+00
           strten2     4.3630667240E-03  4.3630667240E-03  4.3630667240E-03
                       0.0000000000E+00  0.0000000000E+00  0.0000000000E+00
           strten3    -1.0593033606E-02 -1.0593033606E-02 -1.0593033606E-02
                       0.0000000000E+00  0.0000000000E+00  0.0000000000E+00
           symrel      1  0  0   0  1  0   0  0  1      -1  0  0   0 -1  0   0  0 -1
                      -1 -1 -1   0  0  1   0  1  0       1  1  1   0  0 -1   0 -1  0
                       0  1  0   1  0  0  -1 -1 -1       0 -1  0  -1  0  0   1  1  1
                       0  0  1  -1 -1 -1   1  0  0       0  0 -1   1  1  1  -1  0  0
                       0  1  0   1  0  0   0  0  1       0 -1  0  -1  0  0   0  0 -1
                      -1 -1 -1   0  0  1   1  0  0       1  1  1   0  0 -1  -1  0  0
                       1  0  0   0  1  0  -1 -1 -1      -1  0  0   0 -1  0   1  1  1
                       0  0  1  -1 -1 -1   0  1  0       0  0 -1   1  1  1   0 -1  0
                      -1 -1 -1   1  0  0   0  0  1       1  1  1  -1  0  0   0  0 -1
                       0  1  0   0  0  1   1  0  0       0 -1  0   0  0 -1  -1  0  0
                       1  0  0  -1 -1 -1   0  1  0      -1  0  0   1  1  1   0 -1  0
                       0  0  1   0  1  0  -1 -1 -1       0  0 -1   0 -1  0   1  1  1
                       1  0  0  -1 -1 -1   0  0  1      -1  0  0   1  1  1   0  0 -1
                       0  1  0   0  0  1  -1 -1 -1       0 -1  0   0  0 -1   1  1  1
                      -1 -1 -1   1  0  0   0  1  0       1  1  1  -1  0  0   0 -1  0
                       0  0  1   0  1  0   1  0  0       0  0 -1   0 -1  0  -1  0  0
                       0  1  0  -1 -1 -1   0  0  1       0 -1  0   1  1  1   0  0 -1
                       1  0  0   0  0  1  -1 -1 -1      -1  0  0   0  0 -1   1  1  1
                      -1 -1 -1   0  1  0   1  0  0       1  1  1   0 -1  0  -1  0  0
                       0  0  1   1  0  0   0  1  0       0  0 -1  -1  0  0   0 -1  0
                      -1 -1 -1   0  1  0   0  0  1       1  1  1   0 -1  0   0  0 -1
                       1  0  0   0  0  1   0  1  0      -1  0  0   0  0 -1   0 -1  0
                       0  1  0  -1 -1 -1   1  0  0       0 -1  0   1  1  1  -1  0  0
                       0  0  1   1  0  0  -1 -1 -1       0  0 -1  -1  0  0   1  1  1
           tolvrs      1.00000000E-10
           tsmear      3.16681542E-03 Hartree
            typat      1
            upawu1     0.00000000E+00 Hartree
            upawu2     2.02121290E-01 Hartree
            upawu3     2.02121290E-01 Hartree
          usedmft1          0
          usedmft2          1
          usedmft3          1
          usepawu1          4
          usepawu2         14
          usepawu3         14
           useylm           1
              wtk        0.06250    0.18750    0.18750    0.06250    0.06250    0.18750
                         0.18750    0.06250
            znucl       26.00000

================================================================================


- Timing analysis has been suppressed with timopt=0



================================================================================

 Suggested references for the acknowledgment of ABINIT usage.

 The users of ABINIT have little formal obligations with respect to the ABINIT group
 (those specified in the GNU General Public License, http://www.gnu.org/copyleft/gpl.txt).
 However, it is common practice in the scientific literature,
 to acknowledge the efforts of people that have made the research possible.
 In this spirit, please find below suggested citations of work written by ABINIT developers,
 corresponding to implementations inside of ABINIT that you have used in the present run.
 Note also that it will be of great value to readers of publications presenting these results,
 to read papers enabling them to understand the theoretical formalism and details
 of the ABINIT implementation.
 For information on why they are suggested, see also https://docs.abinit.org/theory/acknowledgments.
-
- [1] A self-consistent DFT + DMFT scheme in the projector augmented wave method: 
- applications to cerium, Ce2O3 and Pu2O3 with the Hubbard I solver and comparison to DFT + U,
- B. Amadon,  J. Phys.: Condens. Matter 24 075604 (2012).
- Comment : Describes the self-consistent implementation of DFT+DMFT in PAW
- DOI and bibtex: see https://docs.abinit.org/theory/bibliography/#amadon2012
-
- [2] Plane-wave based electronic structure calculations for correlated materials.
- using dynamical mean-field theory and projected local orbitals,
- B. Amadon, F. Lechermann, A. Georges, F. Jollet, T.O. Wehling, A.I. Lichenstein,
- Phys. Rev. B 77, 205112 (2008).
- Comment: to be cited in case the computation of overlap operator for Wannier90 interface within PAW is used,
- i.e. prtwant=2 and usepaw=1. The paper describes also the DFT+DMFT implementation on Wannier functions
- DOI and bibtex: see https://docs.abinit.org/theory/bibliography/#amadon2008
-
- [3] Gamma and beta cerium: DFT+U calculations of ground-state parameters.
- B. Amadon, F. Jollet and M. Torrent, Phys. Rev. B 77, 155104 (2008).
- Comment: DFT+U calculations, usepawu/=0. Strong suggestion to cite this paper.
- DOI and bibtex: see https://docs.abinit.org/theory/bibliography/#amadon2008a
-
- [4] Implementation of the Projector Augmented-Wave Method in the ABINIT code.
- M. Torrent, F. Jollet, F. Bottin, G. Zerah, and X. Gonze Comput. Mat. Science 42, 337, (2008).
- Comment: PAW calculations. Strong suggestion to cite this paper.
- DOI and bibtex: see https://docs.abinit.org/theory/bibliography/#torrent2008
-
- [5] Libxc: A library of exchange and correlation functionals for density functional theory.
- M.A.L. Marques, M.J.T. Oliveira, T. Burnus, Computer Physics Communications 183, 2227 (2012).
- Comment: to be cited when LibXC is used (negative value of ixc)
- Strong suggestion to cite this paper.
- DOI and bibtex: see https://docs.abinit.org/theory/bibliography/#marques2012
-
- [6] The Abinit project: Impact, environment and recent developments.
- Computer Phys. Comm. 248, 107042 (2020).
- X.Gonze, B. Amadon, G. Antonius, F.Arnardi, L.Baguet, J.-M.Beuken,
- J.Bieder, F.Bottin, J.Bouchet, E.Bousquet, N.Brouwer, F.Bruneval,
- G.Brunin, T.Cavignac, J.-B. Charraud, Wei Chen, M.Cote, S.Cottenier,
- J.Denier, G.Geneste, Ph.Ghosez, M.Giantomassi, Y.Gillet, O.Gingras,
- D.R.Hamann, G.Hautier, Xu He, N.Helbig, N.Holzwarth, Y.Jia, F.Jollet,
- W.Lafargue-Dit-Hauret, K.Lejaeghere, M.A.L.Marques, A.Martin, C.Martins,
- H.P.C. Miranda, F.Naccarato, K. Persson, G.Petretto, V.Planes, Y.Pouillon,
- S.Prokhorenko, F.Ricci, G.-M.Rignanese, A.H.Romero, M.M.Schmitt, M.Torrent,
- M.J.van Setten, B.Van Troeye, M.J.Verstraete, G.Zerah and J.W.Zwanzig
- Comment: the fifth generic paper describing the ABINIT project.
- Note that a version of this paper, that is not formatted for Computer Phys. Comm. 
- is available at https://www.abinit.org/sites/default/files/ABINIT20.pdf .
- The licence allows the authors to put it on the Web.
- DOI and bibtex: see https://docs.abinit.org/theory/bibliography/#gonze2020
-
- [7] ABINIT: Overview, and focus on selected capabilities
- J. Chem. Phys. 152, 124102 (2020).
- A. Romero, D.C. Allan, B. Amadon, G. Antonius, T. Applencourt, L.Baguet,
- J.Bieder, F.Bottin, J.Bouchet, E.Bousquet, F.Bruneval,
- G.Brunin, D.Caliste, M.Cote,
- J.Denier, C. Dreyer, Ph.Ghosez, M.Giantomassi, Y.Gillet, O.Gingras,
- D.R.Hamann, G.Hautier, F.Jollet, G. Jomard,
- A.Martin, 
- H.P.C. Miranda, F.Naccarato, G.Petretto, N.A. Pike, V.Planes,
- S.Prokhorenko, T. Rangel, F.Ricci, G.-M.Rignanese, M.Royo, M.Stengel, M.Torrent,
- M.J.van Setten, B.Van Troeye, M.J.Verstraete, J.Wiktor, J.W.Zwanziger, and X.Gonze.
- Comment: a global overview of ABINIT, with focus on selected capabilities .
- Note that a version of this paper, that is not formatted for J. Chem. Phys 
- is available at https://www.abinit.org/sites/default/files/ABINIT20_JPC.pdf .
- The licence allows the authors to put it on the Web.
- DOI and bibtex: see https://docs.abinit.org/theory/bibliography/#romero2020
-
- [8] Recent developments in the ABINIT software package.
- Computer Phys. Comm. 205, 106 (2016).
- X.Gonze, F.Jollet, F.Abreu Araujo, D.Adams, B.Amadon, T.Applencourt,
- C.Audouze, J.-M.Beuken, J.Bieder, A.Bokhanchuk, E.Bousquet, F.Bruneval
- D.Caliste, M.Cote, F.Dahm, F.Da Pieve, M.Delaveau, M.Di Gennaro,
- B.Dorado, C.Espejo, G.Geneste, L.Genovese, A.Gerossier, M.Giantomassi,
- Y.Gillet, D.R.Hamann, L.He, G.Jomard, J.Laflamme Janssen, S.Le Roux,
- A.Levitt, A.Lherbier, F.Liu, I.Lukacevic, A.Martin, C.Martins,
- M.J.T.Oliveira, S.Ponce, Y.Pouillon, T.Rangel, G.-M.Rignanese,
- A.H.Romero, B.Rousseau, O.Rubel, A.A.Shukri, M.Stankovski, M.Torrent,
- M.J.Van Setten, B.Van Troeye, M.J.Verstraete, D.Waroquier, J.Wiktor,
- B.Xu, A.Zhou, J.W.Zwanziger.
- Comment: the fourth generic paper describing the ABINIT project.
- Note that a version of this paper, that is not formatted for Computer Phys. Comm. 
- is available at https://www.abinit.org/sites/default/files/ABINIT16.pdf .
- The licence allows the authors to put it on the Web.
- DOI and bibtex: see https://docs.abinit.org/theory/bibliography/#gonze2016
-
- Proc.   0 individual time (sec): cpu=         68.9  wall=         70.3

================================================================================

 Calculation completed.
.Delivered   2 WARNINGs and   0 COMMENTs to log file.
+Overall time at end (sec) : cpu=        558.4  wall=        561.7
