
.Version 8.1.5 of ABINIT 
.(MPI version, prepared for a x86_64_linux_gnu5.3 computer) 

.Copyright (C) 1998-2016 ABINIT group . 
 ABINIT comes with ABSOLUTELY NO WARRANTY.
 It is free software, and you are welcome to redistribute it
 under certain conditions (GNU General Public License,
 see ~abinit/COPYING or http://www.gnu.org/copyleft/gpl.txt).

 ABINIT is a project of the Universite Catholique de Louvain,
 Corning Inc. and other collaborators, see ~abinit/doc/developers/contributors.txt .
 Please read ~abinit/doc/users/acknowledgments.html for suggested
 acknowledgments of the ABINIT effort.
 For more information, see http://www.abinit.org .

.Starting date : Fri  4 Nov 2016.
- ( at 11h03 )
  
- input  file    -> t26.in
- output file    -> t26_MPI4.out
- root for input  files -> t26_MPI4i
- root for output files -> t26_MPI4o


 DATASET    1 : space group R-3 m (#166); Bravais hR (rhombohedral)
================================================================================
 Values of the parameters that define the memory need for DATASET  1.
     intxc =       0    ionmov =       0      iscf =      17    lmnmax =       8
     lnmax =       4     mgfft =      18  mpssoang =       2    mqgrid =    3001
     natom =       2  nloc_mem =       2    nspden =       1   nspinor =       1
    nsppol =       1      nsym =      12    n1xccc =       1    ntypat =       1
    occopt =       0   xclevel =       1
-    mband =          12        mffmem =           1         mkmem =           1
       mpw =          64          nfft =        2916          nkpt =           1
Pmy_natom=         1
 PAW method is used; the additional fine FFT grid is defined by:
   mgfftf=        36    nfftf =     23328
================================================================================
P This job should need less than                       7.421 Mbytes of memory.
  Rough estimation (10% accuracy) of disk space for files :
_ WF disk file :      0.025 Mbytes ; DEN or POT disk file :      0.180 Mbytes.
================================================================================


 DATASET    2 : space group R-3 m (#166); Bravais hR (rhombohedral)
================================================================================
 Values of the parameters that define the memory need for DATASET  2.
     intxc =       0    ionmov =       0      iscf =      17    lmnmax =       8
     lnmax =       4     mgfft =      18  mpssoang =       2    mqgrid =    3001
     natom =       2  nloc_mem =       2    nspden =       1   nspinor =       1
    nsppol =       1      nsym =      12    n1xccc =       1    ntypat =       1
    occopt =       7   xclevel =       1
-    mband =          12        mffmem =           1         mkmem =           1
       mpw =          64          nfft =        2916          nkpt =           1
Pmy_natom=         1
 PAW method is used; the additional fine FFT grid is defined by:
   mgfftf=        36    nfftf =     23328
================================================================================
P This job should need less than                       8.154 Mbytes of memory.
  Rough estimation (10% accuracy) of disk space for files :
_ WF disk file :      0.025 Mbytes ; DEN or POT disk file :      0.180 Mbytes.
================================================================================


 DATASET    3 : space group R-3 m (#166); Bravais hR (rhombohedral)
================================================================================
 Values of the parameters that define the memory need for DATASET  3.
     intxc =       0    ionmov =       0      iscf =      17    lmnmax =       8
     lnmax =       4     mgfft =      18  mpssoang =       2    mqgrid =    3001
     natom =       2  nloc_mem =       2    nspden =       1   nspinor =       1
    nsppol =       1      nsym =      12    n1xccc =       1    ntypat =       1
    occopt =       0   xclevel =       1
-    mband =          12        mffmem =           1         mkmem =           3
       mpw =         135          nfft =        2916          nkpt =           5
Pmy_natom=         1
 PAW method is used; the additional fine FFT grid is defined by:
   mgfftf=        36    nfftf =     23328
================================================================================
P This job should need less than                       7.499 Mbytes of memory.
  Rough estimation (10% accuracy) of disk space for files :
_ WF disk file :      0.249 Mbytes ; DEN or POT disk file :      0.180 Mbytes.
================================================================================


 DATASET    4 : space group R-3 m (#166); Bravais hR (rhombohedral)
================================================================================
 Values of the parameters that define the memory need for DATASET  4.
     intxc =       0    ionmov =       0      iscf =      17    lmnmax =       8
     lnmax =       4     mgfft =      18  mpssoang =       2    mqgrid =    3001
     natom =       2  nloc_mem =       2    nspden =       1   nspinor =       1
    nsppol =       1      nsym =      12    n1xccc =       1    ntypat =       1
    occopt =       7   xclevel =       1
-    mband =          12        mffmem =           1         mkmem =           3
       mpw =         135          nfft =        2916          nkpt =           5
Pmy_natom=         1
 PAW method is used; the additional fine FFT grid is defined by:
   mgfftf=        36    nfftf =     23328
================================================================================
P This job should need less than                       8.232 Mbytes of memory.
  Rough estimation (10% accuracy) of disk space for files :
_ WF disk file :      0.249 Mbytes ; DEN or POT disk file :      0.180 Mbytes.
================================================================================


 DATASET    5 : space group R-3 m (#166); Bravais hR (rhombohedral)
================================================================================
 Values of the parameters that define the memory need for DATASET  5.
     intxc =       0    ionmov =       3      iscf =       7    lmnmax =       8
     lnmax =       4     mgfft =      18  mpssoang =       2    mqgrid =    3001
     natom =       2  nloc_mem =       2    nspden =       1   nspinor =       1
    nsppol =       1      nsym =      12    n1xccc =       1    ntypat =       1
    occopt =       0   xclevel =       1
-    mband =          12        mffmem =           1         mkmem =           1
       mpw =          64          nfft =        2916          nkpt =           1
Pmy_natom=         1
 PAW method is used; the additional fine FFT grid is defined by:
   mgfftf=        36    nfftf =     23328
================================================================================
P This job should need less than                       7.246 Mbytes of memory.
  Rough estimation (10% accuracy) of disk space for files :
_ WF disk file :      0.025 Mbytes ; DEN or POT disk file :      0.180 Mbytes.
================================================================================


 DATASET    6 : space group R-3 m (#166); Bravais hR (rhombohedral)
================================================================================
 Values of the parameters that define the memory need for DATASET  6.
     intxc =       0    ionmov =       3      iscf =      17    lmnmax =       8
     lnmax =       4     mgfft =      18  mpssoang =       2    mqgrid =    3001
     natom =       2  nloc_mem =       2    nspden =       1   nspinor =       1
    nsppol =       1      nsym =      12    n1xccc =       1    ntypat =       1
    occopt =       7   xclevel =       1
-    mband =          12        mffmem =           1         mkmem =           1
       mpw =          64          nfft =        2916          nkpt =           1
Pmy_natom=         1
 PAW method is used; the additional fine FFT grid is defined by:
   mgfftf=        36    nfftf =     23328
================================================================================
P This job should need less than                       8.512 Mbytes of memory.
  Rough estimation (10% accuracy) of disk space for files :
_ WF disk file :      0.025 Mbytes ; DEN or POT disk file :      0.180 Mbytes.
================================================================================


 DATASET    7 : space group R-3 m (#166); Bravais hR (rhombohedral)
================================================================================
 Values of the parameters that define the memory need for DATASET  7.
     intxc =       0    ionmov =       3      iscf =      17    lmnmax =       8
     lnmax =       4     mgfft =      18  mpssoang =       2    mqgrid =    3001
     natom =       2  nloc_mem =       2    nspden =       1   nspinor =       1
    nsppol =       1      nsym =      12    n1xccc =       1    ntypat =       1
    occopt =       0   xclevel =       1
-    mband =          12        mffmem =           1         mkmem =           3
       mpw =         180          nfft =        2916          nkpt =           5
Pmy_natom=         1
 PAW method is used; the additional fine FFT grid is defined by:
   mgfftf=        36    nfftf =     23328
================================================================================
P This job should need less than                       7.888 Mbytes of memory.
  Rough estimation (10% accuracy) of disk space for files :
_ WF disk file :      0.332 Mbytes ; DEN or POT disk file :      0.180 Mbytes.
================================================================================


 DATASET    8 : space group R-3 m (#166); Bravais hR (rhombohedral)
================================================================================
 Values of the parameters that define the memory need for DATASET  8.
     intxc =       0    ionmov =       3      iscf =      17    lmnmax =       8
     lnmax =       4     mgfft =      18  mpssoang =       2    mqgrid =    3001
     natom =       2  nloc_mem =       2    nspden =       1   nspinor =       1
    nsppol =       1      nsym =      12    n1xccc =       1    ntypat =       1
    occopt =       7   xclevel =       1
-    mband =          12        mffmem =           1         mkmem =           3
       mpw =         180          nfft =        2916          nkpt =           5
Pmy_natom=         1
 PAW method is used; the additional fine FFT grid is defined by:
   mgfftf=        36    nfftf =     23328
================================================================================
P This job should need less than                       8.621 Mbytes of memory.
  Rough estimation (10% accuracy) of disk space for files :
_ WF disk file :      0.332 Mbytes ; DEN or POT disk file :      0.180 Mbytes.
================================================================================


 DATASET    9 : space group R-3 m (#166); Bravais hR (rhombohedral)
================================================================================
 Values of the parameters that define the memory need for DATASET  9.
     intxc =       0    ionmov =       0      iscf =      17    lmnmax =       8
     lnmax =       4     mgfft =      18  mpssoang =       2    mqgrid =    3001
     natom =       2  nloc_mem =       2    nspden =       2   nspinor =       1
    nsppol =       2      nsym =      12    n1xccc =       1    ntypat =       1
    occopt =       1   xclevel =       1
-    mband =          12        mffmem =           1         mkmem =           1
       mpw =         127          nfft =        2916          nkpt =           1
Pmy_natom=         1
 PAW method is used; the additional fine FFT grid is defined by:
   mgfftf=        36    nfftf =     23328
================================================================================
P This job should need less than                      12.805 Mbytes of memory.
  Rough estimation (10% accuracy) of disk space for files :
_ WF disk file :      0.095 Mbytes ; DEN or POT disk file :      0.358 Mbytes.
================================================================================

--------------------------------------------------------------------------------
------------- Echo of variables that govern the present computation ------------
--------------------------------------------------------------------------------
-
- outvars: echo of selected default values                                      
-   iomode0 =  0 , fftalg0 =312 , wfoptalg0 = 10
-
- outvars: echo of global parameters not present in the input file              
-  max_nthreads =    0
-
 -outvars: echo values of preprocessed input variables --------
            acell      7.0000000000E+00  7.0000000000E+00  7.0000000000E+00 Bohr
              amu      1.20110000E+01
        autoparal           1
        bs_loband1          0
        bs_loband2          0
        bs_loband3          0
        bs_loband4          0
        bs_loband5          0
        bs_loband6          0
        bs_loband7          0
        bs_loband8          0
        bs_loband9          0       0
           diemac      1.20000000E+01
          dilatmx1     1.00000000E+00
          dilatmx2     1.00000000E+00
          dilatmx3     1.00000000E+00
          dilatmx4     1.00000000E+00
          dilatmx5     1.00000000E+00
          dilatmx6     1.00000000E+00
          dilatmx7     1.10000000E+00
          dilatmx8     1.10000000E+00
          dilatmx9     1.00000000E+00
             ecut      1.60000000E+01 Hartree
           ecutsm1     0.00000000E+00 Hartree
           ecutsm2     0.00000000E+00 Hartree
           ecutsm3     0.00000000E+00 Hartree
           ecutsm4     0.00000000E+00 Hartree
           ecutsm5     0.00000000E+00 Hartree
           ecutsm6     0.00000000E+00 Hartree
           ecutsm7     5.00000000E-01 Hartree
           ecutsm8     5.00000000E-01 Hartree
           ecutsm9     0.00000000E+00 Hartree
           enunit           2
-          fftalg         401
           ionmov1          0
           ionmov2          0
           ionmov3          0
           ionmov4          0
           ionmov5          3
           ionmov6          3
           ionmov7          3
           ionmov8          3
           ionmov9          0
     densfor_pred           6
             iscf1         17
             iscf2         17
             iscf3         17
             iscf4         17
             iscf5          7
             iscf6         17
             iscf7         17
             iscf8         17
             iscf9         17
           istwfk1       1
           istwfk2       1
           istwfk5       1
           istwfk6       1
           istwfk9       1
              ixc1          2
              ixc2          2
              ixc3          2
              ixc4          2
              ixc5          2
              ixc6          2
              ixc7          2
              ixc8          2
              ixc9          1
           jdtset        1    2    3    4    5    6    7    8    9
              kpt1     0.00000000E+00  0.00000000E+00  0.00000000E+00
              kpt2     0.00000000E+00  0.00000000E+00  0.00000000E+00
              kpt3    -2.50000000E-01  5.00000000E-01  0.00000000E+00
                      -2.50000000E-01 -2.50000000E-01  2.50000000E-01
                      -2.50000000E-01  0.00000000E+00  0.00000000E+00
                       5.00000000E-01  5.00000000E-01  2.50000000E-01
                      -2.50000000E-01 -2.50000000E-01 -2.50000000E-01
              kpt4    -2.50000000E-01  5.00000000E-01  0.00000000E+00
                      -2.50000000E-01 -2.50000000E-01  2.50000000E-01
                      -2.50000000E-01  0.00000000E+00  0.00000000E+00
                       5.00000000E-01  5.00000000E-01  2.50000000E-01
                      -2.50000000E-01 -2.50000000E-01 -2.50000000E-01
              kpt5     0.00000000E+00  0.00000000E+00  0.00000000E+00
              kpt6     0.00000000E+00  0.00000000E+00  0.00000000E+00
              kpt7    -2.50000000E-01  5.00000000E-01  0.00000000E+00
                      -2.50000000E-01 -2.50000000E-01  2.50000000E-01
                      -2.50000000E-01  0.00000000E+00  0.00000000E+00
                       5.00000000E-01  5.00000000E-01  2.50000000E-01
                      -2.50000000E-01 -2.50000000E-01 -2.50000000E-01
              kpt8    -2.50000000E-01  5.00000000E-01  0.00000000E+00
                      -2.50000000E-01 -2.50000000E-01  2.50000000E-01
                      -2.50000000E-01  0.00000000E+00  0.00000000E+00
                       5.00000000E-01  5.00000000E-01  2.50000000E-01
                      -2.50000000E-01 -2.50000000E-01 -2.50000000E-01
              kpt9     0.00000000E+00  0.00000000E+00  0.00000000E+00
           kptopt1          0
           kptopt2          0
           kptopt3          1
           kptopt4          1
           kptopt5          0
           kptopt6          0
           kptopt7          1
           kptopt8          1
           kptopt9          0
         kptrlatt        2   -2    2     -2    2    2     -2   -2    2
          kptrlen1     3.00000000E+01
          kptrlen2     3.00000000E+01
          kptrlen3     1.40000000E+01
          kptrlen4     1.40000000E+01
          kptrlen5     3.00000000E+01
          kptrlen6     3.00000000E+01
          kptrlen7     1.40000000E+01
          kptrlen8     1.40000000E+01
          kptrlen9     3.00000000E+01
P           mkmem1          1
P           mkmem2          1
P           mkmem3          3
P           mkmem4          3
P           mkmem5          1
P           mkmem6          1
P           mkmem7          3
P           mkmem8          3
P           mkmem9          1
            natom           2
            nband1         12
            nband2         12
            nband3         12
            nband4         12
            nband5         12
            nband6         12
            nband7         12
            nband8         12
            nband9         12
           ndtset           9
            ngfft          18      18      18
          ngfftdg          36      36      36
             nkpt1          1
             nkpt2          1
             nkpt3          5
             nkpt4          5
             nkpt5          1
             nkpt6          1
             nkpt7          5
             nkpt8          5
             nkpt9          1
            nline           1
-          npband1          2
-          npband2          2
-          npband3          1
-          npband4          1
-          npband5          2
-          npband6          2
-          npband7          1
-          npband8          1
-          npband9          1
-           npfft           2
-           npkpt1          1
-           npkpt2          1
-           npkpt3          2
-           npkpt4          2
-           npkpt5          1
-           npkpt6          1
-           npkpt7          2
-           npkpt8          2
-           npkpt9          2
           nspden1          1
           nspden2          1
           nspden3          1
           nspden4          1
           nspden5          1
           nspden6          1
           nspden7          1
           nspden8          1
           nspden9          2
           nsppol1          1
           nsppol2          1
           nsppol3          1
           nsppol4          1
           nsppol5          1
           nsppol6          1
           nsppol7          1
           nsppol8          1
           nsppol9          2
            nstep           5
             nsym          12
            ntime1          1
            ntime2          1
            ntime3          1
            ntime4          1
            ntime5          3
            ntime6          3
            ntime7          3
            ntime8          3
            ntime9          1
           ntypat           1
              occ1     2.000000  2.000000  2.000000  2.000000  0.000000  0.000000
                       0.000000  0.000000  0.000000  0.000000  0.000000  0.000000
              occ2     2.000000  2.000000  2.000000  2.000000  0.000000  0.000000
                       0.000000  0.000000  0.000000  0.000000  0.000000  0.000000
              occ3     2.000000  2.000000  2.000000  2.000000  0.000000  0.000000
                       0.000000  0.000000  0.000000  0.000000  0.000000  0.000000
              occ4     2.000000  2.000000  2.000000  2.000000  0.000000  0.000000
                       0.000000  0.000000  0.000000  0.000000  0.000000  0.000000
                       2.000000  2.000000  2.000000  2.000000  0.000000  0.000000
                       0.000000  0.000000  0.000000  0.000000  0.000000  0.000000
                       2.000000  2.000000  2.000000  2.000000  0.000000  0.000000
                       0.000000  0.000000  0.000000  0.000000  0.000000  0.000000
                       2.000000  2.000000  2.000000  2.000000  0.000000  0.000000
                       0.000000  0.000000  0.000000  0.000000  0.000000  0.000000
                       2.000000  2.000000  2.000000  2.000000  0.000000  0.000000
                       0.000000  0.000000  0.000000  0.000000  0.000000  0.000000
              occ5     2.000000  2.000000  2.000000  2.000000  0.000000  0.000000
                       0.000000  0.000000  0.000000  0.000000  0.000000  0.000000
              occ6     2.000000  2.000000  2.000000  2.000000  0.000000  0.000000
                       0.000000  0.000000  0.000000  0.000000  0.000000  0.000000
              occ7     2.000000  2.000000  2.000000  2.000000  0.000000  0.000000
                       0.000000  0.000000  0.000000  0.000000  0.000000  0.000000
              occ8     2.000000  2.000000  2.000000  2.000000  0.000000  0.000000
                       0.000000  0.000000  0.000000  0.000000  0.000000  0.000000
                       2.000000  2.000000  2.000000  2.000000  0.000000  0.000000
                       0.000000  0.000000  0.000000  0.000000  0.000000  0.000000
                       2.000000  2.000000  2.000000  2.000000  0.000000  0.000000
                       0.000000  0.000000  0.000000  0.000000  0.000000  0.000000
                       2.000000  2.000000  2.000000  2.000000  0.000000  0.000000
                       0.000000  0.000000  0.000000  0.000000  0.000000  0.000000
                       2.000000  2.000000  2.000000  2.000000  0.000000  0.000000
                       0.000000  0.000000  0.000000  0.000000  0.000000  0.000000
              occ9     1.000000  1.000000  1.000000  1.000000  0.000000  0.000000
                       0.000000  0.000000  0.000000  0.000000  0.000000  0.000000
                       1.000000  1.000000  1.000000  1.000000  0.000000  0.000000
                       0.000000  0.000000  0.000000  0.000000  0.000000  0.000000
           occopt1          0
           occopt2          7
           occopt3          0
           occopt4          7
           occopt5          0
           occopt6          7
           occopt7          0
           occopt8          7
           occopt9          1
          optcell1          0
          optcell2          0
          optcell3          0
          optcell4          0
          optcell5          0
          optcell6          0
          optcell7          1
          optcell8          1
          optcell9          0
        optforces1          2
        optforces2          2
        optforces3          2
        optforces4          2
        optforces5          1
        optforces6          1
        optforces7          1
        optforces8          1
        optforces9          2
        paral_kgb           1
        pawecutdg      5.00000000E+01 Hartree
         pawmixdg           1
            rprim      0.0000000000E+00  5.0000000000E-01  5.0000000000E-01
                       5.0000000000E-01  0.0000000000E+00  5.0000000000E-01
                       5.0000000000E-01  5.0000000000E-01  0.0000000000E+00
           shiftk      5.00000000E-01  5.00000000E-01  5.00000000E-01
          spgroup         166
   spinmagntarget1    -9.99900000E+01
   spinmagntarget2    -9.99900000E+01
   spinmagntarget3    -9.99900000E+01
   spinmagntarget4    -9.99900000E+01
   spinmagntarget5    -9.99900000E+01
   spinmagntarget6    -9.99900000E+01
   spinmagntarget7    -9.99900000E+01
   spinmagntarget8    -9.99900000E+01
   spinmagntarget9     0.00000000E+00
           symrel      1  0  0   0  1  0   0  0  1      -1  0  0   0 -1  0   0  0 -1
                       1  0  0   0  0  1   0  1  0      -1  0  0   0  0 -1   0 -1  0
                       0  1  0   0  0  1   1  0  0       0 -1  0   0  0 -1  -1  0  0
                       0  1  0   1  0  0   0  0  1       0 -1  0  -1  0  0   0  0 -1
                       0  0  1   1  0  0   0  1  0       0  0 -1  -1  0  0   0 -1  0
                       0  0  1   0  1  0   1  0  0       0  0 -1   0 -1  0  -1  0  0
            tnons      0.0000000  0.0000000  0.0000000     0.2200000  0.2200000  0.2200000
                       0.0000000  0.0000000  0.0000000     0.2200000  0.2200000  0.2200000
                       0.0000000  0.0000000  0.0000000     0.2200000  0.2200000  0.2200000
                       0.0000000  0.0000000  0.0000000     0.2200000  0.2200000  0.2200000
                       0.0000000  0.0000000  0.0000000     0.2200000  0.2200000  0.2200000
                       0.0000000  0.0000000  0.0000000     0.2200000  0.2200000  0.2200000
           toldfe1     1.00000000E-10 Hartree
           toldfe2     1.00000000E-10 Hartree
           toldfe3     1.00000000E-10 Hartree
           toldfe4     1.00000000E-10 Hartree
           toldfe5     0.00000000E+00 Hartree
           toldfe6     0.00000000E+00 Hartree
           toldfe7     0.00000000E+00 Hartree
           toldfe8     0.00000000E+00 Hartree
           toldfe9     1.00000000E-10 Hartree
           toldff1     0.00000000E+00
           toldff2     0.00000000E+00
           toldff3     0.00000000E+00
           toldff4     0.00000000E+00
           toldff5     1.00000000E-06
           toldff6     1.00000000E-06
           toldff7     1.00000000E-07
           toldff8     1.00000000E-07
           toldff9     0.00000000E+00
           tolmxf1     5.00000000E-05
           tolmxf2     5.00000000E-05
           tolmxf3     5.00000000E-05
           tolmxf4     5.00000000E-05
           tolmxf5     1.00000000E-05
           tolmxf6     1.00000000E-05
           tolmxf7     1.00000000E-05
           tolmxf8     1.00000000E-05
           tolmxf9     5.00000000E-05
           tsmear1     1.00000000E-02 Hartree
           tsmear2     1.00000000E-03 Hartree
           tsmear3     1.00000000E-02 Hartree
           tsmear4     1.00000000E-03 Hartree
           tsmear5     1.00000000E-02 Hartree
           tsmear6     1.00000000E-03 Hartree
           tsmear7     1.00000000E-02 Hartree
           tsmear8     1.00000000E-03 Hartree
           tsmear9     1.00000000E-02 Hartree
            typat      1  1
           useylm           1
         wfoptalg          14
              wtk1       1.00000
              wtk2       1.00000
              wtk3       0.37500    0.18750    0.18750    0.18750    0.06250
              wtk4       0.37500    0.18750    0.18750    0.18750    0.06250
              wtk5       1.00000
              wtk6       1.00000
              wtk7       0.37500    0.18750    0.18750    0.18750    0.06250
              wtk8       0.37500    0.18750    0.18750    0.18750    0.06250
              wtk9       1.00000
           xangst      0.0000000000E+00  0.0000000000E+00  0.0000000000E+00
                       8.1493290123E-01  8.1493290123E-01  8.1493290123E-01
            xcart      0.0000000000E+00  0.0000000000E+00  0.0000000000E+00
                       1.5400000000E+00  1.5400000000E+00  1.5400000000E+00
             xred      0.0000000000E+00  0.0000000000E+00  0.0000000000E+00
                       2.2000000000E-01  2.2000000000E-01  2.2000000000E-01
            znucl        6.00000

================================================================================

 chkinp: Checking input parameters for consistency, jdtset=   1.

 chkinp: WARNING -
   Chksymbreak=1 . Found potentially symmetry-breaking value of tnons, 
   which is neither a rational fraction in 1/8th nor in 1/12th :
   for the symmetry number    2
   symrel is  -1  0  0  0 -1  0  0  0 -1
   tnons is     2.200000E-01    2.200000E-01    2.200000E-01
   Please, read the description of the input variable chksymbreak,
   then, if you feel confident, you might switch it to zero, or consult with the forum.

 chkinp: WARNING -
   Chksymbreak=1 . Found potentially symmetry-breaking value of tnons, 
   which is neither a rational fraction in 1/8th nor in 1/12th :
   for the symmetry number    2
   symrel is  -1  0  0  0 -1  0  0  0 -1
   tnons is     2.200000E-01    2.200000E-01    2.200000E-01
   Please, read the description of the input variable chksymbreak,
   then, if you feel confident, you might switch it to zero, or consult with the forum.

 chkinp: WARNING -
   Chksymbreak=1 . Found potentially symmetry-breaking value of tnons, 
   which is neither a rational fraction in 1/8th nor in 1/12th :
   for the symmetry number    2
   symrel is  -1  0  0  0 -1  0  0  0 -1
   tnons is     2.200000E-01    2.200000E-01    2.200000E-01
   Please, read the description of the input variable chksymbreak,
   then, if you feel confident, you might switch it to zero, or consult with the forum.

 chkinp: WARNING -
   Chksymbreak=1 . Found potentially symmetry-breaking value of tnons, 
   which is neither a rational fraction in 1/8th nor in 1/12th :
   for the symmetry number    4
   symrel is  -1  0  0  0  0 -1  0 -1  0
   tnons is     2.200000E-01    2.200000E-01    2.200000E-01
   Please, read the description of the input variable chksymbreak,
   then, if you feel confident, you might switch it to zero, or consult with the forum.

 chkinp: WARNING -
   Chksymbreak=1 . Found potentially symmetry-breaking value of tnons, 
   which is neither a rational fraction in 1/8th nor in 1/12th :
   for the symmetry number    4
   symrel is  -1  0  0  0  0 -1  0 -1  0
   tnons is     2.200000E-01    2.200000E-01    2.200000E-01
   Please, read the description of the input variable chksymbreak,
   then, if you feel confident, you might switch it to zero, or consult with the forum.

 chkinp: WARNING -
   Chksymbreak=1 . Found potentially symmetry-breaking value of tnons, 
   which is neither a rational fraction in 1/8th nor in 1/12th :
   for the symmetry number    4
   symrel is  -1  0  0  0  0 -1  0 -1  0
   tnons is     2.200000E-01    2.200000E-01    2.200000E-01
   Please, read the description of the input variable chksymbreak,
   then, if you feel confident, you might switch it to zero, or consult with the forum.

 chkinp: WARNING -
   Chksymbreak=1 . Found potentially symmetry-breaking value of tnons, 
   which is neither a rational fraction in 1/8th nor in 1/12th :
   for the symmetry number    6
   symrel is   0 -1  0  0  0 -1 -1  0  0
   tnons is     2.200000E-01    2.200000E-01    2.200000E-01
   Please, read the description of the input variable chksymbreak,
   then, if you feel confident, you might switch it to zero, or consult with the forum.

 chkinp: WARNING -
   Chksymbreak=1 . Found potentially symmetry-breaking value of tnons, 
   which is neither a rational fraction in 1/8th nor in 1/12th :
   for the symmetry number    6
   symrel is   0 -1  0  0  0 -1 -1  0  0
   tnons is     2.200000E-01    2.200000E-01    2.200000E-01
   Please, read the description of the input variable chksymbreak,
   then, if you feel confident, you might switch it to zero, or consult with the forum.

 chkinp: WARNING -
   Chksymbreak=1 . Found potentially symmetry-breaking value of tnons, 
   which is neither a rational fraction in 1/8th nor in 1/12th :
   for the symmetry number    6
   symrel is   0 -1  0  0  0 -1 -1  0  0
   tnons is     2.200000E-01    2.200000E-01    2.200000E-01
   Please, read the description of the input variable chksymbreak,
   then, if you feel confident, you might switch it to zero, or consult with the forum.

 chkinp: WARNING -
   Chksymbreak=1 . Found potentially symmetry-breaking value of tnons, 
   which is neither a rational fraction in 1/8th nor in 1/12th :
   for the symmetry number    8
   symrel is   0 -1  0 -1  0  0  0  0 -1
   tnons is     2.200000E-01    2.200000E-01    2.200000E-01
   Please, read the description of the input variable chksymbreak,
   then, if you feel confident, you might switch it to zero, or consult with the forum.

 chkinp: WARNING -
   Chksymbreak=1 . Found potentially symmetry-breaking value of tnons, 
   which is neither a rational fraction in 1/8th nor in 1/12th :
   for the symmetry number    8
   symrel is   0 -1  0 -1  0  0  0  0 -1
   tnons is     2.200000E-01    2.200000E-01    2.200000E-01
   Please, read the description of the input variable chksymbreak,
   then, if you feel confident, you might switch it to zero, or consult with the forum.

 chkinp: WARNING -
   Chksymbreak=1 . Found potentially symmetry-breaking value of tnons, 
   which is neither a rational fraction in 1/8th nor in 1/12th :
   for the symmetry number    8
   symrel is   0 -1  0 -1  0  0  0  0 -1
   tnons is     2.200000E-01    2.200000E-01    2.200000E-01
   Please, read the description of the input variable chksymbreak,
   then, if you feel confident, you might switch it to zero, or consult with the forum.

 chkinp: WARNING -
   Chksymbreak=1 . Found potentially symmetry-breaking value of tnons, 
   which is neither a rational fraction in 1/8th nor in 1/12th :
   for the symmetry number   10
   symrel is   0  0 -1 -1  0  0  0 -1  0
   tnons is     2.200000E-01    2.200000E-01    2.200000E-01
   Please, read the description of the input variable chksymbreak,
   then, if you feel confident, you might switch it to zero, or consult with the forum.

 chkinp: WARNING -
   Chksymbreak=1 . Found potentially symmetry-breaking value of tnons, 
   which is neither a rational fraction in 1/8th nor in 1/12th :
   for the symmetry number   10
   symrel is   0  0 -1 -1  0  0  0 -1  0
   tnons is     2.200000E-01    2.200000E-01    2.200000E-01
   Please, read the description of the input variable chksymbreak,
   then, if you feel confident, you might switch it to zero, or consult with the forum.

 chkinp: WARNING -
   Chksymbreak=1 . Found potentially symmetry-breaking value of tnons, 
   which is neither a rational fraction in 1/8th nor in 1/12th :
   for the symmetry number   10
   symrel is   0  0 -1 -1  0  0  0 -1  0
   tnons is     2.200000E-01    2.200000E-01    2.200000E-01
   Please, read the description of the input variable chksymbreak,
   then, if you feel confident, you might switch it to zero, or consult with the forum.

 chkinp: WARNING -
   Chksymbreak=1 . Found potentially symmetry-breaking value of tnons, 
   which is neither a rational fraction in 1/8th nor in 1/12th :
   for the symmetry number   12
   symrel is   0  0 -1  0 -1  0 -1  0  0
   tnons is     2.200000E-01    2.200000E-01    2.200000E-01
   Please, read the description of the input variable chksymbreak,
   then, if you feel confident, you might switch it to zero, or consult with the forum.

 chkinp: WARNING -
   Chksymbreak=1 . Found potentially symmetry-breaking value of tnons, 
   which is neither a rational fraction in 1/8th nor in 1/12th :
   for the symmetry number   12
   symrel is   0  0 -1  0 -1  0 -1  0  0
   tnons is     2.200000E-01    2.200000E-01    2.200000E-01
   Please, read the description of the input variable chksymbreak,
   then, if you feel confident, you might switch it to zero, or consult with the forum.

 chkinp: WARNING -
   Chksymbreak=1 . Found potentially symmetry-breaking value of tnons, 
   which is neither a rational fraction in 1/8th nor in 1/12th :
   for the symmetry number   12
   symrel is   0  0 -1  0 -1  0 -1  0  0
   tnons is     2.200000E-01    2.200000E-01    2.200000E-01
   Please, read the description of the input variable chksymbreak,
   then, if you feel confident, you might switch it to zero, or consult with the forum.

 chkinp: Checking input parameters for consistency, jdtset=   2.

 chkinp: WARNING -
   Chksymbreak=1 . Found potentially symmetry-breaking value of tnons, 
   which is neither a rational fraction in 1/8th nor in 1/12th :
   for the symmetry number    2
   symrel is  -1  0  0  0 -1  0  0  0 -1
   tnons is     2.200000E-01    2.200000E-01    2.200000E-01
   Please, read the description of the input variable chksymbreak,
   then, if you feel confident, you might switch it to zero, or consult with the forum.

 chkinp: WARNING -
   Chksymbreak=1 . Found potentially symmetry-breaking value of tnons, 
   which is neither a rational fraction in 1/8th nor in 1/12th :
   for the symmetry number    2
   symrel is  -1  0  0  0 -1  0  0  0 -1
   tnons is     2.200000E-01    2.200000E-01    2.200000E-01
   Please, read the description of the input variable chksymbreak,
   then, if you feel confident, you might switch it to zero, or consult with the forum.

 chkinp: WARNING -
   Chksymbreak=1 . Found potentially symmetry-breaking value of tnons, 
   which is neither a rational fraction in 1/8th nor in 1/12th :
   for the symmetry number    2
   symrel is  -1  0  0  0 -1  0  0  0 -1
   tnons is     2.200000E-01    2.200000E-01    2.200000E-01
   Please, read the description of the input variable chksymbreak,
   then, if you feel confident, you might switch it to zero, or consult with the forum.

 chkinp: WARNING -
   Chksymbreak=1 . Found potentially symmetry-breaking value of tnons, 
   which is neither a rational fraction in 1/8th nor in 1/12th :
   for the symmetry number    4
   symrel is  -1  0  0  0  0 -1  0 -1  0
   tnons is     2.200000E-01    2.200000E-01    2.200000E-01
   Please, read the description of the input variable chksymbreak,
   then, if you feel confident, you might switch it to zero, or consult with the forum.

 chkinp: WARNING -
   Chksymbreak=1 . Found potentially symmetry-breaking value of tnons, 
   which is neither a rational fraction in 1/8th nor in 1/12th :
   for the symmetry number    4
   symrel is  -1  0  0  0  0 -1  0 -1  0
   tnons is     2.200000E-01    2.200000E-01    2.200000E-01
   Please, read the description of the input variable chksymbreak,
   then, if you feel confident, you might switch it to zero, or consult with the forum.

 chkinp: WARNING -
   Chksymbreak=1 . Found potentially symmetry-breaking value of tnons, 
   which is neither a rational fraction in 1/8th nor in 1/12th :
   for the symmetry number    4
   symrel is  -1  0  0  0  0 -1  0 -1  0
   tnons is     2.200000E-01    2.200000E-01    2.200000E-01
   Please, read the description of the input variable chksymbreak,
   then, if you feel confident, you might switch it to zero, or consult with the forum.

 chkinp: WARNING -
   Chksymbreak=1 . Found potentially symmetry-breaking value of tnons, 
   which is neither a rational fraction in 1/8th nor in 1/12th :
   for the symmetry number    6
   symrel is   0 -1  0  0  0 -1 -1  0  0
   tnons is     2.200000E-01    2.200000E-01    2.200000E-01
   Please, read the description of the input variable chksymbreak,
   then, if you feel confident, you might switch it to zero, or consult with the forum.

 chkinp: WARNING -
   Chksymbreak=1 . Found potentially symmetry-breaking value of tnons, 
   which is neither a rational fraction in 1/8th nor in 1/12th :
   for the symmetry number    6
   symrel is   0 -1  0  0  0 -1 -1  0  0
   tnons is     2.200000E-01    2.200000E-01    2.200000E-01
   Please, read the description of the input variable chksymbreak,
   then, if you feel confident, you might switch it to zero, or consult with the forum.

 chkinp: WARNING -
   Chksymbreak=1 . Found potentially symmetry-breaking value of tnons, 
   which is neither a rational fraction in 1/8th nor in 1/12th :
   for the symmetry number    6
   symrel is   0 -1  0  0  0 -1 -1  0  0
   tnons is     2.200000E-01    2.200000E-01    2.200000E-01
   Please, read the description of the input variable chksymbreak,
   then, if you feel confident, you might switch it to zero, or consult with the forum.

 chkinp: WARNING -
   Chksymbreak=1 . Found potentially symmetry-breaking value of tnons, 
   which is neither a rational fraction in 1/8th nor in 1/12th :
   for the symmetry number    8
   symrel is   0 -1  0 -1  0  0  0  0 -1
   tnons is     2.200000E-01    2.200000E-01    2.200000E-01
   Please, read the description of the input variable chksymbreak,
   then, if you feel confident, you might switch it to zero, or consult with the forum.

 chkinp: WARNING -
   Chksymbreak=1 . Found potentially symmetry-breaking value of tnons, 
   which is neither a rational fraction in 1/8th nor in 1/12th :
   for the symmetry number    8
   symrel is   0 -1  0 -1  0  0  0  0 -1
   tnons is     2.200000E-01    2.200000E-01    2.200000E-01
   Please, read the description of the input variable chksymbreak,
   then, if you feel confident, you might switch it to zero, or consult with the forum.

 chkinp: WARNING -
   Chksymbreak=1 . Found potentially symmetry-breaking value of tnons, 
   which is neither a rational fraction in 1/8th nor in 1/12th :
   for the symmetry number    8
   symrel is   0 -1  0 -1  0  0  0  0 -1
   tnons is     2.200000E-01    2.200000E-01    2.200000E-01
   Please, read the description of the input variable chksymbreak,
   then, if you feel confident, you might switch it to zero, or consult with the forum.

 chkinp: WARNING -
   Chksymbreak=1 . Found potentially symmetry-breaking value of tnons, 
   which is neither a rational fraction in 1/8th nor in 1/12th :
   for the symmetry number   10
   symrel is   0  0 -1 -1  0  0  0 -1  0
   tnons is     2.200000E-01    2.200000E-01    2.200000E-01
   Please, read the description of the input variable chksymbreak,
   then, if you feel confident, you might switch it to zero, or consult with the forum.

 chkinp: WARNING -
   Chksymbreak=1 . Found potentially symmetry-breaking value of tnons, 
   which is neither a rational fraction in 1/8th nor in 1/12th :
   for the symmetry number   10
   symrel is   0  0 -1 -1  0  0  0 -1  0
   tnons is     2.200000E-01    2.200000E-01    2.200000E-01
   Please, read the description of the input variable chksymbreak,
   then, if you feel confident, you might switch it to zero, or consult with the forum.

 chkinp: WARNING -
   Chksymbreak=1 . Found potentially symmetry-breaking value of tnons, 
   which is neither a rational fraction in 1/8th nor in 1/12th :
   for the symmetry number   10
   symrel is   0  0 -1 -1  0  0  0 -1  0
   tnons is     2.200000E-01    2.200000E-01    2.200000E-01
   Please, read the description of the input variable chksymbreak,
   then, if you feel confident, you might switch it to zero, or consult with the forum.

 chkinp: WARNING -
   Chksymbreak=1 . Found potentially symmetry-breaking value of tnons, 
   which is neither a rational fraction in 1/8th nor in 1/12th :
   for the symmetry number   12
   symrel is   0  0 -1  0 -1  0 -1  0  0
   tnons is     2.200000E-01    2.200000E-01    2.200000E-01
   Please, read the description of the input variable chksymbreak,
   then, if you feel confident, you might switch it to zero, or consult with the forum.

 chkinp: WARNING -
   Chksymbreak=1 . Found potentially symmetry-breaking value of tnons, 
   which is neither a rational fraction in 1/8th nor in 1/12th :
   for the symmetry number   12
   symrel is   0  0 -1  0 -1  0 -1  0  0
   tnons is     2.200000E-01    2.200000E-01    2.200000E-01
   Please, read the description of the input variable chksymbreak,
   then, if you feel confident, you might switch it to zero, or consult with the forum.

 chkinp: WARNING -
   Chksymbreak=1 . Found potentially symmetry-breaking value of tnons, 
   which is neither a rational fraction in 1/8th nor in 1/12th :
   for the symmetry number   12
   symrel is   0  0 -1  0 -1  0 -1  0  0
   tnons is     2.200000E-01    2.200000E-01    2.200000E-01
   Please, read the description of the input variable chksymbreak,
   then, if you feel confident, you might switch it to zero, or consult with the forum.

 chkinp: Checking input parameters for consistency, jdtset=   3.

 chkinp: WARNING -
   Chksymbreak=1 . Found potentially symmetry-breaking value of tnons, 
   which is neither a rational fraction in 1/8th nor in 1/12th :
   for the symmetry number    2
   symrel is  -1  0  0  0 -1  0  0  0 -1
   tnons is     2.200000E-01    2.200000E-01    2.200000E-01
   Please, read the description of the input variable chksymbreak,
   then, if you feel confident, you might switch it to zero, or consult with the forum.

 chkinp: WARNING -
   Chksymbreak=1 . Found potentially symmetry-breaking value of tnons, 
   which is neither a rational fraction in 1/8th nor in 1/12th :
   for the symmetry number    2
   symrel is  -1  0  0  0 -1  0  0  0 -1
   tnons is     2.200000E-01    2.200000E-01    2.200000E-01
   Please, read the description of the input variable chksymbreak,
   then, if you feel confident, you might switch it to zero, or consult with the forum.

 chkinp: WARNING -
   Chksymbreak=1 . Found potentially symmetry-breaking value of tnons, 
   which is neither a rational fraction in 1/8th nor in 1/12th :
   for the symmetry number    2
   symrel is  -1  0  0  0 -1  0  0  0 -1
   tnons is     2.200000E-01    2.200000E-01    2.200000E-01
   Please, read the description of the input variable chksymbreak,
   then, if you feel confident, you might switch it to zero, or consult with the forum.

 chkinp: WARNING -
   Chksymbreak=1 . Found potentially symmetry-breaking value of tnons, 
   which is neither a rational fraction in 1/8th nor in 1/12th :
   for the symmetry number    4
   symrel is  -1  0  0  0  0 -1  0 -1  0
   tnons is     2.200000E-01    2.200000E-01    2.200000E-01
   Please, read the description of the input variable chksymbreak,
   then, if you feel confident, you might switch it to zero, or consult with the forum.

 chkinp: WARNING -
   Chksymbreak=1 . Found potentially symmetry-breaking value of tnons, 
   which is neither a rational fraction in 1/8th nor in 1/12th :
   for the symmetry number    4
   symrel is  -1  0  0  0  0 -1  0 -1  0
   tnons is     2.200000E-01    2.200000E-01    2.200000E-01
   Please, read the description of the input variable chksymbreak,
   then, if you feel confident, you might switch it to zero, or consult with the forum.

 chkinp: WARNING -
   Chksymbreak=1 . Found potentially symmetry-breaking value of tnons, 
   which is neither a rational fraction in 1/8th nor in 1/12th :
   for the symmetry number    4
   symrel is  -1  0  0  0  0 -1  0 -1  0
   tnons is     2.200000E-01    2.200000E-01    2.200000E-01
   Please, read the description of the input variable chksymbreak,
   then, if you feel confident, you might switch it to zero, or consult with the forum.

 chkinp: WARNING -
   Chksymbreak=1 . Found potentially symmetry-breaking value of tnons, 
   which is neither a rational fraction in 1/8th nor in 1/12th :
   for the symmetry number    6
   symrel is   0 -1  0  0  0 -1 -1  0  0
   tnons is     2.200000E-01    2.200000E-01    2.200000E-01
   Please, read the description of the input variable chksymbreak,
   then, if you feel confident, you might switch it to zero, or consult with the forum.

 chkinp: WARNING -
   Chksymbreak=1 . Found potentially symmetry-breaking value of tnons, 
   which is neither a rational fraction in 1/8th nor in 1/12th :
   for the symmetry number    6
   symrel is   0 -1  0  0  0 -1 -1  0  0
   tnons is     2.200000E-01    2.200000E-01    2.200000E-01
   Please, read the description of the input variable chksymbreak,
   then, if you feel confident, you might switch it to zero, or consult with the forum.

 chkinp: WARNING -
   Chksymbreak=1 . Found potentially symmetry-breaking value of tnons, 
   which is neither a rational fraction in 1/8th nor in 1/12th :
   for the symmetry number    6
   symrel is   0 -1  0  0  0 -1 -1  0  0
   tnons is     2.200000E-01    2.200000E-01    2.200000E-01
   Please, read the description of the input variable chksymbreak,
   then, if you feel confident, you might switch it to zero, or consult with the forum.

 chkinp: WARNING -
   Chksymbreak=1 . Found potentially symmetry-breaking value of tnons, 
   which is neither a rational fraction in 1/8th nor in 1/12th :
   for the symmetry number    8
   symrel is   0 -1  0 -1  0  0  0  0 -1
   tnons is     2.200000E-01    2.200000E-01    2.200000E-01
   Please, read the description of the input variable chksymbreak,
   then, if you feel confident, you might switch it to zero, or consult with the forum.

 chkinp: WARNING -
   Chksymbreak=1 . Found potentially symmetry-breaking value of tnons, 
   which is neither a rational fraction in 1/8th nor in 1/12th :
   for the symmetry number    8
   symrel is   0 -1  0 -1  0  0  0  0 -1
   tnons is     2.200000E-01    2.200000E-01    2.200000E-01
   Please, read the description of the input variable chksymbreak,
   then, if you feel confident, you might switch it to zero, or consult with the forum.

 chkinp: WARNING -
   Chksymbreak=1 . Found potentially symmetry-breaking value of tnons, 
   which is neither a rational fraction in 1/8th nor in 1/12th :
   for the symmetry number    8
   symrel is   0 -1  0 -1  0  0  0  0 -1
   tnons is     2.200000E-01    2.200000E-01    2.200000E-01
   Please, read the description of the input variable chksymbreak,
   then, if you feel confident, you might switch it to zero, or consult with the forum.

 chkinp: WARNING -
   Chksymbreak=1 . Found potentially symmetry-breaking value of tnons, 
   which is neither a rational fraction in 1/8th nor in 1/12th :
   for the symmetry number   10
   symrel is   0  0 -1 -1  0  0  0 -1  0
   tnons is     2.200000E-01    2.200000E-01    2.200000E-01
   Please, read the description of the input variable chksymbreak,
   then, if you feel confident, you might switch it to zero, or consult with the forum.

 chkinp: WARNING -
   Chksymbreak=1 . Found potentially symmetry-breaking value of tnons, 
   which is neither a rational fraction in 1/8th nor in 1/12th :
   for the symmetry number   10
   symrel is   0  0 -1 -1  0  0  0 -1  0
   tnons is     2.200000E-01    2.200000E-01    2.200000E-01
   Please, read the description of the input variable chksymbreak,
   then, if you feel confident, you might switch it to zero, or consult with the forum.

 chkinp: WARNING -
   Chksymbreak=1 . Found potentially symmetry-breaking value of tnons, 
   which is neither a rational fraction in 1/8th nor in 1/12th :
   for the symmetry number   10
   symrel is   0  0 -1 -1  0  0  0 -1  0
   tnons is     2.200000E-01    2.200000E-01    2.200000E-01
   Please, read the description of the input variable chksymbreak,
   then, if you feel confident, you might switch it to zero, or consult with the forum.

 chkinp: WARNING -
   Chksymbreak=1 . Found potentially symmetry-breaking value of tnons, 
   which is neither a rational fraction in 1/8th nor in 1/12th :
   for the symmetry number   12
   symrel is   0  0 -1  0 -1  0 -1  0  0
   tnons is     2.200000E-01    2.200000E-01    2.200000E-01
   Please, read the description of the input variable chksymbreak,
   then, if you feel confident, you might switch it to zero, or consult with the forum.

 chkinp: WARNING -
   Chksymbreak=1 . Found potentially symmetry-breaking value of tnons, 
   which is neither a rational fraction in 1/8th nor in 1/12th :
   for the symmetry number   12
   symrel is   0  0 -1  0 -1  0 -1  0  0
   tnons is     2.200000E-01    2.200000E-01    2.200000E-01
   Please, read the description of the input variable chksymbreak,
   then, if you feel confident, you might switch it to zero, or consult with the forum.

 chkinp: WARNING -
   Chksymbreak=1 . Found potentially symmetry-breaking value of tnons, 
   which is neither a rational fraction in 1/8th nor in 1/12th :
   for the symmetry number   12
   symrel is   0  0 -1  0 -1  0 -1  0  0
   tnons is     2.200000E-01    2.200000E-01    2.200000E-01
   Please, read the description of the input variable chksymbreak,
   then, if you feel confident, you might switch it to zero, or consult with the forum.

 chkinp: Checking input parameters for consistency, jdtset=   4.

 chkinp: WARNING -
   Chksymbreak=1 . Found potentially symmetry-breaking value of tnons, 
   which is neither a rational fraction in 1/8th nor in 1/12th :
   for the symmetry number    2
   symrel is  -1  0  0  0 -1  0  0  0 -1
   tnons is     2.200000E-01    2.200000E-01    2.200000E-01
   Please, read the description of the input variable chksymbreak,
   then, if you feel confident, you might switch it to zero, or consult with the forum.

 chkinp: WARNING -
   Chksymbreak=1 . Found potentially symmetry-breaking value of tnons, 
   which is neither a rational fraction in 1/8th nor in 1/12th :
   for the symmetry number    2
   symrel is  -1  0  0  0 -1  0  0  0 -1
   tnons is     2.200000E-01    2.200000E-01    2.200000E-01
   Please, read the description of the input variable chksymbreak,
   then, if you feel confident, you might switch it to zero, or consult with the forum.

 chkinp: WARNING -
   Chksymbreak=1 . Found potentially symmetry-breaking value of tnons, 
   which is neither a rational fraction in 1/8th nor in 1/12th :
   for the symmetry number    2
   symrel is  -1  0  0  0 -1  0  0  0 -1
   tnons is     2.200000E-01    2.200000E-01    2.200000E-01
   Please, read the description of the input variable chksymbreak,
   then, if you feel confident, you might switch it to zero, or consult with the forum.

 chkinp: WARNING -
   Chksymbreak=1 . Found potentially symmetry-breaking value of tnons, 
   which is neither a rational fraction in 1/8th nor in 1/12th :
   for the symmetry number    4
   symrel is  -1  0  0  0  0 -1  0 -1  0
   tnons is     2.200000E-01    2.200000E-01    2.200000E-01
   Please, read the description of the input variable chksymbreak,
   then, if you feel confident, you might switch it to zero, or consult with the forum.

 chkinp: WARNING -
   Chksymbreak=1 . Found potentially symmetry-breaking value of tnons, 
   which is neither a rational fraction in 1/8th nor in 1/12th :
   for the symmetry number    4
   symrel is  -1  0  0  0  0 -1  0 -1  0
   tnons is     2.200000E-01    2.200000E-01    2.200000E-01
   Please, read the description of the input variable chksymbreak,
   then, if you feel confident, you might switch it to zero, or consult with the forum.

 chkinp: WARNING -
   Chksymbreak=1 . Found potentially symmetry-breaking value of tnons, 
   which is neither a rational fraction in 1/8th nor in 1/12th :
   for the symmetry number    4
   symrel is  -1  0  0  0  0 -1  0 -1  0
   tnons is     2.200000E-01    2.200000E-01    2.200000E-01
   Please, read the description of the input variable chksymbreak,
   then, if you feel confident, you might switch it to zero, or consult with the forum.

 chkinp: WARNING -
   Chksymbreak=1 . Found potentially symmetry-breaking value of tnons, 
   which is neither a rational fraction in 1/8th nor in 1/12th :
   for the symmetry number    6
   symrel is   0 -1  0  0  0 -1 -1  0  0
   tnons is     2.200000E-01    2.200000E-01    2.200000E-01
   Please, read the description of the input variable chksymbreak,
   then, if you feel confident, you might switch it to zero, or consult with the forum.

 chkinp: WARNING -
   Chksymbreak=1 . Found potentially symmetry-breaking value of tnons, 
   which is neither a rational fraction in 1/8th nor in 1/12th :
   for the symmetry number    6
   symrel is   0 -1  0  0  0 -1 -1  0  0
   tnons is     2.200000E-01    2.200000E-01    2.200000E-01
   Please, read the description of the input variable chksymbreak,
   then, if you feel confident, you might switch it to zero, or consult with the forum.

 chkinp: WARNING -
   Chksymbreak=1 . Found potentially symmetry-breaking value of tnons, 
   which is neither a rational fraction in 1/8th nor in 1/12th :
   for the symmetry number    6
   symrel is   0 -1  0  0  0 -1 -1  0  0
   tnons is     2.200000E-01    2.200000E-01    2.200000E-01
   Please, read the description of the input variable chksymbreak,
   then, if you feel confident, you might switch it to zero, or consult with the forum.

 chkinp: WARNING -
   Chksymbreak=1 . Found potentially symmetry-breaking value of tnons, 
   which is neither a rational fraction in 1/8th nor in 1/12th :
   for the symmetry number    8
   symrel is   0 -1  0 -1  0  0  0  0 -1
   tnons is     2.200000E-01    2.200000E-01    2.200000E-01
   Please, read the description of the input variable chksymbreak,
   then, if you feel confident, you might switch it to zero, or consult with the forum.

 chkinp: WARNING -
   Chksymbreak=1 . Found potentially symmetry-breaking value of tnons, 
   which is neither a rational fraction in 1/8th nor in 1/12th :
   for the symmetry number    8
   symrel is   0 -1  0 -1  0  0  0  0 -1
   tnons is     2.200000E-01    2.200000E-01    2.200000E-01
   Please, read the description of the input variable chksymbreak,
   then, if you feel confident, you might switch it to zero, or consult with the forum.

 chkinp: WARNING -
   Chksymbreak=1 . Found potentially symmetry-breaking value of tnons, 
   which is neither a rational fraction in 1/8th nor in 1/12th :
   for the symmetry number    8
   symrel is   0 -1  0 -1  0  0  0  0 -1
   tnons is     2.200000E-01    2.200000E-01    2.200000E-01
   Please, read the description of the input variable chksymbreak,
   then, if you feel confident, you might switch it to zero, or consult with the forum.

 chkinp: WARNING -
   Chksymbreak=1 . Found potentially symmetry-breaking value of tnons, 
   which is neither a rational fraction in 1/8th nor in 1/12th :
   for the symmetry number   10
   symrel is   0  0 -1 -1  0  0  0 -1  0
   tnons is     2.200000E-01    2.200000E-01    2.200000E-01
   Please, read the description of the input variable chksymbreak,
   then, if you feel confident, you might switch it to zero, or consult with the forum.

 chkinp: WARNING -
   Chksymbreak=1 . Found potentially symmetry-breaking value of tnons, 
   which is neither a rational fraction in 1/8th nor in 1/12th :
   for the symmetry number   10
   symrel is   0  0 -1 -1  0  0  0 -1  0
   tnons is     2.200000E-01    2.200000E-01    2.200000E-01
   Please, read the description of the input variable chksymbreak,
   then, if you feel confident, you might switch it to zero, or consult with the forum.

 chkinp: WARNING -
   Chksymbreak=1 . Found potentially symmetry-breaking value of tnons, 
   which is neither a rational fraction in 1/8th nor in 1/12th :
   for the symmetry number   10
   symrel is   0  0 -1 -1  0  0  0 -1  0
   tnons is     2.200000E-01    2.200000E-01    2.200000E-01
   Please, read the description of the input variable chksymbreak,
   then, if you feel confident, you might switch it to zero, or consult with the forum.

 chkinp: WARNING -
   Chksymbreak=1 . Found potentially symmetry-breaking value of tnons, 
   which is neither a rational fraction in 1/8th nor in 1/12th :
   for the symmetry number   12
   symrel is   0  0 -1  0 -1  0 -1  0  0
   tnons is     2.200000E-01    2.200000E-01    2.200000E-01
   Please, read the description of the input variable chksymbreak,
   then, if you feel confident, you might switch it to zero, or consult with the forum.

 chkinp: WARNING -
   Chksymbreak=1 . Found potentially symmetry-breaking value of tnons, 
   which is neither a rational fraction in 1/8th nor in 1/12th :
   for the symmetry number   12
   symrel is   0  0 -1  0 -1  0 -1  0  0
   tnons is     2.200000E-01    2.200000E-01    2.200000E-01
   Please, read the description of the input variable chksymbreak,
   then, if you feel confident, you might switch it to zero, or consult with the forum.

 chkinp: WARNING -
   Chksymbreak=1 . Found potentially symmetry-breaking value of tnons, 
   which is neither a rational fraction in 1/8th nor in 1/12th :
   for the symmetry number   12
   symrel is   0  0 -1  0 -1  0 -1  0  0
   tnons is     2.200000E-01    2.200000E-01    2.200000E-01
   Please, read the description of the input variable chksymbreak,
   then, if you feel confident, you might switch it to zero, or consult with the forum.

 chkinp: Checking input parameters for consistency, jdtset=   5.

 chkinp: WARNING -
   Chksymbreak=1 . Found potentially symmetry-breaking value of tnons, 
   which is neither a rational fraction in 1/8th nor in 1/12th :
   for the symmetry number    2
   symrel is  -1  0  0  0 -1  0  0  0 -1
   tnons is     2.200000E-01    2.200000E-01    2.200000E-01
   Please, read the description of the input variable chksymbreak,
   then, if you feel confident, you might switch it to zero, or consult with the forum.

 chkinp: WARNING -
   Chksymbreak=1 . Found potentially symmetry-breaking value of tnons, 
   which is neither a rational fraction in 1/8th nor in 1/12th :
   for the symmetry number    2
   symrel is  -1  0  0  0 -1  0  0  0 -1
   tnons is     2.200000E-01    2.200000E-01    2.200000E-01
   Please, read the description of the input variable chksymbreak,
   then, if you feel confident, you might switch it to zero, or consult with the forum.

 chkinp: WARNING -
   Chksymbreak=1 . Found potentially symmetry-breaking value of tnons, 
   which is neither a rational fraction in 1/8th nor in 1/12th :
   for the symmetry number    2
   symrel is  -1  0  0  0 -1  0  0  0 -1
   tnons is     2.200000E-01    2.200000E-01    2.200000E-01
   Please, read the description of the input variable chksymbreak,
   then, if you feel confident, you might switch it to zero, or consult with the forum.

 chkinp: WARNING -
   Chksymbreak=1 . Found potentially symmetry-breaking value of tnons, 
   which is neither a rational fraction in 1/8th nor in 1/12th :
   for the symmetry number    4
   symrel is  -1  0  0  0  0 -1  0 -1  0
   tnons is     2.200000E-01    2.200000E-01    2.200000E-01
   Please, read the description of the input variable chksymbreak,
   then, if you feel confident, you might switch it to zero, or consult with the forum.

 chkinp: WARNING -
   Chksymbreak=1 . Found potentially symmetry-breaking value of tnons, 
   which is neither a rational fraction in 1/8th nor in 1/12th :
   for the symmetry number    4
   symrel is  -1  0  0  0  0 -1  0 -1  0
   tnons is     2.200000E-01    2.200000E-01    2.200000E-01
   Please, read the description of the input variable chksymbreak,
   then, if you feel confident, you might switch it to zero, or consult with the forum.

 chkinp: WARNING -
   Chksymbreak=1 . Found potentially symmetry-breaking value of tnons, 
   which is neither a rational fraction in 1/8th nor in 1/12th :
   for the symmetry number    4
   symrel is  -1  0  0  0  0 -1  0 -1  0
   tnons is     2.200000E-01    2.200000E-01    2.200000E-01
   Please, read the description of the input variable chksymbreak,
   then, if you feel confident, you might switch it to zero, or consult with the forum.

 chkinp: WARNING -
   Chksymbreak=1 . Found potentially symmetry-breaking value of tnons, 
   which is neither a rational fraction in 1/8th nor in 1/12th :
   for the symmetry number    6
   symrel is   0 -1  0  0  0 -1 -1  0  0
   tnons is     2.200000E-01    2.200000E-01    2.200000E-01
   Please, read the description of the input variable chksymbreak,
   then, if you feel confident, you might switch it to zero, or consult with the forum.

 chkinp: WARNING -
   Chksymbreak=1 . Found potentially symmetry-breaking value of tnons, 
   which is neither a rational fraction in 1/8th nor in 1/12th :
   for the symmetry number    6
   symrel is   0 -1  0  0  0 -1 -1  0  0
   tnons is     2.200000E-01    2.200000E-01    2.200000E-01
   Please, read the description of the input variable chksymbreak,
   then, if you feel confident, you might switch it to zero, or consult with the forum.

 chkinp: WARNING -
   Chksymbreak=1 . Found potentially symmetry-breaking value of tnons, 
   which is neither a rational fraction in 1/8th nor in 1/12th :
   for the symmetry number    6
   symrel is   0 -1  0  0  0 -1 -1  0  0
   tnons is     2.200000E-01    2.200000E-01    2.200000E-01
   Please, read the description of the input variable chksymbreak,
   then, if you feel confident, you might switch it to zero, or consult with the forum.

 chkinp: WARNING -
   Chksymbreak=1 . Found potentially symmetry-breaking value of tnons, 
   which is neither a rational fraction in 1/8th nor in 1/12th :
   for the symmetry number    8
   symrel is   0 -1  0 -1  0  0  0  0 -1
   tnons is     2.200000E-01    2.200000E-01    2.200000E-01
   Please, read the description of the input variable chksymbreak,
   then, if you feel confident, you might switch it to zero, or consult with the forum.

 chkinp: WARNING -
   Chksymbreak=1 . Found potentially symmetry-breaking value of tnons, 
   which is neither a rational fraction in 1/8th nor in 1/12th :
   for the symmetry number    8
   symrel is   0 -1  0 -1  0  0  0  0 -1
   tnons is     2.200000E-01    2.200000E-01    2.200000E-01
   Please, read the description of the input variable chksymbreak,
   then, if you feel confident, you might switch it to zero, or consult with the forum.

 chkinp: WARNING -
   Chksymbreak=1 . Found potentially symmetry-breaking value of tnons, 
   which is neither a rational fraction in 1/8th nor in 1/12th :
   for the symmetry number    8
   symrel is   0 -1  0 -1  0  0  0  0 -1
   tnons is     2.200000E-01    2.200000E-01    2.200000E-01
   Please, read the description of the input variable chksymbreak,
   then, if you feel confident, you might switch it to zero, or consult with the forum.

 chkinp: WARNING -
   Chksymbreak=1 . Found potentially symmetry-breaking value of tnons, 
   which is neither a rational fraction in 1/8th nor in 1/12th :
   for the symmetry number   10
   symrel is   0  0 -1 -1  0  0  0 -1  0
   tnons is     2.200000E-01    2.200000E-01    2.200000E-01
   Please, read the description of the input variable chksymbreak,
   then, if you feel confident, you might switch it to zero, or consult with the forum.

 chkinp: WARNING -
   Chksymbreak=1 . Found potentially symmetry-breaking value of tnons, 
   which is neither a rational fraction in 1/8th nor in 1/12th :
   for the symmetry number   10
   symrel is   0  0 -1 -1  0  0  0 -1  0
   tnons is     2.200000E-01    2.200000E-01    2.200000E-01
   Please, read the description of the input variable chksymbreak,
   then, if you feel confident, you might switch it to zero, or consult with the forum.

 chkinp: WARNING -
   Chksymbreak=1 . Found potentially symmetry-breaking value of tnons, 
   which is neither a rational fraction in 1/8th nor in 1/12th :
   for the symmetry number   10
   symrel is   0  0 -1 -1  0  0  0 -1  0
   tnons is     2.200000E-01    2.200000E-01    2.200000E-01
   Please, read the description of the input variable chksymbreak,
   then, if you feel confident, you might switch it to zero, or consult with the forum.

 chkinp: WARNING -
   Chksymbreak=1 . Found potentially symmetry-breaking value of tnons, 
   which is neither a rational fraction in 1/8th nor in 1/12th :
   for the symmetry number   12
   symrel is   0  0 -1  0 -1  0 -1  0  0
   tnons is     2.200000E-01    2.200000E-01    2.200000E-01
   Please, read the description of the input variable chksymbreak,
   then, if you feel confident, you might switch it to zero, or consult with the forum.

 chkinp: WARNING -
   Chksymbreak=1 . Found potentially symmetry-breaking value of tnons, 
   which is neither a rational fraction in 1/8th nor in 1/12th :
   for the symmetry number   12
   symrel is   0  0 -1  0 -1  0 -1  0  0
   tnons is     2.200000E-01    2.200000E-01    2.200000E-01
   Please, read the description of the input variable chksymbreak,
   then, if you feel confident, you might switch it to zero, or consult with the forum.

 chkinp: WARNING -
   Chksymbreak=1 . Found potentially symmetry-breaking value of tnons, 
   which is neither a rational fraction in 1/8th nor in 1/12th :
   for the symmetry number   12
   symrel is   0  0 -1  0 -1  0 -1  0  0
   tnons is     2.200000E-01    2.200000E-01    2.200000E-01
   Please, read the description of the input variable chksymbreak,
   then, if you feel confident, you might switch it to zero, or consult with the forum.

 chkinp: Checking input parameters for consistency, jdtset=   6.

 chkinp: WARNING -
   Chksymbreak=1 . Found potentially symmetry-breaking value of tnons, 
   which is neither a rational fraction in 1/8th nor in 1/12th :
   for the symmetry number    2
   symrel is  -1  0  0  0 -1  0  0  0 -1
   tnons is     2.200000E-01    2.200000E-01    2.200000E-01
   Please, read the description of the input variable chksymbreak,
   then, if you feel confident, you might switch it to zero, or consult with the forum.

 chkinp: WARNING -
   Chksymbreak=1 . Found potentially symmetry-breaking value of tnons, 
   which is neither a rational fraction in 1/8th nor in 1/12th :
   for the symmetry number    2
   symrel is  -1  0  0  0 -1  0  0  0 -1
   tnons is     2.200000E-01    2.200000E-01    2.200000E-01
   Please, read the description of the input variable chksymbreak,
   then, if you feel confident, you might switch it to zero, or consult with the forum.

 chkinp: WARNING -
   Chksymbreak=1 . Found potentially symmetry-breaking value of tnons, 
   which is neither a rational fraction in 1/8th nor in 1/12th :
   for the symmetry number    2
   symrel is  -1  0  0  0 -1  0  0  0 -1
   tnons is     2.200000E-01    2.200000E-01    2.200000E-01
   Please, read the description of the input variable chksymbreak,
   then, if you feel confident, you might switch it to zero, or consult with the forum.

 chkinp: WARNING -
   Chksymbreak=1 . Found potentially symmetry-breaking value of tnons, 
   which is neither a rational fraction in 1/8th nor in 1/12th :
   for the symmetry number    4
   symrel is  -1  0  0  0  0 -1  0 -1  0
   tnons is     2.200000E-01    2.200000E-01    2.200000E-01
   Please, read the description of the input variable chksymbreak,
   then, if you feel confident, you might switch it to zero, or consult with the forum.

 chkinp: WARNING -
   Chksymbreak=1 . Found potentially symmetry-breaking value of tnons, 
   which is neither a rational fraction in 1/8th nor in 1/12th :
   for the symmetry number    4
   symrel is  -1  0  0  0  0 -1  0 -1  0
   tnons is     2.200000E-01    2.200000E-01    2.200000E-01
   Please, read the description of the input variable chksymbreak,
   then, if you feel confident, you might switch it to zero, or consult with the forum.

 chkinp: WARNING -
   Chksymbreak=1 . Found potentially symmetry-breaking value of tnons, 
   which is neither a rational fraction in 1/8th nor in 1/12th :
   for the symmetry number    4
   symrel is  -1  0  0  0  0 -1  0 -1  0
   tnons is     2.200000E-01    2.200000E-01    2.200000E-01
   Please, read the description of the input variable chksymbreak,
   then, if you feel confident, you might switch it to zero, or consult with the forum.

 chkinp: WARNING -
   Chksymbreak=1 . Found potentially symmetry-breaking value of tnons, 
   which is neither a rational fraction in 1/8th nor in 1/12th :
   for the symmetry number    6
   symrel is   0 -1  0  0  0 -1 -1  0  0
   tnons is     2.200000E-01    2.200000E-01    2.200000E-01
   Please, read the description of the input variable chksymbreak,
   then, if you feel confident, you might switch it to zero, or consult with the forum.

 chkinp: WARNING -
   Chksymbreak=1 . Found potentially symmetry-breaking value of tnons, 
   which is neither a rational fraction in 1/8th nor in 1/12th :
   for the symmetry number    6
   symrel is   0 -1  0  0  0 -1 -1  0  0
   tnons is     2.200000E-01    2.200000E-01    2.200000E-01
   Please, read the description of the input variable chksymbreak,
   then, if you feel confident, you might switch it to zero, or consult with the forum.

 chkinp: WARNING -
   Chksymbreak=1 . Found potentially symmetry-breaking value of tnons, 
   which is neither a rational fraction in 1/8th nor in 1/12th :
   for the symmetry number    6
   symrel is   0 -1  0  0  0 -1 -1  0  0
   tnons is     2.200000E-01    2.200000E-01    2.200000E-01
   Please, read the description of the input variable chksymbreak,
   then, if you feel confident, you might switch it to zero, or consult with the forum.

 chkinp: WARNING -
   Chksymbreak=1 . Found potentially symmetry-breaking value of tnons, 
   which is neither a rational fraction in 1/8th nor in 1/12th :
   for the symmetry number    8
   symrel is   0 -1  0 -1  0  0  0  0 -1
   tnons is     2.200000E-01    2.200000E-01    2.200000E-01
   Please, read the description of the input variable chksymbreak,
   then, if you feel confident, you might switch it to zero, or consult with the forum.

 chkinp: WARNING -
   Chksymbreak=1 . Found potentially symmetry-breaking value of tnons, 
   which is neither a rational fraction in 1/8th nor in 1/12th :
   for the symmetry number    8
   symrel is   0 -1  0 -1  0  0  0  0 -1
   tnons is     2.200000E-01    2.200000E-01    2.200000E-01
   Please, read the description of the input variable chksymbreak,
   then, if you feel confident, you might switch it to zero, or consult with the forum.

 chkinp: WARNING -
   Chksymbreak=1 . Found potentially symmetry-breaking value of tnons, 
   which is neither a rational fraction in 1/8th nor in 1/12th :
   for the symmetry number    8
   symrel is   0 -1  0 -1  0  0  0  0 -1
   tnons is     2.200000E-01    2.200000E-01    2.200000E-01
   Please, read the description of the input variable chksymbreak,
   then, if you feel confident, you might switch it to zero, or consult with the forum.

 chkinp: WARNING -
   Chksymbreak=1 . Found potentially symmetry-breaking value of tnons, 
   which is neither a rational fraction in 1/8th nor in 1/12th :
   for the symmetry number   10
   symrel is   0  0 -1 -1  0  0  0 -1  0
   tnons is     2.200000E-01    2.200000E-01    2.200000E-01
   Please, read the description of the input variable chksymbreak,
   then, if you feel confident, you might switch it to zero, or consult with the forum.

 chkinp: WARNING -
   Chksymbreak=1 . Found potentially symmetry-breaking value of tnons, 
   which is neither a rational fraction in 1/8th nor in 1/12th :
   for the symmetry number   10
   symrel is   0  0 -1 -1  0  0  0 -1  0
   tnons is     2.200000E-01    2.200000E-01    2.200000E-01
   Please, read the description of the input variable chksymbreak,
   then, if you feel confident, you might switch it to zero, or consult with the forum.

 chkinp: WARNING -
   Chksymbreak=1 . Found potentially symmetry-breaking value of tnons, 
   which is neither a rational fraction in 1/8th nor in 1/12th :
   for the symmetry number   10
   symrel is   0  0 -1 -1  0  0  0 -1  0
   tnons is     2.200000E-01    2.200000E-01    2.200000E-01
   Please, read the description of the input variable chksymbreak,
   then, if you feel confident, you might switch it to zero, or consult with the forum.

 chkinp: WARNING -
   Chksymbreak=1 . Found potentially symmetry-breaking value of tnons, 
   which is neither a rational fraction in 1/8th nor in 1/12th :
   for the symmetry number   12
   symrel is   0  0 -1  0 -1  0 -1  0  0
   tnons is     2.200000E-01    2.200000E-01    2.200000E-01
   Please, read the description of the input variable chksymbreak,
   then, if you feel confident, you might switch it to zero, or consult with the forum.

 chkinp: WARNING -
   Chksymbreak=1 . Found potentially symmetry-breaking value of tnons, 
   which is neither a rational fraction in 1/8th nor in 1/12th :
   for the symmetry number   12
   symrel is   0  0 -1  0 -1  0 -1  0  0
   tnons is     2.200000E-01    2.200000E-01    2.200000E-01
   Please, read the description of the input variable chksymbreak,
   then, if you feel confident, you might switch it to zero, or consult with the forum.

 chkinp: WARNING -
   Chksymbreak=1 . Found potentially symmetry-breaking value of tnons, 
   which is neither a rational fraction in 1/8th nor in 1/12th :
   for the symmetry number   12
   symrel is   0  0 -1  0 -1  0 -1  0  0
   tnons is     2.200000E-01    2.200000E-01    2.200000E-01
   Please, read the description of the input variable chksymbreak,
   then, if you feel confident, you might switch it to zero, or consult with the forum.

 chkinp: Checking input parameters for consistency, jdtset=   7.

 chkinp: WARNING -
   Chksymbreak=1 . Found potentially symmetry-breaking value of tnons, 
   which is neither a rational fraction in 1/8th nor in 1/12th :
   for the symmetry number    2
   symrel is  -1  0  0  0 -1  0  0  0 -1
   tnons is     2.200000E-01    2.200000E-01    2.200000E-01
   Please, read the description of the input variable chksymbreak,
   then, if you feel confident, you might switch it to zero, or consult with the forum.

 chkinp: WARNING -
   Chksymbreak=1 . Found potentially symmetry-breaking value of tnons, 
   which is neither a rational fraction in 1/8th nor in 1/12th :
   for the symmetry number    2
   symrel is  -1  0  0  0 -1  0  0  0 -1
   tnons is     2.200000E-01    2.200000E-01    2.200000E-01
   Please, read the description of the input variable chksymbreak,
   then, if you feel confident, you might switch it to zero, or consult with the forum.

 chkinp: WARNING -
   Chksymbreak=1 . Found potentially symmetry-breaking value of tnons, 
   which is neither a rational fraction in 1/8th nor in 1/12th :
   for the symmetry number    2
   symrel is  -1  0  0  0 -1  0  0  0 -1
   tnons is     2.200000E-01    2.200000E-01    2.200000E-01
   Please, read the description of the input variable chksymbreak,
   then, if you feel confident, you might switch it to zero, or consult with the forum.

 chkinp: WARNING -
   Chksymbreak=1 . Found potentially symmetry-breaking value of tnons, 
   which is neither a rational fraction in 1/8th nor in 1/12th :
   for the symmetry number    4
   symrel is  -1  0  0  0  0 -1  0 -1  0
   tnons is     2.200000E-01    2.200000E-01    2.200000E-01
   Please, read the description of the input variable chksymbreak,
   then, if you feel confident, you might switch it to zero, or consult with the forum.

 chkinp: WARNING -
   Chksymbreak=1 . Found potentially symmetry-breaking value of tnons, 
   which is neither a rational fraction in 1/8th nor in 1/12th :
   for the symmetry number    4
   symrel is  -1  0  0  0  0 -1  0 -1  0
   tnons is     2.200000E-01    2.200000E-01    2.200000E-01
   Please, read the description of the input variable chksymbreak,
   then, if you feel confident, you might switch it to zero, or consult with the forum.

 chkinp: WARNING -
   Chksymbreak=1 . Found potentially symmetry-breaking value of tnons, 
   which is neither a rational fraction in 1/8th nor in 1/12th :
   for the symmetry number    4
   symrel is  -1  0  0  0  0 -1  0 -1  0
   tnons is     2.200000E-01    2.200000E-01    2.200000E-01
   Please, read the description of the input variable chksymbreak,
   then, if you feel confident, you might switch it to zero, or consult with the forum.

 chkinp: WARNING -
   Chksymbreak=1 . Found potentially symmetry-breaking value of tnons, 
   which is neither a rational fraction in 1/8th nor in 1/12th :
   for the symmetry number    6
   symrel is   0 -1  0  0  0 -1 -1  0  0
   tnons is     2.200000E-01    2.200000E-01    2.200000E-01
   Please, read the description of the input variable chksymbreak,
   then, if you feel confident, you might switch it to zero, or consult with the forum.

 chkinp: WARNING -
[...]
            nband3         12
            nband4         12
            nband5         12
            nband6         12
            nband7         12
            nband8         12
            nband9         12
           ndtset           9
            ngfft          18      18      18
          ngfftdg          36      36      36
             nkpt1          1
             nkpt2          1
             nkpt3          5
             nkpt4          5
             nkpt5          1
             nkpt6          1
             nkpt7          5
             nkpt8          5
             nkpt9          1
            nline           1
-          npband1          2
-          npband2          2
-          npband3          1
-          npband4          1
-          npband5          2
-          npband6          2
-          npband7          1
-          npband8          1
-          npband9          1
-           npfft           2
-           npkpt1          1
-           npkpt2          1
-           npkpt3          2
-           npkpt4          2
-           npkpt5          1
-           npkpt6          1
-           npkpt7          2
-           npkpt8          2
-           npkpt9          2
           nspden1          1
           nspden2          1
           nspden3          1
           nspden4          1
           nspden5          1
           nspden6          1
           nspden7          1
           nspden8          1
           nspden9          2
           nsppol1          1
           nsppol2          1
           nsppol3          1
           nsppol4          1
           nsppol5          1
           nsppol6          1
           nsppol7          1
           nsppol8          1
           nsppol9          2
            nstep           5
             nsym          12
            ntime1          1
            ntime2          1
            ntime3          1
            ntime4          1
            ntime5          3
            ntime6          3
            ntime7          3
            ntime8          3
            ntime9          1
           ntypat           1
              occ1     2.000000  2.000000  2.000000  2.000000  0.000000  0.000000
                       0.000000  0.000000  0.000000  0.000000  0.000000  0.000000
              occ2     2.000000  2.000000  2.000000  2.000000  0.000000  0.000000
                       0.000000  0.000000  0.000000  0.000000  0.000000  0.000000
              occ3     2.000000  2.000000  2.000000  2.000000  0.000000  0.000000
                       0.000000  0.000000  0.000000  0.000000  0.000000  0.000000
              occ4     2.000000  2.000000  2.000000  2.000000  0.000000  0.000000
                       0.000000  0.000000  0.000000  0.000000  0.000000  0.000000
                       2.000000  2.000000  2.000000  2.000000  0.000000  0.000000
                       0.000000  0.000000  0.000000  0.000000  0.000000  0.000000
                       2.000000  2.000000  2.000000  2.000000  0.000000  0.000000
                       0.000000  0.000000  0.000000  0.000000  0.000000  0.000000
                       2.000000  2.000000  2.000000  2.000000  0.000000  0.000000
                       0.000000  0.000000  0.000000  0.000000  0.000000  0.000000
                       2.000000  2.000000  2.000000  2.000000  0.000000  0.000000
                       0.000000  0.000000  0.000000  0.000000  0.000000  0.000000
              occ5     2.000000  2.000000  2.000000  2.000000  0.000000  0.000000
                       0.000000  0.000000  0.000000  0.000000  0.000000  0.000000
              occ6     2.000000  2.000000  2.000000  2.000000  0.000000  0.000000
                       0.000000  0.000000  0.000000  0.000000  0.000000  0.000000
              occ7     2.000000  2.000000  2.000000  2.000000  0.000000  0.000000
                       0.000000  0.000000  0.000000  0.000000  0.000000  0.000000
              occ8     2.000000  2.000000  2.000000  2.000000  0.000000  0.000000
                       0.000000  0.000000  0.000000  0.000000  0.000000  0.000000
                       2.000000  2.000000  2.000000  2.000000  0.000000  0.000000
                       0.000000  0.000000  0.000000  0.000000  0.000000  0.000000
                       2.000000  2.000000  2.000000  2.000000  0.000000  0.000000
                       0.000000  0.000000  0.000000  0.000000  0.000000  0.000000
                       2.000000  2.000000  2.000000  2.000000  0.000000  0.000000
                       0.000000  0.000000  0.000000  0.000000  0.000000  0.000000
                       2.000000  2.000000  2.000000  2.000000  0.000000  0.000000
                       0.000000  0.000000  0.000000  0.000000  0.000000  0.000000
              occ9     1.000000  1.000000  1.000000  1.000000  0.000000  0.000000
                       0.000000  0.000000  0.000000  0.000000  0.000000  0.000000
                       1.000000  1.000000  1.000000  1.000000  0.000000  0.000000
                       0.000000  0.000000  0.000000  0.000000  0.000000  0.000000
           occopt1          0
           occopt2          7
           occopt3          0
           occopt4          7
           occopt5          0
           occopt6          7
           occopt7          0
           occopt8          7
           occopt9          1
          optcell1          0
          optcell2          0
          optcell3          0
          optcell4          0
          optcell5          0
          optcell6          0
          optcell7          1
          optcell8          1
          optcell9          0
        optforces1          2
        optforces2          2
        optforces3          2
        optforces4          2
        optforces5          1
        optforces6          1
        optforces7          1
        optforces8          1
        optforces9          2
        paral_kgb           1
        pawecutdg      5.00000000E+01 Hartree
         pawmixdg           1
            rprim      0.0000000000E+00  5.0000000000E-01  5.0000000000E-01
                       5.0000000000E-01  0.0000000000E+00  5.0000000000E-01
                       5.0000000000E-01  5.0000000000E-01  0.0000000000E+00
           shiftk      5.00000000E-01  5.00000000E-01  5.00000000E-01
          spgroup         166
   spinmagntarget1    -9.99900000E+01
   spinmagntarget2    -9.99900000E+01
   spinmagntarget3    -9.99900000E+01
   spinmagntarget4    -9.99900000E+01
   spinmagntarget5    -9.99900000E+01
   spinmagntarget6    -9.99900000E+01
   spinmagntarget7    -9.99900000E+01
   spinmagntarget8    -9.99900000E+01
   spinmagntarget9     0.00000000E+00
           strten1    -8.1786913954E-03 -8.1786913954E-03 -8.1786913954E-03
                      -1.7448597173E-03 -1.7448597173E-03 -1.7448597173E-03
           strten2    -8.1786913954E-03 -8.1786913954E-03 -8.1786913954E-03
                      -1.7448597173E-03 -1.7448597173E-03 -1.7448597173E-03
           strten3     1.2250362366E-03  1.2250362366E-03  1.2250362366E-03
                      -1.4932151938E-04 -1.4932151938E-04 -1.4932151938E-04
           strten4     1.2250362366E-03  1.2250362366E-03  1.2250362366E-03
                      -1.4932151938E-04 -1.4932151938E-04 -1.4932151938E-04
           strten5    -6.2266456251E-03 -6.2266456251E-03 -6.2266456251E-03
                      -4.6554811566E-03 -4.6554811566E-03 -4.6554811566E-03
           strten6    -6.2048953838E-03 -6.2048953838E-03 -6.2048953838E-03
                      -4.6553292813E-03 -4.6553292813E-03 -4.6553292813E-03
           strten7    -6.6241929595E-05 -6.6241929595E-05 -6.6241929595E-05
                      -6.0349708660E-06 -6.0349708660E-06 -6.0349708660E-06
           strten8    -6.6241929595E-05 -6.6241929595E-05 -6.6241929595E-05
                      -6.0349708660E-06 -6.0349708660E-06 -6.0349708660E-06
           strten9    -8.1574562432E-03 -8.1574562432E-03 -8.1574562432E-03
                      -1.7450550810E-03 -1.7450550810E-03 -1.7450550810E-03
           symrel      1  0  0   0  1  0   0  0  1      -1  0  0   0 -1  0   0  0 -1
                       1  0  0   0  0  1   0  1  0      -1  0  0   0  0 -1   0 -1  0
                       0  1  0   0  0  1   1  0  0       0 -1  0   0  0 -1  -1  0  0
                       0  1  0   1  0  0   0  0  1       0 -1  0  -1  0  0   0  0 -1
                       0  0  1   1  0  0   0  1  0       0  0 -1  -1  0  0   0 -1  0
                       0  0  1   0  1  0   1  0  0       0  0 -1   0 -1  0  -1  0  0
            tnons      0.0000000  0.0000000  0.0000000     0.2200000  0.2200000  0.2200000
                       0.0000000  0.0000000  0.0000000     0.2200000  0.2200000  0.2200000
                       0.0000000  0.0000000  0.0000000     0.2200000  0.2200000  0.2200000
                       0.0000000  0.0000000  0.0000000     0.2200000  0.2200000  0.2200000
                       0.0000000  0.0000000  0.0000000     0.2200000  0.2200000  0.2200000
                       0.0000000  0.0000000  0.0000000     0.2200000  0.2200000  0.2200000
           toldfe1     1.00000000E-10 Hartree
           toldfe2     1.00000000E-10 Hartree
           toldfe3     1.00000000E-10 Hartree
           toldfe4     1.00000000E-10 Hartree
           toldfe5     0.00000000E+00 Hartree
           toldfe6     0.00000000E+00 Hartree
           toldfe7     0.00000000E+00 Hartree
           toldfe8     0.00000000E+00 Hartree
           toldfe9     1.00000000E-10 Hartree
           toldff1     0.00000000E+00
           toldff2     0.00000000E+00
           toldff3     0.00000000E+00
           toldff4     0.00000000E+00
           toldff5     1.00000000E-06
           toldff6     1.00000000E-06
           toldff7     1.00000000E-07
           toldff8     1.00000000E-07
           toldff9     0.00000000E+00
           tolmxf1     5.00000000E-05
           tolmxf2     5.00000000E-05
           tolmxf3     5.00000000E-05
           tolmxf4     5.00000000E-05
           tolmxf5     1.00000000E-05
           tolmxf6     1.00000000E-05
           tolmxf7     1.00000000E-05
           tolmxf8     1.00000000E-05
           tolmxf9     5.00000000E-05
           tsmear1     1.00000000E-02 Hartree
           tsmear2     1.00000000E-03 Hartree
           tsmear3     1.00000000E-02 Hartree
           tsmear4     1.00000000E-03 Hartree
           tsmear5     1.00000000E-02 Hartree
           tsmear6     1.00000000E-03 Hartree
           tsmear7     1.00000000E-02 Hartree
           tsmear8     1.00000000E-03 Hartree
           tsmear9     1.00000000E-02 Hartree
            typat      1  1
           useylm           1
         wfoptalg          14
              wtk1       1.00000
              wtk2       1.00000
              wtk3       0.37500    0.18750    0.18750    0.18750    0.06250
              wtk4       0.37500    0.18750    0.18750    0.18750    0.06250
              wtk5       1.00000
              wtk6       1.00000
              wtk7       0.37500    0.18750    0.18750    0.18750    0.06250
              wtk8       0.37500    0.18750    0.18750    0.18750    0.06250
              wtk9       1.00000
           xangst1     0.0000000000E+00  0.0000000000E+00  0.0000000000E+00
                       8.1493290123E-01  8.1493290123E-01  8.1493290123E-01
           xangst2     0.0000000000E+00  0.0000000000E+00  0.0000000000E+00
                       8.1493290123E-01  8.1493290123E-01  8.1493290123E-01
           xangst3     0.0000000000E+00  0.0000000000E+00  0.0000000000E+00
                       8.1493290123E-01  8.1493290123E-01  8.1493290123E-01
           xangst4     0.0000000000E+00  0.0000000000E+00  0.0000000000E+00
                       8.1493290123E-01  8.1493290123E-01  8.1493290123E-01
           xangst5    -3.1169648546E-01 -3.1169648546E-01 -3.1169648546E-01
                       1.1266293867E+00  1.1266293867E+00  1.1266293867E+00
           xangst6    -3.1154322592E-01 -3.1154322592E-01 -3.1154322592E-01
                       1.1264761271E+00  1.1264761271E+00  1.1264761271E+00
           xangst7    -5.1696984469E-02 -5.1696984469E-02 -5.1696984469E-02
                       8.3052762058E-01  8.3052762058E-01  8.3052762058E-01
           xangst8    -5.1696984469E-02 -5.1696984469E-02 -5.1696984469E-02
                       8.3052762058E-01  8.3052762058E-01  8.3052762058E-01
           xangst9     0.0000000000E+00  0.0000000000E+00  0.0000000000E+00
                       8.1493290123E-01  8.1493290123E-01  8.1493290123E-01
            xcart1     0.0000000000E+00  0.0000000000E+00  0.0000000000E+00
                       1.5400000000E+00  1.5400000000E+00  1.5400000000E+00
            xcart2     0.0000000000E+00  0.0000000000E+00  0.0000000000E+00
                       1.5400000000E+00  1.5400000000E+00  1.5400000000E+00
            xcart3     0.0000000000E+00  0.0000000000E+00  0.0000000000E+00
                       1.5400000000E+00  1.5400000000E+00  1.5400000000E+00
            xcart4     0.0000000000E+00  0.0000000000E+00  0.0000000000E+00
                       1.5400000000E+00  1.5400000000E+00  1.5400000000E+00
            xcart5    -5.8902099410E-01 -5.8902099410E-01 -5.8902099410E-01
                       2.1290209941E+00  2.1290209941E+00  2.1290209941E+00
            xcart6    -5.8873137554E-01 -5.8873137554E-01 -5.8873137554E-01
                       2.1287313755E+00  2.1287313755E+00  2.1287313755E+00
            xcart7    -9.7693142542E-02 -9.7693142542E-02 -9.7693142542E-02
                       1.5694697487E+00  1.5694697487E+00  1.5694697487E+00
            xcart8    -9.7693142542E-02 -9.7693142542E-02 -9.7693142542E-02
                       1.5694697487E+00  1.5694697487E+00  1.5694697487E+00
            xcart9     0.0000000000E+00  0.0000000000E+00  0.0000000000E+00
                       1.5400000000E+00  1.5400000000E+00  1.5400000000E+00
             xred1     0.0000000000E+00  0.0000000000E+00  0.0000000000E+00
                       2.2000000000E-01  2.2000000000E-01  2.2000000000E-01
             xred2     0.0000000000E+00  0.0000000000E+00  0.0000000000E+00
                       2.2000000000E-01  2.2000000000E-01  2.2000000000E-01
             xred3     0.0000000000E+00  0.0000000000E+00  0.0000000000E+00
                       2.2000000000E-01  2.2000000000E-01  2.2000000000E-01
             xred4     0.0000000000E+00  0.0000000000E+00  0.0000000000E+00
                       2.2000000000E-01  2.2000000000E-01  2.2000000000E-01
             xred5    -8.4145856300E-02 -8.4145856300E-02 -8.4145856300E-02
                       3.0414585630E-01  3.0414585630E-01  3.0414585630E-01
             xred6    -8.4104482220E-02 -8.4104482220E-02 -8.4104482220E-02
                       3.0410448222E-01  3.0410448222E-01  3.0410448222E-01
             xred7    -1.4603093479E-02 -1.4603093479E-02 -1.4603093479E-02
                       2.3460309348E-01  2.3460309348E-01  2.3460309348E-01
             xred8    -1.4603093479E-02 -1.4603093479E-02 -1.4603093479E-02
                       2.3460309348E-01  2.3460309348E-01  2.3460309348E-01
             xred9     0.0000000000E+00  0.0000000000E+00  0.0000000000E+00
                       2.2000000000E-01  2.2000000000E-01  2.2000000000E-01
            znucl        6.00000

================================================================================


- Timing analysis has been suppressed with timopt=0



================================================================================

 Suggested references for the acknowledgment of ABINIT usage.

 The users of ABINIT have little formal obligations with respect to the ABINIT group
 (those specified in the GNU General Public License, http://www.gnu.org/copyleft/gpl.txt).
 However, it is common practice in the scientific literature,
 to acknowledge the efforts of people that have made the research possible.
 In this spirit, please find below suggested citations of work written by ABINIT developers,
 corresponding to implementations inside of ABINIT that you have used in the present run.
 Note also that it will be of great value to readers of publications presenting these results,
 to read papers enabling them to understand the theoretical formalism and details
 of the ABINIT implementation.
 For information on why they are suggested, see also http://www.abinit.org/about/?text=acknowledgments.
-
- [1] Implementation of the Projector Augmented-Wave Method in the ABINIT code.
- M. Torrent, F. Jollet, F. Bottin, G. Zerah, and X. Gonze Comput. Mat. Science 42, 337, (2008).
- Comment : PAW calculations. Strong suggestion to cite this paper.
-
- [2] Large scale ab initio calculations based on three levels of parallelization
- F. Bottin, S. Leroux, A. Knyazev, G. Zerah, Comput. Mat. Science 42, 329, (2008).
- Comment : in case LOBPCG algorithm is used (wfoptalg=4/14).
- Strong suggestion to cite this paper in your publications.
- This paper is also available at http://www.arxiv.org/abs/0707.3405
-
- [3] Recent developments in the ABINIT software package.
- Computer Phys. Comm. 205, 106 (2016).
- X.Gonze, F.Jollet, F.Abreu Araujo, D.Adams, B.Amadon, T.Applencourt,
- C.Audouze, J.-M.Beuken, J.Bieder, A.Bokhanchuk, E.Bousquet, F.Bruneval
- D.Caliste, M.Cote, F.Dahm, F.Da Pieve, M.Delaveau, M.Di Gennaro,
- B.Dorado, C.Espejo, G.Geneste, L.Genovese, A.Gerossier, M.Giantomassi,
- Y.Gillet, D.R.Hamann, L.He, G.Jomard, J.Laflamme Janssen, S.Le Roux,
- A.Levitt, A.Lherbier, F.Liu, I.Lukacevic, A.Martin, C.Martins,
- M.J.T.Oliveira, S.Ponce, Y.Pouillon, T.Rangel, G.-M.Rignanese,
- A.H.Romero, B.Rousseau, O.Rubel, A.A.Shukri, M.Stankovski, M.Torrent,
- M.J.Van Setten, B.Van Troeye, M.J.Verstraete, D.Waroquier, J.Wiktor,
- B.Xue, A.Zhou, J.W.Zwanziger.
- Comment : the fourth generic paper describing the ABINIT project.
- Note that a version of this paper, that is not formatted for Computer Phys. Comm. 
- is available at http://www.abinit.org/about/ABINIT16.pdf .
- The licence allows the authors to put it on the Web.
-
- [4] ABINIT : First-principles approach of materials and nanosystem properties.
- Computer Phys. Comm. 180, 2582-2615 (2009).
- X. Gonze, B. Amadon, P.-M. Anglade, J.-M. Beuken, F. Bottin, P. Boulanger, F. Bruneval,
- D. Caliste, R. Caracas, M. Cote, T. Deutsch, L. Genovese, Ph. Ghosez, M. Giantomassi
- S. Goedecker, D.R. Hamann, P. Hermet, F. Jollet, G. Jomard, S. Leroux, M. Mancini, S. Mazevet,
- M.J.T. Oliveira, G. Onida, Y. Pouillon, T. Rangel, G.-M. Rignanese, D. Sangalli, R. Shaltaf,
- M. Torrent, M.J. Verstraete, G. Zerah, J.W. Zwanziger
- Comment : the third generic paper describing the ABINIT project.
- Note that a version of this paper, that is not formatted for Computer Phys. Comm. 
- is available at http://www.abinit.org/about/ABINIT_CPC_v10.pdf .
- The licence allows the authors to put it on the Web.
-
- [5] A brief introduction to the ABINIT software package.
- Z. Kristallogr. 220, 558-562 (2005).
- X. Gonze, G.-M. Rignanese, M. Verstraete, J.-M. Beuken, Y. Pouillon, R. Caracas, F. Jollet,
- M. Torrent, G. Zerah, M. Mikami, Ph. Ghosez, M. Veithen, J.-Y. Raty, V. Olevano, F. Bruneval,
- L. Reining, R. Godby, G. Onida, D.R. Hamann, and D.C. Allan.
- Comment : the second generic paper describing the ABINIT project. Note that this paper
- should be cited especially if you are using the GW part of ABINIT, as several authors
- of this part are not in the list of authors of the first or third paper.
- The .pdf of the latter paper is available at http://www.abinit.org/about/zfk_0505-06_558-562.pdf.
- Note that it should not redistributed (Copyright by Oldenburg Wissenshaftverlag,
- the licence allows the authors to put it on the Web).
-
- Proc.   0 individual time (sec): cpu=          5.4  wall=          5.9

================================================================================

 Calculation completed.
.Delivered 183 WARNINGs and  24 COMMENTs to log file.
+Overall time at end (sec) : cpu=         22.7  wall=         23.2
