
.Version 8.0.3 of ABINIT 
.(MPI version, prepared for a x86_64_linux_gnu5.3 computer) 

.Copyright (C) 1998-2018 ABINIT group . 
 ABINIT comes with ABSOLUTELY NO WARRANTY.
 It is free software, and you are welcome to redistribute it
 under certain conditions (GNU General Public License,
 see ~abinit/COPYING or http://www.gnu.org/copyleft/gpl.txt).

 ABINIT is a project of the Universite Catholique de Louvain,
 Corning Inc. and other collaborators, see ~abinit/doc/developers/contributors.txt .
 Please read ~abinit/doc/users/acknowledgments.html for suggested
 acknowledgments of the ABINIT effort.
 For more information, see https://www.abinit.org .

.Starting date : Mon  4 Apr 2016.
- ( at 12h13 )
  
- input  file    -> t27.in
- output file    -> t27_MPI4.out
- root for input  files -> t27_MPI4i
- root for output files -> t27_MPI4o


 DATASET    1 : space group R-3 m (#166); Bravais hR (rhombohedral)
================================================================================
 Values of the parameters that define the memory need for DATASET  1.
     intxc =       0    ionmov =       3      iscf =      17    lmnmax =       8
     lnmax =       4     mgfft =      18  mpssoang =       2    mqgrid =    3001
     natom =       2  nloc_mem =       2    nspden =       1   nspinor =       1
    nsppol =       1      nsym =      12    n1xccc =       1    ntypat =       1
    occopt =       7   xclevel =       1
-    mband =          12        mffmem =           1         mkmem =           1
       mpw =         315          nfft =        5832          nkpt =           3
Pmy_natom=         1
 PAW method is used; the additional fine FFT grid is defined by:
   mgfftf=        36    nfftf =     46656
================================================================================
P This job should need less than                      14.190 Mbytes of memory.
  Rough estimation (10% accuracy) of disk space for files :
_ WF disk file :      0.175 Mbytes ; DEN or POT disk file :      0.358 Mbytes.
================================================================================


 DATASET    2 : space group R-3 m (#166); Bravais hR (rhombohedral)
================================================================================
 Values of the parameters that define the memory need for DATASET  2.
     intxc =       0    ionmov =       3      iscf =      17    lmnmax =       8
     lnmax =       4     mgfft =      18  mpssoang =       2    mqgrid =    3001
     natom =       2  nloc_mem =       2    nspden =       1   nspinor =       1
    nsppol =       1      nsym =      12    n1xccc =       1    ntypat =       1
    occopt =       7   xclevel =       1
-    mband =          12        mffmem =           1         mkmem =           1
       mpw =         315          nfft =        5832          nkpt =           3
Pmy_natom=         1
 PAW method is used; the additional fine FFT grid is defined by:
   mgfftf=        36    nfftf =     46656
================================================================================
P This job should need less than                      14.190 Mbytes of memory.
  Rough estimation (10% accuracy) of disk space for files :
_ WF disk file :      0.175 Mbytes ; DEN or POT disk file :      0.358 Mbytes.
================================================================================

--------------------------------------------------------------------------------
------------- Echo of variables that govern the present computation ------------
--------------------------------------------------------------------------------
-
- outvars: echo of selected default values                                      
-   accesswff0 =  0 , fftalg0 =312 , wfoptalg0 = 10
-
- outvars: echo of global parameters not present in the input file              
-  max_nthreads =    0
-
 -outvars: echo values of preprocessed input variables --------
            acell      7.0000000000E+00  7.0000000000E+00  7.0000000000E+00 Bohr
              amu      1.20110000E+01
           diemac      1.20000000E+01
          dilatmx      1.10000000E+00
             ecut      1.50000000E+01 Hartree
           ecutsm      5.00000000E-01 Hartree
           enunit           2
-          fftalg         312
           ionmov           3
           jdtset        1    2
              kpt     -2.50000000E-01  5.00000000E-01  0.00000000E+00
                      -2.50000000E-01 -2.50000000E-01  2.50000000E-01
                      -2.50000000E-01  0.00000000E+00  0.00000000E+00
           kptopt           0
P           mkmem           1
            natom           2
            nband          12
           ndtset           2
            ngfft          18      18      18
          ngfftdg          36      36      36
             nkpt           3
            nstep1          7
            nstep2          6
             nsym          12
            ntime           3
           ntypat           1
              occ      2.000000  2.000000  2.000000  2.000000  0.000000  0.000000
                       0.000000  0.000000  0.000000  0.000000  0.000000  0.000000
                       2.000000  2.000000  2.000000  2.000000  0.000000  0.000000
                       0.000000  0.000000  0.000000  0.000000  0.000000  0.000000
                       2.000000  2.000000  2.000000  2.000000  0.000000  0.000000
                       0.000000  0.000000  0.000000  0.000000  0.000000  0.000000
           occopt           7
          optcell           1
        optforces           1
        pawecutdg      5.00000000E+01 Hartree
         pawmixdg           1
            rprim      0.0000000000E+00  5.0000000000E-01  5.0000000000E-01
                       5.0000000000E-01  0.0000000000E+00  5.0000000000E-01
                       5.0000000000E-01  5.0000000000E-01  0.0000000000E+00
          spgroup         166
           symrel      1  0  0   0  1  0   0  0  1      -1  0  0   0 -1  0   0  0 -1
                       1  0  0   0  0  1   0  1  0      -1  0  0   0  0 -1   0 -1  0
                       0  1  0   0  0  1   1  0  0       0 -1  0   0  0 -1  -1  0  0
                       0  1  0   1  0  0   0  0  1       0 -1  0  -1  0  0   0  0 -1
                       0  0  1   1  0  0   0  1  0       0  0 -1  -1  0  0   0 -1  0
                       0  0  1   0  1  0   1  0  0       0  0 -1   0 -1  0  -1  0  0
            tnons      0.0000000  0.0000000  0.0000000     0.2200000  0.2200000  0.2200000
                       0.0000000  0.0000000  0.0000000     0.2200000  0.2200000  0.2200000
                       0.0000000  0.0000000  0.0000000     0.2200000  0.2200000  0.2200000
                       0.0000000  0.0000000  0.0000000     0.2200000  0.2200000  0.2200000
                       0.0000000  0.0000000  0.0000000     0.2200000  0.2200000  0.2200000
                       0.0000000  0.0000000  0.0000000     0.2200000  0.2200000  0.2200000
           toldff      1.00000000E-07
           tolmxf      1.00000000E-05
           tsmear      1.00000000E-03 Hartree
            typat      1  1
           useylm           1
              wtk        0.33333    0.33333    0.33333
           xangst      0.0000000000E+00  0.0000000000E+00  0.0000000000E+00
                       8.1493290123E-01  8.1493290123E-01  8.1493290123E-01
            xcart      0.0000000000E+00  0.0000000000E+00  0.0000000000E+00
                       1.5400000000E+00  1.5400000000E+00  1.5400000000E+00
             xred      0.0000000000E+00  0.0000000000E+00  0.0000000000E+00
                       2.2000000000E-01  2.2000000000E-01  2.2000000000E-01
            znucl        6.00000

================================================================================

 chkinp: Checking input parameters for consistency, jdtset=   1.

 chkinp: WARNING -
   Chksymbreak=1 . Found potentially symmetry-breaking value of tnons, 
   which is neither a rational fraction in 1/8th nor in 1/12th :
   for the symmetry number    2
   symrel is  -1  0  0  0 -1  0  0  0 -1
   tnons is     2.200000E-01    2.200000E-01    2.200000E-01
   Please, read the description of the input variable chksymbreak,
   then, if you feel confident, you might switch it to zero, or consult with the forum.

 chkinp: WARNING -
   Chksymbreak=1 . Found potentially symmetry-breaking value of tnons, 
   which is neither a rational fraction in 1/8th nor in 1/12th :
   for the symmetry number    2
   symrel is  -1  0  0  0 -1  0  0  0 -1
   tnons is     2.200000E-01    2.200000E-01    2.200000E-01
   Please, read the description of the input variable chksymbreak,
   then, if you feel confident, you might switch it to zero, or consult with the forum.

 chkinp: WARNING -
   Chksymbreak=1 . Found potentially symmetry-breaking value of tnons, 
   which is neither a rational fraction in 1/8th nor in 1/12th :
   for the symmetry number    2
   symrel is  -1  0  0  0 -1  0  0  0 -1
   tnons is     2.200000E-01    2.200000E-01    2.200000E-01
   Please, read the description of the input variable chksymbreak,
   then, if you feel confident, you might switch it to zero, or consult with the forum.

 chkinp: WARNING -
   Chksymbreak=1 . Found potentially symmetry-breaking value of tnons, 
   which is neither a rational fraction in 1/8th nor in 1/12th :
   for the symmetry number    4
   symrel is  -1  0  0  0  0 -1  0 -1  0
   tnons is     2.200000E-01    2.200000E-01    2.200000E-01
   Please, read the description of the input variable chksymbreak,
   then, if you feel confident, you might switch it to zero, or consult with the forum.

 chkinp: WARNING -
   Chksymbreak=1 . Found potentially symmetry-breaking value of tnons, 
   which is neither a rational fraction in 1/8th nor in 1/12th :
   for the symmetry number    4
   symrel is  -1  0  0  0  0 -1  0 -1  0
   tnons is     2.200000E-01    2.200000E-01    2.200000E-01
   Please, read the description of the input variable chksymbreak,
   then, if you feel confident, you might switch it to zero, or consult with the forum.

 chkinp: WARNING -
   Chksymbreak=1 . Found potentially symmetry-breaking value of tnons, 
   which is neither a rational fraction in 1/8th nor in 1/12th :
   for the symmetry number    4
   symrel is  -1  0  0  0  0 -1  0 -1  0
   tnons is     2.200000E-01    2.200000E-01    2.200000E-01
   Please, read the description of the input variable chksymbreak,
   then, if you feel confident, you might switch it to zero, or consult with the forum.

 chkinp: WARNING -
   Chksymbreak=1 . Found potentially symmetry-breaking value of tnons, 
   which is neither a rational fraction in 1/8th nor in 1/12th :
   for the symmetry number    6
   symrel is   0 -1  0  0  0 -1 -1  0  0
   tnons is     2.200000E-01    2.200000E-01    2.200000E-01
   Please, read the description of the input variable chksymbreak,
   then, if you feel confident, you might switch it to zero, or consult with the forum.

 chkinp: WARNING -
   Chksymbreak=1 . Found potentially symmetry-breaking value of tnons, 
   which is neither a rational fraction in 1/8th nor in 1/12th :
   for the symmetry number    6
   symrel is   0 -1  0  0  0 -1 -1  0  0
   tnons is     2.200000E-01    2.200000E-01    2.200000E-01
   Please, read the description of the input variable chksymbreak,
   then, if you feel confident, you might switch it to zero, or consult with the forum.

 chkinp: WARNING -
   Chksymbreak=1 . Found potentially symmetry-breaking value of tnons, 
   which is neither a rational fraction in 1/8th nor in 1/12th :
   for the symmetry number    6
   symrel is   0 -1  0  0  0 -1 -1  0  0
   tnons is     2.200000E-01    2.200000E-01    2.200000E-01
   Please, read the description of the input variable chksymbreak,
   then, if you feel confident, you might switch it to zero, or consult with the forum.

 chkinp: WARNING -
   Chksymbreak=1 . Found potentially symmetry-breaking value of tnons, 
   which is neither a rational fraction in 1/8th nor in 1/12th :
   for the symmetry number    8
   symrel is   0 -1  0 -1  0  0  0  0 -1
   tnons is     2.200000E-01    2.200000E-01    2.200000E-01
   Please, read the description of the input variable chksymbreak,
   then, if you feel confident, you might switch it to zero, or consult with the forum.

 chkinp: WARNING -
   Chksymbreak=1 . Found potentially symmetry-breaking value of tnons, 
   which is neither a rational fraction in 1/8th nor in 1/12th :
   for the symmetry number    8
   symrel is   0 -1  0 -1  0  0  0  0 -1
   tnons is     2.200000E-01    2.200000E-01    2.200000E-01
   Please, read the description of the input variable chksymbreak,
   then, if you feel confident, you might switch it to zero, or consult with the forum.

 chkinp: WARNING -
   Chksymbreak=1 . Found potentially symmetry-breaking value of tnons, 
   which is neither a rational fraction in 1/8th nor in 1/12th :
   for the symmetry number    8
   symrel is   0 -1  0 -1  0  0  0  0 -1
   tnons is     2.200000E-01    2.200000E-01    2.200000E-01
   Please, read the description of the input variable chksymbreak,
   then, if you feel confident, you might switch it to zero, or consult with the forum.

 chkinp: WARNING -
   Chksymbreak=1 . Found potentially symmetry-breaking value of tnons, 
   which is neither a rational fraction in 1/8th nor in 1/12th :
   for the symmetry number   10
   symrel is   0  0 -1 -1  0  0  0 -1  0
   tnons is     2.200000E-01    2.200000E-01    2.200000E-01
   Please, read the description of the input variable chksymbreak,
   then, if you feel confident, you might switch it to zero, or consult with the forum.

 chkinp: WARNING -
   Chksymbreak=1 . Found potentially symmetry-breaking value of tnons, 
   which is neither a rational fraction in 1/8th nor in 1/12th :
   for the symmetry number   10
   symrel is   0  0 -1 -1  0  0  0 -1  0
   tnons is     2.200000E-01    2.200000E-01    2.200000E-01
   Please, read the description of the input variable chksymbreak,
   then, if you feel confident, you might switch it to zero, or consult with the forum.

 chkinp: WARNING -
   Chksymbreak=1 . Found potentially symmetry-breaking value of tnons, 
   which is neither a rational fraction in 1/8th nor in 1/12th :
   for the symmetry number   10
   symrel is   0  0 -1 -1  0  0  0 -1  0
   tnons is     2.200000E-01    2.200000E-01    2.200000E-01
   Please, read the description of the input variable chksymbreak,
   then, if you feel confident, you might switch it to zero, or consult with the forum.

 chkinp: WARNING -
   Chksymbreak=1 . Found potentially symmetry-breaking value of tnons, 
   which is neither a rational fraction in 1/8th nor in 1/12th :
   for the symmetry number   12
   symrel is   0  0 -1  0 -1  0 -1  0  0
   tnons is     2.200000E-01    2.200000E-01    2.200000E-01
   Please, read the description of the input variable chksymbreak,
   then, if you feel confident, you might switch it to zero, or consult with the forum.

 chkinp: WARNING -
   Chksymbreak=1 . Found potentially symmetry-breaking value of tnons, 
   which is neither a rational fraction in 1/8th nor in 1/12th :
   for the symmetry number   12
   symrel is   0  0 -1  0 -1  0 -1  0  0
   tnons is     2.200000E-01    2.200000E-01    2.200000E-01
   Please, read the description of the input variable chksymbreak,
   then, if you feel confident, you might switch it to zero, or consult with the forum.

 chkinp: WARNING -
   Chksymbreak=1 . Found potentially symmetry-breaking value of tnons, 
   which is neither a rational fraction in 1/8th nor in 1/12th :
   for the symmetry number   12
   symrel is   0  0 -1  0 -1  0 -1  0  0
   tnons is     2.200000E-01    2.200000E-01    2.200000E-01
   Please, read the description of the input variable chksymbreak,
   then, if you feel confident, you might switch it to zero, or consult with the forum.

 chkinp: Checking input parameters for consistency, jdtset=   2.

 chkinp: WARNING -
   Chksymbreak=1 . Found potentially symmetry-breaking value of tnons, 
   which is neither a rational fraction in 1/8th nor in 1/12th :
   for the symmetry number    2
   symrel is  -1  0  0  0 -1  0  0  0 -1
   tnons is     2.200000E-01    2.200000E-01    2.200000E-01
   Please, read the description of the input variable chksymbreak,
   then, if you feel confident, you might switch it to zero, or consult with the forum.

 chkinp: WARNING -
   Chksymbreak=1 . Found potentially symmetry-breaking value of tnons, 
   which is neither a rational fraction in 1/8th nor in 1/12th :
   for the symmetry number    2
   symrel is  -1  0  0  0 -1  0  0  0 -1
   tnons is     2.200000E-01    2.200000E-01    2.200000E-01
   Please, read the description of the input variable chksymbreak,
   then, if you feel confident, you might switch it to zero, or consult with the forum.

 chkinp: WARNING -
   Chksymbreak=1 . Found potentially symmetry-breaking value of tnons, 
   which is neither a rational fraction in 1/8th nor in 1/12th :
   for the symmetry number    2
   symrel is  -1  0  0  0 -1  0  0  0 -1
   tnons is     2.200000E-01    2.200000E-01    2.200000E-01
   Please, read the description of the input variable chksymbreak,
   then, if you feel confident, you might switch it to zero, or consult with the forum.

 chkinp: WARNING -
   Chksymbreak=1 . Found potentially symmetry-breaking value of tnons, 
   which is neither a rational fraction in 1/8th nor in 1/12th :
   for the symmetry number    4
   symrel is  -1  0  0  0  0 -1  0 -1  0
   tnons is     2.200000E-01    2.200000E-01    2.200000E-01
   Please, read the description of the input variable chksymbreak,
   then, if you feel confident, you might switch it to zero, or consult with the forum.

 chkinp: WARNING -
   Chksymbreak=1 . Found potentially symmetry-breaking value of tnons, 
   which is neither a rational fraction in 1/8th nor in 1/12th :
   for the symmetry number    4
   symrel is  -1  0  0  0  0 -1  0 -1  0
   tnons is     2.200000E-01    2.200000E-01    2.200000E-01
   Please, read the description of the input variable chksymbreak,
   then, if you feel confident, you might switch it to zero, or consult with the forum.

 chkinp: WARNING -
   Chksymbreak=1 . Found potentially symmetry-breaking value of tnons, 
   which is neither a rational fraction in 1/8th nor in 1/12th :
   for the symmetry number    4
   symrel is  -1  0  0  0  0 -1  0 -1  0
   tnons is     2.200000E-01    2.200000E-01    2.200000E-01
   Please, read the description of the input variable chksymbreak,
   then, if you feel confident, you might switch it to zero, or consult with the forum.

 chkinp: WARNING -
   Chksymbreak=1 . Found potentially symmetry-breaking value of tnons, 
   which is neither a rational fraction in 1/8th nor in 1/12th :
   for the symmetry number    6
   symrel is   0 -1  0  0  0 -1 -1  0  0
   tnons is     2.200000E-01    2.200000E-01    2.200000E-01
   Please, read the description of the input variable chksymbreak,
   then, if you feel confident, you might switch it to zero, or consult with the forum.

 chkinp: WARNING -
   Chksymbreak=1 . Found potentially symmetry-breaking value of tnons, 
   which is neither a rational fraction in 1/8th nor in 1/12th :
   for the symmetry number    6
   symrel is   0 -1  0  0  0 -1 -1  0  0
   tnons is     2.200000E-01    2.200000E-01    2.200000E-01
   Please, read the description of the input variable chksymbreak,
   then, if you feel confident, you might switch it to zero, or consult with the forum.

 chkinp: WARNING -
   Chksymbreak=1 . Found potentially symmetry-breaking value of tnons, 
   which is neither a rational fraction in 1/8th nor in 1/12th :
   for the symmetry number    6
   symrel is   0 -1  0  0  0 -1 -1  0  0
   tnons is     2.200000E-01    2.200000E-01    2.200000E-01
   Please, read the description of the input variable chksymbreak,
   then, if you feel confident, you might switch it to zero, or consult with the forum.

 chkinp: WARNING -
   Chksymbreak=1 . Found potentially symmetry-breaking value of tnons, 
   which is neither a rational fraction in 1/8th nor in 1/12th :
   for the symmetry number    8
   symrel is   0 -1  0 -1  0  0  0  0 -1
   tnons is     2.200000E-01    2.200000E-01    2.200000E-01
   Please, read the description of the input variable chksymbreak,
   then, if you feel confident, you might switch it to zero, or consult with the forum.

 chkinp: WARNING -
   Chksymbreak=1 . Found potentially symmetry-breaking value of tnons, 
   which is neither a rational fraction in 1/8th nor in 1/12th :
   for the symmetry number    8
   symrel is   0 -1  0 -1  0  0  0  0 -1
   tnons is     2.200000E-01    2.200000E-01    2.200000E-01
   Please, read the description of the input variable chksymbreak,
   then, if you feel confident, you might switch it to zero, or consult with the forum.

 chkinp: WARNING -
   Chksymbreak=1 . Found potentially symmetry-breaking value of tnons, 
   which is neither a rational fraction in 1/8th nor in 1/12th :
   for the symmetry number    8
   symrel is   0 -1  0 -1  0  0  0  0 -1
   tnons is     2.200000E-01    2.200000E-01    2.200000E-01
   Please, read the description of the input variable chksymbreak,
   then, if you feel confident, you might switch it to zero, or consult with the forum.

 chkinp: WARNING -
   Chksymbreak=1 . Found potentially symmetry-breaking value of tnons, 
   which is neither a rational fraction in 1/8th nor in 1/12th :
   for the symmetry number   10
   symrel is   0  0 -1 -1  0  0  0 -1  0
   tnons is     2.200000E-01    2.200000E-01    2.200000E-01
   Please, read the description of the input variable chksymbreak,
   then, if you feel confident, you might switch it to zero, or consult with the forum.

 chkinp: WARNING -
   Chksymbreak=1 . Found potentially symmetry-breaking value of tnons, 
   which is neither a rational fraction in 1/8th nor in 1/12th :
   for the symmetry number   10
   symrel is   0  0 -1 -1  0  0  0 -1  0
   tnons is     2.200000E-01    2.200000E-01    2.200000E-01
   Please, read the description of the input variable chksymbreak,
   then, if you feel confident, you might switch it to zero, or consult with the forum.

 chkinp: WARNING -
   Chksymbreak=1 . Found potentially symmetry-breaking value of tnons, 
   which is neither a rational fraction in 1/8th nor in 1/12th :
   for the symmetry number   10
   symrel is   0  0 -1 -1  0  0  0 -1  0
   tnons is     2.200000E-01    2.200000E-01    2.200000E-01
   Please, read the description of the input variable chksymbreak,
   then, if you feel confident, you might switch it to zero, or consult with the forum.

 chkinp: WARNING -
   Chksymbreak=1 . Found potentially symmetry-breaking value of tnons, 
   which is neither a rational fraction in 1/8th nor in 1/12th :
   for the symmetry number   12
   symrel is   0  0 -1  0 -1  0 -1  0  0
   tnons is     2.200000E-01    2.200000E-01    2.200000E-01
   Please, read the description of the input variable chksymbreak,
   then, if you feel confident, you might switch it to zero, or consult with the forum.

 chkinp: WARNING -
   Chksymbreak=1 . Found potentially symmetry-breaking value of tnons, 
   which is neither a rational fraction in 1/8th nor in 1/12th :
   for the symmetry number   12
   symrel is   0  0 -1  0 -1  0 -1  0  0
   tnons is     2.200000E-01    2.200000E-01    2.200000E-01
   Please, read the description of the input variable chksymbreak,
   then, if you feel confident, you might switch it to zero, or consult with the forum.

 chkinp: WARNING -
   Chksymbreak=1 . Found potentially symmetry-breaking value of tnons, 
   which is neither a rational fraction in 1/8th nor in 1/12th :
   for the symmetry number   12
   symrel is   0  0 -1  0 -1  0 -1  0  0
   tnons is     2.200000E-01    2.200000E-01    2.200000E-01
   Please, read the description of the input variable chksymbreak,
   then, if you feel confident, you might switch it to zero, or consult with the forum.

================================================================================
== DATASET  1 ==================================================================
-   nproc =    4   -> not optimal: autoparal keyword recommended in input file

 Exchange-correlation functional for the present dataset will be:
  LDA: new Teter (4/93) with spin-polarized option - ixc=1
 Citation for XC functional:
  S. Goedecker, M. Teter, J. Huetter, PRB 54, 1703 (1996)

 Real(R)+Recip(G) space primitive vectors, cartesian coordinates (Bohr,Bohr^-1):
 R(1)=  0.0000000  3.5000000  3.5000000  G(1)= -0.1428571  0.1428571  0.1428571
 R(2)=  3.5000000  0.0000000  3.5000000  G(2)=  0.1428571 -0.1428571  0.1428571
 R(3)=  3.5000000  3.5000000  0.0000000  G(3)=  0.1428571  0.1428571 -0.1428571
 Unit cell volume ucvol=  8.5750000E+01 bohr^3
 Angles (23,13,12)=  6.00000000E+01  6.00000000E+01  6.00000000E+01 degrees

 Coarse grid specifications (used for wave-functions):

 getcut: wavevector=  0.0000  0.0000  0.0000  ngfft=  18  18  18
         ecut(hartree)=     18.150   => boxcut(ratio)=   1.90205

 Fine grid specifications (used for densities):

 getcut: wavevector=  0.0000  0.0000  0.0000  ngfft=  36  36  36
         ecut(hartree)=     60.500   => boxcut(ratio)=   2.07719

--- Pseudopotential description ------------------------------------------------
- pspini: atom type   1  psp file is /home/buildbot/bb/ABINIT/abiref_gnu_5.3_openmpi/gonze_8.0.3-public/tests/Psps_for_tests/6c_lda.paw
- pspatm: opening atomic psp file    /home/buildbot/bb/ABINIT/abiref_gnu_5.3_openmpi/gonze_8.0.3-public/tests/Psps_for_tests/6c_lda.paw
- Paw atomic data extracted from US-psp (D.Vanderbilt): carbon
-  6.00000   4.00000  20041014                znucl, zion, pspdat
    7    2    1    0       467   0.00000      pspcod,pspxc,lmax,lloc,mmax,r2well
 Pseudopotential format is: paw2
 basis_size (lnmax)=  4 (lmn_size=  8), orbitals=   0   0   1   1
 Spheres core radius: rc_sph= 1.11201554
 4 radial meshes are used:
  - mesh 1: r(i)=AA*[exp(BB*(i-1))-1], size= 467 , AA= 0.41313E-03 BB= 0.16949E-01
  - mesh 2: r(i)=AA*[exp(BB*(i-1))-1], size= 532 , AA= 0.41313E-03 BB= 0.16949E-01
  - mesh 3: r(i)=AA*[exp(BB*(i-1))-1], size= 520 , AA= 0.41313E-03 BB= 0.16949E-01
  - mesh 4: r(i)=AA*[exp(BB*(i-1))-1], size= 596 , AA= 0.41313E-03 BB= 0.16949E-01
 Shapefunction is SIN type: shapef(r)=[sin(pi*r/rshp)/(pi*r/rshp)]**2
 Radius for shape functions = sphere core radius
 Radial grid used for partial waves is grid 1
 Radial grid used for projectors is grid  2
 Radial grid used for (t)core density is grid 3
 Radial grid used for Vloc is grid 4
 Compensation charge density is taken into account in XC energy/potential
 pspatm: atomic psp has been read  and splines computed

   4.71224288E+01                                ecore*ucvol(ha*bohr**3)
--------------------------------------------------------------------------------

_setup2: Arith. and geom. avg. npw (full set) are     313.667     313.661

================================================================================

=== [ionmov= 3] Broyden-Fletcher-Goldfard-Shanno method (forces,Tot energy) 
================================================================================

--- Iteration: (1/3) Internal Cycle: (1/1)
--------------------------------------------------------------------------------

---SELF-CONSISTENT-FIELD CONVERGENCE--------------------------------------------

     iter   Etot(hartree)      deltaE(h)  residm     nres2    diffor    maxfor
 ETOT  1  -11.331083819053    -1.133E+01 6.817E-01 1.682E+01 8.779E-02 8.779E-02
 ETOT  2  -11.425501081110    -9.442E-02 2.802E-04 2.037E+00 8.087E-03 9.588E-02
 ETOT  3  -11.422587015219     2.914E-03 1.942E-04 2.229E-02 1.618E-03 9.750E-02
 ETOT  4  -11.422592117559    -5.102E-06 8.397E-07 4.224E-03 1.723E-04 9.732E-02
 ETOT  5  -11.422592095804     2.176E-08 1.624E-07 2.685E-04 1.458E-04 9.718E-02
 ETOT  6  -11.422591698887     3.969E-07 2.050E-08 7.909E-06 3.736E-05 9.722E-02
 ETOT  7  -11.422591695602     3.285E-09 3.826E-10 7.448E-08 4.842E-06 9.722E-02

 Cartesian components of stress tensor (hartree/bohr^3)
  sigma(1 1)=  9.13323017E-04  sigma(3 2)= -3.56600396E-04
  sigma(2 2)=  9.13323017E-04  sigma(3 1)= -3.56600396E-04
  sigma(3 3)=  9.13323017E-04  sigma(2 1)= -3.56600396E-04


 scprqt:  WARNING -
  nstep=    7 was not enough SCF cycles to converge;
  maximum force difference=  4.842E-06 exceeds toldff=  1.000E-07

 Integrated electronic density in atomic spheres:
 ------------------------------------------------
 Atom  Sphere_radius  Integrated_density
    1        1.11202          1.26846365
    2        1.11202          1.27797351

 PAW TEST:
 ==== Compensation charge inside spheres ============
 The following values must be close to each other ...
 Compensation charge over spherical meshes =      0.241731445717452
 Compensation charge over fine fft grid    =      0.241745445522136

 ==== Results concerning PAW augmentation regions ====

 Total pseudopotential strength Dij (hartree):
 Atom #  1
   0.49061   0.59188   0.00002   0.00002   0.00002   0.00003   0.00003   0.00003
   0.59188   0.71103   0.00001   0.00001   0.00001   0.00003   0.00003   0.00003
   0.00002   0.00001  -0.08584  -0.00006  -0.00006  -0.08611  -0.00008  -0.00008
   0.00002   0.00001  -0.00006  -0.08584  -0.00006  -0.00008  -0.08611  -0.00008
   0.00002   0.00001  -0.00006  -0.00006  -0.08584  -0.00008  -0.00008  -0.08611
   0.00003   0.00003  -0.08611  -0.00008  -0.00008  -0.08216  -0.00009  -0.00009
   0.00003   0.00003  -0.00008  -0.08611  -0.00008  -0.00009  -0.08216  -0.00009
   0.00003   0.00003  -0.00008  -0.00008  -0.08611  -0.00009  -0.00009  -0.08216
 Atom #  2
   0.49061   0.59188  -0.00002  -0.00002  -0.00002  -0.00003  -0.00003  -0.00003
   0.59188   0.71103  -0.00001  -0.00001  -0.00001  -0.00003  -0.00003  -0.00003
  -0.00002  -0.00001  -0.08584  -0.00006  -0.00006  -0.08611  -0.00008  -0.00008
  -0.00002  -0.00001  -0.00006  -0.08584  -0.00006  -0.00008  -0.08611  -0.00008
  -0.00002  -0.00001  -0.00006  -0.00006  -0.08584  -0.00008  -0.00008  -0.08611
  -0.00003  -0.00003  -0.08611  -0.00008  -0.00008  -0.08216  -0.00009  -0.00009
  -0.00003  -0.00003  -0.00008  -0.08611  -0.00008  -0.00009  -0.08216  -0.00009
  -0.00003  -0.00003  -0.00008  -0.00008  -0.08611  -0.00009  -0.00009  -0.08216

 Total pseudopotential strength Dij (eV):
 Atom #  1
  13.35024  16.10601   0.00048   0.00048   0.00048   0.00095   0.00095   0.00095
  16.10601  19.34817   0.00027   0.00027   0.00027   0.00078   0.00078   0.00078
   0.00048   0.00027  -2.33589  -0.00166  -0.00166  -2.34311  -0.00205  -0.00205
   0.00048   0.00027  -0.00166  -2.33589  -0.00166  -0.00205  -2.34311  -0.00205
   0.00048   0.00027  -0.00166  -0.00166  -2.33589  -0.00205  -0.00205  -2.34311
   0.00095   0.00078  -2.34311  -0.00205  -0.00205  -2.23577  -0.00249  -0.00249
   0.00095   0.00078  -0.00205  -2.34311  -0.00205  -0.00249  -2.23577  -0.00249
   0.00095   0.00078  -0.00205  -0.00205  -2.34311  -0.00249  -0.00249  -2.23577
 Atom #  2
  13.35024  16.10601  -0.00048  -0.00048  -0.00048  -0.00095  -0.00095  -0.00095
  16.10601  19.34817  -0.00027  -0.00027  -0.00027  -0.00078  -0.00078  -0.00078
  -0.00048  -0.00027  -2.33589  -0.00166  -0.00166  -2.34311  -0.00205  -0.00205
  -0.00048  -0.00027  -0.00166  -2.33589  -0.00166  -0.00205  -2.34311  -0.00205
  -0.00048  -0.00027  -0.00166  -0.00166  -2.33589  -0.00205  -0.00205  -2.34311
  -0.00095  -0.00078  -2.34311  -0.00205  -0.00205  -2.23577  -0.00249  -0.00249
  -0.00095  -0.00078  -0.00205  -2.34311  -0.00205  -0.00249  -2.23577  -0.00249
  -0.00095  -0.00078  -0.00205  -0.00205  -2.34311  -0.00249  -0.00249  -2.23577

 Augmentation waves occupancies Rhoij:
 Atom #  1
   1.77031  -0.18488  -0.17250  -0.17250  -0.17250   0.08400   0.08400   0.08400
  -0.18488   0.05571   0.03906   0.03906   0.03906  -0.01581  -0.01581  -0.01581
  -0.17250   0.03906   1.83217   0.18918   0.18918  -0.38729  -0.05342  -0.05342
  -0.17250   0.03906   0.18918   1.83217   0.18918  -0.05342  -0.38729  -0.05342
  -0.17250   0.03906   0.18918   0.18918   1.83217  -0.05342  -0.05342  -0.38729
   0.08400  -0.01581  -0.38729  -0.05342  -0.05342   0.13780   0.00704   0.00704
   0.08400  -0.01581  -0.05342  -0.38729  -0.05342   0.00704   0.13780   0.00704
   0.08400  -0.01581  -0.05342  -0.05342  -0.38729   0.00704   0.00704   0.13780
 Atom #  2
   1.77031  -0.18488   0.17250   0.17250   0.17250  -0.08400  -0.08400  -0.08400
  -0.18488   0.05571  -0.03906  -0.03906  -0.03906   0.01581   0.01581   0.01581
   0.17250  -0.03906   1.83217   0.18918   0.18918  -0.38729  -0.05342  -0.05342
   0.17250  -0.03906   0.18918   1.83217   0.18918  -0.05342  -0.38729  -0.05342
   0.17250  -0.03906   0.18918   0.18918   1.83217  -0.05342  -0.05342  -0.38729
  -0.08400   0.01581  -0.38729  -0.05342  -0.05342   0.13780   0.00704   0.00704
  -0.08400   0.01581  -0.05342  -0.38729  -0.05342   0.00704   0.13780   0.00704
  -0.08400   0.01581  -0.05342  -0.05342  -0.38729   0.00704   0.00704   0.13780



---OUTPUT-----------------------------------------------------------------------

 Cartesian coordinates (xcart) [bohr]
  0.00000000000000E+00  0.00000000000000E+00  0.00000000000000E+00
  1.54000000000000E+00  1.54000000000000E+00  1.54000000000000E+00
 Reduced coordinates (xred)
  0.00000000000000E+00  0.00000000000000E+00  0.00000000000000E+00
  2.20000000000000E-01  2.20000000000000E-01  2.20000000000000E-01
 Cartesian forces (fcart) [Ha/bohr]; max,rms= 9.72204E-02 9.72204E-02 (free atoms)
 -9.72204234194758E-02 -9.72204234194758E-02 -9.72204234194758E-02
  9.72204234194758E-02  9.72204234194758E-02  9.72204234194758E-02
 Reduced forces (fred)
  6.80542963936331E-01  6.80542963936331E-01  6.80542963936331E-01
 -6.80542963936331E-01 -6.80542963936331E-01 -6.80542963936331E-01
 Scale of Primitive Cell (acell) [bohr]
  7.00000000000000E+00  7.00000000000000E+00  7.00000000000000E+00
 Real space primitive translations (rprimd) [bohr]
  0.00000000000000E+00  3.50000000000000E+00  3.50000000000000E+00
  3.50000000000000E+00  0.00000000000000E+00  3.50000000000000E+00
  3.50000000000000E+00  3.50000000000000E+00  0.00000000000000E+00
 Unitary Cell Volume (ucvol) [Bohr^3]=  8.57500000000000E+01
 Angles (23,13,12)= [degrees]
  6.00000000000000E+01  6.00000000000000E+01  6.00000000000000E+01
 Lengths [Bohr]
  4.94974746830583E+00  4.94974746830583E+00  4.94974746830583E+00
 Stress tensor in cartesian coordinates (strten) [Ha/bohr^3]
  9.13323017429185E-04 -3.56600395632088E-04 -3.56600395632087E-04
 -3.56600395632088E-04  9.13323017429186E-04 -3.56600395632087E-04
 -3.56600395632087E-04 -3.56600395632087E-04  9.13323017429184E-04
 Total energy (etotal) [Ha]= -1.14225916956024E+01

--- Iteration: (2/3) Internal Cycle: (1/1)
--------------------------------------------------------------------------------

---SELF-CONSISTENT-FIELD CONVERGENCE--------------------------------------------

     iter   Etot(hartree)      deltaE(h)  residm     nres2    diffor    maxfor
 ETOT  1  -11.448422574339    -1.145E+01 2.693E+01 1.199E+01 9.028E-02 6.938E-03
 ETOT  2  -11.455744795053    -7.322E-03 7.209E-04 7.189E-01 9.461E-04 5.992E-03
 ETOT  3  -11.455107708369     6.371E-04 4.275E-05 3.414E-02 4.610E-03 1.382E-03
 ETOT  4  -11.455095029862     1.268E-05 3.094E-06 1.073E-03 1.183E-03 1.995E-04
 ETOT  5  -11.455095522696    -4.928E-07 5.692E-08 2.752E-05 2.854E-04 4.849E-04
 ETOT  6  -11.455095492797     2.990E-08 4.902E-09 1.679E-06 6.178E-05 4.232E-04
 ETOT  7  -11.455095493501    -7.039E-10 5.195E-11 8.975E-09 4.731E-06 4.279E-04

 Cartesian components of stress tensor (hartree/bohr^3)
  sigma(1 1)=  3.11130006E-04  sigma(3 2)=  1.80268665E-05
  sigma(2 2)=  3.11130006E-04  sigma(3 1)=  1.80268665E-05
  sigma(3 3)=  3.11130006E-04  sigma(2 1)=  1.80268665E-05


 scprqt:  WARNING -
  nstep=    7 was not enough SCF cycles to converge;
  maximum force difference=  4.731E-06 exceeds toldff=  1.000E-07

 Integrated electronic density in atomic spheres:
 ------------------------------------------------
 Atom  Sphere_radius  Integrated_density
    1        1.11202          1.30630379
    2        1.11202          1.31329221

 PAW TEST:
 ==== Compensation charge inside spheres ============
 The following values must be close to each other ...
 Compensation charge over spherical meshes =      0.253420899054715
 Compensation charge over fine fft grid    =      0.253417646814465

 ==== Results concerning PAW augmentation regions ====

 Total pseudopotential strength Dij (hartree):
 Atom #  1
   0.48801   0.58848  -0.00000  -0.00000  -0.00000  -0.00000  -0.00000  -0.00000
   0.58848   0.70662  -0.00000  -0.00000  -0.00000  -0.00000  -0.00000  -0.00000
  -0.00000  -0.00000  -0.08273   0.00004   0.00004  -0.08239   0.00004   0.00004
  -0.00000  -0.00000   0.00004  -0.08273   0.00004   0.00004  -0.08239   0.00004
  -0.00000  -0.00000   0.00004   0.00004  -0.08273   0.00004   0.00004  -0.08239
  -0.00000  -0.00000  -0.08239   0.00004   0.00004  -0.07773   0.00005   0.00005
  -0.00000  -0.00000   0.00004  -0.08239   0.00004   0.00005  -0.07773   0.00005
  -0.00000  -0.00000   0.00004   0.00004  -0.08239   0.00005   0.00005  -0.07773
 Atom #  2
   0.48801   0.58848   0.00000   0.00000   0.00000   0.00000   0.00000   0.00000
   0.58848   0.70662   0.00000   0.00000   0.00000   0.00000   0.00000   0.00000
   0.00000   0.00000  -0.08273   0.00004   0.00004  -0.08239   0.00004   0.00004
   0.00000   0.00000   0.00004  -0.08273   0.00004   0.00004  -0.08239   0.00004
   0.00000   0.00000   0.00004   0.00004  -0.08273   0.00004   0.00004  -0.08239
   0.00000   0.00000  -0.08239   0.00004   0.00004  -0.07773   0.00005   0.00005
   0.00000   0.00000   0.00004  -0.08239   0.00004   0.00005  -0.07773   0.00005
   0.00000   0.00000   0.00004   0.00004  -0.08239   0.00005   0.00005  -0.07773

 Total pseudopotential strength Dij (eV):
 Atom #  1
  13.27930  16.01349  -0.00005  -0.00005  -0.00005  -0.00004  -0.00004  -0.00004
  16.01349  19.22804  -0.00007  -0.00007  -0.00007  -0.00006  -0.00006  -0.00006
  -0.00005  -0.00007  -2.25125   0.00097   0.00097  -2.24193   0.00111   0.00111
  -0.00005  -0.00007   0.00097  -2.25125   0.00097   0.00111  -2.24193   0.00111
  -0.00005  -0.00007   0.00097   0.00097  -2.25125   0.00111   0.00111  -2.24193
  -0.00004  -0.00006  -2.24193   0.00111   0.00111  -2.11501   0.00127   0.00127
  -0.00004  -0.00006   0.00111  -2.24193   0.00111   0.00127  -2.11501   0.00127
  -0.00004  -0.00006   0.00111   0.00111  -2.24193   0.00127   0.00127  -2.11501
 Atom #  2
  13.27930  16.01349   0.00005   0.00005   0.00005   0.00004   0.00004   0.00004
  16.01349  19.22804   0.00007   0.00007   0.00007   0.00006   0.00006   0.00006
   0.00005   0.00007  -2.25125   0.00097   0.00097  -2.24193   0.00111   0.00111
   0.00005   0.00007   0.00097  -2.25125   0.00097   0.00111  -2.24193   0.00111
   0.00005   0.00007   0.00097   0.00097  -2.25125   0.00111   0.00111  -2.24193
   0.00004   0.00006  -2.24193   0.00111   0.00111  -2.11501   0.00127   0.00127
   0.00004   0.00006   0.00111  -2.24193   0.00111   0.00127  -2.11501   0.00127
   0.00004   0.00006   0.00111   0.00111  -2.24193   0.00127   0.00127  -2.11501

 Augmentation waves occupancies Rhoij:
 Atom #  1
   1.88819  -0.24214  -0.00279  -0.00279  -0.00279   0.00202   0.00202   0.00202
  -0.24214   0.06352   0.00345   0.00345   0.00345  -0.00268  -0.00268  -0.00268
  -0.00279   0.00345   2.01857  -0.06383  -0.06383  -0.46930   0.05891   0.05891
  -0.00279   0.00345  -0.06383   2.01857  -0.06383   0.05891  -0.46930   0.05891
  -0.00279   0.00345  -0.06383  -0.06383   2.01857   0.05891   0.05891  -0.46930
   0.00202  -0.00268  -0.46930   0.05891   0.05891   0.16460  -0.02663  -0.02663
   0.00202  -0.00268   0.05891  -0.46930   0.05891  -0.02663   0.16460  -0.02663
   0.00202  -0.00268   0.05891   0.05891  -0.46930  -0.02663  -0.02663   0.16460
 Atom #  2
   1.88819  -0.24214   0.00279   0.00279   0.00279  -0.00202  -0.00202  -0.00202
  -0.24214   0.06352  -0.00345  -0.00345  -0.00345   0.00268   0.00268   0.00268
   0.00279  -0.00345   2.01857  -0.06383  -0.06383  -0.46930   0.05891   0.05891
   0.00279  -0.00345  -0.06383   2.01857  -0.06383   0.05891  -0.46930   0.05891
   0.00279  -0.00345  -0.06383  -0.06383   2.01857   0.05891   0.05891  -0.46930
  -0.00202   0.00268  -0.46930   0.05891   0.05891   0.16460  -0.02663  -0.02663
  -0.00202   0.00268   0.05891  -0.46930   0.05891  -0.02663   0.16460  -0.02663
  -0.00202   0.00268   0.05891   0.05891  -0.46930  -0.02663  -0.02663   0.16460



---OUTPUT-----------------------------------------------------------------------

 Cartesian coordinates (xcart) [bohr]
 -9.45566139052793E-02 -9.45566139052793E-02 -9.45566139052793E-02
  1.59236109050005E+00  1.59236109050005E+00  1.59236109050005E+00
 Reduced coordinates (xred)
 -1.38886319170680E-02 -1.38886319170680E-02 -1.38886319170680E-02
  2.33888631917068E-01  2.33888631917068E-01  2.33888631917068E-01
 Cartesian forces (fcart) [Ha/bohr]; max,rms= 4.27884E-04 4.27884E-04 (free atoms)
 -4.27884426512405E-04 -4.27884426512405E-04 -4.27884426512405E-04
  4.27884426512405E-04  4.27884426512405E-04  4.27884426512405E-04
 Reduced forces (fred)
  2.91312367952485E-03  2.91312367952485E-03  2.91312367952485E-03
 -2.91312367952485E-03 -2.91312367952485E-03 -2.91312367952485E-03
 Scale of Primitive Cell (acell) [bohr]
  6.80820216633987E+00  6.80820216633987E+00  6.80820216633987E+00
 Real space primitive translations (rprimd) [bohr]
  0.00000000000000E+00  3.40410108316994E+00  3.40410108316994E+00
  3.40410108316994E+00  0.00000000000000E+00  3.40410108316994E+00
  3.40410108316994E+00  3.40410108316994E+00  0.00000000000000E+00
 Unitary Cell Volume (ucvol) [Bohr^3]=  7.88927943718346E+01
 Angles (23,13,12)= [degrees]
  6.00000000000000E+01  6.00000000000000E+01  6.00000000000000E+01
 Lengths [Bohr]
  4.81412591950787E+00  4.81412591950787E+00  4.81412591950787E+00
 Stress tensor in cartesian coordinates (strten) [Ha/bohr^3]
  3.11130006438290E-04  1.80268664546880E-05  1.80268664546842E-05
  1.80268664546880E-05  3.11130006438288E-04  1.80268664546849E-05
  1.80268664546842E-05  1.80268664546849E-05  3.11130006438291E-04
 Total energy (etotal) [Ha]= -1.14550954935011E+01

 Difference of energy with previous step (new-old):
           Absolute (Ha)=-3.25038E-02
           Relative     =-2.84153E-03

--- Iteration: (3/3) Internal Cycle: (1/1)
--------------------------------------------------------------------------------

---SELF-CONSISTENT-FIELD CONVERGENCE--------------------------------------------

     iter   Etot(hartree)      deltaE(h)  residm     nres2    diffor    maxfor
 ETOT  1  -11.455221177474    -1.146E+01 1.535E-05 5.853E-01 1.187E-03 7.588E-04
 ETOT  2  -11.455339997816    -1.188E-04 6.638E-09 9.969E-03 1.834E-04 9.421E-04
 ETOT  3  -11.455338019518     1.978E-06 4.498E-08 1.396E-03 3.443E-06 9.456E-04
 ETOT  4  -11.455338018368     1.150E-09 1.127E-08 7.331E-06 3.460E-06 9.490E-04
 ETOT  5  -11.455338025271    -6.903E-09 1.047E-10 8.327E-09 8.252E-07 9.499E-04
 ETOT  6  -11.455338025269     1.585E-12 5.826E-13 3.612E-10 2.697E-07 9.496E-04
 ETOT  7  -11.455338025270    -4.974E-13 3.004E-15 1.855E-12 1.939E-08 9.496E-04

 Cartesian components of stress tensor (hartree/bohr^3)
  sigma(1 1)= -1.19243082E-04  sigma(3 2)=  1.64154542E-05
  sigma(2 2)= -1.19243082E-04  sigma(3 1)=  1.64154542E-05
  sigma(3 3)= -1.19243082E-04  sigma(2 1)=  1.64154542E-05

 Integrated electronic density in atomic spheres:
 ------------------------------------------------
 Atom  Sphere_radius  Integrated_density
    1        1.11202          1.32721662
    2        1.11202          1.32002305

 PAW TEST:
 ==== Compensation charge inside spheres ============
 The following values must be close to each other ...
 Compensation charge over spherical meshes =      0.258919975151672
 Compensation charge over fine fft grid    =      0.258921440101144

 ==== Results concerning PAW augmentation regions ====

 Total pseudopotential strength Dij (hartree):
 Atom #  1
   0.48721   0.58744  -0.00000  -0.00000  -0.00000  -0.00000  -0.00000  -0.00000
   0.58744   0.70526  -0.00000  -0.00000  -0.00000  -0.00000  -0.00000  -0.00000
  -0.00000  -0.00000  -0.08174   0.00004   0.00004  -0.08120   0.00004   0.00004
  -0.00000  -0.00000   0.00004  -0.08174   0.00004   0.00004  -0.08120   0.00004
  -0.00000  -0.00000   0.00004   0.00004  -0.08174   0.00004   0.00004  -0.08120
  -0.00000  -0.00000  -0.08120   0.00004   0.00004  -0.07630   0.00005   0.00005
  -0.00000  -0.00000   0.00004  -0.08120   0.00004   0.00005  -0.07630   0.00005
  -0.00000  -0.00000   0.00004   0.00004  -0.08120   0.00005   0.00005  -0.07630
 Atom #  2
   0.48721   0.58744   0.00000   0.00000   0.00000   0.00000   0.00000   0.00000
   0.58744   0.70526   0.00000   0.00000   0.00000   0.00000   0.00000   0.00000
   0.00000   0.00000  -0.08174   0.00004   0.00004  -0.08120   0.00004   0.00004
   0.00000   0.00000   0.00004  -0.08174   0.00004   0.00004  -0.08120   0.00004
   0.00000   0.00000   0.00004   0.00004  -0.08174   0.00004   0.00004  -0.08120
   0.00000   0.00000  -0.08120   0.00004   0.00004  -0.07630   0.00005   0.00005
   0.00000   0.00000   0.00004  -0.08120   0.00004   0.00005  -0.07630   0.00005
   0.00000   0.00000   0.00004   0.00004  -0.08120   0.00005   0.00005  -0.07630

 Total pseudopotential strength Dij (eV):
 Atom #  1
  13.25771  15.98516  -0.00003  -0.00003  -0.00003  -0.00002  -0.00002  -0.00002
  15.98516  19.19106  -0.00004  -0.00004  -0.00004  -0.00003  -0.00003  -0.00003
  -0.00003  -0.00004  -2.22415   0.00102   0.00102  -2.20951   0.00117   0.00117
  -0.00003  -0.00004   0.00102  -2.22415   0.00102   0.00117  -2.20951   0.00117
  -0.00003  -0.00004   0.00102   0.00102  -2.22415   0.00117   0.00117  -2.20951
  -0.00002  -0.00003  -2.20951   0.00117   0.00117  -2.07631   0.00134   0.00134
  -0.00002  -0.00003   0.00117  -2.20951   0.00117   0.00134  -2.07631   0.00134
  -0.00002  -0.00003   0.00117   0.00117  -2.20951   0.00134   0.00134  -2.07631
 Atom #  2
  13.25771  15.98516   0.00003   0.00003   0.00003   0.00002   0.00002   0.00002
  15.98516  19.19106   0.00004   0.00004   0.00004   0.00003   0.00003   0.00003
   0.00003   0.00004  -2.22415   0.00102   0.00102  -2.20951   0.00117   0.00117
   0.00003   0.00004   0.00102  -2.22415   0.00102   0.00117  -2.20951   0.00117
   0.00003   0.00004   0.00102   0.00102  -2.22415   0.00117   0.00117  -2.20951
   0.00002   0.00003  -2.20951   0.00117   0.00117  -2.07631   0.00134   0.00134
   0.00002   0.00003   0.00117  -2.20951   0.00117   0.00134  -2.07631   0.00134
   0.00002   0.00003   0.00117   0.00117  -2.20951   0.00134   0.00134  -2.07631

 Augmentation waves occupancies Rhoij:
 Atom #  1
   1.93409  -0.26337  -0.00065  -0.00065  -0.00065   0.00092   0.00092   0.00092
  -0.26337   0.06819   0.00237   0.00237   0.00237  -0.00233  -0.00233  -0.00233
  -0.00065   0.00237   2.08178  -0.07169  -0.07169  -0.49629   0.06350   0.06350
  -0.00065   0.00237  -0.07169   2.08178  -0.07169   0.06350  -0.49629   0.06350
  -0.00065   0.00237  -0.07169  -0.07169   2.08178   0.06350   0.06350  -0.49629
   0.00092  -0.00233  -0.49629   0.06350   0.06350   0.17638  -0.02875  -0.02875
   0.00092  -0.00233   0.06350  -0.49629   0.06350  -0.02875   0.17638  -0.02875
   0.00092  -0.00233   0.06350   0.06350  -0.49629  -0.02875  -0.02875   0.17638
 Atom #  2
   1.93409  -0.26337   0.00065   0.00065   0.00065  -0.00092  -0.00092  -0.00092
  -0.26337   0.06819  -0.00237  -0.00237  -0.00237   0.00233   0.00233   0.00233
   0.00065  -0.00237   2.08178  -0.07169  -0.07169  -0.49629   0.06350   0.06350
   0.00065  -0.00237  -0.07169   2.08178  -0.07169   0.06350  -0.49629   0.06350
   0.00065  -0.00237  -0.07169  -0.07169   2.08178   0.06350   0.06350  -0.49629
  -0.00092   0.00233  -0.49629   0.06350   0.06350   0.17638  -0.02875  -0.02875
  -0.00092   0.00233   0.06350  -0.49629   0.06350  -0.02875   0.17638  -0.02875
  -0.00092   0.00233   0.06350   0.06350  -0.49629  -0.02875  -0.02875   0.17638



---OUTPUT-----------------------------------------------------------------------

 Cartesian coordinates (xcart) [bohr]
 -9.50090898022002E-02 -9.50090898022002E-02 -9.50090898022002E-02
  1.57856559913206E+00  1.57856559913206E+00  1.57856559913206E+00
 Reduced coordinates (xred)
 -1.40891160026832E-02 -1.40891160026832E-02 -1.40891160026832E-02
  2.34089116002683E-01  2.34089116002683E-01  2.34089116002683E-01
 Cartesian forces (fcart) [Ha/bohr]; max,rms= 9.49604E-04 9.49604E-04 (free atoms)
  9.49603946018627E-04  9.49603946018627E-04  9.49603946018627E-04
 -9.49603946018627E-04 -9.49603946018627E-04 -9.49603946018627E-04
 Reduced forces (fred)
 -6.40359597909659E-03 -6.40359597909659E-03 -6.40359597909659E-03
  6.40359597909659E-03  6.40359597909659E-03  6.40359597909659E-03
 Scale of Primitive Cell (acell) [bohr]
  6.74343867877207E+00  6.74343867877207E+00  6.74343867877207E+00
 Real space primitive translations (rprimd) [bohr]
  0.00000000000000E+00  3.37171933938603E+00  3.37171933938603E+00
  3.37171933938603E+00  0.00000000000000E+00  3.37171933938603E+00
  3.37171933938603E+00  3.37171933938603E+00  0.00000000000000E+00
 Unitary Cell Volume (ucvol) [Bohr^3]=  7.66627239759113E+01
 Angles (23,13,12)= [degrees]
  6.00000000000000E+01  6.00000000000000E+01  6.00000000000000E+01
 Lengths [Bohr]
  4.76833121827538E+00  4.76833121827538E+00  4.76833121827538E+00
 Stress tensor in cartesian coordinates (strten) [Ha/bohr^3]
 -1.19243081985118E-04  1.64154541513274E-05  1.64154541513312E-05
  1.64154541513274E-05 -1.19243081985118E-04  1.64154541513294E-05
  1.64154541513312E-05  1.64154541513294E-05 -1.19243081985116E-04
 Total energy (etotal) [Ha]= -1.14553380252696E+01

 Difference of energy with previous step (new-old):
           Absolute (Ha)=-2.42532E-04
           Relative     =-2.11722E-05

 fconv : WARNING -
  ntime=    3 was not enough Broyd/MD steps to converge gradients: 
  max grad (force/stress) = 1.1924E-02 > tolmxf= 1.0000E-05 ha/bohr (free atoms)

================================================================================

 ----iterations are completed or convergence reached----

 Mean square residual over all n,k,spin=   1.1849E-15; max=  3.0043E-15
- nxfh > 0 in outwf is deprecated and will be removed in ABINIT8
 reduced coordinates (array xred) for    2 atoms
      -0.014089116003     -0.014089116003     -0.014089116003
       0.234089116003      0.234089116003      0.234089116003
 rms dE/dt=  6.4036E-03; max dE/dt=  6.4036E-03; dE/dt below (all hartree)
    1      -0.006403595979     -0.006403595979     -0.006403595979
    2       0.006403595979      0.006403595979      0.006403595979

 cartesian coordinates (angstrom) at end:
    1     -0.05027664493220    -0.05027664493220    -0.05027664493220
    2      0.83534093732490     0.83534093732490     0.83534093732490

 cartesian forces (hartree/bohr) at end:
    1      0.00094960394602     0.00094960394602     0.00094960394602
    2     -0.00094960394602    -0.00094960394602    -0.00094960394602
 frms,max,avg= 9.4960395E-04 9.4960395E-04   0.000E+00  0.000E+00  0.000E+00 h/b

 cartesian forces (eV/Angstrom) at end:
    1      0.04883059411976     0.04883059411976     0.04883059411976
    2     -0.04883059411976    -0.04883059411976    -0.04883059411976
 frms,max,avg= 4.8830594E-02 4.8830594E-02   0.000E+00  0.000E+00  0.000E+00 e/A
 length scales=  6.743438678772  6.743438678772  6.743438678772 bohr
              =  3.568474056330  3.568474056330  3.568474056330 angstroms
 prteigrs : about to open file t27_MPI4o_DS1_EIG
 Fermi (or HOMO) energy (hartree) =   0.61034   Average Vxc (hartree)=  -0.49764
 Eigenvalues (hartree) for nkpt=   3  k points:
 kpt#   1, nband= 12, wtk=  0.33333, kpt= -0.2500  0.5000  0.0000 (reduced coord)
  -0.15580    0.01381    0.16193    0.22839    0.62701    0.82523    0.87993    0.89621
   1.14270    1.26665    1.41413    1.53547
      occupation numbers for kpt#   1
   2.00000    2.00000    2.00000    2.00000    0.00000    0.00000    0.00000    0.00000
   0.00000    0.00000    0.00000    0.00000
 prteigrs : prtvol=0 or 1, do not print more k-points.

 Fermi (or HOMO) energy (eV) =  16.60824   Average Vxc (eV)= -13.54160
 Eigenvalues (   eV  ) for nkpt=   3  k points:
 kpt#   1, nband= 12, wtk=  0.33333, kpt= -0.2500  0.5000  0.0000 (reduced coord)
  -4.23962    0.37566    4.40624    6.21483   17.06191   22.45568   23.94398   24.38698
  31.09457   34.46718   38.48031   41.78220
 prteigrs : prtvol=0 or 1, do not print more k-points.


--------------------------------------------------------------------------------
 Components of total free energy (in Hartree) :

    Kinetic energy  =  7.03358869283986E+00
    Hartree energy  =  9.82813926848669E-01
    XC energy       = -3.82050139427374E+00
    Ewald energy    = -1.27809280101736E+01
    PspCore energy  =  6.14671985640683E-01
    Loc. psp. energy= -5.25718219235560E+00
    Spherical terms =  1.77219923965253E+00
    >>>>> Internal E= -1.14553377518212E+01

    -kT*entropy     = -7.55261880796144E-19
    >>>>>>>>> Etotal= -1.14553377518212E+01

 "Double-counting" decomposition of free energy:
    Band energy     =  6.92980477282597E-01
    Ewald energy    = -1.27809280101736E+01
    PspCore energy  =  6.14671985640683E-01
    Dble-C XC-energy= -1.09111076479118E-01
    Spherical terms =  1.27048598459761E-01
    >>>>> Internal E= -1.14553380252696E+01

    -kT*entropy     = -7.55261880796144E-19
    >>>> Etotal (DC)= -1.14553380252696E+01

  >Total energy in eV           = -3.11715592810755E+02
  >Total DC energy in eV        = -3.11715600251667E+02
--------------------------------------------------------------------------------
 rms coord change=  1.4089E-02   atom, delta coord (reduced):
     1       -0.014089116003     -0.014089116003     -0.014089116003
     2        0.014089116003      0.014089116003      0.014089116003

 Cartesian components of stress tensor (hartree/bohr^3)
  sigma(1 1)= -1.19243082E-04  sigma(3 2)=  1.64154542E-05
  sigma(2 2)= -1.19243082E-04  sigma(3 1)=  1.64154542E-05
  sigma(3 3)= -1.19243082E-04  sigma(2 1)=  1.64154542E-05

-Cartesian components of stress tensor (GPa)         [Pressure=  3.5083E+00 GPa]
- sigma(1 1)= -3.50825200E+00  sigma(3 2)=  4.82959254E-01
- sigma(2 2)= -3.50825200E+00  sigma(3 1)=  4.82959254E-01
- sigma(3 3)= -3.50825200E+00  sigma(2 1)=  4.82959254E-01

================================================================================
== DATASET  2 ==================================================================
-   nproc =    4   -> not optimal: autoparal keyword recommended in input file

 Exchange-correlation functional for the present dataset will be:
  LDA: new Teter (4/93) with spin-polarized option - ixc=1
 Citation for XC functional:
  S. Goedecker, M. Teter, J. Huetter, PRB 54, 1703 (1996)

 Real(R)+Recip(G) space primitive vectors, cartesian coordinates (Bohr,Bohr^-1):
 R(1)=  0.0000000  3.5000000  3.5000000  G(1)= -0.1428571  0.1428571  0.1428571
 R(2)=  3.5000000  0.0000000  3.5000000  G(2)=  0.1428571 -0.1428571  0.1428571
 R(3)=  3.5000000  3.5000000  0.0000000  G(3)=  0.1428571  0.1428571 -0.1428571
 Unit cell volume ucvol=  8.5750000E+01 bohr^3
 Angles (23,13,12)=  6.00000000E+01  6.00000000E+01  6.00000000E+01 degrees

 Coarse grid specifications (used for wave-functions):

 getcut: wavevector=  0.0000  0.0000  0.0000  ngfft=  18  18  18
         ecut(hartree)=     18.150   => boxcut(ratio)=   1.90205

 Fine grid specifications (used for densities):

 getcut: wavevector=  0.0000  0.0000  0.0000  ngfft=  36  36  36
         ecut(hartree)=     60.500   => boxcut(ratio)=   2.07719
--------------------------------------------------------------------------------

_setup2: Arith. and geom. avg. npw (full set) are     313.667     313.661

================================================================================

=== [ionmov= 3] Broyden-Fletcher-Goldfard-Shanno method (forces,Tot energy) 
================================================================================

--- Iteration: (1/3) Internal Cycle: (1/1)
--------------------------------------------------------------------------------

---SELF-CONSISTENT-FIELD CONVERGENCE--------------------------------------------

     iter   Etot(hartree)      deltaE(h)  residm     nres2    diffor    maxfor
 ETOT  1  -11.331083819053    -1.133E+01 6.817E-01 1.682E+01 8.779E-02 8.779E-02
 ETOT  2  -11.425501081110    -9.442E-02 2.802E-04 2.037E+00 8.087E-03 9.588E-02
 ETOT  3  -11.422587015219     2.914E-03 1.942E-04 2.229E-02 1.618E-03 9.750E-02
 ETOT  4  -11.422592117559    -5.102E-06 8.397E-07 4.224E-03 1.723E-04 9.732E-02
 ETOT  5  -11.422592095804     2.176E-08 1.624E-07 2.685E-04 1.458E-04 9.718E-02
 ETOT  6  -11.422591698887     3.969E-07 2.050E-08 7.909E-06 3.736E-05 9.722E-02

 Cartesian components of stress tensor (hartree/bohr^3)
  sigma(1 1)=  9.14623521E-04  sigma(3 2)= -3.56161271E-04
  sigma(2 2)=  9.14623521E-04  sigma(3 1)= -3.56161271E-04
  sigma(3 3)=  9.14623521E-04  sigma(2 1)= -3.56161271E-04


 scprqt:  WARNING -
  nstep=    6 was not enough SCF cycles to converge;
  maximum force difference=  3.736E-05 exceeds toldff=  1.000E-07

 Integrated electronic density in atomic spheres:
 ------------------------------------------------
 Atom  Sphere_radius  Integrated_density
    1        1.11202          1.26850068
    2        1.11202          1.27801077

 PAW TEST:
 ==== Compensation charge inside spheres ============
 The following values must be close to each other ...
 Compensation charge over spherical meshes =      0.241742851605868
 Compensation charge over fine fft grid    =      0.241761079753354

 ==== Results concerning PAW augmentation regions ====

 Total pseudopotential strength Dij (hartree):
 Atom #  1
   0.49061   0.59189   0.00002   0.00002   0.00002   0.00003   0.00003   0.00003
   0.59189   0.71103   0.00001   0.00001   0.00001   0.00003   0.00003   0.00003
   0.00002   0.00001  -0.08585  -0.00006  -0.00006  -0.08611  -0.00008  -0.00008
   0.00002   0.00001  -0.00006  -0.08585  -0.00006  -0.00008  -0.08611  -0.00008
   0.00002   0.00001  -0.00006  -0.00006  -0.08585  -0.00008  -0.00008  -0.08611
   0.00003   0.00003  -0.08611  -0.00008  -0.00008  -0.08217  -0.00009  -0.00009
   0.00003   0.00003  -0.00008  -0.08611  -0.00008  -0.00009  -0.08217  -0.00009
   0.00003   0.00003  -0.00008  -0.00008  -0.08611  -0.00009  -0.00009  -0.08217
 Atom #  2
   0.49061   0.59189  -0.00002  -0.00002  -0.00002  -0.00003  -0.00003  -0.00003
   0.59189   0.71103  -0.00001  -0.00001  -0.00001  -0.00003  -0.00003  -0.00003
  -0.00002  -0.00001  -0.08585  -0.00006  -0.00006  -0.08611  -0.00008  -0.00008
  -0.00002  -0.00001  -0.00006  -0.08585  -0.00006  -0.00008  -0.08611  -0.00008
  -0.00002  -0.00001  -0.00006  -0.00006  -0.08585  -0.00008  -0.00008  -0.08611
  -0.00003  -0.00003  -0.08611  -0.00008  -0.00008  -0.08217  -0.00009  -0.00009
  -0.00003  -0.00003  -0.00008  -0.08611  -0.00008  -0.00009  -0.08217  -0.00009
  -0.00003  -0.00003  -0.00008  -0.00008  -0.08611  -0.00009  -0.00009  -0.08217

 Total pseudopotential strength Dij (eV):
 Atom #  1
  13.35027  16.10605   0.00048   0.00048   0.00048   0.00094   0.00094   0.00094
  16.10605  19.34823   0.00027   0.00027   0.00027   0.00078   0.00078   0.00078
   0.00048   0.00027  -2.33598  -0.00167  -0.00167  -2.34322  -0.00205  -0.00205
   0.00048   0.00027  -0.00167  -2.33598  -0.00167  -0.00205  -2.34322  -0.00205
   0.00048   0.00027  -0.00167  -0.00167  -2.33598  -0.00205  -0.00205  -2.34322
   0.00094   0.00078  -2.34322  -0.00205  -0.00205  -2.23591  -0.00249  -0.00249
   0.00094   0.00078  -0.00205  -2.34322  -0.00205  -0.00249  -2.23591  -0.00249
   0.00094   0.00078  -0.00205  -0.00205  -2.34322  -0.00249  -0.00249  -2.23591
 Atom #  2
  13.35027  16.10605  -0.00048  -0.00048  -0.00048  -0.00094  -0.00094  -0.00094
  16.10605  19.34823  -0.00027  -0.00027  -0.00027  -0.00078  -0.00078  -0.00078
  -0.00048  -0.00027  -2.33598  -0.00167  -0.00167  -2.34322  -0.00205  -0.00205
  -0.00048  -0.00027  -0.00167  -2.33598  -0.00167  -0.00205  -2.34322  -0.00205
  -0.00048  -0.00027  -0.00167  -0.00167  -2.33598  -0.00205  -0.00205  -2.34322
  -0.00094  -0.00078  -2.34322  -0.00205  -0.00205  -2.23591  -0.00249  -0.00249
  -0.00094  -0.00078  -0.00205  -2.34322  -0.00205  -0.00249  -2.23591  -0.00249
  -0.00094  -0.00078  -0.00205  -0.00205  -2.34322  -0.00249  -0.00249  -2.23591

 Augmentation waves occupancies Rhoij:
 Atom #  1
   1.77045  -0.18495  -0.17251  -0.17251  -0.17251   0.08398   0.08398   0.08398
  -0.18495   0.05575   0.03910   0.03910   0.03910  -0.01582  -0.01582  -0.01582
  -0.17251   0.03910   1.83195   0.18913   0.18913  -0.38715  -0.05339  -0.05339
  -0.17251   0.03910   0.18913   1.83195   0.18913  -0.05339  -0.38715  -0.05339
  -0.17251   0.03910   0.18913   0.18913   1.83195  -0.05339  -0.05339  -0.38715
   0.08398  -0.01582  -0.38715  -0.05339  -0.05339   0.13775   0.00702   0.00702
   0.08398  -0.01582  -0.05339  -0.38715  -0.05339   0.00702   0.13775   0.00702
   0.08398  -0.01582  -0.05339  -0.05339  -0.38715   0.00702   0.00702   0.13775
 Atom #  2
   1.77045  -0.18495   0.17251   0.17251   0.17251  -0.08398  -0.08398  -0.08398
  -0.18495   0.05575  -0.03910  -0.03910  -0.03910   0.01582   0.01582   0.01582
   0.17251  -0.03910   1.83195   0.18913   0.18913  -0.38715  -0.05339  -0.05339
   0.17251  -0.03910   0.18913   1.83195   0.18913  -0.05339  -0.38715  -0.05339
   0.17251  -0.03910   0.18913   0.18913   1.83195  -0.05339  -0.05339  -0.38715
  -0.08398   0.01582  -0.38715  -0.05339  -0.05339   0.13775   0.00702   0.00702
  -0.08398   0.01582  -0.05339  -0.38715  -0.05339   0.00702   0.13775   0.00702
  -0.08398   0.01582  -0.05339  -0.05339  -0.38715   0.00702   0.00702   0.13775



---OUTPUT-----------------------------------------------------------------------

 Cartesian coordinates (xcart) [bohr]
  0.00000000000000E+00  0.00000000000000E+00  0.00000000000000E+00
  1.54000000000000E+00  1.54000000000000E+00  1.54000000000000E+00
 Reduced coordinates (xred)
  0.00000000000000E+00  0.00000000000000E+00  0.00000000000000E+00
  2.20000000000000E-01  2.20000000000000E-01  2.20000000000000E-01
 Cartesian forces (fcart) [Ha/bohr]; max,rms= 9.72156E-02 9.72156E-02 (free atoms)
 -9.72155810286594E-02 -9.72155810286594E-02 -9.72155810286594E-02
  9.72155810286594E-02  9.72155810286594E-02  9.72155810286594E-02
 Reduced forces (fred)
  6.80509067200616E-01  6.80509067200616E-01  6.80509067200616E-01
 -6.80509067200616E-01 -6.80509067200616E-01 -6.80509067200616E-01
 Scale of Primitive Cell (acell) [bohr]
  7.00000000000000E+00  7.00000000000000E+00  7.00000000000000E+00
 Real space primitive translations (rprimd) [bohr]
  0.00000000000000E+00  3.50000000000000E+00  3.50000000000000E+00
  3.50000000000000E+00  0.00000000000000E+00  3.50000000000000E+00
  3.50000000000000E+00  3.50000000000000E+00  0.00000000000000E+00
 Unitary Cell Volume (ucvol) [Bohr^3]=  8.57500000000000E+01
 Angles (23,13,12)= [degrees]
  6.00000000000000E+01  6.00000000000000E+01  6.00000000000000E+01
 Lengths [Bohr]
  4.94974746830583E+00  4.94974746830583E+00  4.94974746830583E+00
 Stress tensor in cartesian coordinates (strten) [Ha/bohr^3]
  9.14623521443025E-04 -3.56161271424120E-04 -3.56161271424120E-04
 -3.56161271424120E-04  9.14623521443023E-04 -3.56161271424119E-04
 -3.56161271424120E-04 -3.56161271424119E-04  9.14623521443024E-04
 Total energy (etotal) [Ha]= -1.14225916988874E+01

--- Iteration: (2/3) Internal Cycle: (1/1)
--------------------------------------------------------------------------------

---SELF-CONSISTENT-FIELD CONVERGENCE--------------------------------------------

     iter   Etot(hartree)      deltaE(h)  residm     nres2    diffor    maxfor
 ETOT  1  -11.448032049547    -1.145E+01 2.974E+01 1.189E+01 9.312E-02 4.100E-03
 ETOT  2  -11.455781351983    -7.749E-03 7.281E-04 7.419E-01 2.078E-03 6.178E-03
 ETOT  3  -11.455110842196     6.705E-04 4.553E-05 3.454E-02 4.769E-03 1.409E-03
 ETOT  4  -11.455097946426     1.290E-05 3.249E-06 1.107E-03 1.210E-03 1.989E-04
 ETOT  5  -11.455098459842    -5.134E-07 6.015E-08 2.866E-05 2.925E-04 4.914E-04
 ETOT  6  -11.455098428196     3.165E-08 5.329E-09 1.722E-06 6.435E-05 4.270E-04

 Cartesian components of stress tensor (hartree/bohr^3)
  sigma(1 1)=  3.09851838E-04  sigma(3 2)=  1.80966624E-05
  sigma(2 2)=  3.09851838E-04  sigma(3 1)=  1.80966624E-05
  sigma(3 3)=  3.09851838E-04  sigma(2 1)=  1.80966624E-05


 scprqt:  WARNING -
  nstep=    6 was not enough SCF cycles to converge;
  maximum force difference=  6.435E-05 exceeds toldff=  1.000E-07

 Integrated electronic density in atomic spheres:
 ------------------------------------------------
 Atom  Sphere_radius  Integrated_density
    1        1.11202          1.30623898
    2        1.11202          1.31322716

 PAW TEST:
 ==== Compensation charge inside spheres ============
 The following values must be close to each other ...
 Compensation charge over spherical meshes =      0.253415847808647
 Compensation charge over fine fft grid    =      0.253438574113218

 ==== Results concerning PAW augmentation regions ====

 Total pseudopotential strength Dij (hartree):
 Atom #  1
   0.48800   0.58848  -0.00000  -0.00000  -0.00000  -0.00000  -0.00000  -0.00000
   0.58848   0.70661  -0.00000  -0.00000  -0.00000  -0.00000  -0.00000  -0.00000
  -0.00000  -0.00000  -0.08273   0.00004   0.00004  -0.08238   0.00004   0.00004
  -0.00000  -0.00000   0.00004  -0.08273   0.00004   0.00004  -0.08238   0.00004
  -0.00000  -0.00000   0.00004   0.00004  -0.08273   0.00004   0.00004  -0.08238
  -0.00000  -0.00000  -0.08238   0.00004   0.00004  -0.07772   0.00005   0.00005
  -0.00000  -0.00000   0.00004  -0.08238   0.00004   0.00005  -0.07772   0.00005
  -0.00000  -0.00000   0.00004   0.00004  -0.08238   0.00005   0.00005  -0.07772
 Atom #  2
   0.48800   0.58848   0.00000   0.00000   0.00000   0.00000   0.00000   0.00000
   0.58848   0.70661   0.00000   0.00000   0.00000   0.00000   0.00000   0.00000
   0.00000   0.00000  -0.08273   0.00004   0.00004  -0.08238   0.00004   0.00004
   0.00000   0.00000   0.00004  -0.08273   0.00004   0.00004  -0.08238   0.00004
   0.00000   0.00000   0.00004   0.00004  -0.08273   0.00004   0.00004  -0.08238
   0.00000   0.00000  -0.08238   0.00004   0.00004  -0.07772   0.00005   0.00005
   0.00000   0.00000   0.00004  -0.08238   0.00004   0.00005  -0.07772   0.00005
   0.00000   0.00000   0.00004   0.00004  -0.08238   0.00005   0.00005  -0.07772

 Total pseudopotential strength Dij (eV):
 Atom #  1
  13.27920  16.01336  -0.00005  -0.00005  -0.00005  -0.00004  -0.00004  -0.00004
  16.01336  19.22788  -0.00007  -0.00007  -0.00007  -0.00006  -0.00006  -0.00006
  -0.00005  -0.00007  -2.25114   0.00097   0.00097  -2.24179   0.00111   0.00111
  -0.00005  -0.00007   0.00097  -2.25114   0.00097   0.00111  -2.24179   0.00111
  -0.00005  -0.00007   0.00097   0.00097  -2.25114   0.00111   0.00111  -2.24179
  -0.00004  -0.00006  -2.24179   0.00111   0.00111  -2.11485   0.00127   0.00127
  -0.00004  -0.00006   0.00111  -2.24179   0.00111   0.00127  -2.11485   0.00127
  -0.00004  -0.00006   0.00111   0.00111  -2.24179   0.00127   0.00127  -2.11485
 Atom #  2
  13.27920  16.01336   0.00005   0.00005   0.00005   0.00004   0.00004   0.00004
  16.01336  19.22788   0.00007   0.00007   0.00007   0.00006   0.00006   0.00006
   0.00005   0.00007  -2.25114   0.00097   0.00097  -2.24179   0.00111   0.00111
   0.00005   0.00007   0.00097  -2.25114   0.00097   0.00111  -2.24179   0.00111
   0.00005   0.00007   0.00097   0.00097  -2.25114   0.00111   0.00111  -2.24179
   0.00004   0.00006  -2.24179   0.00111   0.00111  -2.11485   0.00127   0.00127
   0.00004   0.00006   0.00111  -2.24179   0.00111   0.00127  -2.11485   0.00127
   0.00004   0.00006   0.00111   0.00111  -2.24179   0.00127   0.00127  -2.11485

 Augmentation waves occupancies Rhoij:
 Atom #  1
   1.88822  -0.24213  -0.00284  -0.00284  -0.00284   0.00206   0.00206   0.00206
  -0.24213   0.06351   0.00346   0.00346   0.00346  -0.00268  -0.00268  -0.00268
  -0.00284   0.00346   2.01884  -0.06382  -0.06382  -0.46941   0.05890   0.05890
  -0.00284   0.00346  -0.06382   2.01884  -0.06382   0.05890  -0.46941   0.05890
  -0.00284   0.00346  -0.06382  -0.06382   2.01884   0.05890   0.05890  -0.46941
   0.00206  -0.00268  -0.46941   0.05890   0.05890   0.16464  -0.02663  -0.02663
   0.00206  -0.00268   0.05890  -0.46941   0.05890  -0.02663   0.16464  -0.02663
   0.00206  -0.00268   0.05890   0.05890  -0.46941  -0.02663  -0.02663   0.16464
 Atom #  2
   1.88822  -0.24213   0.00284   0.00284   0.00284  -0.00206  -0.00206  -0.00206
  -0.24213   0.06351  -0.00346  -0.00346  -0.00346   0.00268   0.00268   0.00268
   0.00284  -0.00346   2.01884  -0.06382  -0.06382  -0.46941   0.05890   0.05890
   0.00284  -0.00346  -0.06382   2.01884  -0.06382   0.05890  -0.46941   0.05890
   0.00284  -0.00346  -0.06382  -0.06382   2.01884   0.05890   0.05890  -0.46941
  -0.00206   0.00268  -0.46941   0.05890   0.05890   0.16464  -0.02663  -0.02663
  -0.00206   0.00268   0.05890  -0.46941   0.05890  -0.02663   0.16464  -0.02663
  -0.00206   0.00268   0.05890   0.05890  -0.46941  -0.02663  -0.02663   0.16464



---OUTPUT-----------------------------------------------------------------------

 Cartesian coordinates (xcart) [bohr]
 -9.45481113168725E-02 -9.45481113168725E-02 -9.45481113168725E-02
  1.59229250462620E+00  1.59229250462620E+00  1.59229250462620E+00
 Reduced coordinates (xred)
 -1.38879401469513E-02 -1.38879401469513E-02 -1.38879401469513E-02
  2.33887940146951E-01  2.33887940146951E-01  2.33887940146951E-01
 Cartesian forces (fcart) [Ha/bohr]; max,rms= 4.27048E-04 4.27048E-04 (free atoms)
 -4.27047739502885E-04 -4.27047739502885E-04 -4.27047739502885E-04
  4.27047739502885E-04  4.27047739502885E-04  4.27047739502885E-04
 Reduced forces (fred)
  2.90731071598123E-03  2.90731071598123E-03  2.90731071598123E-03
 -2.90731071598123E-03 -2.90731071598123E-03 -2.90731071598123E-03
 Scale of Primitive Cell (acell) [bohr]
  6.80792906049696E+00  6.80792906049696E+00  6.80792906049696E+00
 Real space primitive translations (rprimd) [bohr]
  0.00000000000000E+00  3.40396453024848E+00  3.40396453024848E+00
  3.40396453024848E+00  0.00000000000000E+00  3.40396453024848E+00
  3.40396453024848E+00  3.40396453024848E+00  0.00000000000000E+00
 Unitary Cell Volume (ucvol) [Bohr^3]=  7.88833005796616E+01
 Angles (23,13,12)= [degrees]
  6.00000000000000E+01  6.00000000000000E+01  6.00000000000000E+01
 Lengths [Bohr]
  4.81393280451436E+00  4.81393280451436E+00  4.81393280451436E+00
 Stress tensor in cartesian coordinates (strten) [Ha/bohr^3]
  3.09851838430020E-04  1.80966624095012E-05  1.80966624095017E-05
  1.80966624095012E-05  3.09851838430020E-04  1.80966624095022E-05
  1.80966624095017E-05  1.80966624095022E-05  3.09851838430018E-04
 Total energy (etotal) [Ha]= -1.14550984281959E+01

 Difference of energy with previous step (new-old):
           Absolute (Ha)=-3.25067E-02
           Relative     =-2.84178E-03

--- Iteration: (3/3) Internal Cycle: (1/1)
--------------------------------------------------------------------------------

---SELF-CONSISTENT-FIELD CONVERGENCE--------------------------------------------

     iter   Etot(hartree)      deltaE(h)  residm     nres2    diffor    maxfor
 ETOT  1  -11.455222331223    -1.146E+01 1.520E-05 5.802E-01 1.172E-03 7.454E-04
 ETOT  2  -11.455340106915    -1.178E-04 6.575E-09 9.885E-03 1.830E-04 9.284E-04
 ETOT  3  -11.455338148139     1.959E-06 4.456E-08 1.384E-03 3.562E-06 9.320E-04
 ETOT  4  -11.455338147312     8.265E-10 1.117E-08 7.266E-06 3.514E-06 9.355E-04
 ETOT  5  -11.455338154154    -6.842E-09 1.037E-10 8.242E-09 8.168E-07 9.363E-04
 ETOT  6  -11.455338154153     1.352E-12 5.765E-13 3.578E-10 2.682E-07 9.360E-04

 Cartesian components of stress tensor (hartree/bohr^3)
  sigma(1 1)= -1.19137593E-04  sigma(3 2)=  1.63457893E-05
  sigma(2 2)= -1.19137593E-04  sigma(3 1)=  1.63457893E-05
  sigma(3 3)= -1.19137593E-04  sigma(2 1)=  1.63457893E-05


 scprqt:  WARNING -
  nstep=    6 was not enough SCF cycles to converge;
  maximum force difference=  2.682E-07 exceeds toldff=  1.000E-07

 Integrated electronic density in atomic spheres:
 ------------------------------------------------
 Atom  Sphere_radius  Integrated_density
    1        1.11202          1.32721950
    2        1.11202          1.32002597

 PAW TEST:
 ==== Compensation charge inside spheres ============
 The following values must be close to each other ...
 Compensation charge over spherical meshes =      0.258919725946023
 Compensation charge over fine fft grid    =      0.258920512211879

 ==== Results concerning PAW augmentation regions ====

 Total pseudopotential strength Dij (hartree):
 Atom #  1
   0.48721   0.58744  -0.00000  -0.00000  -0.00000  -0.00000  -0.00000  -0.00000
   0.58744   0.70526  -0.00000  -0.00000  -0.00000  -0.00000  -0.00000  -0.00000
  -0.00000  -0.00000  -0.08174   0.00004   0.00004  -0.08120   0.00004   0.00004
  -0.00000  -0.00000   0.00004  -0.08174   0.00004   0.00004  -0.08120   0.00004
  -0.00000  -0.00000   0.00004   0.00004  -0.08174   0.00004   0.00004  -0.08120
  -0.00000  -0.00000  -0.08120   0.00004   0.00004  -0.07630   0.00005   0.00005
  -0.00000  -0.00000   0.00004  -0.08120   0.00004   0.00005  -0.07630   0.00005
  -0.00000  -0.00000   0.00004   0.00004  -0.08120   0.00005   0.00005  -0.07630
 Atom #  2
   0.48721   0.58744   0.00000   0.00000   0.00000   0.00000   0.00000   0.00000
   0.58744   0.70526   0.00000   0.00000   0.00000   0.00000   0.00000   0.00000
   0.00000   0.00000  -0.08174   0.00004   0.00004  -0.08120   0.00004   0.00004
   0.00000   0.00000   0.00004  -0.08174   0.00004   0.00004  -0.08120   0.00004
   0.00000   0.00000   0.00004   0.00004  -0.08174   0.00004   0.00004  -0.08120
   0.00000   0.00000  -0.08120   0.00004   0.00004  -0.07630   0.00005   0.00005
   0.00000   0.00000   0.00004  -0.08120   0.00004   0.00005  -0.07630   0.00005
   0.00000   0.00000   0.00004   0.00004  -0.08120   0.00005   0.00005  -0.07630

 Total pseudopotential strength Dij (eV):
 Atom #  1
  13.25771  15.98516  -0.00003  -0.00003  -0.00003  -0.00002  -0.00002  -0.00002
  15.98516  19.19107  -0.00004  -0.00004  -0.00004  -0.00003  -0.00003  -0.00003
  -0.00003  -0.00004  -2.22415   0.00101   0.00101  -2.20952   0.00117   0.00117
  -0.00003  -0.00004   0.00101  -2.22415   0.00101   0.00117  -2.20952   0.00117
  -0.00003  -0.00004   0.00101   0.00101  -2.22415   0.00117   0.00117  -2.20952
  -0.00002  -0.00003  -2.20952   0.00117   0.00117  -2.07632   0.00134   0.00134
  -0.00002  -0.00003   0.00117  -2.20952   0.00117   0.00134  -2.07632   0.00134
  -0.00002  -0.00003   0.00117   0.00117  -2.20952   0.00134   0.00134  -2.07632
 Atom #  2
  13.25771  15.98516   0.00003   0.00003   0.00003   0.00002   0.00002   0.00002
  15.98516  19.19107   0.00004   0.00004   0.00004   0.00003   0.00003   0.00003
   0.00003   0.00004  -2.22415   0.00101   0.00101  -2.20952   0.00117   0.00117
   0.00003   0.00004   0.00101  -2.22415   0.00101   0.00117  -2.20952   0.00117
   0.00003   0.00004   0.00101   0.00101  -2.22415   0.00117   0.00117  -2.20952
   0.00002   0.00003  -2.20952   0.00117   0.00117  -2.07632   0.00134   0.00134
   0.00002   0.00003   0.00117  -2.20952   0.00117   0.00134  -2.07632   0.00134
   0.00002   0.00003   0.00117   0.00117  -2.20952   0.00134   0.00134  -2.07632

 Augmentation waves occupancies Rhoij:
 Atom #  1
   1.93408  -0.26336  -0.00067  -0.00067  -0.00067   0.00093   0.00093   0.00093
  -0.26336   0.06819   0.00237   0.00237   0.00237  -0.00233  -0.00233  -0.00233
  -0.00067   0.00237   2.08177  -0.07165  -0.07165  -0.49628   0.06349   0.06349
  -0.00067   0.00237  -0.07165   2.08177  -0.07165   0.06349  -0.49628   0.06349
  -0.00067   0.00237  -0.07165  -0.07165   2.08177   0.06349   0.06349  -0.49628
   0.00093  -0.00233  -0.49628   0.06349   0.06349   0.17637  -0.02875  -0.02875
   0.00093  -0.00233   0.06349  -0.49628   0.06349  -0.02875   0.17637  -0.02875
   0.00093  -0.00233   0.06349   0.06349  -0.49628  -0.02875  -0.02875   0.17637
 Atom #  2
   1.93408  -0.26336   0.00067   0.00067   0.00067  -0.00093  -0.00093  -0.00093
  -0.26336   0.06819  -0.00237  -0.00237  -0.00237   0.00233   0.00233   0.00233
   0.00067  -0.00237   2.08177  -0.07165  -0.07165  -0.49628   0.06349   0.06349
   0.00067  -0.00237  -0.07165   2.08177  -0.07165   0.06349  -0.49628   0.06349
   0.00067  -0.00237  -0.07165  -0.07165   2.08177   0.06349   0.06349  -0.49628
  -0.00093   0.00233  -0.49628   0.06349   0.06349   0.17637  -0.02875  -0.02875
  -0.00093   0.00233   0.06349  -0.49628   0.06349  -0.02875   0.17637  -0.02875
  -0.00093   0.00233   0.06349   0.06349  -0.49628  -0.02875  -0.02875   0.17637



---OUTPUT-----------------------------------------------------------------------

 Cartesian coordinates (xcart) [bohr]
 -9.49953557254066E-02 -9.49953557254066E-02 -9.49953557254066E-02
  1.57855458220893E+00  1.57855458220893E+00  1.57855458220893E+00
 Reduced coordinates (xred)
 -1.40870535442836E-02 -1.40870535442837E-02 -1.40870535442837E-02
  2.34087053544284E-01  2.34087053544284E-01  2.34087053544284E-01
 Cartesian forces (fcart) [Ha/bohr]; max,rms= 9.36016E-04 9.36016E-04 (free atoms)
  9.36015750638170E-04  9.36015750638170E-04  9.36015750638170E-04
 -9.36015750638170E-04 -9.36015750638170E-04 -9.36015750638170E-04
 Reduced forces (fred)
 -6.31197637724163E-03 -6.31197637724163E-03 -6.31197637724163E-03
  6.31197637724163E-03  6.31197637724163E-03  6.31197637724163E-03
 Scale of Primitive Cell (acell) [bohr]
  6.74345102947057E+00  6.74345102947057E+00  6.74345102947057E+00
 Real space primitive translations (rprimd) [bohr]
  0.00000000000000E+00  3.37172551473528E+00  3.37172551473528E+00
  3.37172551473528E+00  0.00000000000000E+00  3.37172551473528E+00
  3.37172551473528E+00  3.37172551473528E+00  0.00000000000000E+00
 Unitary Cell Volume (ucvol) [Bohr^3]=  7.66631452031082E+01
 Angles (23,13,12)= [degrees]
  6.00000000000000E+01  6.00000000000000E+01  6.00000000000000E+01
 Lengths [Bohr]
  4.76833995153804E+00  4.76833995153804E+00  4.76833995153804E+00
 Stress tensor in cartesian coordinates (strten) [Ha/bohr^3]
 -1.19137592815953E-04  1.63457893235750E-05  1.63457893235755E-05
  1.63457893235750E-05 -1.19137592815953E-04  1.63457893235717E-05
  1.63457893235755E-05  1.63457893235717E-05 -1.19137592815951E-04
 Total energy (etotal) [Ha]= -1.14553381541529E+01

 Difference of energy with previous step (new-old):
           Absolute (Ha)=-2.39726E-04
           Relative     =-2.09272E-05

 fconv : WARNING -
  ntime=    3 was not enough Broyd/MD steps to converge gradients: 
  max grad (force/stress) = 1.1914E-02 > tolmxf= 1.0000E-05 ha/bohr (free atoms)

================================================================================

 ----iterations are completed or convergence reached----

 Mean square residual over all n,k,spin=   2.8216E-13; max=  5.7650E-13
- nxfh > 0 in outwf is deprecated and will be removed in ABINIT8
 reduced coordinates (array xred) for    2 atoms
      -0.014087053544     -0.014087053544     -0.014087053544
       0.234087053544      0.234087053544      0.234087053544
 rms dE/dt=  6.3120E-03; max dE/dt=  6.3120E-03; dE/dt below (all hartree)
    1      -0.006311976377     -0.006311976377     -0.006311976377
    2       0.006311976377      0.006311976377      0.006311976377

 cartesian coordinates (angstrom) at end:
    1     -0.05026937717178    -0.05026937717178    -0.05026937717178
    2      0.83533510742028     0.83533510742028     0.83533510742028

 cartesian forces (hartree/bohr) at end:
    1      0.00093601575064     0.00093601575064     0.00093601575064
    2     -0.00093601575064    -0.00093601575064    -0.00093601575064
 frms,max,avg= 9.3601575E-04 9.3601575E-04   0.000E+00  0.000E+00  0.000E+00 h/b

 cartesian forces (eV/Angstrom) at end:
    1      0.04813186107823     0.04813186107823     0.04813186107823
    2     -0.04813186107823    -0.04813186107823    -0.04813186107823
 frms,max,avg= 4.8131861E-02 4.8131861E-02   0.000E+00  0.000E+00  0.000E+00 e/A
 length scales=  6.743451029471  6.743451029471  6.743451029471 bohr
              =  3.568480592039  3.568480592039  3.568480592039 angstroms
 prteigrs : about to open file t27_MPI4o_DS2_EIG
 Fermi (or HOMO) energy (hartree) =   0.61034   Average Vxc (hartree)=  -0.49764
 Eigenvalues (hartree) for nkpt=   3  k points:
 kpt#   1, nband= 12, wtk=  0.33333, kpt= -0.2500  0.5000  0.0000 (reduced coord)
  -0.15581    0.01380    0.16193    0.22839    0.62701    0.82523    0.87993    0.89620
   1.14269    1.26664    1.41412    1.53546
      occupation numbers for kpt#   1
   2.00000    2.00000    2.00000    2.00000    0.00000    0.00000    0.00000    0.00000
   0.00000    0.00000    0.00000    0.00000
 prteigrs : prtvol=0 or 1, do not print more k-points.

 Fermi (or HOMO) energy (eV) =  16.60817   Average Vxc (eV)= -13.54158
 Eigenvalues (   eV  ) for nkpt=   3  k points:
 kpt#   1, nband= 12, wtk=  0.33333, kpt= -0.2500  0.5000  0.0000 (reduced coord)
  -4.23967    0.37564    4.40623    6.21469   17.06170   22.45561   23.94401   24.38675
  31.09428   34.46708   38.48006   41.78206
 prteigrs : prtvol=0 or 1, do not print more k-points.


--------------------------------------------------------------------------------
 Components of total free energy (in Hartree) :

    Kinetic energy  =  7.03357455942412E+00
    Hartree energy  =  9.82816741706296E-01
    XC energy       = -3.82049667959989E+00
    Ewald energy    = -1.27809036743887E+01
    PspCore energy  =  6.14668608313065E-01
    Loc. psp. energy= -5.25719474111678E+00
    Spherical terms =  1.77219820384030E+00
    >>>>> Internal E= -1.14553369818216E+01

    -kT*entropy     = -7.55261880796144E-19
    >>>>>>>>> Etotal= -1.14553369818216E+01

 "Double-counting" decomposition of free energy:
    Band energy     =  6.92963548105495E-01
    Ewald energy    = -1.27809036743887E+01
    PspCore energy  =  6.14668608313065E-01
    Dble-C XC-energy= -1.09115263726242E-01
    Spherical terms =  1.27048627543493E-01
    >>>>> Internal E= -1.14553381541529E+01

    -kT*entropy     = -7.55261880796144E-19
    >>>> Etotal (DC)= -1.14553381541529E+01

  >Total energy in eV           = -3.11715571858002E+02
  >Total DC energy in eV        = -3.11715603758758E+02
--------------------------------------------------------------------------------
 rms coord change=  1.4087E-02   atom, delta coord (reduced):
     1       -0.014087053544     -0.014087053544     -0.014087053544
     2        0.014087053544      0.014087053544      0.014087053544

 Cartesian components of stress tensor (hartree/bohr^3)
  sigma(1 1)= -1.19137593E-04  sigma(3 2)=  1.63457893E-05
  sigma(2 2)= -1.19137593E-04  sigma(3 1)=  1.63457893E-05
  sigma(3 3)= -1.19137593E-04  sigma(2 1)=  1.63457893E-05

-Cartesian components of stress tensor (GPa)         [Pressure=  3.5051E+00 GPa]
- sigma(1 1)= -3.50514841E+00  sigma(3 2)=  4.80909644E-01
- sigma(2 2)= -3.50514841E+00  sigma(3 1)=  4.80909644E-01
- sigma(3 3)= -3.50514841E+00  sigma(2 1)=  4.80909644E-01

== END DATASET(S) ==============================================================
================================================================================
  
 -outvars: echo values of variables after computation  --------
            acell1     6.7434386788E+00  6.7434386788E+00  6.7434386788E+00 Bohr
            acell2     6.7434510295E+00  6.7434510295E+00  6.7434510295E+00 Bohr
              amu      1.20110000E+01
           diemac      1.20000000E+01
          dilatmx      1.10000000E+00
             ecut      1.50000000E+01 Hartree
           ecutsm      5.00000000E-01 Hartree
           enunit           2
           etotal1    -1.1455338025E+01
           etotal2    -1.1455338154E+01
            fcart1     9.4960394602E-04  9.4960394602E-04  9.4960394602E-04
                      -9.4960394602E-04 -9.4960394602E-04 -9.4960394602E-04
            fcart2     9.3601575064E-04  9.3601575064E-04  9.3601575064E-04
                      -9.3601575064E-04 -9.3601575064E-04 -9.3601575064E-04
-          fftalg         312
           ionmov           3
           jdtset        1    2
              kpt     -2.50000000E-01  5.00000000E-01  0.00000000E+00
                      -2.50000000E-01 -2.50000000E-01  2.50000000E-01
                      -2.50000000E-01  0.00000000E+00  0.00000000E+00
           kptopt           0
P           mkmem           1
            natom           2
            nband          12
           ndtset           2
            ngfft          18      18      18
          ngfftdg          36      36      36
             nkpt           3
            nstep1          7
            nstep2          6
             nsym          12
            ntime           3
           ntypat           1
              occ      2.000000  2.000000  2.000000  2.000000  0.000000  0.000000
                       0.000000  0.000000  0.000000  0.000000  0.000000  0.000000
                       2.000000  2.000000  2.000000  2.000000  0.000000  0.000000
                       0.000000  0.000000  0.000000  0.000000  0.000000  0.000000
                       2.000000  2.000000  2.000000  2.000000  0.000000  0.000000
                       0.000000  0.000000  0.000000  0.000000  0.000000  0.000000
           occopt           7
          optcell           1
        optforces           1
        pawecutdg      5.00000000E+01 Hartree
         pawmixdg           1
            rprim      0.0000000000E+00  5.0000000000E-01  5.0000000000E-01
                       5.0000000000E-01  0.0000000000E+00  5.0000000000E-01
                       5.0000000000E-01  5.0000000000E-01  0.0000000000E+00
          spgroup         166
           strten1    -1.1924308199E-04 -1.1924308199E-04 -1.1924308199E-04
                       1.6415454151E-05  1.6415454151E-05  1.6415454151E-05
           strten2    -1.1913759282E-04 -1.1913759282E-04 -1.1913759282E-04
                       1.6345789324E-05  1.6345789324E-05  1.6345789324E-05
           symrel      1  0  0   0  1  0   0  0  1      -1  0  0   0 -1  0   0  0 -1
                       1  0  0   0  0  1   0  1  0      -1  0  0   0  0 -1   0 -1  0
                       0  1  0   0  0  1   1  0  0       0 -1  0   0  0 -1  -1  0  0
                       0  1  0   1  0  0   0  0  1       0 -1  0  -1  0  0   0  0 -1
                       0  0  1   1  0  0   0  1  0       0  0 -1  -1  0  0   0 -1  0
                       0  0  1   0  1  0   1  0  0       0  0 -1   0 -1  0  -1  0  0
            tnons      0.0000000  0.0000000  0.0000000     0.2200000  0.2200000  0.2200000
                       0.0000000  0.0000000  0.0000000     0.2200000  0.2200000  0.2200000
                       0.0000000  0.0000000  0.0000000     0.2200000  0.2200000  0.2200000
                       0.0000000  0.0000000  0.0000000     0.2200000  0.2200000  0.2200000
                       0.0000000  0.0000000  0.0000000     0.2200000  0.2200000  0.2200000
                       0.0000000  0.0000000  0.0000000     0.2200000  0.2200000  0.2200000
           toldff      1.00000000E-07
           tolmxf      1.00000000E-05
           tsmear      1.00000000E-03 Hartree
            typat      1  1
           useylm           1
              wtk        0.33333    0.33333    0.33333
           xangst1    -5.0276644932E-02 -5.0276644932E-02 -5.0276644932E-02
                       8.3534093732E-01  8.3534093732E-01  8.3534093732E-01
           xangst2    -5.0269377172E-02 -5.0269377172E-02 -5.0269377172E-02
                       8.3533510742E-01  8.3533510742E-01  8.3533510742E-01
            xcart1    -9.5009089802E-02 -9.5009089802E-02 -9.5009089802E-02
                       1.5785655991E+00  1.5785655991E+00  1.5785655991E+00
            xcart2    -9.4995355725E-02 -9.4995355725E-02 -9.4995355725E-02
                       1.5785545822E+00  1.5785545822E+00  1.5785545822E+00
             xred1    -1.4089116003E-02 -1.4089116003E-02 -1.4089116003E-02
                       2.3408911600E-01  2.3408911600E-01  2.3408911600E-01
             xred2    -1.4087053544E-02 -1.4087053544E-02 -1.4087053544E-02
                       2.3408705354E-01  2.3408705354E-01  2.3408705354E-01
            znucl        6.00000

================================================================================


- Timing analysis has been suppressed with timopt=0



================================================================================

 Suggested references for the acknowledgment of ABINIT usage.

 The users of ABINIT have little formal obligations with respect to the ABINIT group
 (those specified in the GNU General Public License, http://www.gnu.org/copyleft/gpl.txt).
 However, it is common practice in the scientific literature,
 to acknowledge the efforts of people that have made the research possible.
 In this spirit, please find below suggested citations of work written by ABINIT developers,
 corresponding to implementations inside of ABINIT that you have used in the present run.
 Note also that it will be of great value to readers of publications presenting these results,
 to read papers enabling them to understand the theoretical formalism and details
 of the ABINIT implementation.
 For information on why they are suggested, see also https://www.abinit.org/about/?text=acknowledgments.
-
- [1] Implementation of the Projector Augmented-Wave Method in the ABINIT code.
- M. Torrent, F. Jollet, F. Bottin, G. Zerah, and X. Gonze Comput. Mat. Science 42, 337, (2008).
- Comment : PAW calculations. Strong suggestion to cite this paper.
-
- [2] ABINIT : First-principles approach of materials and nanosystem properties.
- X. Gonze, B. Amadon, P.-M. Anglade, J.-M. Beuken, F. Bottin, P. Boulanger, F. Bruneval,
- D. Caliste, R. Caracas, M. Cote, T. Deutsch, L. Genovese, Ph. Ghosez, M. Giantomassi
- S. Goedecker, D.R. Hamann, P. Hermet, F. Jollet, G. Jomard, S. Leroux, M. Mancini, S. Mazevet,
- M.J.T. Oliveira, G. Onida, Y. Pouillon, T. Rangel, G.-M. Rignanese, D. Sangalli, R. Shaltaf,
- M. Torrent, M.J. Verstraete, G. Zerah, J.W. Zwanziger
- Computer Phys. Comm. 180, 2582-2615 (2009).
- Comment : the third generic paper describing the ABINIT project.
- Note that a version of this paper, that is not formatted for Computer Phys. Comm. 
- is available at https://www.abinit.org/about/ABINIT_CPC_v10.pdf .
- The licence allows the authors to put it on the Web.
-
- [3] A brief introduction to the ABINIT software package.
- X. Gonze, G.-M. Rignanese, M. Verstraete, J.-M. Beuken, Y. Pouillon, R. Caracas, F. Jollet,
- M. Torrent, G. Zerah, M. Mikami, Ph. Ghosez, M. Veithen, J.-Y. Raty, V. Olevano, F. Bruneval,
- L. Reining, R. Godby, G. Onida, D.R. Hamann, and D.C. Allan.
- Z. Kristallogr. 220, 558-562 (2005).
- Comment : the second generic paper describing the ABINIT project. Note that this paper
- should be cited especially if you are using the GW part of ABINIT, as several authors
- of this part are not in the list of authors of the first or third paper.
- The .pdf of the latter paper is available at https://www.abinit.org/about/zfk_0505-06_558-562.pdf.
- Note that it should not redistributed (Copyright by Oldenburg Wissenshaftverlag,
- the licence allows the authors to put it on the Web).
-
- And optionally:
-
- [4] First-principles computation of material properties : the ABINIT software project. 
- X. Gonze, J.-M. Beuken, R. Caracas, F. Detraux, M. Fuchs, G.-M. Rignanese, L. Sindic,
- M. Verstraete, G. Zerah, F. Jollet, M. Torrent, A. Roy, M. Mikami, Ph. Ghosez, J.-Y. Raty, D.C. Allan.
- Computational Materials Science 25, 478-492 (2002). http://dx.doi.org/10.1016/S0927-0256(02)00325-7
- Comment : the original paper describing the ABINIT project.
-
- [5] Fast radix 2, 3, 4 and 5 kernels for Fast Fourier Transformations
- on computers with overlapping multiply-add instructions.
- S. Goedecker, SIAM J. on Scientific Computing 18, 1605 (1997).
-
- Proc.   0 individual time (sec): cpu=          2.8  wall=          2.8

================================================================================

 Calculation completed.
.Delivered  43 WARNINGs and   6 COMMENTs to log file.
+Overall time at end (sec) : cpu=         11.2  wall=         11.3
