
.Version 10.5.8.2 of ABINIT, released Oct 2025.
.(MPI version, prepared for a x86_64_linux_gnu13.2 computer) 

.Copyright (C) 1998-2025 ABINIT group . 
 ABINIT comes with ABSOLUTELY NO WARRANTY.
 It is free software, and you are welcome to redistribute it
 under certain conditions (GNU General Public License,
 see ~abinit/COPYING or http://www.gnu.org/copyleft/gpl.txt).

 ABINIT is a project of the Universite Catholique de Louvain,
 Corning Inc. and other collaborators, see ~abinit/doc/developers/contributors.txt .
 Please read https://docs.abinit.org/theory/acknowledgments for suggested
 acknowledgments of the ABINIT effort.
 For more information, see https://www.abinit.org .

.Starting date : Sat 20 Dec 2025.
- ( at 17h24 )
  
- input  file    -> /home/buildbot/ABINIT3/eos_gnu_13.2_mpich/trunk__codata2022/tests/TestBot_MPI4/paral_t41_MPI4/t41.abi
- output file    -> t41_MPI4.abo
- root for input  files -> t41_MPI4i
- root for output files -> t41_MPI4o

 Symmetries : space group P1 (#  1); Bravais aP (primitive triclinic)
================================================================================
 Values of the parameters that define the memory need of the present run
     intxc =       0    ionmov =      12      iscf =      17    lmnmax =      18
     lnmax =       6     mgfft =      30  mpssoang =       3    mqgrid =    5000
     natom =       8  nloc_mem =       1    nspden =       1   nspinor =       1
    nsppol =       1      nsym =       1    n1xccc =       1    ntypat =       1
    occopt =       3   xclevel =       1
-    mband =         200        mffmem =           1         mkmem =           1
       mpw =         242          nfft =       12150          nkpt =           1
Pmy_natom=         4
 PAW method is used; the additional fine FFT grid is defined by:
   mgfftf=       100    nfftf =    500000
================================================================================
P This job should need less than                     149.367 Mbytes of memory.
  Rough estimation (10% accuracy) of disk space for files :
_ WF disk file :      1.479 Mbytes ; DEN or POT disk file :      3.817 Mbytes.
================================================================================

--------------------------------------------------------------------------------
------------- Echo of variables that govern the present computation ------------
--------------------------------------------------------------------------------
-
- outvars: echo of selected default values
-   iomode0 =  0 , fftalg0 =512 , wfoptalg0 = 10
-
- outvars: echo of global parameters not present in the input file
-  max_nthreads =    0
-
 -outvars: echo values of preprocessed input variables --------
            acell      1.5706000000E+01  1.5706000000E+01  1.5706000000E+01 Bohr
              amu      1.96966550E+02
          chkprim           0
     densfor_pred           6
             ecut      3.00000000E+00 Hartree
           enunit           2
-          fftalg         401
           ionmov          12
           istwfk        1
              ixc           7
              kpt      5.00000000E-01  5.00000000E-01  5.00000000E-01
         kptrlatt        1    0    0      0    1    0      0    0    1
          kptrlen      1.57060000E+01
           mdtemp      3.60000000E+03  3.60000000E+03
P           mkmem           1
            natom           8
            nband         200
           nctime           1
            ngfft          27      30      30
          ngfftdg         100     100     100
             nkpt           1
    nblock_lobpcg         100
         nloc_mem           1
-          npband           2
-           npfft           2
            nstep           2
             nsym           1
            ntime           2
           ntypat           1
              occ      2.000000  2.000000  2.000000  2.000000  2.000000  2.000000
                       2.000000  2.000000  2.000000  2.000000  2.000000  2.000000
                       2.000000  2.000000  2.000000  2.000000  2.000000  2.000000
                       2.000000  2.000000  2.000000  2.000000  2.000000  2.000000
                       2.000000  2.000000  2.000000  2.000000  2.000000  2.000000
                       2.000000  2.000000  2.000000  2.000000  2.000000  2.000000
                       2.000000  2.000000  2.000000  2.000000  2.000000  2.000000
                       2.000000  2.000000  0.000000  0.000000  0.000000  0.000000
                       0.000000  0.000000  0.000000  0.000000  0.000000  0.000000
                       0.000000  0.000000  0.000000  0.000000  0.000000  0.000000
                       0.000000  0.000000  0.000000  0.000000  0.000000  0.000000
                       0.000000  0.000000  0.000000  0.000000  0.000000  0.000000
                       0.000000  0.000000  0.000000  0.000000  0.000000  0.000000
                       0.000000  0.000000  0.000000  0.000000  0.000000  0.000000
                       0.000000  0.000000  0.000000  0.000000  0.000000  0.000000
                       0.000000  0.000000  0.000000  0.000000  0.000000  0.000000
                       0.000000  0.000000  0.000000  0.000000  0.000000  0.000000
                       0.000000  0.000000  0.000000  0.000000  0.000000  0.000000
                       0.000000  0.000000  0.000000  0.000000  0.000000  0.000000
                       0.000000  0.000000  0.000000  0.000000  0.000000  0.000000
                       0.000000  0.000000  0.000000  0.000000  0.000000  0.000000
                       0.000000  0.000000  0.000000  0.000000  0.000000  0.000000
                       0.000000  0.000000  0.000000  0.000000  0.000000  0.000000
                       0.000000  0.000000  0.000000  0.000000  0.000000  0.000000
                       0.000000  0.000000  0.000000  0.000000  0.000000  0.000000
                       0.000000  0.000000  0.000000  0.000000  0.000000  0.000000
                       0.000000  0.000000  0.000000  0.000000  0.000000  0.000000
                       0.000000  0.000000  0.000000  0.000000  0.000000  0.000000
                       0.000000  0.000000  0.000000  0.000000  0.000000  0.000000
                       0.000000  0.000000  0.000000  0.000000  0.000000  0.000000
                       0.000000  0.000000  0.000000  0.000000  0.000000  0.000000
                       0.000000  0.000000  0.000000  0.000000  0.000000  0.000000
                       0.000000  0.000000  0.000000  0.000000  0.000000  0.000000
                       0.000000  0.000000
           occopt           3
        paral_kgb           1
        pawecutdg      5.00000000E+01 Hartree
         pawmixdg           1
          pawovlp     -1.0000000000E+00
           shiftk      5.00000000E-01  5.00000000E-01  5.00000000E-01
          spgroup           1
           toldfe      1.00000000E-07 Hartree
           tsmear      9.50078000E-03 Hartree
            typat      1  1  1  1  1  1  1  1
           useylm           1
         wfoptalg           4
           xangst      2.5519281122E+00  1.6114490338E+00  6.7508955287E-01
                       5.7164224780E-01  1.5836187927E+00  2.6225793295E+00
                       4.2417069631E-01  7.7354298463E+00  6.5395957910E-01
                       4.5778293833E-01  7.7652285178E+00  4.6447782449E+00
                       2.5539780341E+00  5.6604263694E+00  7.0838567444E-01
                       2.5385689426E+00  3.6752451894E+00  2.7292285229E+00
                       4.9147673385E-01  3.6296507749E+00  5.3736717458E-01
                       6.0610092477E-01  5.8537778965E+00  6.8189973476E+00
            xcart      4.8224452251E+00  3.0451973397E+00  1.2757343654E+00
                       1.0802472903E+00  2.9926058060E+00  4.9559566762E+00
                       8.0156644665E-01  1.4617843876E+01  1.2358045019E+00
                       8.6508437855E-01  1.4674155204E+01  8.7773587985E+00
                       4.8263190160E+00  1.0696655594E+01  1.3386549162E+00
                       4.7972000532E+00  6.9452068536E+00  5.1574944434E+00
                       9.2875642423E-01  6.8590458972E+00  1.0154767890E+00
                       1.1453647525E+00  1.1062037026E+01  1.2886037440E+01
             xred      3.0704477429E-01  1.9388751686E-01  8.1225924194E-02
                       6.8779274821E-02  1.9053901732E-01  3.1554543972E-01
                       5.1035683602E-02  9.3071717024E-01  7.8683592379E-02
                       5.5079866201E-02  9.3430250883E-01  5.5885386467E-01
                       3.0729141831E-01  6.8105536699E-01  8.5232071579E-02
                       3.0543741584E-01  4.4220086932E-01  3.2837733626E-01
                       5.9133861214E-02  4.3671500683E-01  6.4655341208E-02
                       7.2925299406E-02  7.0431917906E-01  8.2045316696E-01
            znucl       79.00000

================================================================================

 chkinp: Checking input parameters for consistency.

================================================================================
== DATASET  1 ==================================================================
-   mpi_nproc: 4, omp_nthreads: -1 (-1 if OMP is not activated)


--- !DatasetInfo
iteration_state: {dtset: 1, }
dimensions: {natom: 8, nkpt: 1, mband: 200, nsppol: 1, nspinor: 1, nspden: 1, mpw: 242, }
cutoff_energies: {ecut:   3.0, pawecutdg:  50.0, }
electrons: {nelect:   8.80000000E+01, charge:   0.00000000E+00, occopt:   3.00000000E+00, tsmear:   9.50078000E-03, }
meta: {optdriver: 0, ionmov: 12, optcell: 0, iscf: 17, paral_kgb: 1, }
...

 Exchange-correlation functional for the present dataset will be:
  LDA: Perdew-Wang 92 LSD fit to Ceperley-Alder data - ixc=7
 Citation for XC functional:
  J.P.Perdew and Y.Wang, PRB 45, 13244 (1992)

 Real(R)+Recip(G) space primitive vectors, cartesian coordinates (Bohr,Bohr^-1):
 R(1)= 15.7060000  0.0000000  0.0000000  G(1)=  0.0636699  0.0000000  0.0000000
 R(2)=  0.0000000 15.7060000  0.0000000  G(2)=  0.0000000  0.0636699  0.0000000
 R(3)=  0.0000000  0.0000000 15.7060000  G(3)=  0.0000000  0.0000000  0.0636699
 Unit cell volume ucvol=  3.8743315E+03 bohr^3
 Angles (23,13,12)=  9.00000000E+01  9.00000000E+01  9.00000000E+01 degrees

 Coarse grid specifications (used for wave-functions):

 getcut: wavevector=  0.0000  0.0000  0.0000  ngfft=  27  30  30
         ecut(hartree)=      3.000   => boxcut(ratio)=   2.12316

 Fine grid specifications (used for densities):

 getcut: wavevector=  0.0000  0.0000  0.0000  ngfft= 100 100 100
         ecut(hartree)=     50.000   => boxcut(ratio)=   2.00025

--- Pseudopotential description ------------------------------------------------
- pspini: atom type   1  psp file is /home/buildbot/ABINIT3/eos_gnu_13.2_mpich/trunk__codata2022/tests/Pspdir/Au.lda.atompaw
- pspatm: opening atomic psp file    /home/buildbot/ABINIT3/eos_gnu_13.2_mpich/trunk__codata2022/tests/Pspdir/Au.lda.atompaw
- Paw atomic data for element Au - Generated by AtomPAW + AtomPAW2Abinit v3.2.1
- 79.00000  11.00000  20071206                znucl, zion, pspdat
    7    7    2    0      1005   0.00000      pspcod,pspxc,lmax,lloc,mmax,r2well
 Pseudopotential format is: paw4
 basis_size (lnmax)=  6 (lmn_size= 18), orbitals=   0   0   1   1   2   2
 Spheres core radius: rc_sph= 2.50000000
 4 radial meshes are used:
  - mesh 1: r(i)=AA*[exp(BB*(i-1))-1], size=1005 , AA= 0.12544E-03 BB= 0.99099E-02
  - mesh 2: r(i)=AA*[exp(BB*(i-1))-1], size=1000 , AA= 0.12544E-03 BB= 0.99099E-02
  - mesh 3: r(i)=AA*[exp(BB*(i-1))-1], size=1079 , AA= 0.12544E-03 BB= 0.99099E-02
  - mesh 4: r(i)=AA*[exp(BB*(i-1))-1], size=1139 , AA= 0.12544E-03 BB= 0.99099E-02
 Shapefunction is SIN type: shapef(r)=[sin(pi*r/rshp)/(pi*r/rshp)]**2
 Radius for shape functions =  2.26412037
 Radial grid used for partial waves is grid 1
 Radial grid used for projectors is grid  2
 Radial grid used for (t)core density is grid 3
 Radial grid used for Vloc is grid 4
 Radial grid used for pseudo valence density is grid 4
 Compensation charge density is taken into account in XC energy/potential
 pspatm: atomic psp has been read  and splines computed

   2.68631439E+04                                ecore*ucvol(ha*bohr**3)
--------------------------------------------------------------------------------

_setup2: Arith. and geom. avg. npw (full set) are     242.000     242.000

================================================================================

=== [ionmov=12] Isokinetic ensemble molecular dynamics
================================================================================

--- Iteration: (1/2) Internal Cycle: (1/1)
--------------------------------------------------------------------------------

---SELF-CONSISTENT-FIELD CONVERGENCE--------------------------------------------

--- !BeginCycle
iteration_state: {dtset: 1, itime: 1, icycle: 1, }
solver: {iscf: 17, nstep: 2, nline: 4, wfoptalg: 4, }
tolerances: {toldfe: 1.00E-07, }
...

     iter   Etot(hartree)      deltaE(h)  residm     nres2
 ETOT  1  -267.83736647029    -2.678E+02 1.975E-03 5.530E+02
 ETOT  2  -264.66246074258     3.175E+00 1.437E-04 1.623E+01

 Cartesian components of stress tensor (hartree/bohr^3)
  sigma(1 1)=  5.09490928E-03  sigma(3 2)= -8.60484956E-05
  sigma(2 2)=  5.30265826E-03  sigma(3 1)=  1.91576984E-05
  sigma(3 3)=  5.32210356E-03  sigma(2 1)=  1.34474644E-05


 scprqt:  WARNING -
  nstep=    2 was not enough SCF cycles to converge;
  maximum energy difference=  3.175E+00 exceeds toldfe=  1.000E-07


--- !ResultsGS
iteration_state: {dtset: 1, itime: 1, icycle: 1, }
comment   : Summary of ground state results
lattice_vectors:
- [ 15.7060000,   0.0000000,   0.0000000, ]
- [  0.0000000,  15.7060000,   0.0000000, ]
- [  0.0000000,   0.0000000,  15.7060000, ]
lattice_lengths: [  15.70600,   15.70600,   15.70600, ]
lattice_angles: [ 90.000,  90.000,  90.000, ] # degrees, (23, 13, 12)
lattice_volume:   3.8743315E+03
convergence: {deltae:  3.175E+00, res2:  1.623E+01, residm:  1.437E-04, diffor: null, }
etotal    :  -2.64662461E+02
entropy   :   0.00000000E+00
fermie    :  -1.67737370E-01
cartesian_stress_tensor: # hartree/bohr^3
- [  5.09490928E-03,   1.34474644E-05,   1.91576984E-05, ]
- [  1.34474644E-05,   5.30265826E-03,  -8.60484956E-05, ]
- [  1.91576984E-05,  -8.60484956E-05,   5.32210356E-03, ]
pressure_GPa:  -1.5416E+02
xred      :
- [  3.0704E-01,   1.9389E-01,   8.1226E-02, Au]
- [  6.8779E-02,   1.9054E-01,   3.1555E-01, Au]
- [  5.1036E-02,   9.3072E-01,   7.8684E-02, Au]
- [  5.5080E-02,   9.3430E-01,   5.5885E-01, Au]
- [  3.0729E-01,   6.8106E-01,   8.5232E-02, Au]
- [  3.0544E-01,   4.4220E-01,   3.2838E-01, Au]
- [  5.9134E-02,   4.3672E-01,   6.4655E-02, Au]
- [  7.2925E-02,   7.0432E-01,   8.2045E-01, Au]
cartesian_forces: # hartree/bohr
- [ -9.70939476E+00,  -7.92870117E+02,   2.71831672E+01, ]
- [ -9.15416679E+00,   6.42097221E+01,   2.69425437E+01, ]
- [ -9.16556291E+00,   2.51673563E+02,  -1.88936286E+02, ]
- [  6.56767112E+01,   6.42786381E+01,   2.70456220E+01, ]
- [ -9.70346914E+00,   6.42133664E+01,   2.69587886E+01, ]
- [ -9.54199083E+00,   2.19767703E+02,   2.68311461E+01, ]
- [ -9.09270557E+00,   6.43071299E+01,   2.70016835E+01, ]
- [ -9.30942117E+00,   6.44199957E+01,   2.69733352E+01, ]
force_length_stats: {min:   7.02323846E+01, max:   7.93395374E+02, mean:   2.13371289E+02, }
...

 Integrated electronic density in atomic spheres:
 ------------------------------------------------
 Atom  Sphere_radius  Integrated_density
    1        2.50000          8.58169605
    2        2.50000          8.86398467
    3        2.50000          8.75912682
    4        2.50000          8.95733813
    5        2.50000          8.61575777
    6        2.50000          8.70149050
    7        2.50000          8.76752213
    8        2.50000          8.96057801

 PAW TEST:
 ==== Compensation charge inside spheres ============
 The following values must be close to each other ...
 Compensation charge over spherical meshes =     27.948981270929060
 Compensation charge over fine fft grid    =     31.928440788210892

 ==== Results concerning PAW augmentation regions ====

 Total pseudopotential strength Dij (hartree):
 Atom #  1
   0.56046  -2.30337   0.00004   0.00012  -0.00020  -0.00057  -0.00154   0.00266   0.00018   0.00023  -0.00019  -0.00011 ...
  -2.30337  10.69006  -0.00017  -0.00047   0.00079   0.00229   0.00628  -0.01050  -0.00030  -0.00046   0.00034   0.00018 ...
   0.00004  -0.00017   0.04941   0.00002  -0.00000  -0.67286  -0.00035  -0.00009  -0.00021   0.00006  -0.00001  -0.00000 ...
   0.00012  -0.00047   0.00002   0.04939  -0.00002  -0.00035  -0.67238   0.00025  -0.00000   0.00003   0.00007  -0.00022 ...
  -0.00020   0.00079  -0.00000  -0.00002   0.04940  -0.00009   0.00025  -0.67258   0.00003  -0.00000   0.00012   0.00008 ...
  -0.00057   0.00229  -0.67286  -0.00035  -0.00009  11.17814   0.00491   0.00171   0.00152  -0.00050   0.00012   0.00001 ...
  -0.00154   0.00628  -0.00035  -0.67238   0.00025   0.00491  11.17068  -0.00293   0.00001  -0.00026  -0.00058   0.00159 ...
   0.00266  -0.01050  -0.00009   0.00025  -0.67258   0.00171  -0.00293  11.17335  -0.00024   0.00001  -0.00089  -0.00056 ...
   0.00018  -0.00030  -0.00021  -0.00000   0.00003   0.00152   0.00001  -0.00024  -0.58608  -0.00005   0.00052  -0.00044 ...
   0.00023  -0.00046   0.00006   0.00003  -0.00000  -0.00050  -0.00026   0.00001  -0.00005  -0.58532  -0.00015  -0.00063 ...
  -0.00019   0.00034  -0.00001   0.00007   0.00012   0.00012  -0.00058  -0.00089   0.00052  -0.00015  -0.58429   0.00025 ...
  -0.00011   0.00018  -0.00000  -0.00022   0.00008   0.00001   0.00159  -0.00056  -0.00044  -0.00063   0.00025  -0.58478 ...
   ...  only 12  components have been written...
 Atom #  8
   0.56924  -2.33947  -0.00003   0.00004  -0.00002   0.00044  -0.00047   0.00023  -0.00003  -0.00048   0.00053   0.00019 ...
  -2.33947  10.83102   0.00013  -0.00014   0.00007  -0.00161   0.00186  -0.00100   0.00009   0.00061  -0.00083  -0.00041 ...
  -0.00003   0.00013   0.04875   0.00001  -0.00001  -0.67021   0.00015   0.00008   0.00001   0.00001   0.00002  -0.00001 ...
   0.00004  -0.00014   0.00001   0.04876   0.00002   0.00015  -0.67064  -0.00035  -0.00001  -0.00009   0.00004   0.00001 ...
  -0.00002   0.00007  -0.00001   0.00002   0.04872   0.00008  -0.00035  -0.66956  -0.00007  -0.00001   0.00000   0.00001 ...
   0.00044  -0.00161  -0.67021   0.00015   0.00008  11.19500  -0.00297  -0.00104  -0.00005  -0.00010  -0.00010   0.00003 ...
  -0.00047   0.00186   0.00015  -0.67064  -0.00035  -0.00297  11.20164   0.00472   0.00003   0.00067  -0.00026  -0.00002 ...
   0.00023  -0.00100   0.00008  -0.00035  -0.66956  -0.00104   0.00472  11.18540   0.00046   0.00003   0.00000  -0.00009 ...
  -0.00003   0.00009   0.00001  -0.00001  -0.00007  -0.00005   0.00003   0.00046  -0.61341  -0.00015  -0.00011   0.00179 ...
  -0.00048   0.00061   0.00001  -0.00009  -0.00001  -0.00010   0.00067   0.00003  -0.00015  -0.61724   0.00068  -0.00014 ...
   0.00053  -0.00083   0.00002   0.00004   0.00000  -0.00010  -0.00026   0.00000  -0.00011   0.00068  -0.61579   0.00001 ...
   0.00019  -0.00041  -0.00001   0.00001   0.00001   0.00003  -0.00002  -0.00009   0.00179  -0.00014   0.00001  -0.61576 ...
   ...  only 12  components have been written...

 Total pseudopotential strength Dij (eV):
 Atom #  1
  15.25092 -62.67796   0.00116   0.00316  -0.00531  -0.01545  -0.04197   0.07236   0.00492   0.00639  -0.00527  -0.00309 ...
 -62.67796 290.89142  -0.00460  -0.01266   0.02149   0.06236   0.17094  -0.28571  -0.00828  -0.01259   0.00932   0.00484 ...
   0.00116  -0.00460   1.34442   0.00058  -0.00008 -18.30952  -0.00963  -0.00241  -0.00575   0.00172  -0.00040  -0.00010 ...
   0.00316  -0.01266   0.00058   1.34399  -0.00055  -0.00963 -18.29646   0.00670  -0.00010   0.00094   0.00186  -0.00604 ...
  -0.00531   0.02149  -0.00008  -0.00055   1.34428  -0.00241   0.00670 -18.30172   0.00087  -0.00010   0.00321   0.00221 ...
  -0.01545   0.06236 -18.30952  -0.00963  -0.00241 304.17269   0.13354   0.04666   0.04140  -0.01356   0.00335   0.00036 ...
  -0.04197   0.17094  -0.00963 -18.29646   0.00670   0.13354 303.96962  -0.07980   0.00036  -0.00698  -0.01574   0.04316 ...
   0.07236  -0.28571  -0.00241   0.00670 -18.30172   0.04666  -0.07980 304.04230  -0.00660   0.00036  -0.02424  -0.01512 ...
   0.00492  -0.00828  -0.00575  -0.00010   0.00087   0.04140   0.00036  -0.00660 -15.94811  -0.00148   0.01407  -0.01184 ...
   0.00639  -0.01259   0.00172   0.00094  -0.00010  -0.01356  -0.00698   0.00036  -0.00148 -15.92746  -0.00396  -0.01708 ...
  -0.00527   0.00932  -0.00040   0.00186   0.00321   0.00335  -0.01574  -0.02424   0.01407  -0.00396 -15.89931   0.00670 ...
  -0.00309   0.00484  -0.00010  -0.00604   0.00221   0.00036   0.04316  -0.01512  -0.01184  -0.01708   0.00670 -15.91269 ...
   ...  only 12  components have been written...
 Atom #  8
  15.48992 -63.66022  -0.00081   0.00102  -0.00043   0.01189  -0.01279   0.00613  -0.00079  -0.01309   0.01448   0.00520 ...
 -63.66022 294.72711   0.00348  -0.00388   0.00190  -0.04390   0.05065  -0.02723   0.00235   0.01666  -0.02269  -0.01105 ...
  -0.00081   0.00348   1.32655   0.00036  -0.00017 -18.23731   0.00395   0.00214   0.00018   0.00037   0.00064  -0.00014 ...
   0.00102  -0.00388   0.00036   1.32678   0.00064   0.00395 -18.24906  -0.00950  -0.00014  -0.00237   0.00099   0.00025 ...
  -0.00043   0.00190  -0.00017   0.00064   1.32581   0.00214  -0.00950 -18.21978  -0.00193  -0.00014   0.00007   0.00030 ...
   0.01189  -0.04390 -18.23731   0.00395   0.00214 304.63136  -0.08087  -0.02841  -0.00130  -0.00270  -0.00279   0.00091 ...
  -0.01279   0.05065   0.00395 -18.24906  -0.00950  -0.08087 304.81206   0.12845   0.00091   0.01827  -0.00710  -0.00047 ...
   0.00613  -0.02723   0.00214  -0.00950 -18.21978  -0.02841   0.12845 304.37022   0.01249   0.00091   0.00005  -0.00253 ...
  -0.00079   0.00235   0.00018  -0.00014  -0.00193  -0.00130   0.00091   0.01249 -16.69185  -0.00409  -0.00300   0.04867 ...
  -0.01309   0.01666   0.00037  -0.00237  -0.00014  -0.00270   0.01827   0.00091  -0.00409 -16.79582   0.01855  -0.00369 ...
   0.01448  -0.02269   0.00064   0.00099   0.00007  -0.00279  -0.00710   0.00005  -0.00300   0.01855 -16.75653   0.00028 ...
   0.00520  -0.01105  -0.00014   0.00025   0.00030   0.00091  -0.00047  -0.00253   0.04867  -0.00369   0.00028 -16.75569 ...
   ...  only 12  components have been written...

 Augmentation waves occupancies Rhoij:
 Atom #  1
   0.80568  -0.03096   0.07173   0.13347  -0.24852  -0.00034  -0.00088   0.00220  -0.00793  -0.03003   0.05542   0.02667 ...
  -0.03096   0.00156  -0.00292  -0.00327   0.00755   0.00007   0.00012  -0.00014  -0.00204   0.00344  -0.00277  -0.00512 ...
   0.07173  -0.00292   0.19056   0.04643  -0.00157  -0.00315  -0.00118  -0.00039  -0.05783   0.01981  -0.01665   0.01120 ...
   0.13347  -0.00327   0.04643   0.20089  -0.06389  -0.00116  -0.00141  -0.00039   0.00764   0.02526   0.03469  -0.05124 ...
  -0.24852   0.00755  -0.00157  -0.06389   0.21464  -0.00065  -0.00046  -0.00225   0.02713   0.00984   0.02247   0.04310 ...
  -0.00034   0.00007  -0.00315  -0.00116  -0.00065   0.00039   0.00006   0.00004  -0.00236   0.00155   0.00031   0.00015 ...
  -0.00088   0.00012  -0.00118  -0.00141  -0.00046   0.00006   0.00019   0.00001  -0.00011   0.00130   0.00116  -0.00076 ...
   0.00220  -0.00014  -0.00039  -0.00039  -0.00225   0.00004   0.00001   0.00022   0.00052   0.00033   0.00072   0.00120 ...
  -0.00793  -0.00204  -0.05783   0.00764   0.02713  -0.00236  -0.00011   0.00052   1.90776  -0.01483  -0.00434  -0.00273 ...
  -0.03003   0.00344   0.01981   0.02526   0.00984   0.00155   0.00130   0.00033  -0.01483   1.93909  -0.01034  -0.01002 ...
   0.05542  -0.00277  -0.01665   0.03469   0.02247   0.00031   0.00116   0.00072  -0.00434  -0.01034   1.96784   0.01796 ...
   0.02667  -0.00512   0.01120  -0.05124   0.04310   0.00015  -0.00076   0.00120  -0.00273  -0.01002   0.01796   1.93310 ...
   ...  only 12  components have been written...
 Atom #  8
   1.23223  -0.06588   0.06531   0.07583   0.01745   0.00107   0.00001  -0.00060   0.00136   0.06066  -0.04180  -0.03430 ...
  -0.06588   0.00382  -0.00274  -0.00120   0.00001   0.00002  -0.00004   0.00007  -0.00070  -0.00425   0.00412   0.00373 ...
   0.06531  -0.00274   0.26132  -0.05413  -0.01936  -0.00415   0.00161  -0.00000  -0.01802   0.02521   0.02006  -0.00392 ...
   0.07583  -0.00120  -0.05413   0.28143   0.04640   0.00203  -0.00517  -0.00094   0.00145   0.08946  -0.00239  -0.00400 ...
   0.01745   0.00001  -0.01936   0.04640   0.08117   0.00027  -0.00108  -0.00137  -0.00261  -0.00153   0.00291   0.02808 ...
   0.00107   0.00002  -0.00415   0.00203   0.00027   0.00037  -0.00009   0.00002  -0.00005   0.00051   0.00030  -0.00003 ...
   0.00001  -0.00004   0.00161  -0.00517  -0.00108  -0.00009   0.00049   0.00007  -0.00001   0.00213   0.00093   0.00118 ...
  -0.00060   0.00007  -0.00000  -0.00094  -0.00137   0.00002   0.00007   0.00017   0.00041   0.00019   0.00017   0.00103 ...
   0.00136  -0.00070  -0.01802   0.00145  -0.00261  -0.00005  -0.00001   0.00041   1.98928   0.00679   0.00201  -0.00140 ...
   0.06066  -0.00425   0.02521   0.08946  -0.00153   0.00051   0.00213   0.00019   0.00679   1.88371   0.00544   0.00898 ...
  -0.04180   0.00412   0.02006  -0.00239   0.00291   0.00030   0.00093   0.00017   0.00201   0.00544   2.01063  -0.00097 ...
  -0.03430   0.00373  -0.00392  -0.00400   0.02808  -0.00003   0.00118   0.00103  -0.00140   0.00898  -0.00097   1.96573 ...
   ...  only 12  components have been written...



---OUTPUT-----------------------------------------------------------------------

 Cartesian coordinates (xcart) [bohr]
  4.82244522505999E+00  3.04519733974338E+00  1.27573436538875E+00
  1.08024729034305E+00  2.99260580602288E+00  4.95595667624474E+00
  8.01566446654498E-01  1.46178438757658E+01  1.23580450190604E+00
  8.65084378547967E-01  1.46741552037001E+01  8.77735879850388E+00
  4.82631901603937E+00  1.06966555939913E+01  1.33865491621196E+00
  4.79720005315542E+00  6.94520685356856E+00  5.15749444335699E+00
  9.28756424225867E-01  6.85904589724541E+00  1.01547678901255E+00
  1.14536475247145E+00  1.10620370262861E+01  1.28860374403000E+01
 Reduced coordinates (xred)
  3.07044774293900E-01  1.93887516856194E-01  8.12259241938591E-02
  6.87792748212814E-02  1.90539017319679E-01  3.15545439720154E-01
  5.10356836020946E-02  9.30717170238495E-01  7.86835923790932E-02
  5.50798662006855E-02  9.34302508831024E-01  5.58853864669800E-01
  3.07291418313980E-01  6.81055366992951E-01  8.52320715785027E-02
  3.05437415838242E-01  4.42200869321823E-01  3.28377336263657E-01
  5.91338612139225E-02  4.36715006828308E-01  6.46553412079811E-02
  7.29252994060516E-02  7.04319179058075E-01  8.20453166961670E-01
 Cartesian forces (fcart) [Ha/bohr]; max,rms= 7.92870E+02 1.83334E+02 (free atoms)
 -9.70939476283104E+00 -7.92870117422294E+02  2.71831672411490E+01
 -9.15416678582712E+00  6.42097220799083E+01  2.69425437431427E+01
 -9.16556291165740E+00  2.51673562664420E+02 -1.88936286420557E+02
  6.56767111741989E+01  6.42786380917661E+01  2.70456219661230E+01
 -9.70346914374354E+00  6.42133664340006E+01  2.69587885619999E+01
 -9.54199082783414E+00  2.19767702558211E+02  2.68311461493730E+01
 -9.09270557055347E+00  6.43071298850121E+01  2.70016835315365E+01
 -9.30942117175223E+00  6.44199957089761E+01  2.69733352272327E+01
 Gradient of E wrt nuclear positions in reduced coordinates (gred)
  1.52495754145024E+02  1.24528180642346E+04 -4.26938824689487E+02
  1.43775343538201E+02 -1.00847789498704E+03 -4.23159592029800E+02
  1.43954331090491E+02 -3.95278497520738E+03  2.96743331452127E+03
 -1.03151842570197E+03 -1.00956028986928E+03 -4.24778538599928E+02
  1.52402686371636E+02 -1.00853513321241E+03 -4.23414733154770E+02
  1.49866507941963E+02 -3.45167153637926E+03 -4.21409981422052E+02
  1.42810033691113E+02 -1.01000778197400E+03 -4.24088441546312E+02
  1.46213768923540E+02 -1.01178045260518E+03 -4.23643203078917E+02
 Cartesian velocities (vel) [bohr*Ha/hbar]; max,rms= 0.00000E+00 0.00000E+00 (free atoms)
  0.00000000000000E+00  0.00000000000000E+00  0.00000000000000E+00
  0.00000000000000E+00  0.00000000000000E+00  0.00000000000000E+00
  0.00000000000000E+00  0.00000000000000E+00  0.00000000000000E+00
  0.00000000000000E+00  0.00000000000000E+00  0.00000000000000E+00
  0.00000000000000E+00  0.00000000000000E+00  0.00000000000000E+00
  0.00000000000000E+00  0.00000000000000E+00  0.00000000000000E+00
  0.00000000000000E+00  0.00000000000000E+00  0.00000000000000E+00
  0.00000000000000E+00  0.00000000000000E+00  0.00000000000000E+00
 Kinetic energy of ions (ekin) [Ha]=  0.00000000000000E+00
 Total energy (etotal) [Ha]= -2.64662460742576E+02

--- Iteration: (2/2) Internal Cycle: (1/1)
--------------------------------------------------------------------------------

---SELF-CONSISTENT-FIELD CONVERGENCE--------------------------------------------

--- !BeginCycle
iteration_state: {dtset: 1, itime: 2, icycle: 1, }
solver: {iscf: 17, nstep: 2, nline: 4, wfoptalg: 4, }
tolerances: {toldfe: 1.00E-07, }
...

     iter   Etot(hartree)      deltaE(h)  residm     nres2
 ETOT  1  -264.95519552962    -2.650E+02 1.112E-04 4.287E+01
 ETOT  2  -264.81251419005     1.427E-01 4.471E-05 9.296E+00

 Cartesian components of stress tensor (hartree/bohr^3)
  sigma(1 1)=  5.48790941E-03  sigma(3 2)= -9.09728104E-05
  sigma(2 2)=  5.60195712E-03  sigma(3 1)=  1.22701032E-05
  sigma(3 3)=  5.62146515E-03  sigma(2 1)= -2.60370762E-06


 scprqt:  WARNING -
  nstep=    2 was not enough SCF cycles to converge;
  maximum energy difference=  1.427E-01 exceeds toldfe=  1.000E-07


--- !ResultsGS
iteration_state: {dtset: 1, itime: 2, icycle: 1, }
comment   : Summary of ground state results
lattice_vectors:
- [ 15.7060000,   0.0000000,   0.0000000, ]
- [  0.0000000,  15.7060000,   0.0000000, ]
- [  0.0000000,   0.0000000,  15.7060000, ]
lattice_lengths: [  15.70600,   15.70600,   15.70600, ]
lattice_angles: [ 90.000,  90.000,  90.000, ] # degrees, (23, 13, 12)
lattice_volume:   3.8743315E+03
convergence: {deltae:  1.427E-01, res2:  9.296E+00, residm:  4.471E-05, diffor: null, }
etotal    :  -2.64812514E+02
entropy   :   0.00000000E+00
fermie    :  -1.74506719E-01
cartesian_stress_tensor: # hartree/bohr^3
- [  5.48790941E-03,  -2.60370762E-06,   1.22701032E-05, ]
- [ -2.60370762E-06,   5.60195712E-03,  -9.09728104E-05, ]
- [  1.22701032E-05,  -9.09728104E-05,   5.62146515E-03, ]
pressure_GPa:  -1.6389E+02
xred      :
- [  3.0699E-01,   1.8941E-01,   8.1379E-02, Au]
- [  6.8728E-02,   1.9090E-01,   3.1570E-01, Au]
- [  5.0984E-02,   9.3214E-01,   7.7616E-02, Au]
- [  5.5451E-02,   9.3467E-01,   5.5901E-01, Au]
- [  3.0724E-01,   6.8142E-01,   8.5384E-02, Au]
- [  3.0538E-01,   4.4344E-01,   3.2853E-01, Au]
- [  5.9082E-02,   4.3708E-01,   6.4808E-02, Au]
- [  7.2873E-02,   7.0468E-01,   8.2061E-01, Au]
cartesian_forces: # hartree/bohr
- [ -4.29276361E+00,  -8.06632980E+00,   1.24940145E+01, ]
- [ -2.14230074E+02,   1.14233790E+01,  -1.85257166E+02, ]
- [  2.34656519E+02,   1.53306687E+02,   1.24010634E+01, ]
- [  6.51747618E+01,   1.88929752E+01,   5.00383143E+01, ]
- [ -4.25023939E+00,  -8.17113815E+00,   1.24515899E+01, ]
- [ -4.16330465E+00,  -8.06752051E+00,   1.22909893E+01, ]
- [ -4.49757676E+02,  -1.86727124E+02,  -9.35960707E+01, ]
- [  3.76862777E+02,   2.74090711E+01,   1.79177266E+02, ]
force_length_stats: {min:   1.52802621E+01, max:   4.95892337E+02, mean:   2.01082927E+02, }
...

 Integrated electronic density in atomic spheres:
 ------------------------------------------------
 Atom  Sphere_radius  Integrated_density
    1        2.50000          8.76412439
    2        2.50000          8.70150250
    3        2.50000          8.67974494
    4        2.50000          9.46321154
    5        2.50000          8.80785316
    6        2.50000          8.83131066
    7        2.50000          8.71503725
    8        2.50000          8.92218934

 PAW TEST:
 ==== Compensation charge inside spheres ============
 The following values must be close to each other ...
 Compensation charge over spherical meshes =     31.230647668962828
 Compensation charge over fine fft grid    =     32.260469219604559

 ==== Results concerning PAW augmentation regions ====

 Total pseudopotential strength Dij (hartree):
 Atom #  1
   0.56920  -2.33320   0.00009   0.00005  -0.00004  -0.00122  -0.00103   0.00130  -0.00000   0.00009  -0.00019  -0.00010 ...
  -2.33320  10.78821  -0.00036  -0.00028   0.00033   0.00459   0.00486  -0.00706  -0.00001  -0.00018   0.00036   0.00018 ...
   0.00009  -0.00036   0.05060   0.00001  -0.00000  -0.68714  -0.00017   0.00003  -0.00006   0.00008  -0.00007  -0.00001 ...
   0.00005  -0.00028   0.00001   0.05056  -0.00002  -0.00017  -0.68653   0.00021  -0.00001   0.00014   0.00009  -0.00006 ...
  -0.00004   0.00033  -0.00000  -0.00002   0.05060   0.00003   0.00021  -0.68709   0.00013  -0.00001   0.00004   0.00008 ...
  -0.00122   0.00459  -0.68714  -0.00017   0.00003  11.33057   0.00227  -0.00025   0.00108  -0.00090   0.00052   0.00002 ...
  -0.00103   0.00486  -0.00017  -0.68653   0.00021   0.00227  11.32242  -0.00268   0.00002  -0.00098  -0.00097   0.00107 ...
   0.00130  -0.00706   0.00003   0.00021  -0.68709  -0.00025  -0.00268  11.32975  -0.00094   0.00002  -0.00062  -0.00088 ...
  -0.00000  -0.00001  -0.00006  -0.00001   0.00013   0.00108   0.00002  -0.00094  -0.60967   0.00006  -0.00003  -0.00013 ...
   0.00009  -0.00018   0.00008   0.00014  -0.00001  -0.00090  -0.00098   0.00002   0.00006  -0.60912  -0.00011  -0.00002 ...
  -0.00019   0.00036  -0.00007   0.00009   0.00004   0.00052  -0.00097  -0.00062  -0.00003  -0.00011  -0.60859   0.00015 ...
  -0.00010   0.00018  -0.00001  -0.00006   0.00008   0.00002   0.00107  -0.00088  -0.00013  -0.00002   0.00015  -0.60891 ...
   ...  only 12  components have been written...
 Atom #  8
   0.56821  -2.33115  -0.00019  -0.00021  -0.00001   0.00255   0.00309   0.00027  -0.00003  -0.00028   0.00043   0.00029 ...
  -2.33115  10.77735   0.00075   0.00092   0.00008  -0.00944  -0.01239  -0.00131   0.00002   0.00028  -0.00073  -0.00052 ...
  -0.00019   0.00075   0.04885   0.00001   0.00000  -0.67071   0.00006  -0.00001   0.00000  -0.00029   0.00019   0.00000 ...
  -0.00021   0.00092   0.00001   0.04888   0.00002   0.00006  -0.67127  -0.00041   0.00000  -0.00034  -0.00030   0.00001 ...
  -0.00001   0.00008   0.00000   0.00002   0.04883  -0.00001  -0.00041  -0.67012  -0.00033   0.00000   0.00001  -0.00026 ...
   0.00255  -0.00944  -0.67071   0.00006  -0.00001  11.17287  -0.00126   0.00011   0.00003   0.00207  -0.00124  -0.00000 ...
   0.00309  -0.01239   0.00006  -0.67127  -0.00041  -0.00126  11.18054   0.00563  -0.00000   0.00242   0.00221   0.00003 ...
   0.00027  -0.00131  -0.00001  -0.00041  -0.67012   0.00011   0.00563  11.16425   0.00230  -0.00000  -0.00006   0.00195 ...
  -0.00003   0.00002   0.00000   0.00000  -0.00033   0.00003  -0.00000   0.00230  -0.62966  -0.00041  -0.00013   0.00129 ...
  -0.00028   0.00028  -0.00029  -0.00034   0.00000   0.00207   0.00242  -0.00000  -0.00041  -0.63294   0.00039   0.00012 ...
   0.00043  -0.00073   0.00019  -0.00030   0.00001  -0.00124   0.00221  -0.00006  -0.00013   0.00039  -0.63106  -0.00022 ...
   0.00029  -0.00052   0.00000   0.00001  -0.00026  -0.00000   0.00003   0.00195   0.00129   0.00012  -0.00022  -0.63113 ...
   ...  only 12  components have been written...

 Total pseudopotential strength Dij (eV):
 Atom #  1
  15.48866 -63.48969   0.00250   0.00134  -0.00100  -0.03319  -0.02802   0.03536  -0.00008   0.00257  -0.00513  -0.00265 ...
 -63.48969 293.56219  -0.00973  -0.00754   0.00903   0.12479   0.13230  -0.19199  -0.00026  -0.00487   0.00980   0.00483 ...
   0.00250  -0.00973   1.37676   0.00032  -0.00009 -18.69804  -0.00466   0.00076  -0.00174   0.00230  -0.00197  -0.00014 ...
   0.00134  -0.00754   0.00032   1.37569  -0.00043  -0.00466 -18.68144   0.00567  -0.00014   0.00379   0.00236  -0.00171 ...
  -0.00100   0.00903  -0.00009  -0.00043   1.37678   0.00076   0.00567 -18.69664   0.00359  -0.00014   0.00096   0.00230 ...
  -0.03319   0.12479 -18.69804  -0.00466   0.00076 308.32056   0.06164  -0.00689   0.02945  -0.02438   0.01417   0.00056 ...
  -0.02802   0.13230  -0.00466 -18.68144   0.00567   0.06164 308.09877  -0.07282   0.00056  -0.02667  -0.02644   0.02908 ...
   0.03536  -0.19199   0.00076   0.00567 -18.69664  -0.00689  -0.07282 308.29824  -0.02551   0.00056  -0.01679  -0.02408 ...
  -0.00008  -0.00026  -0.00174  -0.00014   0.00359   0.02945   0.00056  -0.02551 -16.58985   0.00156  -0.00081  -0.00364 ...
   0.00257  -0.00487   0.00230   0.00379  -0.00014  -0.02438  -0.02667   0.00056   0.00156 -16.57490  -0.00308  -0.00053 ...
  -0.00513   0.00980  -0.00197   0.00236   0.00096   0.01417  -0.02644  -0.01679  -0.00081  -0.00308 -16.56047   0.00417 ...
  -0.00265   0.00483  -0.00014  -0.00171   0.00230   0.00056   0.02908  -0.02408  -0.00364  -0.00053   0.00417 -16.56937 ...
   ...  only 12  components have been written...
 Atom #  8
  15.46186 -63.43374  -0.00507  -0.00582  -0.00037   0.06935   0.08403   0.00724  -0.00069  -0.00756   0.01158   0.00783 ...
 -63.43374 293.26661   0.02036   0.02501   0.00214  -0.25679  -0.33717  -0.03561   0.00055   0.00752  -0.01984  -0.01424 ...
  -0.00507   0.02036   1.32933   0.00023   0.00006 -18.25093   0.00175  -0.00033   0.00003  -0.00780   0.00503   0.00002 ...
  -0.00582   0.02501   0.00023   1.33016   0.00066   0.00175 -18.26605  -0.01111   0.00002  -0.00922  -0.00825   0.00014 ...
  -0.00037   0.00214   0.00006   0.00066   1.32865  -0.00033  -0.01111 -18.23500  -0.00909   0.00002   0.00014  -0.00709 ...
   0.06935  -0.25679 -18.25093   0.00175  -0.00033 304.02924  -0.03435   0.00292   0.00083   0.05643  -0.03383  -0.00002 ...
   0.08403  -0.33717   0.00175 -18.26605  -0.01111  -0.03435 304.23800   0.15314  -0.00002   0.06598   0.06013   0.00082 ...
   0.00724  -0.03561  -0.00033  -0.01111 -18.23500   0.00292   0.15314 303.79464   0.06265  -0.00002  -0.00155   0.05304 ...
  -0.00069   0.00055   0.00003   0.00002  -0.00909   0.00083  -0.00002   0.06265 -17.13400  -0.01126  -0.00344   0.03505 ...
  -0.00756   0.00752  -0.00780  -0.00922   0.00002   0.05643   0.06598  -0.00002  -0.01126 -17.22323   0.01057   0.00339 ...
   0.01158  -0.01984   0.00503  -0.00825   0.00014  -0.03383   0.06013  -0.00155  -0.00344   0.01057 -17.17200  -0.00590 ...
   0.00783  -0.01424   0.00002   0.00014  -0.00709  -0.00002   0.00082   0.05304   0.03505   0.00339  -0.00590 -17.17403 ...
   ...  only 12  components have been written...

 Augmentation waves occupancies Rhoij:
 Atom #  1
   0.87112  -0.04093   0.04778   0.12492  -0.23114  -0.00015  -0.00071   0.00181  -0.01135  -0.03184   0.03467   0.03491 ...
  -0.04093   0.00231  -0.00184  -0.00392   0.00922   0.00002   0.00013  -0.00015   0.00003   0.00322  -0.00223  -0.00549 ...
   0.04778  -0.00184   0.16910   0.04197   0.00415  -0.00311  -0.00104  -0.00043  -0.01027   0.00282  -0.00686   0.00568 ...
   0.12492  -0.00392   0.04197   0.17118  -0.06078  -0.00089  -0.00118  -0.00032   0.00279   0.01409   0.02419  -0.01277 ...
  -0.23114   0.00922   0.00415  -0.06078   0.18568  -0.00081  -0.00047  -0.00199   0.01163   0.00157  -0.00206   0.02913 ...
  -0.00015   0.00002  -0.00311  -0.00089  -0.00081   0.00044   0.00007   0.00002  -0.00334   0.00167   0.00036   0.00019 ...
  -0.00071   0.00013  -0.00104  -0.00118  -0.00047   0.00007   0.00021   0.00001  -0.00002   0.00097   0.00136  -0.00177 ...
   0.00181  -0.00015  -0.00043  -0.00032  -0.00199   0.00002   0.00001   0.00025   0.00029   0.00027   0.00135   0.00145 ...
  -0.01135   0.00003  -0.01027   0.00279   0.01163  -0.00334  -0.00002   0.00029   1.95254  -0.00854   0.00026  -0.00134 ...
  -0.03184   0.00322   0.00282   0.01409   0.00157   0.00167   0.00097   0.00027  -0.00854   1.97394  -0.00521  -0.00625 ...
   0.03467  -0.00223  -0.00686   0.02419  -0.00206   0.00036   0.00136   0.00135   0.00026  -0.00521   1.99648   0.01295 ...
   0.03491  -0.00549   0.00568  -0.01277   0.02913   0.00019  -0.00177   0.00145  -0.00134  -0.00625   0.01295   1.96673 ...
   ...  only 12  components have been written...
 Atom #  8
   1.07720  -0.06461   0.03468   0.10800   0.03065   0.00218  -0.00054  -0.00075  -0.00017   0.05461  -0.03611  -0.03012 ...
  -0.06461   0.00421  -0.00069  -0.00556  -0.00085  -0.00004   0.00002   0.00008  -0.00054  -0.00520   0.00451   0.00308 ...
   0.03468  -0.00069   0.18390  -0.05208  -0.01294  -0.00263   0.00113  -0.00009  -0.01076   0.03130   0.02428  -0.00726 ...
   0.10800  -0.00556  -0.05208   0.21755   0.03792   0.00172  -0.00337  -0.00072   0.00128   0.07525  -0.01425   0.00418 ...
   0.03065  -0.00085  -0.01294   0.03792   0.05958   0.00027  -0.00083  -0.00081  -0.00964  -0.00026  -0.00426   0.01687 ...
   0.00218  -0.00004  -0.00263   0.00172   0.00027   0.00036  -0.00009   0.00002  -0.00012   0.00129  -0.00023  -0.00003 ...
  -0.00054   0.00002   0.00113  -0.00337  -0.00083  -0.00009   0.00048   0.00007  -0.00005   0.00302   0.00195   0.00105 ...
  -0.00075   0.00008  -0.00009  -0.00072  -0.00081   0.00002   0.00007   0.00017   0.00123   0.00010   0.00023   0.00203 ...
  -0.00017  -0.00054  -0.01076   0.00128  -0.00964  -0.00012  -0.00005   0.00123   2.00112   0.00722   0.00136  -0.00077 ...
   0.05461  -0.00520   0.03130   0.07525  -0.00026   0.00129   0.00302   0.00010   0.00722   1.90339   0.00346   0.00720 ...
  -0.03611   0.00451   0.02428  -0.01425  -0.00426  -0.00023   0.00195   0.00023   0.00136   0.00346   2.02157   0.00112 ...
  -0.03012   0.00308  -0.00726   0.00418   0.01687  -0.00003   0.00105   0.00203  -0.00077   0.00720   0.00112   1.98016 ...
   ...  only 12  components have been written...



---OUTPUT-----------------------------------------------------------------------

 Cartesian coordinates (xcart) [bohr]
  4.82158374511632E+00  2.97484880404356E+00  1.27814623079909E+00
  1.07943507379612E+00  2.99830290549322E+00  4.95834719199090E+00
  8.00753218969999E-01  1.46401739727372E+01  1.21904085954118E+00
  8.70911638724836E-01  1.46798584178422E+01  8.77975846001287E+00
  4.82545806185473E+00  1.07023530168122E+01  1.34104687330292E+00
  4.79635342636543E+00  6.96470605744743E+00  5.15987507519225E+00
  9.27949660913211E-01  6.86475163936264E+00  1.01787255202106E+00
  1.14453876075697E+00  1.10677527825851E+01  1.28884306880646E+01
 Reduced coordinates (xred)
  3.06989923921833E-01  1.89408430156855E-01  8.13794875079005E-02
  6.87275610464866E-02  1.90901751272967E-01  3.15697643702464E-01
  5.09839054482363E-02  9.32138926062476E-01  7.76162523584098E-02
  5.54508874777051E-02  9.34665632105066E-01  5.59006650962236E-01
  3.07236601416957E-01  6.81418121533946E-01  8.53843673311424E-02
  3.05383511165505E-01  4.43442382366448E-01  3.28528910938001E-01
  5.90824946461996E-02  4.37078291058362E-01  6.48078792831441E-02
  7.28727085672337E-02  7.04683100890430E-01  8.20605544891419E-01
 Cartesian forces (fcart) [Ha/bohr]; max,rms= 4.49758E+02 1.56482E+02 (free atoms)
 -4.29276361216771E+00 -8.06632979584858E+00  1.24940145114184E+01
 -2.14230073619067E+02  1.14233789544304E+01 -1.85257166387466E+02
  2.34656519033207E+02  1.53306686977648E+02  1.24010634147553E+01
  6.51747617677768E+01  1.88929752219326E+01  5.00383143396798E+01
 -4.25023938533318E+00 -8.17113814681258E+00  1.24515899465444E+01
 -4.16330465138638E+00 -8.06752050712068E+00  1.22909892566958E+01
 -4.49757676056652E+02 -1.86727123783753E+02 -9.35960706851287E+01
  3.76862776523622E+02  2.74090710795235E+01  1.79177265603501E+02
 Gradient of E wrt nuclear positions in reduced coordinates (gred)
  6.74221452927060E+01  1.26689775773598E+02 -1.96230991916338E+02
  3.36469753626107E+03 -1.79415589858284E+02  2.90964905528155E+03
 -3.68551528793555E+03 -2.40783482567094E+03 -1.94771101992146E+02
 -1.02363480832470E+03 -2.96733068835673E+02 -7.85901765019011E+02
  6.67542597860429E+01  1.28335895733838E+02 -1.95564671700427E+02
  6.53888628546744E+01  1.26708477084837E+02 -1.93042277265664E+02
  7.06389406014577E+03  2.93273620614762E+03  1.47001988618063E+03
 -5.91900676808001E+03 -4.30486870374997E+02 -2.81415813356859E+03
 Cartesian velocities (vel) [bohr*Ha/hbar]; max,rms= 4.70339E-04 1.62665E-04 (free atoms)
 -3.49747298846667E-05 -3.79342579396610E-05 -2.10864955818581E-06
  6.21516024558717E-05  2.74687753657951E-05  9.64389923709037E-05
  1.69222504423225E-04  7.43221998923686E-05 -1.49886690295651E-05
 -7.35818371968066E-05  1.90391037725965E-04 -3.37552967360347E-05
  3.23119017874026E-05 -3.74897844860176E-04 -3.80908065711041E-05
 -7.83868821225666E-05 -3.49118483126886E-04 -1.77314403027477E-04
 -3.66396389029391E-05  4.70338578568349E-04  7.57100145337171E-05
 -4.01029205595197E-05 -5.70005625755136E-07  9.41088180177456E-05
 Kinetic energy of ions (ekin) [Ha]=  1.14005216284431E-01
 Total energy (etotal) [Ha]= -2.64812514190053E+02

 Difference of energy with previous step (new-old):
           Absolute (Ha)=-1.50053E-01
           Relative     =-5.66801E-04
================================================================================

 ----iterations are completed or convergence reached----

 Mean square residual over all n,k,spin=   21.520E-07; max=  44.706E-06
 reduced coordinates (array xred) for    8 atoms
       0.306989923922      0.189408430157      0.081379487508
       0.068727561046      0.190901751273      0.315697643702
       0.050983905448      0.932138926062      0.077616252358
       0.055450887478      0.934665632105      0.559006650962
       0.307236601417      0.681418121534      0.085384367331
       0.305383511166      0.443442382366      0.328528910938
       0.059082494646      0.437078291058      0.064807879283
       0.072872708567      0.704683100890      0.820605544891
 rms dE/dt=  2.4617E+03; max dE/dt=  6.9980E+03; dE/dt below (all hartree)
    1       1.493789561914     -0.863795425289     -1.600621643020
    2    3298.769180530273   -306.969161057170   3104.279425554864
    3   -3751.443643666337  -2535.388396869829     -0.140731718829
    4   -1089.563164055494   -424.286640034559   -591.271394745694
    5       0.825904055251      0.782324534952     -0.934301427110
    6      -0.539492876118     -0.845094114049      1.588093007653
    7    6997.965704414979   2805.182634948735   1664.650256453948
    8   -5984.935123810805   -558.040441573883  -2619.527763295275

 cartesian coordinates (angstrom) at end:
    1      2.55147223664494     1.57422219191393     0.67636585708159
    2      0.57121244131479     1.58663356789487     2.62384433596642
    3      0.42374035474867     7.74724642477197     0.64508864159116
    4      0.46086659161071     7.76824652873458     4.64604809111970
    5      2.55352243676934     5.66344131569382     0.70965144362319
    6      2.53812092694721     3.68556372373893     2.73048829904575
    7      0.49104981308730     3.63267012359527     0.53863495776781
    8      0.60566382877686     5.85680254447897     6.82026379979973

 cartesian forces (hartree/bohr) at end:
    1     -4.29276361216771    -8.06632979584858    12.49401451141841
    2   -214.23007361906696    11.42337895443041  -185.25716638746644
    3    234.65651903320679   153.30668697764818    12.40106341475527
    4     65.17476176777677    18.89297522193256    50.03831433967981
    5     -4.25023938533318    -8.17113814681258    12.45158994654444
    6     -4.16330465138638    -8.06752050712068    12.29098925669580
    7   -449.75767605665175  -186.72712378375286   -93.59607068512868
    8    376.86277652362236    27.40907107952355   179.17726560350138
 frms,max,avg= 1.5648185E+02 4.4975768E+02   4.198E+00  8.121E+00 -1.239E+01 h/b

 cartesian forces (eV/Angstrom) at end:
    1   -220.74278027450194  -414.78735532971382   642.46805769204468
    2     -11016.15330856857508       587.41376380071870     -9526.30651690953709
    3  12066.52336366827512  7883.34680768272210   637.68832012419284
    4   3351.42099964886256   971.51584734960682  2573.07357812156170
    5   -218.55609661135537  -420.17681742872145   640.28649885296215
    6   -214.08573285327486  -414.84858416513373   632.02807933722056
    7     -23127.46958186466145     -9601.89476537996234     -4812.90346555354608
    8  19379.06313685522764  1409.43110347048400  9213.66544833510125
 frms,max,avg= 8.0466201E+03 2.3127470E+04   2.159E+02  4.176E+02 -6.372E+02 e/A
 length scales= 15.706000000000 15.706000000000 15.706000000000 bohr
              =  8.311257268804  8.311257268804  8.311257268804 angstroms
 prteigrs : about to open file t41_MPI4o_EIG
 Fermi (or HOMO) energy (hartree) =  -0.17451   Average Vxc (hartree)=  -0.19030
 Eigenvalues (hartree) for nkpt=   1  k points:
 kpt#   1, nband=200, wtk=  1.00000, kpt=  0.5000  0.5000  0.5000 (reduced coord)
  -0.42766   -0.41436   -0.40862   -0.40109   -0.39490   -0.38464   -0.37059   -0.36633
  -0.36010   -0.35774   -0.35104   -0.34644   -0.34272   -0.34001   -0.33656   -0.33424
  -0.32951   -0.32630   -0.32039   -0.31591   -0.31293   -0.31208   -0.30521   -0.30310
  -0.29808   -0.29765   -0.29024   -0.28838   -0.28423   -0.28239   -0.27851   -0.27795
  -0.27450   -0.27151   -0.26921   -0.26882   -0.26690   -0.26437   -0.26251   -0.25958
  -0.25406   -0.25356   -0.25007   -0.18633   -0.15735   -0.15112   -0.12303   -0.10747
  -0.03497   -0.01557    0.01394    0.02075    0.03006    0.04209    0.04724    0.05753
   0.06295    0.06971    0.10586    0.13327    0.13873    0.15731    0.16460    0.16766
   0.18089    0.18783    0.19482    0.20354    0.21123    0.22026    0.22816    0.24609
   0.25219    0.25540    0.26658    0.27994    0.29008    0.29530    0.30406    0.30961
   0.32156    0.32515    0.32662    0.33002    0.33625    0.34119    0.34260    0.34789
   0.35530    0.36090    0.37010    0.37789    0.39238    0.39457    0.39935    0.40650
   0.40892    0.42535    0.42943    0.44101    0.44541    0.44991    0.45542    0.46381
   0.46664    0.47171    0.47610    0.48195    0.48637    0.48885    0.49116    0.49614
   0.51083    0.51420    0.51951    0.52657    0.53082    0.53373    0.53816    0.53945
   0.54318    0.54801    0.55376    0.55624    0.56177    0.56545    0.57015    0.57281
   0.57679    0.57895    0.59230    0.59351    0.59748    0.60711    0.60851    0.61466
   0.62208    0.62873    0.63370    0.63693    0.63938    0.64355    0.64453    0.64798
   0.65286    0.65916    0.66262    0.66455    0.66656    0.67335    0.67775    0.68057
   0.68208    0.68574    0.68956    0.69138    0.69589    0.69875    0.70260    0.70534
   0.71071    0.71160    0.71714    0.72296    0.72579    0.73026    0.73153    0.73822
   0.74176    0.74189    0.74891    0.75448    0.75970    0.76120    0.76261    0.77241
   0.77966    0.78324    0.78417    0.78920    0.80175    0.80466    0.80842    0.81369
   0.81528    0.81949    0.82445    0.82760    0.82971    0.83805    0.83992    0.84230
   0.84810    0.85610    0.85980    0.86488    0.86679    0.87722    0.87996    0.88323
      occupation numbers for kpt#   1
   2.00000    2.00000    2.00000    2.00000    2.00000    2.00000    2.00000    2.00000
   2.00000    2.00000    2.00000    2.00000    2.00000    2.00000    2.00000    2.00000
   2.00000    2.00000    2.00000    2.00000    2.00000    2.00000    2.00000    2.00000
   2.00000    2.00000    1.99999    1.99999    1.99998    1.99998    1.99996    1.99996
   1.99995    1.99993    1.99991    1.99990    1.99988    1.99984    1.99981    1.99974
   1.99954    1.99951    1.99930    1.55269    0.28241    0.15719    0.00883    0.00172
   0.00000    0.00000    0.00000    0.00000    0.00000    0.00000    0.00000    0.00000
   0.00000    0.00000    0.00000    0.00000    0.00000    0.00000    0.00000    0.00000
   0.00000    0.00000    0.00000    0.00000    0.00000    0.00000    0.00000    0.00000
   0.00000    0.00000    0.00000    0.00000    0.00000    0.00000    0.00000    0.00000
   0.00000    0.00000    0.00000    0.00000    0.00000    0.00000    0.00000    0.00000
   0.00000    0.00000    0.00000    0.00000    0.00000    0.00000    0.00000    0.00000
   0.00000    0.00000    0.00000    0.00000    0.00000    0.00000    0.00000    0.00000
   0.00000    0.00000    0.00000    0.00000    0.00000    0.00000    0.00000    0.00000
   0.00000    0.00000    0.00000    0.00000    0.00000    0.00000    0.00000    0.00000
   0.00000    0.00000    0.00000    0.00000    0.00000    0.00000    0.00000    0.00000
   0.00000    0.00000    0.00000    0.00000    0.00000    0.00000    0.00000    0.00000
   0.00000    0.00000    0.00000    0.00000    0.00000    0.00000    0.00000    0.00000
   0.00000    0.00000    0.00000    0.00000    0.00000    0.00000    0.00000    0.00000
   0.00000    0.00000    0.00000    0.00000    0.00000    0.00000    0.00000    0.00000
   0.00000    0.00000    0.00000    0.00000    0.00000    0.00000    0.00000    0.00000
   0.00000    0.00000    0.00000    0.00000    0.00000    0.00000    0.00000    0.00000
   0.00000    0.00000    0.00000    0.00000    0.00000    0.00000    0.00000    0.00000
   0.00000    0.00000    0.00000    0.00000    0.00000    0.00000    0.00000    0.00000
   0.00000    0.00000    0.00000    0.00000    0.00000    0.00000    0.00000    0.00000
 Fermi (or HOMO) energy (eV) =  -4.74857   Average Vxc (eV)=  -5.17828
 Eigenvalues (   eV  ) for nkpt=   1  k points:
 kpt#   1, nband=200, wtk=  1.00000, kpt=  0.5000  0.5000  0.5000 (reduced coord)
 -11.63712  -11.27541  -11.11915  -10.91417  -10.74574  -10.46660  -10.08435   -9.96836
  -9.79885   -9.73468   -9.55228   -9.42703   -9.32591   -9.25226   -9.15831   -9.09514
  -8.96632   -8.87918   -8.71826   -8.59636   -8.51521   -8.49219   -8.30512   -8.24782
  -8.11130   -8.09959   -7.89775   -7.84723   -7.73441   -7.68430   -7.57873   -7.56335
  -7.46959   -7.38826   -7.32552   -7.31504   -7.26261   -7.19375   -7.14324   -7.06348
  -6.91344   -6.89984   -6.80466   -5.07031   -4.28185   -4.11218   -3.34779   -2.92430
  -0.95161   -0.42366    0.37943    0.56454    0.81792    1.14542    1.28551    1.56555
   1.71298    1.89678    2.88064    3.62651    3.77496    4.28064    4.47912    4.56213
   4.92231    5.11107    5.30121    5.53866    5.74774    5.99370    6.20868    6.69644
   6.86231    6.94984    7.25405    7.61763    7.89350    8.03545    8.27384    8.42493
   8.75015    8.84777    8.88773    8.98035    9.14979    9.28415    9.32273    9.46665
   9.66814    9.82066   10.07096   10.28293   10.67710   10.73668   10.86698   11.06148
  11.12717   11.57423   11.68540   12.00062   12.12016   12.24279   12.39265   12.62097
  12.69792   12.83587   12.95530   13.11449   13.23493   13.30238   13.36509   13.50068
  13.90048   13.99216   14.13670   14.32869   14.44426   14.52361   14.64411   14.67928
  14.78066   14.91207   15.06862   15.13595   15.28641   15.38658   15.51456   15.58709
  15.69520   15.75402   16.11744   16.15028   16.25821   16.52024   16.55841   16.72565
  16.92770   17.10875   17.24397   17.33168   17.39842   17.51177   17.53848   17.63238
  17.76511   17.93674   18.03084   18.08327   18.13790   18.32283   18.44263   18.51924
  18.56040   18.66000   18.76387   18.81347   18.93624   19.01401   19.11863   19.19322
  19.33942   19.36366   19.51451   19.67261   19.74970   19.87148   19.90587   20.08788
  20.18419   20.18792   20.37896   20.53032   20.67249   20.71326   20.75160   21.01829
  21.21553   21.31317   21.33831   21.47521   21.81668   21.89597   21.99817   22.14150
  22.18490   22.29947   22.43454   22.52026   22.57748   22.80446   22.85537   22.92006
  23.07788   23.29556   23.39635   23.53453   23.58665   23.87039   23.94487   24.03379

--- !EnergyTerms
iteration_state     : {dtset: 1, itime: 2, icycle: 1, }
comment             : Components of total free energy in Hartree
kinetic             :  5.65999179358636E+01
hartree             :  1.56996149812826E+02
xc                  : -4.08540039607961E+01
Ewald energy        : -9.53402273469521E+01
psp_core            :  6.93362037144230E+00
local_psp           : -3.89705949383743E+02
PAW spherical_terms :  4.16295933346275E+01
internal            : -2.63740899236732E+02
'-kT*entropy'       : -2.40048817589070E-02
total_energy        : -2.63764904118491E+02
total_energy_eV     : -7.17740868410241E+03
...


--- !EnergyTermsDC
iteration_state     : {dtset: 1, itime: 2, icycle: 1, }
comment             : '"Double-counting" decomposition of free energy'
band_energy         : -2.76680742158940E+01
Ewald energy        : -9.53402273469521E+01
psp_core            :  6.93362037144230E+00
xc_dc               : -1.47676074879842E+02
PAW spherical_terms : -1.03775323704836E+00
internal            : -2.64788509308294E+02
'-kT*entropy'       : -2.40048817589070E-02
total_energy_dc     : -2.64812514190053E+02
total_energy_dc_eV  : -7.20591560639485E+03
...

 rms coord change=  1.0357E-03   atom, delta coord (reduced):
     1       -0.000054850372     -0.004479086699      0.000153563314
     2       -0.000051713775      0.000362733953      0.000152203982
     3       -0.000051778154      0.001421755824     -0.001067340021
     4        0.000371021277      0.000363123274      0.000152786292
     5       -0.000054816897      0.000362754541      0.000152295753
     6       -0.000053904673      0.001241513045      0.000151574674
     7       -0.000051366568      0.000363284230      0.000152538075
     8       -0.000052590839      0.000363921832      0.000152377930

 Cartesian components of stress tensor (hartree/bohr^3)
  sigma(1 1)=  5.48790941E-03  sigma(3 2)= -9.09728104E-05
  sigma(2 2)=  5.60195712E-03  sigma(3 1)=  1.22701032E-05
  sigma(3 3)=  5.62146515E-03  sigma(2 1)= -2.60370762E-06

-Cartesian components of stress tensor (GPa)         [Pressure= -1.6389E+02 GPa]
- sigma(1 1)=  1.61459869E+02  sigma(3 2)= -2.67651249E+00
- sigma(2 2)=  1.64815269E+02  sigma(3 1)=  3.60998900E-01
- sigma(3 3)=  1.65389215E+02  sigma(2 1)= -7.66037231E-02

== END DATASET(S) ==============================================================
================================================================================
  
 -outvars: echo values of variables after computation  --------
            acell      1.5706000000E+01  1.5706000000E+01  1.5706000000E+01 Bohr
              amu      1.96966550E+02
          chkprim           0
     densfor_pred           6
             ecut      3.00000000E+00 Hartree
           enunit           2
           etotal     -2.6481251419E+02
            fcart     -4.2927636122E+00 -8.0663297958E+00  1.2494014511E+01
                      -2.1423007362E+02  1.1423378954E+01 -1.8525716639E+02
                       2.3465651903E+02  1.5330668698E+02  1.2401063415E+01
                       6.5174761768E+01  1.8892975222E+01  5.0038314340E+01
                      -4.2502393853E+00 -8.1711381468E+00  1.2451589947E+01
                      -4.1633046514E+00 -8.0675205071E+00  1.2290989257E+01
                      -4.4975767606E+02 -1.8672712378E+02 -9.3596070685E+01
                       3.7686277652E+02  2.7409071080E+01  1.7917726560E+02
-          fftalg         401
           ionmov          12
           istwfk        1
              ixc           7
              kpt      5.00000000E-01  5.00000000E-01  5.00000000E-01
         kptrlatt        1    0    0      0    1    0      0    0    1
          kptrlen      1.57060000E+01
           mdtemp      3.60000000E+03  3.60000000E+03
P           mkmem           1
            natom           8
            nband         200
           nctime           1
            ngfft          27      30      30
          ngfftdg         100     100     100
             nkpt           1
    nblock_lobpcg         100
         nloc_mem           1
-          npband           2
-           npfft           2
            nstep           2
             nsym           1
            ntime           2
           ntypat           1
              occ      2.000000  2.000000  2.000000  2.000000  2.000000  2.000000
                       2.000000  2.000000  2.000000  2.000000  2.000000  2.000000
                       2.000000  2.000000  2.000000  2.000000  2.000000  2.000000
                       2.000000  1.999999  1.999999  1.999999  1.999998  1.999997
                       1.999996  1.999995  1.999990  1.999988  1.999981  1.999977
                       1.999965  1.999963  1.999946  1.999926  1.999906  1.999902
                       1.999880  1.999844  1.999810  1.999742  1.999538  1.999513
                       1.999297  1.552687  0.282415  0.157194  0.008831  0.001722
                       0.000001  0.000000  0.000000  0.000000  0.000000  0.000000
                       0.000000  0.000000  0.000000  0.000000  0.000000  0.000000
                       0.000000  0.000000  0.000000  0.000000  0.000000  0.000000
                       0.000000  0.000000  0.000000  0.000000  0.000000  0.000000
                       0.000000  0.000000  0.000000  0.000000  0.000000  0.000000
                       0.000000  0.000000  0.000000  0.000000  0.000000  0.000000
                       0.000000  0.000000  0.000000  0.000000  0.000000  0.000000
                       0.000000  0.000000  0.000000  0.000000  0.000000  0.000000
                       0.000000  0.000000  0.000000  0.000000  0.000000  0.000000
                       0.000000  0.000000  0.000000  0.000000  0.000000  0.000000
                       0.000000  0.000000  0.000000  0.000000  0.000000  0.000000
                       0.000000  0.000000  0.000000  0.000000  0.000000  0.000000
                       0.000000  0.000000  0.000000  0.000000  0.000000  0.000000
                       0.000000  0.000000  0.000000  0.000000  0.000000  0.000000
                       0.000000  0.000000  0.000000  0.000000  0.000000  0.000000
                       0.000000  0.000000  0.000000  0.000000  0.000000  0.000000
                       0.000000  0.000000  0.000000  0.000000  0.000000  0.000000
                       0.000000  0.000000  0.000000  0.000000  0.000000  0.000000
                       0.000000  0.000000  0.000000  0.000000  0.000000  0.000000
                       0.000000  0.000000  0.000000  0.000000  0.000000  0.000000
                       0.000000  0.000000  0.000000  0.000000  0.000000  0.000000
                       0.000000  0.000000  0.000000  0.000000  0.000000  0.000000
                       0.000000  0.000000  0.000000  0.000000  0.000000  0.000000
                       0.000000  0.000000  0.000000  0.000000  0.000000  0.000000
                       0.000000  0.000000  0.000000  0.000000  0.000000  0.000000
                       0.000000  0.000000
           occopt           3
        paral_kgb           1
        pawecutdg      5.00000000E+01 Hartree
         pawmixdg           1
          pawovlp     -1.0000000000E+00
           shiftk      5.00000000E-01  5.00000000E-01  5.00000000E-01
          spgroup           1
           strten      5.4879094122E-03  5.6019571249E-03  5.6214651481E-03
                      -9.0972810361E-05  1.2270103210E-05 -2.6037076247E-06
           toldfe      1.00000000E-07 Hartree
           tsmear      9.50078000E-03 Hartree
            typat      1  1  1  1  1  1  1  1
           useylm           1
              vel     -3.4974729885E-05 -3.7934257940E-05 -2.1086495582E-06
                       6.2151602456E-05  2.7468775366E-05  9.6438992371E-05
                       1.6922250442E-04  7.4322199892E-05 -1.4988669030E-05
                      -7.3581837197E-05  1.9039103773E-04 -3.3755296736E-05
                       3.2311901787E-05 -3.7489784486E-04 -3.8090806571E-05
                      -7.8386882123E-05 -3.4911848313E-04 -1.7731440303E-04
                      -3.6639638903E-05  4.7033857857E-04  7.5710014534E-05
                      -4.0102920560E-05 -5.7000562576E-07  9.4108818018E-05
         wfoptalg           4
           xangst      2.5514722366E+00  1.5742221919E+00  6.7636585708E-01
                       5.7121244131E-01  1.5866335679E+00  2.6238443360E+00
                       4.2374035475E-01  7.7472464248E+00  6.4508864159E-01
                       4.6086659161E-01  7.7682465287E+00  4.6460480911E+00
                       2.5535224368E+00  5.6634413157E+00  7.0965144362E-01
                       2.5381209269E+00  3.6855637237E+00  2.7304882990E+00
                       4.9104981309E-01  3.6326701236E+00  5.3863495777E-01
                       6.0566382878E-01  5.8568025445E+00  6.8202637998E+00
            xcart      4.8215837451E+00  2.9748488040E+00  1.2781462308E+00
                       1.0794350738E+00  2.9983029055E+00  4.9583471920E+00
                       8.0075321897E-01  1.4640173973E+01  1.2190408595E+00
                       8.7091163872E-01  1.4679858418E+01  8.7797584600E+00
                       4.8254580619E+00  1.0702353017E+01  1.3410468733E+00
                       4.7963534264E+00  6.9647060574E+00  5.1598750752E+00
                       9.2794966091E-01  6.8647516394E+00  1.0178725520E+00
                       1.1445387608E+00  1.1067752783E+01  1.2888430688E+01
             xred      3.0698992392E-01  1.8940843016E-01  8.1379487508E-02
                       6.8727561046E-02  1.9090175127E-01  3.1569764370E-01
                       5.0983905448E-02  9.3213892606E-01  7.7616252358E-02
                       5.5450887478E-02  9.3466563211E-01  5.5900665096E-01
                       3.0723660142E-01  6.8141812153E-01  8.5384367331E-02
                       3.0538351117E-01  4.4344238237E-01  3.2852891094E-01
                       5.9082494646E-02  4.3707829106E-01  6.4807879283E-02
                       7.2872708567E-02  7.0468310089E-01  8.2060554489E-01
            znucl       79.00000

================================================================================


- Timing analysis has been suppressed with timopt=0



================================================================================

 Suggested references for the acknowledgment of ABINIT usage.

 The users of ABINIT have little formal obligations with respect to the ABINIT group
 (those specified in the GNU General Public License, http://www.gnu.org/copyleft/gpl.txt).
 However, it is common practice in the scientific literature,
 to acknowledge the efforts of people that have made the research possible.
 In this spirit, please find below suggested citations of work written by ABINIT developers,
 corresponding to implementations inside of ABINIT that you have used in the present run.
 Note also that it will be of great value to readers of publications presenting these results,
 to read papers enabling them to understand the theoretical formalism and details
 of the ABINIT implementation.
 For information on why they are suggested, see also https://docs.abinit.org/theory/acknowledgments.
-
- [1] Implementation of the Projector Augmented-Wave Method in the ABINIT code.
- M. Torrent, F. Jollet, F. Bottin, G. Zerah, and X. Gonze Comput. Mat. Science 42, 337, (2008).
- Comment: PAW calculations. Strong suggestion to cite this paper.
- DOI and bibtex: see https://docs.abinit.org/theory/bibliography/#torrent2008
-
- [2] Large scale ab initio calculations based on three levels of parallelization
- F. Bottin, S. Leroux, A. Knyazev, G. Zerah, Comput. Mat. Science 42, 329, (2008).
- Comment: in case LOBPCG algorithm is used (wfoptalg=4/14/114).
- Strong suggestion to cite this paper in your publications.
- This paper is also available at http://www.arxiv.org/abs/0707.3405
- DOI and bibtex: see https://docs.abinit.org/theory/bibliography/#bottin2008
-
- [3] The Abinit project: Impact, environment and recent developments.
- Computer Phys. Comm. 248, 107042 (2020).
- X.Gonze, B. Amadon, G. Antonius, F.Arnardi, L.Baguet, J.-M.Beuken,
- J.Bieder, F.Bottin, J.Bouchet, E.Bousquet, N.Brouwer, F.Bruneval,
- G.Brunin, T.Cavignac, J.-B. Charraud, Wei Chen, M.Cote, S.Cottenier,
- J.Denier, G.Geneste, Ph.Ghosez, M.Giantomassi, Y.Gillet, O.Gingras,
- D.R.Hamann, G.Hautier, Xu He, N.Helbig, N.Holzwarth, Y.Jia, F.Jollet,
- W.Lafargue-Dit-Hauret, K.Lejaeghere, M.A.L.Marques, A.Martin, C.Martins,
- H.P.C. Miranda, F.Naccarato, K. Persson, G.Petretto, V.Planes, Y.Pouillon,
- S.Prokhorenko, F.Ricci, G.-M.Rignanese, A.H.Romero, M.M.Schmitt, M.Torrent,
- M.J.van Setten, B.Van Troeye, M.J.Verstraete, G.Zerah and J.W.Zwanzig
- Comment: the fifth generic paper describing the ABINIT project.
- Note that a version of this paper, that is not formatted for Computer Phys. Comm. 
- is available at https://www.abinit.org/sites/default/files/ABINIT20.pdf .
- The licence allows the authors to put it on the Web.
- DOI and bibtex: see https://docs.abinit.org/theory/bibliography/#gonze2020
-
- [4] ABINIT: Overview, and focus on selected capabilities
- J. Chem. Phys. 152, 124102 (2020).
- A. Romero, D.C. Allan, B. Amadon, G. Antonius, T. Applencourt, L.Baguet,
- J.Bieder, F.Bottin, J.Bouchet, E.Bousquet, F.Bruneval,
- G.Brunin, D.Caliste, M.Cote,
- J.Denier, C. Dreyer, Ph.Ghosez, M.Giantomassi, Y.Gillet, O.Gingras,
- D.R.Hamann, G.Hautier, F.Jollet, G. Jomard,
- A.Martin, 
- H.P.C. Miranda, F.Naccarato, G.Petretto, N.A. Pike, V.Planes,
- S.Prokhorenko, T. Rangel, F.Ricci, G.-M.Rignanese, M.Royo, M.Stengel, M.Torrent,
- M.J.van Setten, B.Van Troeye, M.J.Verstraete, J.Wiktor, J.W.Zwanziger, and X.Gonze.
- Comment: a global overview of ABINIT, with focus on selected capabilities .
- Note that a version of this paper, that is not formatted for J. Chem. Phys 
- is available at https://www.abinit.org/sites/default/files/ABINIT20_JPC.pdf .
- The licence allows the authors to put it on the Web.
- DOI and bibtex: see https://docs.abinit.org/theory/bibliography/#romero2020
-
- [5] Recent developments in the ABINIT software package.
- Computer Phys. Comm. 205, 106 (2016).
- X.Gonze, F.Jollet, F.Abreu Araujo, D.Adams, B.Amadon, T.Applencourt,
- C.Audouze, J.-M.Beuken, J.Bieder, A.Bokhanchuk, E.Bousquet, F.Bruneval
- D.Caliste, M.Cote, F.Dahm, F.Da Pieve, M.Delaveau, M.Di Gennaro,
- B.Dorado, C.Espejo, G.Geneste, L.Genovese, A.Gerossier, M.Giantomassi,
- Y.Gillet, D.R.Hamann, L.He, G.Jomard, J.Laflamme Janssen, S.Le Roux,
- A.Levitt, A.Lherbier, F.Liu, I.Lukacevic, A.Martin, C.Martins,
- M.J.T.Oliveira, S.Ponce, Y.Pouillon, T.Rangel, G.-M.Rignanese,
- A.H.Romero, B.Rousseau, O.Rubel, A.A.Shukri, M.Stankovski, M.Torrent,
- M.J.Van Setten, B.Van Troeye, M.J.Verstraete, D.Waroquier, J.Wiktor,
- B.Xu, A.Zhou, J.W.Zwanziger.
- Comment: the fourth generic paper describing the ABINIT project.
- Note that a version of this paper, that is not formatted for Computer Phys. Comm. 
- is available at https://www.abinit.org/sites/default/files/ABINIT16.pdf .
- The licence allows the authors to put it on the Web.
- DOI and bibtex: see https://docs.abinit.org/theory/bibliography/#gonze2016
-
- Proc.   0 individual time (sec): cpu=          6.9  wall=          6.9

================================================================================

 Calculation completed.
.Delivered   2 WARNINGs and   0 COMMENTs to log file.
+Overall time at end (sec) : cpu=         27.5  wall=         27.5
