
.Version 9.0.0 of ABINIT 
.(MPI version, prepared for a x86_64_linux_gnu7.4 computer) 

.Copyright (C) 1998-2020 ABINIT group . 
 ABINIT comes with ABSOLUTELY NO WARRANTY.
 It is free software, and you are welcome to redistribute it
 under certain conditions (GNU General Public License,
 see ~abinit/COPYING or http://www.gnu.org/copyleft/gpl.txt).

 ABINIT is a project of the Universite Catholique de Louvain,
 Corning Inc. and other collaborators, see ~abinit/doc/developers/contributors.txt .
 Please read https://docs.abinit.org/theory/acknowledgments for suggested
 acknowledgments of the ABINIT effort.
 For more information, see https://www.abinit.org .

.Starting date : Tue 11 Feb 2020.
- ( at 23h18 )
  
- input  file    -> t01_triqs2_0.in
- output file    -> t01_triqs2_0.out
- root for input  files -> t01_triqs2_0i
- root for output files -> t01_triqs2_0o


 DATASET    1 : space group Pm -3 m (#221); Bravais cP (primitive cubic)
================================================================================
 Values of the parameters that define the memory need for DATASET  1.
     intxc =       0    ionmov =       0      iscf =      17    lmnmax =      22
     lnmax =       8     mgfft =      30  mpssoang =       3    mqgrid =    3001
     natom =       5  nloc_mem =       2    nspden =       2   nspinor =       1
    nsppol =       2      nsym =      48    n1xccc =       1    ntypat =       3
    occopt =       3   xclevel =       1
-    mband =          23        mffmem =           1         mkmem =          10
       mpw =        1181          nfft =       27000          nkpt =          10
 PAW method is used; the additional fine FFT grid is defined by:
   mgfftf=        54    nfftf =    157464
================================================================================
P This job should need less than                      63.808 Mbytes of memory.
  Rough estimation (10% accuracy) of disk space for files :
_ WF disk file :      8.291 Mbytes ; DEN or POT disk file :      2.405 Mbytes.
================================================================================


 DATASET    2 : space group Pm -3 m (#221); Bravais cP (primitive cubic)
================================================================================
 Values of the parameters that define the memory need for DATASET  2.
     intxc =       0    ionmov =       0      iscf =      17    lmnmax =      22
     lnmax =       8     mgfft =      30  mpssoang =       3    mqgrid =    3001
     natom =       5  nloc_mem =       2    nspden =       2   nspinor =       1
    nsppol =       2      nsym =      48    n1xccc =       1    ntypat =       3
    occopt =       3   xclevel =       1
-    mband =          23        mffmem =           1         mkmem =          10
       mpw =        1181          nfft =       27000          nkpt =          10
 PAW method is used; the additional fine FFT grid is defined by:
   mgfftf=        54    nfftf =    157464
================================================================================
P This job should need less than                      63.808 Mbytes of memory.
  Rough estimation (10% accuracy) of disk space for files :
_ WF disk file :      8.291 Mbytes ; DEN or POT disk file :      2.405 Mbytes.
================================================================================

--------------------------------------------------------------------------------
------------- Echo of variables that govern the present computation ------------
--------------------------------------------------------------------------------
-
- outvars: echo of selected default values                                      
-   iomode0 =  0 , fftalg0 =312 , wfoptalg0 = 10
-
- outvars: echo of global parameters not present in the input file              
-  max_nthreads =    0
-
 -outvars: echo values of preprocessed input variables --------
            acell      7.2605000000E+00  7.2605000000E+00  7.2605000000E+00 Bohr
              amu      5.09415000E+01  8.76200000E+01  1.59994000E+01
        dmatpuopt           1
        dmftbandf1          0
        dmftbandf2         23
        dmftbandi1          0
        dmftbandi2         21
        dmft_iter1          0
        dmft_iter2          1
        dmft_mxsf1     3.0000000000E-01
        dmft_mxsf2     7.0000000000E-01
        dmft_nwli1          0
        dmft_nwli2        100
  dmft_occnd_imag1          1
  dmft_occnd_imag2          0
        dmft_solv1          5
        dmft_solv2          7
     dmft_tolfreq1     1.0000000000E-04
     dmft_tolfreq2     1.0000000000E-02
             ecut      1.60000000E+01 Hartree
-          fftalg         312
           getwfk          -1
           istwfk        0    0    0    0    0    0    0    0    1    1
              ixc           7
           jdtset        1    2
            jpawu1     0.00000000E+00  0.00000000E+00  0.00000000E+00 Hartree
            jpawu2     2.78682384E-02  0.00000000E+00  0.00000000E+00 Hartree
              kpt     -1.66666667E-01 -3.33333333E-01  0.00000000E+00
                      -1.66666667E-01 -1.66666667E-01  1.66666667E-01
                      -3.33333333E-01  5.00000000E-01  0.00000000E+00
                      -1.66666667E-01  5.00000000E-01  1.66666667E-01
                      -3.33333333E-01 -3.33333333E-01  1.66666667E-01
                      -1.66666667E-01  0.00000000E+00  0.00000000E+00
                       5.00000000E-01  5.00000000E-01  1.66666667E-01
                      -3.33333333E-01  5.00000000E-01  3.33333333E-01
                       5.00000000E-01  0.00000000E+00  0.00000000E+00
                       5.00000000E-01  5.00000000E-01  5.00000000E-01
           kptopt           4
         kptrlatt        3   -3    3     -3    3    3     -3   -3    3
          kptrlen      3.77266647E+01
            lpawu           2      -1      -1
P           mkmem          10
            natom           5
            nband          23
           ndtset           2
            ngfft          30      30      30
          ngfftdg          54      54      54
             nkpt          10
           nspden           2
           nsppol           2
            nstep1         30
            nstep2          1
             nsym          48
           ntypat           3
              occ      1.000000  1.000000  1.000000  1.000000  1.000000  1.000000
                       1.000000  1.000000  1.000000  1.000000  1.000000  1.000000
                       1.000000  1.000000  1.000000  1.000000  1.000000  1.000000
                       1.000000  1.000000  1.000000  0.000000  0.000000
                       1.000000  1.000000  1.000000  1.000000  1.000000  1.000000
                       1.000000  1.000000  1.000000  1.000000  1.000000  1.000000
                       1.000000  1.000000  1.000000  1.000000  1.000000  1.000000
                       1.000000  1.000000  1.000000  0.000000  0.000000
                       1.000000  1.000000  1.000000  1.000000  1.000000  1.000000
                       1.000000  1.000000  1.000000  1.000000  1.000000  1.000000
                       1.000000  1.000000  1.000000  1.000000  1.000000  1.000000
                       1.000000  1.000000  1.000000  0.000000  0.000000
                       1.000000  1.000000  1.000000  1.000000  1.000000  1.000000
                       1.000000  1.000000  1.000000  1.000000  1.000000  1.000000
                       1.000000  1.000000  1.000000  1.000000  1.000000  1.000000
                       1.000000  1.000000  1.000000  0.000000  0.000000
                       1.000000  1.000000  1.000000  1.000000  1.000000  1.000000
                       1.000000  1.000000  1.000000  1.000000  1.000000  1.000000
                       1.000000  1.000000  1.000000  1.000000  1.000000  1.000000
                       1.000000  1.000000  1.000000  0.000000  0.000000
                       1.000000  1.000000  1.000000  1.000000  1.000000  1.000000
                       1.000000  1.000000  1.000000  1.000000  1.000000  1.000000
                       1.000000  1.000000  1.000000  1.000000  1.000000  1.000000
                       1.000000  1.000000  1.000000  0.000000  0.000000
                       1.000000  1.000000  1.000000  1.000000  1.000000  1.000000
                       1.000000  1.000000  1.000000  1.000000  1.000000  1.000000
                       1.000000  1.000000  1.000000  1.000000  1.000000  1.000000
                       1.000000  1.000000  1.000000  0.000000  0.000000
                       1.000000  1.000000  1.000000  1.000000  1.000000  1.000000
                       1.000000  1.000000  1.000000  1.000000  1.000000  1.000000
                       1.000000  1.000000  1.000000  1.000000  1.000000  1.000000
                       1.000000  1.000000  1.000000  0.000000  0.000000
                       1.000000  1.000000  1.000000  1.000000  1.000000  1.000000
                       1.000000  1.000000  1.000000  1.000000  1.000000  1.000000
                       1.000000  1.000000  1.000000  1.000000  1.000000  1.000000
                       1.000000  1.000000  1.000000  0.000000  0.000000
                       1.000000  1.000000  1.000000  1.000000  1.000000  1.000000
                       1.000000  1.000000  1.000000  1.000000  1.000000  1.000000
                       1.000000  1.000000  1.000000  1.000000  1.000000  1.000000
                       1.000000  1.000000  1.000000  0.000000  0.000000
                       1.000000  1.000000  1.000000  1.000000  1.000000  1.000000
                       1.000000  1.000000  1.000000  1.000000  1.000000  1.000000
                       1.000000  1.000000  1.000000  1.000000  1.000000  1.000000
                       1.000000  1.000000  0.000000  0.000000  0.000000
                       1.000000  1.000000  1.000000  1.000000  1.000000  1.000000
                       1.000000  1.000000  1.000000  1.000000  1.000000  1.000000
                       1.000000  1.000000  1.000000  1.000000  1.000000  1.000000
                       1.000000  1.000000  0.000000  0.000000  0.000000
                       1.000000  1.000000  1.000000  1.000000  1.000000  1.000000
                       1.000000  1.000000  1.000000  1.000000  1.000000  1.000000
                       1.000000  1.000000  1.000000  1.000000  1.000000  1.000000
                       1.000000  1.000000  0.000000  0.000000  0.000000
                       1.000000  1.000000  1.000000  1.000000  1.000000  1.000000
                       1.000000  1.000000  1.000000  1.000000  1.000000  1.000000
                       1.000000  1.000000  1.000000  1.000000  1.000000  1.000000
                       1.000000  1.000000  0.000000  0.000000  0.000000
                       1.000000  1.000000  1.000000  1.000000  1.000000  1.000000
                       1.000000  1.000000  1.000000  1.000000  1.000000  1.000000
                       1.000000  1.000000  1.000000  1.000000  1.000000  1.000000
                       1.000000  1.000000  0.000000  0.000000  0.000000
                       1.000000  1.000000  1.000000  1.000000  1.000000  1.000000
                       1.000000  1.000000  1.000000  1.000000  1.000000  1.000000
                       1.000000  1.000000  1.000000  1.000000  1.000000  1.000000
                       1.000000  1.000000  0.000000  0.000000  0.000000
                       1.000000  1.000000  1.000000  1.000000  1.000000  1.000000
                       1.000000  1.000000  1.000000  1.000000  1.000000  1.000000
                       1.000000  1.000000  1.000000  1.000000  1.000000  1.000000
                       1.000000  1.000000  0.000000  0.000000  0.000000
                       1.000000  1.000000  1.000000  1.000000  1.000000  1.000000
                       1.000000  1.000000  1.000000  1.000000  1.000000  1.000000
                       1.000000  1.000000  1.000000  1.000000  1.000000  1.000000
                       1.000000  1.000000  0.000000  0.000000  0.000000
                       1.000000  1.000000  1.000000  1.000000  1.000000  1.000000
                       1.000000  1.000000  1.000000  1.000000  1.000000  1.000000
                       1.000000  1.000000  1.000000  1.000000  1.000000  1.000000
                       1.000000  1.000000  0.000000  0.000000  0.000000
                       1.000000  1.000000  1.000000  1.000000  1.000000  1.000000
                       1.000000  1.000000  1.000000  1.000000  1.000000  1.000000
                       1.000000  1.000000  1.000000  1.000000  1.000000  1.000000
                       1.000000  1.000000  0.000000  0.000000  0.000000
           occopt           3
        optforces1          2
        optforces2          0
        pawecutdg      6.00000000E+01 Hartree
        pawprtvol           3
           prtvol           4
           shiftk      5.00000000E-01  5.00000000E-01  5.00000000E-01
          spgroup         221
           symrel      1  0  0   0  1  0   0  0  1      -1  0  0   0 -1  0   0  0 -1
                      -1  0  0   0  1  0   0  0 -1       1  0  0   0 -1  0   0  0  1
                      -1  0  0   0 -1  0   0  0  1       1  0  0   0  1  0   0  0 -1
                       1  0  0   0 -1  0   0  0 -1      -1  0  0   0  1  0   0  0  1
                       0  1  0   1  0  0   0  0  1       0 -1  0  -1  0  0   0  0 -1
                       0 -1  0   1  0  0   0  0 -1       0  1  0  -1  0  0   0  0  1
                       0 -1  0  -1  0  0   0  0  1       0  1  0   1  0  0   0  0 -1
                       0  1  0  -1  0  0   0  0 -1       0 -1  0   1  0  0   0  0  1
                       0  0  1   1  0  0   0  1  0       0  0 -1  -1  0  0   0 -1  0
                       0  0 -1   1  0  0   0 -1  0       0  0  1  -1  0  0   0  1  0
                       0  0 -1  -1  0  0   0  1  0       0  0  1   1  0  0   0 -1  0
                       0  0  1  -1  0  0   0 -1  0       0  0 -1   1  0  0   0  1  0
                       1  0  0   0  0  1   0  1  0      -1  0  0   0  0 -1   0 -1  0
                      -1  0  0   0  0  1   0 -1  0       1  0  0   0  0 -1   0  1  0
                      -1  0  0   0  0 -1   0  1  0       1  0  0   0  0  1   0 -1  0
                       1  0  0   0  0 -1   0 -1  0      -1  0  0   0  0  1   0  1  0
                       0  1  0   0  0  1   1  0  0       0 -1  0   0  0 -1  -1  0  0
                       0 -1  0   0  0  1  -1  0  0       0  1  0   0  0 -1   1  0  0
                       0 -1  0   0  0 -1   1  0  0       0  1  0   0  0  1  -1  0  0
                       0  1  0   0  0 -1  -1  0  0       0 -1  0   0  0  1   1  0  0
                       0  0  1   0  1  0   1  0  0       0  0 -1   0 -1  0  -1  0  0
                       0  0 -1   0  1  0  -1  0  0       0  0  1   0 -1  0   1  0  0
                       0  0 -1   0 -1  0   1  0  0       0  0  1   0  1  0  -1  0  0
                       0  0  1   0 -1  0  -1  0  0       0  0 -1   0  1  0   1  0  0
           tolvrs      1.00000000E-07
           tsmear      6.33363084E-03 Hartree
            typat      1  2  3  3  3
            upawu1     0.00000000E+00  0.00000000E+00  0.00000000E+00 Hartree
            upawu2     1.15147886E-01  0.00000000E+00  0.00000000E+00 Hartree
          usedmft1          0
          usedmft2          1
          usepawu1          1
          usepawu2         10
           useylm           1
              wtk        0.22222    0.07407    0.11111    0.11111    0.22222    0.05556
                         0.05556    0.11111    0.02778    0.00926
           xangst      0.0000000000E+00  0.0000000000E+00  0.0000000000E+00
                       1.9210455615E+00  1.9210455615E+00  1.9210455615E+00
                       1.9210455615E+00  0.0000000000E+00  0.0000000000E+00
                       0.0000000000E+00  1.9210455615E+00  0.0000000000E+00
                       0.0000000000E+00  0.0000000000E+00  1.9210455615E+00
            xcart      0.0000000000E+00  0.0000000000E+00  0.0000000000E+00
                       3.6302500000E+00  3.6302500000E+00  3.6302500000E+00
                       3.6302500000E+00  0.0000000000E+00  0.0000000000E+00
                       0.0000000000E+00  3.6302500000E+00  0.0000000000E+00
                       0.0000000000E+00  0.0000000000E+00  3.6302500000E+00
             xred      0.0000000000E+00  0.0000000000E+00  0.0000000000E+00
                       5.0000000000E-01  5.0000000000E-01  5.0000000000E-01
                       5.0000000000E-01  0.0000000000E+00  0.0000000000E+00
                       0.0000000000E+00  5.0000000000E-01  0.0000000000E+00
                       0.0000000000E+00  0.0000000000E+00  5.0000000000E-01
            znucl       23.00000   38.00000    8.00000

================================================================================

 chkinp: Checking input parameters for consistency, jdtset=   1.

 chkinp: Checking input parameters for consistency, jdtset=   2.

================================================================================
== DATASET  1 ==================================================================
-   mpi_nproc: 1, omp_nthreads: -1 (-1 if OMP is not activated)


--- !DatasetInfo
iteration_state: {dtset: 1, }
dimensions: {natom: 5, nkpt: 10, mband: 23, nsppol: 2, nspinor: 1, nspden: 2, mpw: 1181, }
cutoff_energies: {ecut:  16.0, pawecutdg:  60.0, }
electrons: {nelect:   4.10000000E+01, charge:   0.00000000E+00, occopt:   3.00000000E+00, tsmear:   6.33363084E-03, }
meta: {optdriver: 0, ionmov: 0, optcell: 0, iscf: 17, paral_kgb: 0, }
...

 Exchange-correlation functional for the present dataset will be:
  LDA: Perdew-Wang 92 LSD fit to Ceperley-Alder data - ixc=7
 Citation for XC functional:
  J.P.Perdew and Y.Wang, PRB 45, 13244 (1992)

 Real(R)+Recip(G) space primitive vectors, cartesian coordinates (Bohr,Bohr^-1):
 R(1)=  7.2605000  0.0000000  0.0000000  G(1)=  0.1377316  0.0000000  0.0000000
 R(2)=  0.0000000  7.2605000  0.0000000  G(2)=  0.0000000  0.1377316  0.0000000
 R(3)=  0.0000000  0.0000000  7.2605000  G(3)=  0.0000000  0.0000000  0.1377316
 Unit cell volume ucvol=  3.8273624E+02 bohr^3
 Angles (23,13,12)=  9.00000000E+01  9.00000000E+01  9.00000000E+01 degrees

 Coarse grid specifications (used for wave-functions):

 getcut: wavevector=  0.0000  0.0000  0.0000  ngfft=  30  30  30
         ecut(hartree)=     16.000   => boxcut(ratio)=   2.29472

 getcut : COMMENT -
  Note that boxcut > 2.2 ; recall that boxcut=Gcut(box)/Gcut(sphere) = 2
  is sufficient for exact treatment of convolution.
  Such a large boxcut is a waste : you could raise ecut
  e.g. ecut=   21.062951 Hartrees makes boxcut=2


 Fine grid specifications (used for densities):

 getcut: wavevector=  0.0000  0.0000  0.0000  ngfft=  54  54  54
         ecut(hartree)=     60.000   => boxcut(ratio)=   2.13298

--- Pseudopotential description ------------------------------------------------
- pspini: atom type   1  psp file is /home/buildbot/ABINIT/higgs_gnu_7.3_cov/trunk_develop/tests/Psps_for_tests/23v.paw
- pspatm: opening atomic psp file    /home/buildbot/ABINIT/higgs_gnu_7.3_cov/trunk_develop/tests/Psps_for_tests/23v.paw
- Paw atomic data for element V - Generated by AtomPAW + AtomPAW2Abinit v3.2.0
- 23.00000  13.00000  20070917                znucl, zion, pspdat
    7    7    2    0      1505   0.00000      pspcod,pspxc,lmax,lloc,mmax,r2well
 Pseudopotential format is: paw3
 basis_size (lnmax)=  8 (lmn_size= 22), orbitals=   0   0   0   1   1   1   2   2
 Spheres core radius: rc_sph= 2.35000000
 3 radial meshes are used:
  - mesh 1: r(i)=AA*[exp(BB*(i-1))-1], size=1505 , AA= 0.26380E-03 BB= 0.60673E-02
  - mesh 2: r(i)=AA*[exp(BB*(i-1))-1], size=1500 , AA= 0.26380E-03 BB= 0.60673E-02
  - mesh 3: r(i)=AA*[exp(BB*(i-1))-1], size=1738 , AA= 0.26380E-03 BB= 0.60673E-02
 Shapefunction is SIN type: shapef(r)=[sin(pi*r/rshp)/(pi*r/rshp)]**2
 Radius for shape functions =  2.00701120
 Radial grid used for partial waves is grid 1
 Radial grid used for projectors is grid  2
 Radial grid used for (t)core density is grid 1
 Radial grid used for Vloc is grid 3
 Compensation charge density is taken into account in XC energy/potential
 pspatm: atomic psp has been read  and splines computed

- pspini: atom type   2  psp file is /home/buildbot/ABINIT/higgs_gnu_7.3_cov/trunk_develop/tests/Psps_for_tests/38sr.paw
- pspatm: opening atomic psp file    /home/buildbot/ABINIT/higgs_gnu_7.3_cov/trunk_develop/tests/Psps_for_tests/38sr.paw
- Paw atomic data for element Sr - Generated by AtomPAW + AtomPAW2Abinit v3.2.0
- 38.00000  10.00000  20070917                znucl, zion, pspdat
    7    7    2    0      1068   0.00000      pspcod,pspxc,lmax,lloc,mmax,r2well
 Pseudopotential format is: paw3
 basis_size (lnmax)=  6 (lmn_size= 18), orbitals=   0   0   1   1   2   2
 Spheres core radius: rc_sph= 1.92519986
 4 radial meshes are used:
  - mesh 1: r(i)=AA*[exp(BB*(i-1))-1], size=1068 , AA= 0.22443E-03 BB= 0.85283E-02
  - mesh 2: r(i)=AA*[exp(BB*(i-1))-1], size=1063 , AA= 0.22443E-03 BB= 0.85283E-02
  - mesh 3: r(i)=AA*[exp(BB*(i-1))-1], size=1134 , AA= 0.22443E-03 BB= 0.85283E-02
  - mesh 4: r(i)=AA*[exp(BB*(i-1))-1], size=1256 , AA= 0.22443E-03 BB= 0.85283E-02
 Shapefunction is SIN type: shapef(r)=[sin(pi*r/rshp)/(pi*r/rshp)]**2
 Radius for shape functions =  1.81361893
 Radial grid used for partial waves is grid 1
 Radial grid used for projectors is grid  2
 Radial grid used for (t)core density is grid 3
 Radial grid used for Vloc is grid 4
 Compensation charge density is taken into account in XC energy/potential
 pspatm: atomic psp has been read  and splines computed

- pspini: atom type   3  psp file is /home/buildbot/ABINIT/higgs_gnu_7.3_cov/trunk_develop/tests/Psps_for_tests/8o.2.paw
- pspatm: opening atomic psp file    /home/buildbot/ABINIT/higgs_gnu_7.3_cov/trunk_develop/tests/Psps_for_tests/8o.2.paw
- Paw atomic data extracted from US-psp (D.Vanderbilt): Oxygen
-  8.00000   6.00000  20050722                znucl, zion, pspdat
    7   11    2    0       489   0.00000      pspcod,pspxc,lmax,lloc,mmax,r2well
 Pseudopotential format is: paw3
 basis_size (lnmax)=  6 (lmn_size= 18), orbitals=   0   0   1   1   2   2
 Spheres core radius: rc_sph= 1.21105161
 4 radial meshes are used:
  - mesh 1: r(i)=AA*[exp(BB*(i-1))-1], size= 489 , AA= 0.30984E-03 BB= 0.16949E-01
  - mesh 2: r(i)=AA*[exp(BB*(i-1))-1], size= 548 , AA= 0.30984E-03 BB= 0.16949E-01
  - mesh 3: r(i)=AA*[exp(BB*(i-1))-1], size= 509 , AA= 0.30984E-03 BB= 0.16949E-01
  - mesh 4: r(i)=AA*[exp(BB*(i-1))-1], size= 613 , AA= 0.30984E-03 BB= 0.16949E-01
 Shapefunction is SIN type: shapef(r)=[sin(pi*r/rshp)/(pi*r/rshp)]**2
 Radius for shape functions = sphere core radius
 Radial grid used for partial waves is grid 1
 Radial grid used for projectors is grid  2
 Radial grid used for (t)core density is grid 3
 Radial grid used for Vloc is grid 4
 Compensation charge density is taken into account in XC energy/potential
 pspatm: atomic psp has been read  and splines computed

   2.04308614E+03                                ecore*ucvol(ha*bohr**3)
--------------------------------------------------------------------------------

P newkpt: treating     23 bands with npw=    1174 for ikpt=   1 by node    0
P newkpt: treating     23 bands with npw=    1165 for ikpt=   2 by node    0
P newkpt: treating     23 bands with npw=    1172 for ikpt=   3 by node    0
P newkpt: treating     23 bands with npw=    1160 for ikpt=   4 by node    0
P newkpt: treating     23 bands with npw=    1171 for ikpt=   5 by node    0
P newkpt: treating     23 bands with npw=    1181 for ikpt=   6 by node    0
P newkpt: treating     23 bands with npw=    1180 for ikpt=   7 by node    0
P newkpt: treating     23 bands with npw=    1162 for ikpt=   8 by node    0
P newkpt: treating     23 bands with npw=    1166 for ikpt=   9 by node    0
P newkpt: treating     23 bands with npw=    1088 for ikpt=  10 by node    0
P newkpt: treating     23 bands with npw=    1174 for ikpt=   1 by node    0
P newkpt: treating     23 bands with npw=    1165 for ikpt=   2 by node    0
P newkpt: treating     23 bands with npw=    1172 for ikpt=   3 by node    0
P newkpt: treating     23 bands with npw=    1160 for ikpt=   4 by node    0
P newkpt: treating     23 bands with npw=    1171 for ikpt=   5 by node    0
P newkpt: treating     23 bands with npw=    1181 for ikpt=   6 by node    0
P newkpt: treating     23 bands with npw=    1180 for ikpt=   7 by node    0
P newkpt: treating     23 bands with npw=    1162 for ikpt=   8 by node    0
P newkpt: treating     23 bands with npw=    1166 for ikpt=   9 by node    0
P newkpt: treating     23 bands with npw=    1088 for ikpt=  10 by node    0
_setup2: Arith. and geom. avg. npw (full set) are    1169.259    1169.216


 ******************************************
 LDA+U Method used: FLL
 ******************************************

================================================================================

--- !BeginCycle
iteration_state: {dtset: 1, }
solver: {iscf: 17, nstep: 30, nline: 4, wfoptalg: 10, }
tolerances: {tolvrs: 1.00E-07, }
...

     iter   Etot(hartree)     deltaE(h) residm    nres2    magn
 ETOT  1  -146.17982080437    -1.46E+02 1.02E+01 7.27E+02 0.000
 ETOT  2  -155.12623205508    -8.95E+00 1.46E+00 1.45E+03 0.000
 ETOT  3  -152.46281641167     2.66E+00 7.83E-01 5.65E+02 0.000
 ETOT  4  -151.89423203856     5.69E-01 1.21E+00 5.23E+02 0.000
 ETOT  5  -151.90170854834    -7.48E-03 5.17E-01 4.19E+01 0.000
 ETOT  6  -151.99701606281    -9.53E-02 4.49E-01 1.04E+01 0.000
 ETOT  7  -152.02677690035    -2.98E-02 4.56E-01 2.48E+01 0.000
 ETOT  8  -152.00505237355     2.17E-02 1.47E-02 9.06E-01 0.000
 ETOT  9  -152.00644748929    -1.40E-03 1.58E-03 4.81E-01 0.000
 ETOT 10  -152.00587372891     5.74E-04 8.57E-04 1.21E-01 0.000
 ETOT 11  -152.00601502072    -1.41E-04 9.33E-04 8.87E-02 0.000
 ETOT 12  -152.00588652896     1.28E-04 5.37E-04 1.30E-02 0.000
 ETOT 13  -152.00586416957     2.24E-05 4.13E-04 1.58E-03 0.000
 ETOT 14  -152.00586498645    -8.17E-07 3.25E-04 2.29E-04 0.000
 ETOT 15  -152.00586503823    -5.18E-08 2.78E-04 1.06E-04 0.000
 ETOT 16  -152.00586507347    -3.52E-08 1.84E-04 4.64E-05 0.000
 ETOT 17  -152.00586504087     3.26E-08 2.58E-04 9.62E-07 0.000
 ETOT 18  -152.00586505975    -1.89E-08 1.04E-04 4.92E-07 0.000
 ETOT 19  -152.00586506768    -7.93E-09 1.40E-04 2.98E-07 0.000
 ETOT 20  -152.00586507276    -5.07E-09 5.53E-05 5.75E-08 0.000

 At SCF step   20       nres2   =  5.75E-08 < tolvrs=  1.00E-07 =>converged.

 Cartesian components of stress tensor (hartree/bohr^3)
  sigma(1 1)=  3.35417121E-04  sigma(3 2)=  0.00000000E+00
  sigma(2 2)=  3.35417121E-04  sigma(3 1)=  0.00000000E+00
  sigma(3 3)=  3.35417121E-04  sigma(2 1)=  0.00000000E+00


--- !ResultsGS
iteration_state: {dtset: 1, }
comment   : Summary of ground state results
lattice_vectors:
- [  7.2605000,   0.0000000,   0.0000000, ]
- [  0.0000000,   7.2605000,   0.0000000, ]
- [  0.0000000,   0.0000000,   7.2605000, ]
lattice_lengths: [   7.26050,    7.26050,    7.26050, ]
lattice_angles: [ 90.000,  90.000,  90.000, ] # degrees, (23, 13, 12)
lattice_volume:   3.8273624E+02
convergence: {deltae: -5.069E-09, res2:  5.719E-08, residm:  5.527E-05, diffor: null, }
etotal    :  -1.52005865E+02
entropy   :   0.00000000E+00
fermie    :   3.22260084E-01
cartesian_stress_tensor: # hartree/bohr^3
- [  3.35417121E-04,   0.00000000E+00,   0.00000000E+00, ]
- [  0.00000000E+00,   3.35417121E-04,   0.00000000E+00, ]
- [  0.00000000E+00,   0.00000000E+00,   3.35417121E-04, ]
pressure_GPa:  -9.8683E+00
xred      :
- [  0.0000E+00,   0.0000E+00,   0.0000E+00,  V]
- [  5.0000E-01,   5.0000E-01,   5.0000E-01, Sr]
- [  5.0000E-01,   0.0000E+00,   0.0000E+00,  O]
- [  0.0000E+00,   5.0000E-01,   0.0000E+00,  O]
- [  0.0000E+00,   0.0000E+00,   5.0000E-01,  O]
cartesian_forces: # hartree/bohr
- [ -0.00000000E+00,  -0.00000000E+00,  -0.00000000E+00, ]
- [ -0.00000000E+00,  -0.00000000E+00,  -0.00000000E+00, ]
- [ -0.00000000E+00,  -0.00000000E+00,  -0.00000000E+00, ]
- [ -0.00000000E+00,  -0.00000000E+00,  -0.00000000E+00, ]
- [ -0.00000000E+00,  -0.00000000E+00,  -0.00000000E+00, ]
force_length_stats: {min:   0.00000000E+00, max:   0.00000000E+00, mean:   0.00000000E+00, }
...

 Integrated electronic and magnetization densities in atomic spheres:
 ---------------------------------------------------------------------
 Radius=ratsph(iatom), smearing ratsm=  0.0000. Diff(up-dn)=approximate z local magnetic moment.
 Atom    Radius    up_density   dn_density  Total(up+dn)  Diff(up-dn)
    1   2.35000     5.957141     5.957141     11.914282     0.000000
    2   1.92520     3.243899     3.243899      6.487797    -0.000000
    3   1.21105     1.858033     1.858033      3.716066    -0.000000
    4   1.21105     1.858033     1.858033      3.716066    -0.000000
    5   1.21105     1.858033     1.858033      3.716066    -0.000000
 ---------------------------------------------------------------------
  Sum:             14.775138    14.775138     29.550275     0.000000
 Total magnetization (from the atomic spheres):             0.000000
 Total magnetization (exact up - dn):                       0.000000

 PAW TEST:
 ==== Compensation charge inside spheres ============
 The following values must be close to each other ...
 Compensation charge over spherical meshes =      7.380002463208338
 Compensation charge over fine fft grid    =      7.380119879733859

 ==== Results concerning PAW augmentation regions ====

 Total pseudopotential strength Dij (hartree):
 Atom #  1 - Spin component 1
  -1.46083   0.30855  -1.65239   0.00000   0.00000   0.00000   0.00000   0.00000   0.00000   0.00000   0.00000   0.00000 ...
   0.30855   0.16796  -1.51707   0.00000   0.00000   0.00000   0.00000   0.00000   0.00000   0.00000   0.00000   0.00000 ...
  -1.65239  -1.51707  15.91573   0.00000   0.00000   0.00000   0.00000   0.00000   0.00000   0.00000   0.00000   0.00000 ...
   0.00000   0.00000   0.00000  -1.05615   0.00000   0.00000   0.07292   0.00000   0.00000   0.07837   0.00000   0.00000 ...
   0.00000   0.00000   0.00000   0.00000  -1.05615   0.00000   0.00000   0.07292   0.00000   0.00000   0.07837   0.00000 ...
   0.00000   0.00000   0.00000   0.00000   0.00000  -1.05615   0.00000   0.00000   0.07292   0.00000   0.00000   0.07837 ...
   0.00000   0.00000   0.00000   0.07292   0.00000   0.00000   0.03953   0.00000   0.00000  -0.16660   0.00000   0.00000 ...
   0.00000   0.00000   0.00000   0.00000   0.07292   0.00000   0.00000   0.03953   0.00000   0.00000  -0.16660   0.00000 ...
   0.00000   0.00000   0.00000   0.00000   0.00000   0.07292   0.00000   0.00000   0.03953   0.00000   0.00000  -0.16660 ...
   0.00000   0.00000   0.00000   0.07837   0.00000   0.00000  -0.16660   0.00000   0.00000   2.30152   0.00000   0.00000 ...
   0.00000   0.00000   0.00000   0.00000   0.07837   0.00000   0.00000  -0.16660   0.00000   0.00000   2.30152   0.00000 ...
   0.00000   0.00000   0.00000   0.00000   0.00000   0.07837   0.00000   0.00000  -0.16660   0.00000   0.00000   2.30152 ...
   ...  only 12  components have been written...
 Atom #  1 - Spin component 2
  -1.46083   0.30855  -1.65239   0.00000   0.00000   0.00000   0.00000   0.00000   0.00000   0.00000   0.00000   0.00000 ...
   0.30855   0.16796  -1.51707   0.00000   0.00000   0.00000   0.00000   0.00000   0.00000   0.00000   0.00000   0.00000 ...
  -1.65239  -1.51707  15.91573   0.00000   0.00000   0.00000   0.00000   0.00000   0.00000   0.00000   0.00000   0.00000 ...
   0.00000   0.00000   0.00000  -1.05615   0.00000   0.00000   0.07292   0.00000   0.00000   0.07837   0.00000   0.00000 ...
   0.00000   0.00000   0.00000   0.00000  -1.05615   0.00000   0.00000   0.07292   0.00000   0.00000   0.07837   0.00000 ...
   0.00000   0.00000   0.00000   0.00000   0.00000  -1.05615   0.00000   0.00000   0.07292   0.00000   0.00000   0.07837 ...
   0.00000   0.00000   0.00000   0.07292   0.00000   0.00000   0.03953   0.00000   0.00000  -0.16660   0.00000   0.00000 ...
   0.00000   0.00000   0.00000   0.00000   0.07292   0.00000   0.00000   0.03953   0.00000   0.00000  -0.16660   0.00000 ...
   0.00000   0.00000   0.00000   0.00000   0.00000   0.07292   0.00000   0.00000   0.03953   0.00000   0.00000  -0.16660 ...
   0.00000   0.00000   0.00000   0.07837   0.00000   0.00000  -0.16660   0.00000   0.00000   2.30152   0.00000   0.00000 ...
   0.00000   0.00000   0.00000   0.00000   0.07837   0.00000   0.00000  -0.16660   0.00000   0.00000   2.30152   0.00000 ...
   0.00000   0.00000   0.00000   0.00000   0.00000   0.07837   0.00000   0.00000  -0.16660   0.00000   0.00000   2.30152 ...
   ...  only 12  components have been written...
 Atom #  5 - Spin component 1
   0.63673   1.07120   0.00000   0.00000   0.00000   0.00000   0.00000   0.00000   0.00000   0.00000   0.00026   0.00000 ...
   1.07120   1.79907   0.00000   0.00000   0.00000   0.00000   0.00000   0.00000   0.00000   0.00000   0.00038   0.00000 ...
   0.00000   0.00000  -0.27257   0.00000   0.00000  -0.30349   0.00000   0.00000   0.00000   0.00000   0.00000   0.00000 ...
   0.00000   0.00000   0.00000  -0.27489   0.00000   0.00000  -0.30673   0.00000   0.00000   0.00000   0.00000   0.00000 ...
   0.00000   0.00000   0.00000   0.00000  -0.27257   0.00000   0.00000  -0.30349   0.00000   0.00000   0.00000   0.00000 ...
   0.00000   0.00000  -0.30349   0.00000   0.00000  -0.30218   0.00000   0.00000   0.00000   0.00000   0.00000   0.00000 ...
   0.00000   0.00000   0.00000  -0.30673   0.00000   0.00000  -0.30670   0.00000   0.00000   0.00000   0.00000   0.00000 ...
   0.00000   0.00000   0.00000   0.00000  -0.30349   0.00000   0.00000  -0.30218   0.00000   0.00000   0.00000   0.00000 ...
   0.00000   0.00000   0.00000   0.00000   0.00000   0.00000   0.00000   0.00000  -0.01518   0.00000   0.00000   0.00000 ...
   0.00000   0.00000   0.00000   0.00000   0.00000   0.00000   0.00000   0.00000   0.00000  -0.01538   0.00000   0.00000 ...
   0.00026   0.00038   0.00000   0.00000   0.00000   0.00000   0.00000   0.00000   0.00000   0.00000  -0.01550   0.00000 ...
   0.00000   0.00000   0.00000   0.00000   0.00000   0.00000   0.00000   0.00000   0.00000   0.00000   0.00000  -0.01538 ...
   ...  only 12  components have been written...
 Atom #  5 - Spin component 2
   0.63673   1.07120   0.00000   0.00000   0.00000   0.00000   0.00000   0.00000   0.00000   0.00000   0.00026   0.00000 ...
   1.07120   1.79907   0.00000   0.00000   0.00000   0.00000   0.00000   0.00000   0.00000   0.00000   0.00038   0.00000 ...
   0.00000   0.00000  -0.27257   0.00000   0.00000  -0.30349   0.00000   0.00000   0.00000   0.00000   0.00000   0.00000 ...
   0.00000   0.00000   0.00000  -0.27489   0.00000   0.00000  -0.30673   0.00000   0.00000   0.00000   0.00000   0.00000 ...
   0.00000   0.00000   0.00000   0.00000  -0.27257   0.00000   0.00000  -0.30349   0.00000   0.00000   0.00000   0.00000 ...
   0.00000   0.00000  -0.30349   0.00000   0.00000  -0.30218   0.00000   0.00000   0.00000   0.00000   0.00000   0.00000 ...
   0.00000   0.00000   0.00000  -0.30673   0.00000   0.00000  -0.30670   0.00000   0.00000   0.00000   0.00000   0.00000 ...
   0.00000   0.00000   0.00000   0.00000  -0.30349   0.00000   0.00000  -0.30218   0.00000   0.00000   0.00000   0.00000 ...
   0.00000   0.00000   0.00000   0.00000   0.00000   0.00000   0.00000   0.00000  -0.01518   0.00000   0.00000   0.00000 ...
   0.00000   0.00000   0.00000   0.00000   0.00000   0.00000   0.00000   0.00000   0.00000  -0.01538   0.00000   0.00000 ...
   0.00026   0.00038   0.00000   0.00000   0.00000   0.00000   0.00000   0.00000   0.00000   0.00000  -0.01550   0.00000 ...
   0.00000   0.00000   0.00000   0.00000   0.00000   0.00000   0.00000   0.00000   0.00000   0.00000   0.00000  -0.01538 ...
   ...  only 12  components have been written...


 Augmentation waves occupancies Rhoij:
 Atom #  1 - Spin component 1
   1.00062   0.00053   0.00175   0.00000   0.00000   0.00000   0.00000   0.00000   0.00000   0.00000   0.00000   0.00000 ...
   0.00053   0.73977   0.00988   0.00000   0.00000   0.00000   0.00000   0.00000   0.00000   0.00000   0.00000   0.00000 ...
   0.00175   0.00988   0.00017   0.00000   0.00000   0.00000   0.00000   0.00000   0.00000   0.00000   0.00000   0.00000 ...
   0.00000   0.00000   0.00000   0.99957   0.00000   0.00000  -0.01657   0.00000   0.00000   0.00389   0.00000   0.00000 ...
   0.00000   0.00000   0.00000   0.00000   0.99957   0.00000   0.00000  -0.01657   0.00000   0.00000   0.00389   0.00000 ...
   0.00000   0.00000   0.00000   0.00000   0.00000   0.99957   0.00000   0.00000  -0.01657   0.00000   0.00000   0.00389 ...
   0.00000   0.00000   0.00000  -0.01657   0.00000   0.00000   1.07524   0.00000   0.00000   0.01708   0.00000   0.00000 ...
   0.00000   0.00000   0.00000   0.00000  -0.01657   0.00000   0.00000   1.07524   0.00000   0.00000   0.01708   0.00000 ...
   0.00000   0.00000   0.00000   0.00000   0.00000  -0.01657   0.00000   0.00000   1.07524   0.00000   0.00000   0.01708 ...
   0.00000   0.00000   0.00000   0.00389   0.00000   0.00000   0.01708   0.00000   0.00000   0.00034   0.00000   0.00000 ...
   0.00000   0.00000   0.00000   0.00000   0.00389   0.00000   0.00000   0.01708   0.00000   0.00000   0.00034   0.00000 ...
   0.00000   0.00000   0.00000   0.00000   0.00000   0.00389   0.00000   0.00000   0.01708   0.00000   0.00000   0.00034 ...
   ...  only 12  components have been written...
 Atom #  1 - Spin component 2
   1.00062   0.00053   0.00175   0.00000   0.00000   0.00000   0.00000   0.00000   0.00000   0.00000   0.00000   0.00000 ...
   0.00053   0.73977   0.00988   0.00000   0.00000   0.00000   0.00000   0.00000   0.00000   0.00000   0.00000   0.00000 ...
   0.00175   0.00988   0.00017   0.00000   0.00000   0.00000   0.00000   0.00000   0.00000   0.00000   0.00000   0.00000 ...
   0.00000   0.00000   0.00000   0.99957   0.00000   0.00000  -0.01657   0.00000   0.00000   0.00389   0.00000   0.00000 ...
   0.00000   0.00000   0.00000   0.00000   0.99957   0.00000   0.00000  -0.01657   0.00000   0.00000   0.00389   0.00000 ...
   0.00000   0.00000   0.00000   0.00000   0.00000   0.99957   0.00000   0.00000  -0.01657   0.00000   0.00000   0.00389 ...
   0.00000   0.00000   0.00000  -0.01657   0.00000   0.00000   1.07524   0.00000   0.00000   0.01708   0.00000   0.00000 ...
   0.00000   0.00000   0.00000   0.00000  -0.01657   0.00000   0.00000   1.07524   0.00000   0.00000   0.01708   0.00000 ...
   0.00000   0.00000   0.00000   0.00000   0.00000  -0.01657   0.00000   0.00000   1.07524   0.00000   0.00000   0.01708 ...
   0.00000   0.00000   0.00000   0.00389   0.00000   0.00000   0.01708   0.00000   0.00000   0.00034   0.00000   0.00000 ...
   0.00000   0.00000   0.00000   0.00000   0.00389   0.00000   0.00000   0.01708   0.00000   0.00000   0.00034   0.00000 ...
   0.00000   0.00000   0.00000   0.00000   0.00000   0.00389   0.00000   0.00000   0.01708   0.00000   0.00000   0.00034 ...
   ...  only 12  components have been written...
 Atom #  5 - Spin component 1
   1.08319  -0.06206   0.00000   0.00000   0.00000   0.00000   0.00000   0.00000   0.00000   0.00000   0.02130   0.00000 ...
  -0.06206   0.00717   0.00000   0.00000   0.00000   0.00000   0.00000   0.00000   0.00000   0.00000   0.00296   0.00000 ...
   0.00000   0.00000   0.95624   0.00000   0.00000  -0.08425   0.00000   0.00000   0.00000   0.00000   0.00000   0.00000 ...
   0.00000   0.00000   0.00000   1.09730   0.00000   0.00000  -0.15730   0.00000   0.00000   0.00000   0.00000   0.00000 ...
   0.00000   0.00000   0.00000   0.00000   0.95624   0.00000   0.00000  -0.08425   0.00000   0.00000   0.00000   0.00000 ...
   0.00000   0.00000  -0.08425   0.00000   0.00000   0.01291   0.00000   0.00000   0.00000   0.00000   0.00000   0.00000 ...
   0.00000   0.00000   0.00000  -0.15730   0.00000   0.00000   0.03010   0.00000   0.00000   0.00000   0.00000   0.00000 ...
   0.00000   0.00000   0.00000   0.00000  -0.08425   0.00000   0.00000   0.01291   0.00000   0.00000   0.00000   0.00000 ...
   0.00000   0.00000   0.00000   0.00000   0.00000   0.00000   0.00000   0.00000   0.00150   0.00000   0.00000   0.00000 ...
   0.00000   0.00000   0.00000   0.00000   0.00000   0.00000   0.00000   0.00000   0.00000   0.00622   0.00000   0.00000 ...
   0.02130   0.00296   0.00000   0.00000   0.00000   0.00000   0.00000   0.00000   0.00000   0.00000   0.02120   0.00000 ...
   0.00000   0.00000   0.00000   0.00000   0.00000   0.00000   0.00000   0.00000   0.00000   0.00000   0.00000   0.00622 ...
   ...  only 12  components have been written...
 Atom #  5 - Spin component 2
   1.08319  -0.06206   0.00000   0.00000   0.00000   0.00000   0.00000   0.00000   0.00000   0.00000   0.02130   0.00000 ...
  -0.06206   0.00717   0.00000   0.00000   0.00000   0.00000   0.00000   0.00000   0.00000   0.00000   0.00296   0.00000 ...
   0.00000   0.00000   0.95624   0.00000   0.00000  -0.08425   0.00000   0.00000   0.00000   0.00000   0.00000   0.00000 ...
   0.00000   0.00000   0.00000   1.09730   0.00000   0.00000  -0.15730   0.00000   0.00000   0.00000   0.00000   0.00000 ...
   0.00000   0.00000   0.00000   0.00000   0.95624   0.00000   0.00000  -0.08425   0.00000   0.00000   0.00000   0.00000 ...
   0.00000   0.00000  -0.08425   0.00000   0.00000   0.01291   0.00000   0.00000   0.00000   0.00000   0.00000   0.00000 ...
   0.00000   0.00000   0.00000  -0.15730   0.00000   0.00000   0.03010   0.00000   0.00000   0.00000   0.00000   0.00000 ...
   0.00000   0.00000   0.00000   0.00000  -0.08425   0.00000   0.00000   0.01291   0.00000   0.00000   0.00000   0.00000 ...
   0.00000   0.00000   0.00000   0.00000   0.00000   0.00000   0.00000   0.00000   0.00150   0.00000   0.00000   0.00000 ...
   0.00000   0.00000   0.00000   0.00000   0.00000   0.00000   0.00000   0.00000   0.00000   0.00622   0.00000   0.00000 ...
   0.02130   0.00296   0.00000   0.00000   0.00000   0.00000   0.00000   0.00000   0.00000   0.00000   0.02120   0.00000 ...
   0.00000   0.00000   0.00000   0.00000   0.00000   0.00000   0.00000   0.00000   0.00000   0.00000   0.00000   0.00622 ...
   ...  only 12  components have been written...

 "PAW+U" part of augmentation waves occupancies Rhoij:
 Atom #  1 - L=2 ONLY - Spin component 1
   0.32324   0.00000   0.00000   0.00000   0.00000   0.02522   0.00000   0.00000   0.00000   0.00000
   0.00000   0.32324   0.00000   0.00000   0.00000   0.00000   0.02522   0.00000   0.00000   0.00000
   0.00000   0.00000   0.31970   0.00000   0.00000   0.00000   0.00000   0.06728   0.00000   0.00000
   0.00000   0.00000   0.00000   0.32324   0.00000   0.00000   0.00000   0.00000   0.02522   0.00000
   0.00000   0.00000   0.00000   0.00000   0.31970   0.00000   0.00000   0.00000   0.00000   0.06728
   0.02522   0.00000   0.00000   0.00000   0.00000   0.00477   0.00000   0.00000   0.00000   0.00000
   0.00000   0.02522   0.00000   0.00000   0.00000   0.00000   0.00477   0.00000   0.00000   0.00000
   0.00000   0.00000   0.06728   0.00000   0.00000   0.00000   0.00000   0.01685   0.00000   0.00000
   0.00000   0.00000   0.00000   0.02522   0.00000   0.00000   0.00000   0.00000   0.00477   0.00000
   0.00000   0.00000   0.00000   0.00000   0.06728   0.00000   0.00000   0.00000   0.00000   0.01685
 Atom #  1 - L=2 ONLY - Spin component 2
   0.32324   0.00000   0.00000   0.00000   0.00000   0.02522   0.00000   0.00000   0.00000   0.00000
   0.00000   0.32324   0.00000   0.00000   0.00000   0.00000   0.02522   0.00000   0.00000   0.00000
   0.00000   0.00000   0.31970   0.00000   0.00000   0.00000   0.00000   0.06728   0.00000   0.00000
   0.00000   0.00000   0.00000   0.32324   0.00000   0.00000   0.00000   0.00000   0.02522   0.00000
   0.00000   0.00000   0.00000   0.00000   0.31970   0.00000   0.00000   0.00000   0.00000   0.06728
   0.02522   0.00000   0.00000   0.00000   0.00000   0.00477   0.00000   0.00000   0.00000   0.00000
   0.00000   0.02522   0.00000   0.00000   0.00000   0.00000   0.00477   0.00000   0.00000   0.00000
   0.00000   0.00000   0.06728   0.00000   0.00000   0.00000   0.00000   0.01685   0.00000   0.00000
   0.00000   0.00000   0.00000   0.02522   0.00000   0.00000   0.00000   0.00000   0.00477   0.00000
   0.00000   0.00000   0.00000   0.00000   0.06728   0.00000   0.00000   0.00000   0.00000   0.01685

 ---------- LDA+U DATA --------------------------------------------------- 

 ====== For Atom     1, occupations for correlated orbitals. lpawu =   2

 Atom   1. Occ. for lpawu and for spin  1 =   1.15935
 Atom   1. Occ. for lpawu and for spin  2 =   1.15935
 => On atom   1,  local Mag. for lpawu is       -0.000000

 == Occupation matrix for correlated orbitals:

 Occupation matrix for spin  1
     0.23727    0.00000    0.00000    0.00000    0.00000
     0.00000    0.23727    0.00000    0.00000    0.00000
     0.00000    0.00000    0.22377    0.00000    0.00000
     0.00000    0.00000    0.00000    0.23727    0.00000
     0.00000    0.00000    0.00000    0.00000    0.22377


 Occupation matrix for spin  2
     0.23727    0.00000    0.00000    0.00000    0.00000
     0.00000    0.23727    0.00000    0.00000    0.00000
     0.00000    0.00000    0.22377    0.00000    0.00000
     0.00000    0.00000    0.00000    0.23727    0.00000
     0.00000    0.00000    0.00000    0.00000    0.22377



================================================================================

 ----iterations are completed or convergence reached----

 Mean square residual over all n,k,spin=   24.041E-08; max=  55.272E-06
  -0.1667 -0.3333  0.0000    1  3.10704E-10 kpt; spin; max resid(k); each band:
  2.08E-10 1.88E-11 1.72E-11 3.87E-11 7.59E-12 1.03E-11 1.52E-11 3.45E-12
  2.23E-12 5.66E-12 7.56E-12 1.59E-11 2.29E-11 9.91E-12 1.01E-11 2.96E-11
  2.23E-12 4.41E-12 1.44E-11 1.03E-11 1.48E-11 3.11E-10 2.54E-10
  -0.1667 -0.1667  0.1667    1  7.37732E-11 kpt; spin; max resid(k); each band:
  7.38E-11 1.02E-11 3.65E-12 4.05E-11 7.64E-12 5.23E-12 7.46E-12 1.23E-11
  3.43E-12 2.16E-12 4.51E-12 1.35E-11 1.87E-11 1.48E-11 2.00E-11 3.19E-11
  3.58E-11 5.33E-12 6.10E-12 1.25E-13 1.39E-11 1.16E-11 1.35E-11
  -0.3333  0.5000  0.0000    1  1.25573E-08 kpt; spin; max resid(k); each band:
  4.29E-10 5.00E-11 4.92E-11 5.82E-11 4.08E-12 1.63E-11 1.73E-11 9.06E-12
  4.08E-13 6.14E-12 5.22E-12 8.42E-12 2.05E-11 1.12E-11 3.16E-11 5.67E-11
  1.43E-11 2.26E-12 4.48E-12 1.92E-12 3.67E-11 1.69E-09 1.26E-08
  -0.1667  0.5000  0.1667    1  9.56592E-10 kpt; spin; max resid(k); each band:
  1.69E-10 2.43E-11 7.21E-11 6.47E-11 3.61E-12 1.66E-11 2.04E-11 1.11E-11
  3.58E-12 3.94E-12 6.59E-12 9.05E-12 1.89E-11 7.34E-12 4.11E-11 1.04E-11
  1.24E-11 1.65E-11 4.08E-12 9.08E-12 1.12E-11 9.57E-10 1.47E-10
  -0.3333 -0.3333  0.1667    1  2.01807E-10 kpt; spin; max resid(k); each band:
  2.02E-10 3.40E-11 3.46E-11 2.81E-11 1.93E-12 1.09E-11 1.12E-11 9.01E-12
  2.01E-12 1.07E-11 3.88E-12 9.00E-12 1.03E-11 1.32E-11 1.40E-11 2.15E-11
  1.55E-11 5.26E-12 4.65E-12 1.90E-12 1.99E-11 2.59E-11 4.03E-11
  -0.1667  0.0000  0.0000    1  3.93619E-10 kpt; spin; max resid(k); each band:
  3.94E-10 1.33E-10 5.35E-12 1.01E-10 4.07E-12 3.05E-11 9.66E-12 1.41E-12
  4.78E-12 4.08E-12 4.67E-12 1.85E-11 7.79E-12 1.00E-11 1.41E-11 1.34E-11
  4.44E-14 8.04E-12 1.08E-11 1.38E-11 7.08E-13 2.52E-11 5.45E-11
   0.5000  0.5000  0.1667    1  2.83361E-10 kpt; spin; max resid(k); each band:
  2.83E-10 3.12E-12 3.00E-11 1.10E-10 1.35E-11 5.76E-12 6.59E-12 2.01E-11
  1.10E-12 6.69E-12 5.64E-12 7.37E-12 4.67E-11 5.67E-12 2.45E-11 3.69E-11
  1.79E-11 3.72E-12 3.46E-12 2.14E-13 8.73E-12 1.62E-11 7.54E-11
  -0.3333  0.5000  0.3333    1  6.10933E-11 kpt; spin; max resid(k); each band:
  6.11E-11 4.14E-11 8.40E-12 4.11E-11 4.87E-12 1.65E-11 6.21E-12 7.59E-12
  3.97E-12 6.30E-12 1.44E-12 6.20E-12 1.08E-11 2.71E-11 9.24E-12 2.86E-11
  2.14E-11 1.02E-12 2.44E-12 1.21E-12 1.47E-11 2.09E-11 2.65E-11
   0.5000  0.0000  0.0000    1  5.52723E-05 kpt; spin; max resid(k); each band:
  3.01E-10 1.31E-11 9.54E-12 4.43E-11 6.80E-12 1.94E-11 3.31E-12 1.43E-11
  5.21E-12 3.34E-12 6.90E-12 5.56E-12 5.14E-12 3.04E-12 1.72E-12 5.33E-11
  1.78E-11 5.74E-13 1.94E-12 1.81E-12 4.25E-13 1.71E-11 5.53E-05
   0.5000  0.5000  0.5000    1  8.19584E-11 kpt; spin; max resid(k); each band:
  8.20E-11 1.23E-12 4.98E-12 3.68E-12 2.50E-13 2.78E-12 3.33E-12 8.55E-12
  3.30E-12 3.44E-12 4.84E-12 1.44E-12 6.21E-12 6.54E-12 2.06E-11 2.30E-11
  3.61E-11 2.57E-13 2.01E-13 1.62E-14 1.86E-11 1.87E-11 1.51E-11
  -0.1667 -0.3333  0.0000    2  3.10703E-10 kpt; spin; max resid(k); each band:
  2.08E-10 1.88E-11 1.72E-11 3.87E-11 7.59E-12 1.03E-11 1.52E-11 3.45E-12
  2.23E-12 5.66E-12 7.56E-12 1.59E-11 2.29E-11 9.91E-12 1.01E-11 2.96E-11
  2.23E-12 4.41E-12 1.44E-11 1.03E-11 1.48E-11 3.11E-10 2.54E-10
  -0.1667 -0.1667  0.1667    2  7.36913E-11 kpt; spin; max resid(k); each band:
  7.37E-11 1.02E-11 3.65E-12 4.05E-11 7.64E-12 5.23E-12 7.46E-12 1.23E-11
  3.43E-12 2.16E-12 4.51E-12 1.35E-11 1.87E-11 1.48E-11 2.00E-11 3.19E-11
  3.58E-11 5.33E-12 6.10E-12 1.25E-13 1.39E-11 1.16E-11 1.35E-11
  -0.3333  0.5000  0.0000    2  1.25573E-08 kpt; spin; max resid(k); each band:
  4.29E-10 5.00E-11 4.92E-11 5.82E-11 4.08E-12 1.63E-11 1.73E-11 9.06E-12
  4.08E-13 6.14E-12 5.22E-12 8.42E-12 2.05E-11 1.12E-11 3.16E-11 5.67E-11
  1.43E-11 2.26E-12 4.48E-12 1.92E-12 3.67E-11 1.69E-09 1.26E-08
  -0.1667  0.5000  0.1667    2  9.56591E-10 kpt; spin; max resid(k); each band:
  1.69E-10 2.43E-11 7.21E-11 6.47E-11 3.61E-12 1.66E-11 2.04E-11 1.11E-11
  3.58E-12 3.94E-12 6.59E-12 9.05E-12 1.89E-11 7.34E-12 4.11E-11 1.04E-11
  1.24E-11 1.65E-11 4.08E-12 9.08E-12 1.12E-11 9.57E-10 1.47E-10
  -0.3333 -0.3333  0.1667    2  2.01807E-10 kpt; spin; max resid(k); each band:
  2.02E-10 3.40E-11 3.46E-11 2.81E-11 1.93E-12 1.09E-11 1.12E-11 9.01E-12
  2.01E-12 1.07E-11 3.88E-12 9.00E-12 1.03E-11 1.32E-11 1.40E-11 2.15E-11
  1.55E-11 5.26E-12 4.65E-12 1.90E-12 1.99E-11 2.59E-11 4.03E-11
  -0.1667  0.0000  0.0000    2  3.93619E-10 kpt; spin; max resid(k); each band:
  3.94E-10 1.33E-10 5.35E-12 1.01E-10 4.07E-12 3.05E-11 9.66E-12 1.41E-12
  4.78E-12 4.08E-12 4.67E-12 1.85E-11 7.79E-12 1.00E-11 1.41E-11 1.34E-11
  4.45E-14 8.04E-12 1.08E-11 1.38E-11 7.08E-13 2.52E-11 5.45E-11
   0.5000  0.5000  0.1667    2  2.83362E-10 kpt; spin; max resid(k); each band:
  2.83E-10 3.12E-12 3.00E-11 1.10E-10 1.35E-11 5.76E-12 6.60E-12 2.01E-11
  1.10E-12 6.69E-12 5.64E-12 7.37E-12 4.67E-11 5.67E-12 2.45E-11 3.69E-11
  1.79E-11 3.72E-12 3.46E-12 2.14E-13 8.73E-12 1.62E-11 7.54E-11
  -0.3333  0.5000  0.3333    2  6.10934E-11 kpt; spin; max resid(k); each band:
  6.11E-11 4.14E-11 8.40E-12 4.11E-11 4.87E-12 1.65E-11 6.21E-12 7.59E-12
  3.97E-12 6.30E-12 1.44E-12 6.20E-12 1.08E-11 2.71E-11 9.24E-12 2.86E-11
  2.14E-11 1.02E-12 2.44E-12 1.21E-12 1.47E-11 2.09E-11 2.65E-11
   0.5000  0.0000  0.0000    2  5.52723E-05 kpt; spin; max resid(k); each band:
  3.01E-10 1.31E-11 9.54E-12 4.43E-11 6.80E-12 1.94E-11 3.31E-12 1.43E-11
  5.21E-12 3.34E-12 6.90E-12 5.56E-12 5.14E-12 3.04E-12 1.72E-12 5.33E-11
  1.78E-11 5.74E-13 1.94E-12 1.81E-12 4.25E-13 1.71E-11 5.53E-05
   0.5000  0.5000  0.5000    2  8.19583E-11 kpt; spin; max resid(k); each band:
  8.20E-11 1.23E-12 4.98E-12 3.68E-12 2.46E-13 2.78E-12 3.33E-12 8.55E-12
  3.30E-12 3.44E-12 4.84E-12 1.44E-12 6.21E-12 6.54E-12 2.06E-11 2.30E-11
  3.61E-11 2.57E-13 2.01E-13 1.62E-14 1.86E-11 1.87E-11 1.51E-11
 reduced coordinates (array xred) for    5 atoms
       0.000000000000      0.000000000000      0.000000000000
       0.500000000000      0.500000000000      0.500000000000
       0.500000000000      0.000000000000      0.000000000000
       0.000000000000      0.500000000000      0.000000000000
       0.000000000000      0.000000000000      0.500000000000
 rms dE/dt=  0.0000E+00; max dE/dt=  0.0000E+00; dE/dt below (all hartree)
    1       0.000000000000      0.000000000000      0.000000000000
    2       0.000000000000      0.000000000000      0.000000000000
    3       0.000000000000      0.000000000000      0.000000000000
    4       0.000000000000      0.000000000000      0.000000000000
    5       0.000000000000      0.000000000000      0.000000000000

 cartesian coordinates (angstrom) at end:
    1      0.00000000000000     0.00000000000000     0.00000000000000
    2      1.92104556148385     1.92104556148385     1.92104556148385
    3      1.92104556148385     0.00000000000000     0.00000000000000
    4      0.00000000000000     1.92104556148385     0.00000000000000
    5      0.00000000000000     0.00000000000000     1.92104556148385

 cartesian forces (hartree/bohr) at end:
    1     -0.00000000000000    -0.00000000000000    -0.00000000000000
    2     -0.00000000000000    -0.00000000000000    -0.00000000000000
    3     -0.00000000000000    -0.00000000000000    -0.00000000000000
    4     -0.00000000000000    -0.00000000000000    -0.00000000000000
    5     -0.00000000000000    -0.00000000000000    -0.00000000000000
 frms,max,avg= 0.0000000E+00 0.0000000E+00   0.000E+00  0.000E+00  0.000E+00 h/b

 cartesian forces (eV/Angstrom) at end:
    1     -0.00000000000000    -0.00000000000000    -0.00000000000000
    2     -0.00000000000000    -0.00000000000000    -0.00000000000000
    3     -0.00000000000000    -0.00000000000000    -0.00000000000000
    4     -0.00000000000000    -0.00000000000000    -0.00000000000000
    5     -0.00000000000000    -0.00000000000000    -0.00000000000000
 frms,max,avg= 0.0000000E+00 0.0000000E+00   0.000E+00  0.000E+00  0.000E+00 e/A
 length scales=  7.260500000000  7.260500000000  7.260500000000 bohr
              =  3.842091122968  3.842091122968  3.842091122968 angstroms
 prteigrs : about to open file t01_triqs2_0o_DS1_EIG
 Fermi (or HOMO) energy (hartree) =   0.32226   Average Vxc (hartree)=  -0.44651
 Magnetization (Bohr magneton)=  4.61142236E-12
 Total spin up =  2.05000000E+01   Total spin down =  2.05000000E+01
 Eigenvalues (hartree) for nkpt=  10  k points, SPIN UP:
 kpt#   1, nband= 23, wtk=  0.22222, kpt= -0.1667 -0.3333  0.0000 (reduced coord)
  -2.07053   -1.12222   -1.12152   -1.12118   -0.93268   -0.39070   -0.34833   -0.34303
  -0.27175   -0.26813   -0.25644    0.08960    0.11845    0.13297    0.13324    0.16099
   0.17923    0.20339    0.20805    0.21329    0.31393    0.34683    0.34783
      occupation numbers for kpt#   1
   1.00000    1.00000    1.00000    1.00000    1.00000    1.00000    1.00000    1.00000
   1.00000    1.00000    1.00000    1.00000    1.00000    1.00000    1.00000    1.00000
   1.00000    1.00000    1.00000    1.00000    0.78844    0.02026    0.01735
 kpt#   2, nband= 23, wtk=  0.07407, kpt= -0.1667 -0.1667  0.1667 (reduced coord)
  -2.07053   -1.12156   -1.12153   -1.12153   -0.93299   -0.38769   -0.34748   -0.34748
  -0.27105   -0.27105   -0.26145    0.10492    0.12631    0.12631    0.15993    0.15993
   0.17763    0.21625    0.21625    0.21642    0.32084    0.32514    0.32514
      occupation numbers for kpt#   2
   1.00000    1.00000    1.00000    1.00000    1.00000    1.00000    1.00000    1.00000
   1.00000    1.00000    1.00000    1.00000    1.00000    1.00000    1.00000    1.00000
   1.00000    1.00000    1.00000    1.00000    0.55599    0.38837    0.38837
 kpt#   3, nband= 23, wtk=  0.11111, kpt= -0.3333  0.5000  0.0000 (reduced coord)
  -2.07051   -1.12249   -1.12214   -1.12113   -0.93195   -0.37748   -0.35319   -0.34671
  -0.26970   -0.26098   -0.25674    0.07328    0.08099    0.09571    0.13538    0.14148
   0.18277    0.18596    0.19245    0.23916    0.34665    0.36080    0.36729
      occupation numbers for kpt#   3
   1.00000    1.00000    1.00000    1.00000    1.00000    1.00000    1.00000    1.00000
   1.00000    1.00000    1.00000    1.00000    1.00000    1.00000    1.00000    1.00000
   1.00000    1.00000    1.00000    1.00000    0.02081    0.00227    0.00082
 kpt#   4, nband= 23, wtk=  0.11111, kpt= -0.1667  0.5000  0.1667 (reduced coord)
  -2.07051   -1.12252   -1.12149   -1.12148   -0.93217   -0.38675   -0.34639   -0.34239
  -0.27562   -0.26322   -0.25602    0.07598    0.10788    0.12012    0.12871    0.12887
   0.17381    0.20307    0.20833    0.21194    0.32711    0.36176    0.36304
      occupation numbers for kpt#   4
   1.00000    1.00000    1.00000    1.00000    1.00000    1.00000    1.00000    1.00000
   1.00000    1.00000    1.00000    1.00000    1.00000    1.00000    1.00000    1.00000
   1.00000    1.00000    1.00000    1.00000    0.31747    0.00195    0.00160
 kpt#   5, nband= 23, wtk=  0.22222, kpt= -0.3333 -0.3333  0.1667 (reduced coord)
  -2.07051   -1.12216   -1.12214   -1.12147   -0.93196   -0.37632   -0.35161   -0.34294
  -0.27473   -0.26629   -0.25823    0.08073    0.09982    0.10215    0.12286    0.13434
   0.15126    0.20686    0.21208    0.23451    0.34973    0.35273    0.36039
      occupation numbers for kpt#   5
   1.00000    1.00000    1.00000    1.00000    1.00000    1.00000    1.00000    1.00000
   1.00000    1.00000    1.00000    1.00000    1.00000    1.00000    1.00000    1.00000
   1.00000    1.00000    1.00000    1.00000    0.01291    0.00808    0.00242
 kpt#   6, nband= 23, wtk=  0.05556, kpt= -0.1667  0.0000  0.0000 (reduced coord)
  -2.07055   -1.12158   -1.12123   -1.12123   -0.93355   -0.39115   -0.34684   -0.34510
  -0.27365   -0.27365   -0.26687    0.12003    0.13365    0.13365    0.19051    0.19051
   0.19655    0.20845    0.23047    0.23047    0.28982    0.31268    0.31268
      occupation numbers for kpt#   6
   1.00000    1.00000    1.00000    1.00000    1.00000    1.00000    1.00000    1.00000
   1.00000    1.00000    1.00000    1.00000    1.00000    1.00000    1.00000    1.00000
   1.00000    1.00000    1.00000    1.00000    0.99407    0.81937    0.81937
 kpt#   7, nband= 23, wtk=  0.05556, kpt=  0.5000  0.5000  0.1667 (reduced coord)
  -2.07049   -1.12245   -1.12245   -1.12144   -0.93150   -0.35603   -0.35345   -0.35345
  -0.27368   -0.26404   -0.26404    0.06703    0.07895    0.08488    0.12577    0.12577
   0.14443    0.21078    0.21078    0.24938    0.36499    0.36499    0.37556
      occupation numbers for kpt#   7
   1.00000    1.00000    1.00000    1.00000    1.00000    1.00000    1.00000    1.00000
   1.00000    1.00000    1.00000    1.00000    1.00000    1.00000    1.00000    1.00000
   1.00000    1.00000    1.00000    0.99999    0.00117    0.00117    0.00022
 kpt#   8, nband= 23, wtk=  0.11111, kpt= -0.3333  0.5000  0.3333 (reduced coord)
  -2.07049   -1.12243   -1.12209   -1.12209   -0.93128   -0.35834   -0.34642   -0.33938
  -0.28304   -0.27271   -0.27009    0.07113    0.09515    0.09794    0.10104    0.11196
   0.11985    0.23011    0.23512    0.24341    0.36668    0.37290    0.37386
      occupation numbers for kpt#   8
   1.00000    1.00000    1.00000    1.00000    1.00000    1.00000    1.00000    1.00000
   1.00000    1.00000    1.00000    1.00000    1.00000    1.00000    1.00000    1.00000
   1.00000    1.00000    1.00000    1.00000    0.00090    0.00034    0.00029
 kpt#   9, nband= 23, wtk=  0.02778, kpt=  0.5000  0.0000  0.0000 (reduced coord)
  -2.07053   -1.12257   -1.12118   -1.12118   -0.93261   -0.39833   -0.34375   -0.33922
  -0.27181   -0.27181   -0.24970    0.07752    0.13283    0.13283    0.15614    0.15688
   0.15688    0.17320    0.22083    0.22083    0.29332    0.36146    0.36158
      occupation numbers for kpt#   9
   1.00000    1.00000    1.00000    1.00000    1.00000    1.00000    1.00000    1.00000
   1.00000    1.00000    1.00000    1.00000    1.00000    1.00000    1.00000    1.00000
   1.00000    1.00000    1.00000    1.00000    0.98975    0.00205    0.00201
 kpt#  10, nband= 23, wtk=  0.00926, kpt=  0.5000  0.5000  0.5000 (reduced coord)
  -2.07047   -1.12239   -1.12239   -1.12239   -0.93083   -0.33772   -0.33772   -0.33772
  -0.28665   -0.28665   -0.28665    0.05884    0.08539    0.08539    0.10771    0.10771
   0.10771    0.25198    0.25198    0.25198    0.38240    0.38240    0.38240
      occupation numbers for kpt#  10
   1.00000    1.00000    1.00000    1.00000    1.00000    1.00000    1.00000    1.00000
   1.00000    1.00000    1.00000    1.00000    1.00000    1.00000    1.00000    1.00000
   1.00000    0.99998    0.99998    0.99998    0.00008    0.00008    0.00008
 Eigenvalues (hartree) for nkpt=  10  k points, SPIN DOWN:
 kpt#   1, nband= 23, wtk=  0.22222, kpt= -0.1667 -0.3333  0.0000 (reduced coord)
  -2.07053   -1.12222   -1.12152   -1.12118   -0.93268   -0.39070   -0.34833   -0.34303
  -0.27175   -0.26813   -0.25644    0.08960    0.11845    0.13297    0.13324    0.16099
   0.17923    0.20339    0.20805    0.21329    0.31393    0.34683    0.34783
      occupation numbers for kpt#   1
   1.00000    1.00000    1.00000    1.00000    1.00000    1.00000    1.00000    1.00000
   1.00000    1.00000    1.00000    1.00000    1.00000    1.00000    1.00000    1.00000
   1.00000    1.00000    1.00000    1.00000    0.78844    0.02026    0.01735
 kpt#   2, nband= 23, wtk=  0.07407, kpt= -0.1667 -0.1667  0.1667 (reduced coord)
  -2.07053   -1.12156   -1.12153   -1.12153   -0.93299   -0.38769   -0.34748   -0.34748
  -0.27105   -0.27105   -0.26145    0.10492    0.12631    0.12631    0.15993    0.15993
   0.17763    0.21625    0.21625    0.21642    0.32084    0.32514    0.32514
      occupation numbers for kpt#   2
   1.00000    1.00000    1.00000    1.00000    1.00000    1.00000    1.00000    1.00000
   1.00000    1.00000    1.00000    1.00000    1.00000    1.00000    1.00000    1.00000
   1.00000    1.00000    1.00000    1.00000    0.55599    0.38837    0.38837
 kpt#   3, nband= 23, wtk=  0.11111, kpt= -0.3333  0.5000  0.0000 (reduced coord)
  -2.07051   -1.12249   -1.12214   -1.12113   -0.93195   -0.37748   -0.35319   -0.34671
  -0.26970   -0.26098   -0.25674    0.07328    0.08099    0.09571    0.13538    0.14148
   0.18277    0.18596    0.19245    0.23916    0.34665    0.36080    0.36729
      occupation numbers for kpt#   3
   1.00000    1.00000    1.00000    1.00000    1.00000    1.00000    1.00000    1.00000
   1.00000    1.00000    1.00000    1.00000    1.00000    1.00000    1.00000    1.00000
   1.00000    1.00000    1.00000    1.00000    0.02081    0.00227    0.00082
 kpt#   4, nband= 23, wtk=  0.11111, kpt= -0.1667  0.5000  0.1667 (reduced coord)
  -2.07051   -1.12252   -1.12149   -1.12148   -0.93217   -0.38675   -0.34639   -0.34239
  -0.27562   -0.26322   -0.25602    0.07598    0.10788    0.12012    0.12871    0.12887
   0.17381    0.20307    0.20833    0.21194    0.32711    0.36176    0.36304
      occupation numbers for kpt#   4
   1.00000    1.00000    1.00000    1.00000    1.00000    1.00000    1.00000    1.00000
   1.00000    1.00000    1.00000    1.00000    1.00000    1.00000    1.00000    1.00000
   1.00000    1.00000    1.00000    1.00000    0.31747    0.00195    0.00160
 kpt#   5, nband= 23, wtk=  0.22222, kpt= -0.3333 -0.3333  0.1667 (reduced coord)
  -2.07051   -1.12216   -1.12214   -1.12147   -0.93196   -0.37632   -0.35161   -0.34294
  -0.27473   -0.26629   -0.25823    0.08073    0.09982    0.10215    0.12286    0.13434
   0.15126    0.20686    0.21208    0.23451    0.34973    0.35273    0.36039
      occupation numbers for kpt#   5
   1.00000    1.00000    1.00000    1.00000    1.00000    1.00000    1.00000    1.00000
   1.00000    1.00000    1.00000    1.00000    1.00000    1.00000    1.00000    1.00000
   1.00000    1.00000    1.00000    1.00000    0.01291    0.00808    0.00242
 kpt#   6, nband= 23, wtk=  0.05556, kpt= -0.1667  0.0000  0.0000 (reduced coord)
  -2.07055   -1.12158   -1.12123   -1.12123   -0.93355   -0.39115   -0.34684   -0.34510
  -0.27365   -0.27365   -0.26687    0.12003    0.13365    0.13365    0.19051    0.19051
   0.19655    0.20845    0.23047    0.23047    0.28982    0.31268    0.31268
      occupation numbers for kpt#   6
   1.00000    1.00000    1.00000    1.00000    1.00000    1.00000    1.00000    1.00000
   1.00000    1.00000    1.00000    1.00000    1.00000    1.00000    1.00000    1.00000
   1.00000    1.00000    1.00000    1.00000    0.99407    0.81937    0.81937
 kpt#   7, nband= 23, wtk=  0.05556, kpt=  0.5000  0.5000  0.1667 (reduced coord)
  -2.07049   -1.12245   -1.12245   -1.12144   -0.93150   -0.35603   -0.35345   -0.35345
  -0.27368   -0.26404   -0.26404    0.06703    0.07895    0.08488    0.12577    0.12577
   0.14443    0.21078    0.21078    0.24938    0.36499    0.36499    0.37556
      occupation numbers for kpt#   7
   1.00000    1.00000    1.00000    1.00000    1.00000    1.00000    1.00000    1.00000
   1.00000    1.00000    1.00000    1.00000    1.00000    1.00000    1.00000    1.00000
   1.00000    1.00000    1.00000    0.99999    0.00117    0.00117    0.00022
 kpt#   8, nband= 23, wtk=  0.11111, kpt= -0.3333  0.5000  0.3333 (reduced coord)
  -2.07049   -1.12243   -1.12209   -1.12209   -0.93128   -0.35834   -0.34642   -0.33938
  -0.28304   -0.27271   -0.27009    0.07113    0.09515    0.09794    0.10104    0.11196
   0.11985    0.23011    0.23512    0.24341    0.36668    0.37290    0.37386
      occupation numbers for kpt#   8
   1.00000    1.00000    1.00000    1.00000    1.00000    1.00000    1.00000    1.00000
   1.00000    1.00000    1.00000    1.00000    1.00000    1.00000    1.00000    1.00000
   1.00000    1.00000    1.00000    1.00000    0.00090    0.00034    0.00029
 kpt#   9, nband= 23, wtk=  0.02778, kpt=  0.5000  0.0000  0.0000 (reduced coord)
  -2.07053   -1.12257   -1.12118   -1.12118   -0.93261   -0.39833   -0.34375   -0.33922
  -0.27181   -0.27181   -0.24970    0.07752    0.13283    0.13283    0.15614    0.15688
   0.15688    0.17320    0.22083    0.22083    0.29332    0.36146    0.36158
      occupation numbers for kpt#   9
   1.00000    1.00000    1.00000    1.00000    1.00000    1.00000    1.00000    1.00000
   1.00000    1.00000    1.00000    1.00000    1.00000    1.00000    1.00000    1.00000
   1.00000    1.00000    1.00000    1.00000    0.98975    0.00205    0.00201
 kpt#  10, nband= 23, wtk=  0.00926, kpt=  0.5000  0.5000  0.5000 (reduced coord)
  -2.07047   -1.12239   -1.12239   -1.12239   -0.93083   -0.33772   -0.33772   -0.33772
  -0.28665   -0.28665   -0.28665    0.05884    0.08539    0.08539    0.10771    0.10771
   0.10771    0.25198    0.25198    0.25198    0.38240    0.38240    0.38240
      occupation numbers for kpt#  10
   1.00000    1.00000    1.00000    1.00000    1.00000    1.00000    1.00000    1.00000
   1.00000    1.00000    1.00000    1.00000    1.00000    1.00000    1.00000    1.00000
   1.00000    0.99998    0.99998    0.99998    0.00008    0.00008    0.00008
 Total charge density [el/Bohr^3]
      Maximum=    1.5050E+00  at reduced coord.    0.0000    0.0000    0.0000
 Next maximum=    1.4878E+00  at reduced coord.    0.0000    0.0000    0.9815
      Minimum=    5.6764E-03  at reduced coord.    0.5000    0.5000    0.0000
 Next minimum=    5.6764E-03  at reduced coord.    0.5000    0.0000    0.5000
   Integrated=    4.1000E+01
 Spin up density      [el/Bohr^3]
      Maximum=    7.5251E-01  at reduced coord.    0.0000    0.0000    0.0000
 Next maximum=    7.4388E-01  at reduced coord.    0.0000    0.0000    0.9815
      Minimum=    2.8382E-03  at reduced coord.    0.5000    0.5000    0.0000
 Next minimum=    2.8382E-03  at reduced coord.    0.5000    0.0000    0.5000
   Integrated=    2.0500E+01
 Spin down density    [el/Bohr^3]
      Maximum=    7.5251E-01  at reduced coord.    0.0000    0.0000    0.0000
 Next maximum=    7.4388E-01  at reduced coord.    0.0000    0.0000    0.9815
      Minimum=    2.8382E-03  at reduced coord.    0.5000    0.5000    0.0000
 Next minimum=    2.8382E-03  at reduced coord.    0.5000    0.0000    0.5000
   Integrated=    2.0500E+01
 Magnetization (spin up - spin down) [el/Bohr^3]
      Maximum=    0.0000E+00  at reduced coord.    0.9815    0.9815    0.9815
 Next maximum=    0.0000E+00  at reduced coord.    0.9630    0.9815    0.9815
      Minimum=    0.0000E+00  at reduced coord.    0.0000    0.0000    0.0000
 Next minimum=    0.0000E+00  at reduced coord.    0.0185    0.0000    0.0000
   Integrated=    0.0000E+00
 Relative magnetization (=zeta, between -1 and 1)
      Maximum=    0.0000E+00  at reduced coord.    0.9815    0.9815    0.9815
 Next maximum=    0.0000E+00  at reduced coord.    0.9630    0.9815    0.9815
      Minimum=    0.0000E+00  at reduced coord.    0.0000    0.0000    0.0000
 Next minimum=    0.0000E+00  at reduced coord.    0.0185    0.0000    0.0000

--- !EnergyTerms
iteration_state     : {dtset: 1, }
comment             : Components of total free energy in Hartree
kinetic             :  3.81480261503140E+01
hartree             :  3.21110969138221E+01
xc                  : -2.26131076970319E+01
Ewald energy        : -1.14220316979058E+02
psp_core            :  5.33810470792061E+00
local_psp           : -1.07786779506845E+02
spherical_terms     :  1.70232168506602E+01
internal            : -1.51999759560217E+02
'-kT*entropy'       : -6.09460916798744E-03
total_energy        : -1.52005854169385E+02
total_energy_eV     : -4.13628964677032E+03
...


--- !EnergyTermsDC
iteration_state     : {dtset: 1, }
comment             : '"Double-counting" decomposition of free energy'
band_energy         : -1.33939419544174E+01
Ewald energy        : -1.14220316979058E+02
psp_core            :  5.33810470792061E+00
xc_dc               : -2.51324116555954E+01
spherical_terms     : -4.59120458243553E+00
internal            : -1.51999770463585E+02
'-kT*entropy'       : -6.09460916798744E-03
total_energy_dc     : -1.52005865072753E+02
total_energy_dc_eV  : -4.13628994346605E+03
...


 Cartesian components of stress tensor (hartree/bohr^3)
  sigma(1 1)=  3.35417029E-04  sigma(3 2)=  0.00000000E+00
  sigma(2 2)=  3.35417029E-04  sigma(3 1)=  0.00000000E+00
  sigma(3 3)=  3.35417029E-04  sigma(2 1)=  0.00000000E+00

-Cartesian components of stress tensor (GPa)         [Pressure= -9.8683E+00 GPa]
- sigma(1 1)=  9.86830803E+00  sigma(3 2)=  0.00000000E+00
- sigma(2 2)=  9.86830803E+00  sigma(3 1)=  0.00000000E+00
- sigma(3 3)=  9.86830803E+00  sigma(2 1)=  0.00000000E+00

================================================================================
== DATASET  2 ==================================================================
-   mpi_nproc: 1, omp_nthreads: -1 (-1 if OMP is not activated)


--- !DatasetInfo
iteration_state: {dtset: 2, }
dimensions: {natom: 5, nkpt: 10, mband: 23, nsppol: 2, nspinor: 1, nspden: 2, mpw: 1181, }
cutoff_energies: {ecut:  16.0, pawecutdg:  60.0, }
electrons: {nelect:   4.10000000E+01, charge:   0.00000000E+00, occopt:   3.00000000E+00, tsmear:   6.33363084E-03, }
meta: {optdriver: 0, ionmov: 0, optcell: 0, iscf: 17, paral_kgb: 0, }
...

 mkfilename : getwfk/=0, take file _WFK from output of DATASET   1.

 Exchange-correlation functional for the present dataset will be:
  LDA: Perdew-Wang 92 LSD fit to Ceperley-Alder data - ixc=7
 Citation for XC functional:
  J.P.Perdew and Y.Wang, PRB 45, 13244 (1992)

 Real(R)+Recip(G) space primitive vectors, cartesian coordinates (Bohr,Bohr^-1):
 R(1)=  7.2605000  0.0000000  0.0000000  G(1)=  0.1377316  0.0000000  0.0000000
 R(2)=  0.0000000  7.2605000  0.0000000  G(2)=  0.0000000  0.1377316  0.0000000
 R(3)=  0.0000000  0.0000000  7.2605000  G(3)=  0.0000000  0.0000000  0.1377316
 Unit cell volume ucvol=  3.8273624E+02 bohr^3
 Angles (23,13,12)=  9.00000000E+01  9.00000000E+01  9.00000000E+01 degrees

 Coarse grid specifications (used for wave-functions):

 getcut: wavevector=  0.0000  0.0000  0.0000  ngfft=  30  30  30
         ecut(hartree)=     16.000   => boxcut(ratio)=   2.29472

 getcut : COMMENT -
  Note that boxcut > 2.2 ; recall that boxcut=Gcut(box)/Gcut(sphere) = 2
  is sufficient for exact treatment of convolution.
  Such a large boxcut is a waste : you could raise ecut
  e.g. ecut=   21.062951 Hartrees makes boxcut=2


 Fine grid specifications (used for densities):

 getcut: wavevector=  0.0000  0.0000  0.0000  ngfft=  54  54  54
         ecut(hartree)=     60.000   => boxcut(ratio)=   2.13298
--------------------------------------------------------------------------------

-inwffil : will read wavefunctions from disk file t01_triqs2_0o_DS1_WFK
P newkpt: treating     23 bands with npw=    1174 for ikpt=   1 by node    0
P newkpt: treating     23 bands with npw=    1165 for ikpt=   2 by node    0
P newkpt: treating     23 bands with npw=    1172 for ikpt=   3 by node    0
P newkpt: treating     23 bands with npw=    1160 for ikpt=   4 by node    0
P newkpt: treating     23 bands with npw=    1171 for ikpt=   5 by node    0
P newkpt: treating     23 bands with npw=    1181 for ikpt=   6 by node    0
P newkpt: treating     23 bands with npw=    1180 for ikpt=   7 by node    0
P newkpt: treating     23 bands with npw=    1162 for ikpt=   8 by node    0
P newkpt: treating     23 bands with npw=    1166 for ikpt=   9 by node    0
P newkpt: treating     23 bands with npw=    1088 for ikpt=  10 by node    0
P newkpt: treating     23 bands with npw=    1174 for ikpt=   1 by node    0
P newkpt: treating     23 bands with npw=    1165 for ikpt=   2 by node    0
P newkpt: treating     23 bands with npw=    1172 for ikpt=   3 by node    0
P newkpt: treating     23 bands with npw=    1160 for ikpt=   4 by node    0
P newkpt: treating     23 bands with npw=    1171 for ikpt=   5 by node    0
P newkpt: treating     23 bands with npw=    1181 for ikpt=   6 by node    0
P newkpt: treating     23 bands with npw=    1180 for ikpt=   7 by node    0
P newkpt: treating     23 bands with npw=    1162 for ikpt=   8 by node    0
P newkpt: treating     23 bands with npw=    1166 for ikpt=   9 by node    0
P newkpt: treating     23 bands with npw=    1088 for ikpt=  10 by node    0
_setup2: Arith. and geom. avg. npw (full set) are    1169.259    1169.216

-       ( number of procs used in dmft ) =  1


 ******************************************
 DFT+DMFT Method is used
 ******************************************

 DMFT uses the Continuous Time Quantum Monte Carlo solver of TRIQS (with rotationaly invariant interaction)

================================================================================

--- !BeginCycle
iteration_state: {dtset: 2, }
solver: {iscf: 17, nstep: 1, nline: 4, wfoptalg: 10, }
tolerances: {tolvrs: 1.00E-07, }
...

     iter   Etot(hartree)     deltaE(h) residm    nres2    magn
 (Edmft  1  -0.17904264157)

  == The DFT+DMFT occupation matrix for correlated electrons is ==

   -------> For Correlated Atom   1

          -- polarization spin component  1
        0.15836   0.00000   0.00000
        0.00000   0.15836   0.00000
        0.00000   0.00000   0.15836

          -- polarization spin component  2
        0.17959   0.00000   0.00000
        0.00000   0.17959   0.00000
        0.00000   0.00000   0.17959

 ETOT  1  -152.16746652744    -1.52E+02 2.94E-05 1.73E-02 0.064

 Cartesian components of stress tensor (hartree/bohr^3)
  sigma(1 1)=  3.16652887E-04  sigma(3 2)=  0.00000000E+00
  sigma(2 2)=  3.16652887E-04  sigma(3 1)=  0.00000000E+00
  sigma(3 3)=  3.16652887E-04  sigma(2 1)=  0.00000000E+00


 scprqt:  WARNING -
  nstep=    1 was not enough SCF cycles to converge;
  density residual=  1.733E-02 exceeds tolvrs=  1.000E-07


--- !ResultsGS
iteration_state: {dtset: 2, }
comment   : Summary of ground state results
lattice_vectors:
- [  7.2605000,   0.0000000,   0.0000000, ]
- [  0.0000000,   7.2605000,   0.0000000, ]
- [  0.0000000,   0.0000000,   7.2605000, ]
lattice_lengths: [   7.26050,    7.26050,    7.26050, ]
lattice_angles: [ 90.000,  90.000,  90.000, ] # degrees, (23, 13, 12)
lattice_volume:   3.8273624E+02
convergence: {deltae: -1.522E+02, res2:  1.733E-02, residm:  2.944E-05, diffor:  0.000E+00, }
etotal    :  -1.52167466E+02
entropy   :   0.00000000E+00
fermie    :   3.22265033E-01
cartesian_stress_tensor: # hartree/bohr^3
- [  3.16652862E-04,   0.00000000E+00,   0.00000000E+00, ]
- [  0.00000000E+00,   3.16652862E-04,   0.00000000E+00, ]
- [  0.00000000E+00,   0.00000000E+00,   3.16652862E-04, ]
pressure_GPa:  -9.3162E+00
xred      :
- [  0.0000E+00,   0.0000E+00,   0.0000E+00,  V]
- [  5.0000E-01,   5.0000E-01,   5.0000E-01, Sr]
- [  5.0000E-01,   0.0000E+00,   0.0000E+00,  O]
- [  0.0000E+00,   5.0000E-01,   0.0000E+00,  O]
- [  0.0000E+00,   0.0000E+00,   5.0000E-01,  O]
cartesian_forces: null
force_length_stats: {min: null, max: null, mean: null, }
...

 Integrated electronic and magnetization densities in atomic spheres:
 ---------------------------------------------------------------------
 Radius=ratsph(iatom), smearing ratsm=  0.0000. Diff(up-dn)=approximate z local magnetic moment.
 Atom    Radius    up_density   dn_density  Total(up+dn)  Diff(up-dn)
    1   2.35000     5.930639     5.979068     11.909707    -0.048429
    2   1.92520     3.243983     3.244256      6.488239    -0.000273
    3   1.21105     1.858670     1.860770      3.719441    -0.002100
    4   1.21105     1.858670     1.860770      3.719441    -0.002100
    5   1.21105     1.858670     1.860770      3.719441    -0.002100
 ---------------------------------------------------------------------
  Sum:             14.750633    14.805635     29.556267    -0.055002
 Total magnetization (from the atomic spheres):            -0.055002
 Total magnetization (exact up - dn):                      -0.063793

 PAW TEST:
 ==== Compensation charge inside spheres ============
 The following values must be close to each other ...
 Compensation charge over spherical meshes =      7.380031830403998
 Compensation charge over fine fft grid    =      7.391363804420405

 ==== Results concerning PAW augmentation regions ====

 Total pseudopotential strength Dij (hartree):
 Atom #  1 - Spin component 1
  -1.46083   0.30855  -1.65237   0.00000   0.00000   0.00000   0.00000   0.00000   0.00000   0.00000   0.00000   0.00000 ...
   0.30855   0.16796  -1.51707   0.00000   0.00000   0.00000   0.00000   0.00000   0.00000   0.00000   0.00000   0.00000 ...
  -1.65237  -1.51707  15.91572   0.00000   0.00000   0.00000   0.00000   0.00000   0.00000   0.00000   0.00000   0.00000 ...
   0.00000   0.00000   0.00000  -1.05614   0.00000   0.00000   0.07292   0.00000   0.00000   0.07837   0.00000   0.00000 ...
   0.00000   0.00000   0.00000   0.00000  -1.05614   0.00000   0.00000   0.07292   0.00000   0.00000   0.07837   0.00000 ...
   0.00000   0.00000   0.00000   0.00000   0.00000  -1.05614   0.00000   0.00000   0.07292   0.00000   0.00000   0.07837 ...
   0.00000   0.00000   0.00000   0.07292   0.00000   0.00000   0.03953   0.00000   0.00000  -0.16660   0.00000   0.00000 ...
   0.00000   0.00000   0.00000   0.00000   0.07292   0.00000   0.00000   0.03953   0.00000   0.00000  -0.16660   0.00000 ...
   0.00000   0.00000   0.00000   0.00000   0.00000   0.07292   0.00000   0.00000   0.03953   0.00000   0.00000  -0.16660 ...
   0.00000   0.00000   0.00000   0.07837   0.00000   0.00000  -0.16660   0.00000   0.00000   2.30152   0.00000   0.00000 ...
   0.00000   0.00000   0.00000   0.00000   0.07837   0.00000   0.00000  -0.16660   0.00000   0.00000   2.30152   0.00000 ...
   0.00000   0.00000   0.00000   0.00000   0.00000   0.07837   0.00000   0.00000  -0.16660   0.00000   0.00000   2.30152 ...
   ...  only 12  components have been written...
 Atom #  1 - Spin component 2
  -1.46083   0.30855  -1.65237   0.00000   0.00000   0.00000   0.00000   0.00000   0.00000   0.00000   0.00000   0.00000 ...
   0.30855   0.16796  -1.51707   0.00000   0.00000   0.00000   0.00000   0.00000   0.00000   0.00000   0.00000   0.00000 ...
  -1.65237  -1.51707  15.91572   0.00000   0.00000   0.00000   0.00000   0.00000   0.00000   0.00000   0.00000   0.00000 ...
   0.00000   0.00000   0.00000  -1.05614   0.00000   0.00000   0.07292   0.00000   0.00000   0.07837   0.00000   0.00000 ...
   0.00000   0.00000   0.00000   0.00000  -1.05614   0.00000   0.00000   0.07292   0.00000   0.00000   0.07837   0.00000 ...
[...]
                       1.000000  1.000000  1.000000  1.000000  1.000000  1.000000
                       1.000000  1.000000  0.788437  0.020262  0.017347
                       1.000000  1.000000  1.000000  1.000000  1.000000  1.000000
                       1.000000  1.000000  1.000000  1.000000  1.000000  1.000000
                       1.000000  1.000000  1.000000  1.000000  1.000000  1.000000
                       1.000000  1.000000  0.555992  0.388375  0.388375
                       1.000000  1.000000  1.000000  1.000000  1.000000  1.000000
                       1.000000  1.000000  1.000000  1.000000  1.000000  1.000000
                       1.000000  1.000000  1.000000  1.000000  1.000000  1.000000
                       1.000000  0.999998  0.020814  0.002272  0.000817
                       1.000000  1.000000  1.000000  1.000000  1.000000  1.000000
                       1.000000  1.000000  1.000000  1.000000  1.000000  1.000000
                       1.000000  1.000000  1.000000  1.000000  1.000000  1.000000
                       1.000000  1.000000  0.317473  0.001954  0.001596
                       1.000000  1.000000  1.000000  1.000000  1.000000  1.000000
                       1.000000  1.000000  1.000000  1.000000  1.000000  1.000000
                       1.000000  1.000000  1.000000  1.000000  1.000000  1.000000
                       1.000000  0.999999  0.012914  0.008075  0.002422
                       1.000000  1.000000  1.000000  1.000000  1.000000  1.000000
                       1.000000  1.000000  1.000000  1.000000  1.000000  1.000000
                       1.000000  1.000000  1.000000  1.000000  1.000000  1.000000
                       0.999999  0.999999  0.994071  0.819369  0.819369
                       1.000000  1.000000  1.000000  1.000000  1.000000  1.000000
                       1.000000  1.000000  1.000000  1.000000  1.000000  1.000000
                       1.000000  1.000000  1.000000  1.000000  1.000000  1.000000
                       1.000000  0.999990  0.001174  0.001174  0.000222
                       1.000000  1.000000  1.000000  1.000000  1.000000  1.000000
                       1.000000  1.000000  1.000000  1.000000  1.000000  1.000000
                       1.000000  1.000000  1.000000  1.000000  1.000000  1.000000
                       0.999999  0.999996  0.000898  0.000337  0.000290
                       1.000000  1.000000  1.000000  1.000000  1.000000  1.000000
                       1.000000  1.000000  1.000000  1.000000  1.000000  1.000000
                       1.000000  1.000000  1.000000  1.000000  1.000000  1.000000
                       1.000000  1.000000  0.989747  0.002048  0.002008
                       1.000000  1.000000  1.000000  1.000000  1.000000  1.000000
                       1.000000  1.000000  1.000000  1.000000  1.000000  1.000000
                       1.000000  1.000000  1.000000  1.000000  1.000000  0.999985
                       0.999985  0.999985  0.000075  0.000075  0.000075
              occ2     1.000000  1.000000  1.000000  1.000000  1.000000  1.000000
                       1.000000  1.000000  1.000000  1.000000  1.000000  1.000000
                       1.000000  1.000000  1.000000  1.000000  1.000000  1.000000
                       1.000000  1.000000  0.499143  0.079221  0.077848
                       1.000000  1.000000  1.000000  1.000000  1.000000  1.000000
                       1.000000  1.000000  1.000000  1.000000  1.000000  1.000000
                       1.000000  1.000000  1.000000  1.000000  1.000000  1.000000
                       1.000000  1.000000  0.354860  0.271947  0.271947
                       1.000000  1.000000  1.000000  1.000000  1.000000  1.000000
                       1.000000  1.000000  1.000000  1.000000  1.000000  1.000000
                       1.000000  1.000000  1.000000  1.000000  1.000000  1.000000
                       1.000000  0.999998  0.082224  0.053377  0.049964
                       1.000000  1.000000  1.000000  1.000000  1.000000  1.000000
                       1.000000  1.000000  1.000000  1.000000  1.000000  1.000000
                       1.000000  1.000000  1.000000  1.000000  1.000000  1.000000
                       1.000000  1.000000  0.244010  0.053248  0.050631
                       1.000000  1.000000  1.000000  1.000000  1.000000  1.000000
                       1.000000  1.000000  1.000000  1.000000  1.000000  1.000000
                       1.000000  1.000000  1.000000  1.000000  1.000000  1.000000
                       1.000000  0.999999  0.073903  0.066320  0.056075
                       1.000000  1.000000  1.000000  1.000000  1.000000  1.000000
                       1.000000  1.000000  1.000000  1.000000  1.000000  1.000000
                       1.000000  1.000000  1.000000  1.000000  1.000000  1.000000
                       0.999999  0.999999  0.812318  0.525176  0.525176
                       1.000000  1.000000  1.000000  1.000000  1.000000  1.000000
                       1.000000  1.000000  1.000000  1.000000  1.000000  1.000000
                       1.000000  1.000000  1.000000  1.000000  1.000000  1.000000
                       1.000000  0.999990  0.049940  0.049940  0.045081
                       1.000000  1.000000  1.000000  1.000000  1.000000  1.000000
                       1.000000  1.000000  1.000000  1.000000  1.000000  1.000000
                       1.000000  1.000000  1.000000  1.000000  1.000000  1.000000
                       0.999999  0.999996  0.049005  0.045542  0.044616
                       1.000000  1.000000  1.000000  1.000000  1.000000  1.000000
                       1.000000  1.000000  1.000000  1.000000  1.000000  1.000000
                       1.000000  1.000000  1.000000  1.000000  1.000000  1.000000
                       1.000000  1.000000  0.786187  0.051148  0.050823
                       1.000000  1.000000  1.000000  1.000000  1.000000  1.000000
                       1.000000  1.000000  1.000000  1.000000  1.000000  1.000000
                       1.000000  1.000000  1.000000  1.000000  1.000000  0.999985
                       0.999985  0.999985  0.041076  0.041076  0.041076
                       1.000000  1.000000  1.000000  1.000000  1.000000  1.000000
                       1.000000  1.000000  1.000000  1.000000  1.000000  1.000000
                       1.000000  1.000000  1.000000  1.000000  1.000000  1.000000
                       1.000000  1.000000  0.572184  0.092532  0.090639
                       1.000000  1.000000  1.000000  1.000000  1.000000  1.000000
                       1.000000  1.000000  1.000000  1.000000  1.000000  1.000000
                       1.000000  1.000000  1.000000  1.000000  1.000000  1.000000
                       1.000000  1.000000  0.429826  0.336648  0.336648
                       1.000000  1.000000  1.000000  1.000000  1.000000  1.000000
                       1.000000  1.000000  1.000000  1.000000  1.000000  1.000000
                       1.000000  1.000000  1.000000  1.000000  1.000000  1.000000
                       1.000000  0.999998  0.096531  0.058038  0.053297
                       1.000000  1.000000  1.000000  1.000000  1.000000  1.000000
                       1.000000  1.000000  1.000000  1.000000  1.000000  1.000000
                       1.000000  1.000000  1.000000  1.000000  1.000000  1.000000
                       1.000000  1.000000  0.304943  0.057768  0.054526
                       1.000000  1.000000  1.000000  1.000000  1.000000  1.000000
                       1.000000  1.000000  1.000000  1.000000  1.000000  1.000000
                       1.000000  1.000000  1.000000  1.000000  1.000000  1.000000
                       1.000000  0.999999  0.085266  0.075104  0.061328
                       1.000000  1.000000  1.000000  1.000000  1.000000  1.000000
                       1.000000  1.000000  1.000000  1.000000  1.000000  1.000000
                       1.000000  1.000000  1.000000  1.000000  1.000000  1.000000
                       0.999999  0.999999  0.828113  0.594649  0.594649
                       1.000000  1.000000  1.000000  1.000000  1.000000  1.000000
                       1.000000  1.000000  1.000000  1.000000  1.000000  1.000000
                       1.000000  1.000000  1.000000  1.000000  1.000000  1.000000
                       1.000000  0.999990  0.053507  0.053507  0.047021
                       1.000000  1.000000  1.000000  1.000000  1.000000  1.000000
                       1.000000  1.000000  1.000000  1.000000  1.000000  1.000000
                       1.000000  1.000000  1.000000  1.000000  1.000000  1.000000
                       0.999999  0.999996  0.052248  0.047743  0.046632
                       1.000000  1.000000  1.000000  1.000000  1.000000  1.000000
                       1.000000  1.000000  1.000000  1.000000  1.000000  1.000000
                       1.000000  1.000000  1.000000  1.000000  1.000000  1.000000
                       1.000000  1.000000  0.808011  0.055313  0.054921
                       1.000000  1.000000  1.000000  1.000000  1.000000  1.000000
                       1.000000  1.000000  1.000000  1.000000  1.000000  1.000000
                       1.000000  1.000000  1.000000  1.000000  1.000000  0.999985
                       0.999985  0.999985  0.042164  0.042164  0.042164
           occopt           3
        optforces1          2
        optforces2          0
        pawecutdg      6.00000000E+01 Hartree
        pawprtvol           3
           prtvol           4
           shiftk      5.00000000E-01  5.00000000E-01  5.00000000E-01
          spgroup         221
           strten1     3.3541702875E-04  3.3541702875E-04  3.3541702875E-04
                       0.0000000000E+00  0.0000000000E+00  0.0000000000E+00
           strten2     3.1665288716E-04  3.1665288716E-04  3.1665288716E-04
                       0.0000000000E+00  0.0000000000E+00  0.0000000000E+00
           symrel      1  0  0   0  1  0   0  0  1      -1  0  0   0 -1  0   0  0 -1
                      -1  0  0   0  1  0   0  0 -1       1  0  0   0 -1  0   0  0  1
                      -1  0  0   0 -1  0   0  0  1       1  0  0   0  1  0   0  0 -1
                       1  0  0   0 -1  0   0  0 -1      -1  0  0   0  1  0   0  0  1
                       0  1  0   1  0  0   0  0  1       0 -1  0  -1  0  0   0  0 -1
                       0 -1  0   1  0  0   0  0 -1       0  1  0  -1  0  0   0  0  1
                       0 -1  0  -1  0  0   0  0  1       0  1  0   1  0  0   0  0 -1
                       0  1  0  -1  0  0   0  0 -1       0 -1  0   1  0  0   0  0  1
                       0  0  1   1  0  0   0  1  0       0  0 -1  -1  0  0   0 -1  0
                       0  0 -1   1  0  0   0 -1  0       0  0  1  -1  0  0   0  1  0
                       0  0 -1  -1  0  0   0  1  0       0  0  1   1  0  0   0 -1  0
                       0  0  1  -1  0  0   0 -1  0       0  0 -1   1  0  0   0  1  0
                       1  0  0   0  0  1   0  1  0      -1  0  0   0  0 -1   0 -1  0
                      -1  0  0   0  0  1   0 -1  0       1  0  0   0  0 -1   0  1  0
                      -1  0  0   0  0 -1   0  1  0       1  0  0   0  0  1   0 -1  0
                       1  0  0   0  0 -1   0 -1  0      -1  0  0   0  0  1   0  1  0
                       0  1  0   0  0  1   1  0  0       0 -1  0   0  0 -1  -1  0  0
                       0 -1  0   0  0  1  -1  0  0       0  1  0   0  0 -1   1  0  0
                       0 -1  0   0  0 -1   1  0  0       0  1  0   0  0  1  -1  0  0
                       0  1  0   0  0 -1  -1  0  0       0 -1  0   0  0  1   1  0  0
                       0  0  1   0  1  0   1  0  0       0  0 -1   0 -1  0  -1  0  0
                       0  0 -1   0  1  0  -1  0  0       0  0  1   0 -1  0   1  0  0
                       0  0 -1   0 -1  0   1  0  0       0  0  1   0  1  0  -1  0  0
                       0  0  1   0 -1  0  -1  0  0       0  0 -1   0  1  0   1  0  0
           tolvrs      1.00000000E-07
           tsmear      6.33363084E-03 Hartree
            typat      1  2  3  3  3
            upawu1     0.00000000E+00  0.00000000E+00  0.00000000E+00 Hartree
            upawu2     1.15147886E-01  0.00000000E+00  0.00000000E+00 Hartree
          usedmft1          0
          usedmft2          1
          usepawu1          1
          usepawu2         10
           useylm           1
              wtk        0.22222    0.07407    0.11111    0.11111    0.22222    0.05556
                         0.05556    0.11111    0.02778    0.00926
           xangst      0.0000000000E+00  0.0000000000E+00  0.0000000000E+00
                       1.9210455615E+00  1.9210455615E+00  1.9210455615E+00
                       1.9210455615E+00  0.0000000000E+00  0.0000000000E+00
                       0.0000000000E+00  1.9210455615E+00  0.0000000000E+00
                       0.0000000000E+00  0.0000000000E+00  1.9210455615E+00
            xcart      0.0000000000E+00  0.0000000000E+00  0.0000000000E+00
                       3.6302500000E+00  3.6302500000E+00  3.6302500000E+00
                       3.6302500000E+00  0.0000000000E+00  0.0000000000E+00
                       0.0000000000E+00  3.6302500000E+00  0.0000000000E+00
                       0.0000000000E+00  0.0000000000E+00  3.6302500000E+00
             xred      0.0000000000E+00  0.0000000000E+00  0.0000000000E+00
                       5.0000000000E-01  5.0000000000E-01  5.0000000000E-01
                       5.0000000000E-01  0.0000000000E+00  0.0000000000E+00
                       0.0000000000E+00  5.0000000000E-01  0.0000000000E+00
                       0.0000000000E+00  0.0000000000E+00  5.0000000000E-01
            znucl       23.00000   38.00000    8.00000

================================================================================


- Timing analysis has been suppressed with timopt=0



================================================================================

 Suggested references for the acknowledgment of ABINIT usage.

 The users of ABINIT have little formal obligations with respect to the ABINIT group
 (those specified in the GNU General Public License, http://www.gnu.org/copyleft/gpl.txt).
 However, it is common practice in the scientific literature,
 to acknowledge the efforts of people that have made the research possible.
 In this spirit, please find below suggested citations of work written by ABINIT developers,
 corresponding to implementations inside of ABINIT that you have used in the present run.
 Note also that it will be of great value to readers of publications presenting these results,
 to read papers enabling them to understand the theoretical formalism and details
 of the ABINIT implementation.
 For information on why they are suggested, see also https://docs.abinit.org/theory/acknowledgments.
-
- [1] A self-consistent DFT + DMFT scheme in the projector augmented wave method: 
- applications to cerium, Ce2O3 and Pu2O3 with the Hubbard I solver and comparison to DFT + U,
- B. Amadon,  J. Phys.: Condens. Matter 24 075604 (2012).
- Comment : Describes the self-consistent implementation of DFT+DMFT in PAW
- DOI and bibtex: see https://docs.abinit.org/theory/bibliography/#amadon2012
-
- [2] Plane-wave based electronic structure calculations for correlated materials.
- using dynamical mean-field theory and projected local orbitals,
- B. Amadon, F. Lechermann, A. Georges, F. Jollet, T.O. Wehling, A.I. Lichenstein,
- Phys. Rev. B 77, 205112 (2008).
- Comment: to be cited in case the computation of overlap operator for Wannier90 interface within PAW is used,
- i.e. prtwant=2 and usepaw=1. The paper describes also the DFT+DMFT implementation on Wannier functions
- DOI and bibtex: see https://docs.abinit.org/theory/bibliography/#amadon2008
-
- [3] Gamma and beta cerium: LDA+U calculations of ground-state parameters.
- B. Amadon, F. Jollet and M. Torrent, Phys. Rev. B 77, 155104 (2008).
- Comment: LDA+U calculations, usepawu/=0. Strong suggestion to cite this paper.
- DOI and bibtex: see https://docs.abinit.org/theory/bibliography/#amadon2008a
-
- [4] Implementation of the Projector Augmented-Wave Method in the ABINIT code.
- M. Torrent, F. Jollet, F. Bottin, G. Zerah, and X. Gonze Comput. Mat. Science 42, 337, (2008).
- Comment: PAW calculations. Strong suggestion to cite this paper.
- DOI and bibtex: see https://docs.abinit.org/theory/bibliography/#torrent2008
-
- [5] The Abinit project: Impact, environment and recent developments.
- Computer Phys. Comm. 248, 107042 (2020).
- X.Gonze, B. Amadon, G. Antonius, F.Arnardi, L.Baguet, J.-M.Beuken,
- J.Bieder, F.Bottin, J.Bouchet, E.Bousquet, N.Brouwer, F.Bruneval,
- G.Brunin, T.Cavignac, J.-B. Charraud, Wei Chen, M.Cote, S.Cottenier,
- J.Denier, G.Geneste, Ph.Ghosez, M.Giantomassi, Y.Gillet, O.Gingras,
- D.R.Hamann, G.Hautier, Xu He, N.Helbig, N.Holzwarth, Y.Jia, F.Jollet,
- W.Lafargue-Dit-Hauret, K.Lejaeghere, M.A.L.Marques, A.Martin, C.Martins,
- H.P.C. Miranda, F.Naccarato, K. Persson, G.Petretto, V.Planes, Y.Pouillon,
- S.Prokhorenko, F.Ricci, G.-M.Rignanese, A.H.Romero, M.M.Schmitt, M.Torrent,
- M.J.van Setten, B.Van Troeye, M.J.Verstraete, G.Zerah and J.W.Zwanzig
- Comment: the fifth generic paper describing the ABINIT project.
- Note that a version of this paper, that is not formatted for Computer Phys. Comm. 
- is available at https://www.abinit.org/sites/default/files/ABINIT20.pdf .
- The licence allows the authors to put it on the Web.
- DOI and bibtex: see https://docs.abinit.org/theory/bibliography/#gonze2020
-
- [6] Recent developments in the ABINIT software package.
- Computer Phys. Comm. 205, 106 (2016).
- X.Gonze, F.Jollet, F.Abreu Araujo, D.Adams, B.Amadon, T.Applencourt,
- C.Audouze, J.-M.Beuken, J.Bieder, A.Bokhanchuk, E.Bousquet, F.Bruneval
- D.Caliste, M.Cote, F.Dahm, F.Da Pieve, M.Delaveau, M.Di Gennaro,
- B.Dorado, C.Espejo, G.Geneste, L.Genovese, A.Gerossier, M.Giantomassi,
- Y.Gillet, D.R.Hamann, L.He, G.Jomard, J.Laflamme Janssen, S.Le Roux,
- A.Levitt, A.Lherbier, F.Liu, I.Lukacevic, A.Martin, C.Martins,
- M.J.T.Oliveira, S.Ponce, Y.Pouillon, T.Rangel, G.-M.Rignanese,
- A.H.Romero, B.Rousseau, O.Rubel, A.A.Shukri, M.Stankovski, M.Torrent,
- M.J.Van Setten, B.Van Troeye, M.J.Verstraete, D.Waroquier, J.Wiktor,
- B.Xu, A.Zhou, J.W.Zwanziger.
- Comment: the fourth generic paper describing the ABINIT project.
- Note that a version of this paper, that is not formatted for Computer Phys. Comm. 
- is available at https://www.abinit.org/sites/default/files/ABINIT16.pdf .
- The licence allows the authors to put it on the Web.
- DOI and bibtex: see https://docs.abinit.org/theory/bibliography/#gonze2016
-
- [7] ABINIT: First-principles approach of materials and nanosystem properties.
- Computer Phys. Comm. 180, 2582-2615 (2009).
- X. Gonze, B. Amadon, P.-M. Anglade, J.-M. Beuken, F. Bottin, P. Boulanger, F. Bruneval,
- D. Caliste, R. Caracas, M. Cote, T. Deutsch, L. Genovese, Ph. Ghosez, M. Giantomassi
- S. Goedecker, D.R. Hamann, P. Hermet, F. Jollet, G. Jomard, S. Leroux, M. Mancini, S. Mazevet,
- M.J.T. Oliveira, G. Onida, Y. Pouillon, T. Rangel, G.-M. Rignanese, D. Sangalli, R. Shaltaf,
- M. Torrent, M.J. Verstraete, G. Zerah, J.W. Zwanziger
- Comment: the third generic paper describing the ABINIT project.
- Note that a version of this paper, that is not formatted for Computer Phys. Comm. 
- is available at https://www.abinit.org/sites/default/files/ABINIT_CPC_v10.pdf .
- The licence allows the authors to put it on the Web.
- DOI and bibtex: see https://docs.abinit.org/theory/bibliography/#gonze2009
-
- Proc.   0 individual time (sec): cpu=        131.9  wall=        132.3

================================================================================

 Calculation completed.
.Delivered  20 WARNINGs and   4 COMMENTs to log file.
+Overall time at end (sec) : cpu=        131.9  wall=        132.3
