
.Version 8.9.1 of ABINIT 
.(MPI version, prepared for a x86_64_linux_gnu4.8 computer) 

.Copyright (C) 1998-2018 ABINIT group . 
 ABINIT comes with ABSOLUTELY NO WARRANTY.
 It is free software, and you are welcome to redistribute it
 under certain conditions (GNU General Public License,
 see ~abinit/COPYING or http://www.gnu.org/copyleft/gpl.txt).

 ABINIT is a project of the Universite Catholique de Louvain,
 Corning Inc. and other collaborators, see ~abinit/doc/developers/contributors.txt .
 Please read ~abinit/doc/users/acknowledgments.html for suggested
 acknowledgments of the ABINIT effort.
 For more information, see https://www.abinit.org .

.Starting date : Thu 17 May 2018.
- ( at 18h47 )
  
- input  file    -> t103.in
- output file    -> t103.out
- root for input  files -> t103i
- root for output files -> t103o

- inpspheads : Reading pseudopotential header in XML form from /home/baguet/PROGRAM/abinit/nonlinear-pol/tests/Psps_for_tests/Al.LDA_PW-JTH.xml
- inpspheads : Reading pseudopotential header in XML form from /home/baguet/PROGRAM/abinit/nonlinear-pol/tests/Psps_for_tests/As.LDA_PW-JTH_sp.xml

 DATASET    3 : space group F-4 3 m (#216); Bravais cF (face-center cubic)
================================================================================
 Values of the parameters that define the memory need for DATASET  3 (RF).
     intxc =       0      iscf =       7    lmnmax =       8     lnmax =       4
     mgfft =      12  mpssoang =       2    mqgrid =    3001     natom =       2
  nloc_mem =       2    nspden =       2   nspinor =       1    nsppol =       2
      nsym =      24    n1xccc =       1    ntypat =       2    occopt =       1
   xclevel =       1
-    mband =           8        mffmem =           1         mkmem =          16
-   mkqmem =          16        mk1mem =          16           mpw =          77
      nfft =        1728          nkpt =          16
================================================================================
P This job should need less than                       2.233 Mbytes of memory.
  Rough estimation (10% accuracy) of disk space for files :
_ WF disk file :      0.303 Mbytes ; DEN or POT disk file :      0.028 Mbytes.
================================================================================


 DATASET    4 : space group F-4 3 m (#216); Bravais cF (face-center cubic)
================================================================================
 Values of the parameters that define the memory need for DATASET  4 (RF).
     intxc =       0      iscf =       7    lmnmax =       8     lnmax =       4
     mgfft =      12  mpssoang =       2    mqgrid =    3001     natom =       2
  nloc_mem =       2    nspden =       2   nspinor =       1    nsppol =       2
      nsym =      24    n1xccc =       1    ntypat =       2    occopt =       1
   xclevel =       1
-    mband =           8        mffmem =           1         mkmem =          16
-   mkqmem =          16        mk1mem =          16           mpw =          77
      nfft =        1728          nkpt =          16
================================================================================
P This job should need less than                       2.331 Mbytes of memory.
  Rough estimation (10% accuracy) of disk space for files :
_ WF disk file :      0.303 Mbytes ; DEN or POT disk file :      0.028 Mbytes.
================================================================================


 DATASET    5 : space group F-4 3 m (#216); Bravais cF (face-center cubic)
================================================================================
 Values of the parameters that define the memory need for DATASET  5 (RF).
     intxc =       0      iscf =       7    lmnmax =       8     lnmax =       4
     mgfft =      12  mpssoang =       2    mqgrid =    3001     natom =       2
  nloc_mem =       2    nspden =       2   nspinor =       1    nsppol =       2
      nsym =      24    n1xccc =       1    ntypat =       2    occopt =       1
   xclevel =       1
-    mband =           8        mffmem =           1         mkmem =          16
-   mkqmem =          16        mk1mem =          16           mpw =          77
      nfft =        1728          nkpt =          16
================================================================================
P This job should need less than                       2.233 Mbytes of memory.
  Rough estimation (10% accuracy) of disk space for files :
_ WF disk file :      0.303 Mbytes ; DEN or POT disk file :      0.028 Mbytes.
================================================================================


 DATASET    6 : space group F-4 3 m (#216); Bravais cF (face-center cubic)
================================================================================
 Values of the parameters that define the memory need for DATASET  6 (RF).
     intxc =       0      iscf =       7    lmnmax =       8     lnmax =       4
     mgfft =      12  mpssoang =       2    mqgrid =    3001     natom =       2
  nloc_mem =       2    nspden =       2   nspinor =       1    nsppol =       2
      nsym =      24    n1xccc =       1    ntypat =       2    occopt =       1
   xclevel =       1
-    mband =           8        mffmem =           1         mkmem =          16
-   mkqmem =          16        mk1mem =          16           mpw =          77
      nfft =        1728          nkpt =          16
================================================================================
P This job should need less than                       2.233 Mbytes of memory.
  Rough estimation (10% accuracy) of disk space for files :
_ WF disk file :      0.303 Mbytes ; DEN or POT disk file :      0.028 Mbytes.
================================================================================


 DATASET    7 : space group F-4 3 m (#216); Bravais cF (face-center cubic)
================================================================================
 Values of the parameters that define the memory need for DATASET  7.
     intxc =       0    ionmov =       0      iscf =      17    lmnmax =       8
     lnmax =       4     mgfft =      12  mpssoang =       2    mqgrid =    3001
     natom =       2  nloc_mem =       2    nspden =       2   nspinor =       1
    nsppol =       2      nsym =      24    n1xccc =       1    ntypat =       2
    occopt =       1   xclevel =       1
-    mband =           8        mffmem =           1         mkmem =          16
       mpw =          77          nfft =        1728          nkpt =          16
 PAW method is used; the additional fine FFT grid is defined by:
   mgfftf=        18    nfftf =      5832
================================================================================
P This job should need less than                       4.052 Mbytes of memory.
  Rough estimation (10% accuracy) of disk space for files :
_ WF disk file :      0.303 Mbytes ; DEN or POT disk file :      0.091 Mbytes.
================================================================================

--------------------------------------------------------------------------------
------------- Echo of variables that govern the present computation ------------
--------------------------------------------------------------------------------
-
- outvars: echo of selected default values                                      
-   iomode0 =  0 , fftalg0 =312 , wfoptalg0 = 10
-
- outvars: echo of global parameters not present in the input file              
-  max_nthreads =    0
-
 -outvars: echo values of preprocessed input variables --------
            acell      1.0640000000E+01  1.0640000000E+01  1.0640000000E+01 Bohr
              amu      2.69815390E+01  7.49215900E+01
  d3e_pert1_atpol3          1       1
  d3e_pert1_atpol4          1       1
  d3e_pert1_atpol5          1       1
  d3e_pert1_atpol6          1       1
  d3e_pert1_atpol7          1       2
    d3e_pert1_dir3          0       0       0
    d3e_pert1_dir4          0       0       0
    d3e_pert1_dir5          0       0       0
    d3e_pert1_dir6          0       0       0
    d3e_pert1_dir7          1       1       1
   d3e_pert1_elfd3          0
   d3e_pert1_elfd4          0
   d3e_pert1_elfd5          0
   d3e_pert1_elfd6          0
   d3e_pert1_elfd7          1
   d3e_pert1_phon3          0
   d3e_pert1_phon4          0
   d3e_pert1_phon5          0
   d3e_pert1_phon6          0
   d3e_pert1_phon7          1
    d3e_pert2_dir3          0       0       0
    d3e_pert2_dir4          0       0       0
    d3e_pert2_dir5          0       0       0
    d3e_pert2_dir6          0       0       0
    d3e_pert2_dir7          1       1       1
   d3e_pert2_elfd3          0
   d3e_pert2_elfd4          0
   d3e_pert2_elfd5          0
   d3e_pert2_elfd6          0
   d3e_pert2_elfd7          1
    d3e_pert3_dir3          0       0       0
    d3e_pert3_dir4          0       0       0
    d3e_pert3_dir5          0       0       0
    d3e_pert3_dir6          0       0       0
    d3e_pert3_dir7          1       1       1
   d3e_pert3_elfd3          0
   d3e_pert3_elfd4          0
   d3e_pert3_elfd5          0
   d3e_pert3_elfd6          0
   d3e_pert3_elfd7          1
             ecut      3.00000000E+00 Hartree
-          fftalg         312
           getddk3          0
           getddk4          3
           getddk5          3
           getddk6          3
           getddk7          3
         getdelfd3          0
         getdelfd4          0
         getdelfd5          0
         getdelfd6          4
         getdelfd7          0
          getdkdk3          0
          getdkdk4          0
          getdkdk5          0
          getdkdk6          5
          getdkdk7          0
          getdkde3          0
          getdkde4          0
          getdkde5          0
          getdkde6          0
          getdkde7          6
           getden           2
           getwfk           2
          get1den3          0
          get1den4          0
          get1den5          0
          get1den6          4
          get1den7          4
           get1wf3          0
           get1wf4          0
           get1wf5          0
           get1wf6          0
           get1wf7          4
             iscf3          7
             iscf4          7
             iscf5          7
             iscf6          7
             iscf7         17
              ixc           7
           jdtset        3    4    5    6    7
              kpt     -2.50000000E-01  5.00000000E-01  0.00000000E+00
                       5.00000000E-01 -2.50000000E-01  0.00000000E+00
                      -2.50000000E-01 -2.50000000E-01  2.50000000E-01
                      -2.50000000E-01  0.00000000E+00  0.00000000E+00
                      -2.50000000E-01  2.50000000E-01  2.50000000E-01
                       5.00000000E-01  5.00000000E-01  2.50000000E-01
                      -2.50000000E-01  5.00000000E-01  5.00000000E-01
                       0.00000000E+00 -2.50000000E-01  0.00000000E+00
                       2.50000000E-01 -2.50000000E-01  2.50000000E-01
                       5.00000000E-01 -2.50000000E-01  5.00000000E-01
                      -2.50000000E-01 -2.50000000E-01 -2.50000000E-01
                       5.00000000E-01  0.00000000E+00  2.50000000E-01
                      -2.50000000E-01  0.00000000E+00  5.00000000E-01
                       0.00000000E+00  5.00000000E-01  2.50000000E-01
                       0.00000000E+00 -2.50000000E-01  5.00000000E-01
                       0.00000000E+00  0.00000000E+00  2.50000000E-01
           kptopt           2
         kptrlatt        2   -2    2     -2    2    2     -2   -2    2
          kptrlen      2.12800000E+01
P           mkmem          16
P          mkqmem          16
P          mk1mem          16
            natom           2
            nband           8
           ndtset           5
            ngfft          12      12      12
          ngfftdg          18      18      18
             nkpt          16
            nline3        100
            nline4          4
            nline5        100
            nline6        100
            nline7          4
           nspden           2
           nsppol           2
            nstep3          1
            nstep4        100
            nstep5          1
            nstep6          1
            nstep7        100
             nsym          24
           ntypat           2
              occ      1.000000  1.000000  1.000000  1.000000  0.000000  0.000000
                       0.000000  0.000000
                       1.000000  1.000000  1.000000  1.000000  0.000000  0.000000
                       0.000000  0.000000
        optdriver3          1
        optdriver4          1
        optdriver5          1
        optdriver6          1
        optdriver7          5
        pawecutdg      6.00000000E+00 Hartree
         pawxcdev           0
          prepanl3          0
          prepanl4          1
          prepanl5          1
          prepanl6          1
          prepanl7          0
          rfatpol3          1       1
          rfatpol4          1       2
          rfatpol5          1       1
          rfatpol6          1       1
          rfatpol7          1       1
            rfddk3          1
            rfddk4          0
            rfddk5          0
            rfddk6          0
            rfddk7          0
            rfdir3          1       1       1
            rfdir4          1       1       1
            rfdir5          1       1       1
            rfdir6          1       1       1
            rfdir7          0       0       0
           rfelfd3          0
           rfelfd4          3
           rfelfd5          0
           rfelfd6          0
           rfelfd7          0
           rfphon3          0
           rfphon4          1
           rfphon5          0
           rfphon6          0
           rfphon7          0
         rf2_dkdk3          0
         rf2_dkdk4          0
         rf2_dkdk5          1
         rf2_dkdk6          0
         rf2_dkdk7          0
         rf2_dkde3          0
         rf2_dkde4          0
         rf2_dkde5          0
         rf2_dkde6          1
         rf2_dkde7          0
    rf2_pert1_dir3          0       0       0
    rf2_pert1_dir4          0       0       0
    rf2_pert1_dir5          1       1       1
    rf2_pert1_dir6          1       1       1
    rf2_pert1_dir7          0       0       0
    rf2_pert2_dir3          0       0       0
    rf2_pert2_dir4          0       0       0
    rf2_pert2_dir5          1       1       1
    rf2_pert2_dir6          1       1       1
    rf2_pert2_dir7          0       0       0
            rprim      0.0000000000E+00  5.0000000000E-01  5.0000000000E-01
                       5.0000000000E-01  0.0000000000E+00  5.0000000000E-01
                       5.0000000000E-01  5.0000000000E-01  0.0000000000E+00
           shiftk      5.00000000E-01  5.00000000E-01  5.00000000E-01
          spgroup         216
   spinmagntarget      0.00000000E+00
           symrel      1  0  0   0  1  0   0  0  1       0 -1  1   0 -1  0   1 -1  0
                      -1  0  0  -1  0  1  -1  1  0       0  1 -1   1  0 -1   0  0 -1
                      -1  0  0  -1  1  0  -1  0  1       0 -1  1   1 -1  0   0 -1  0
                       1  0  0   0  0  1   0  1  0       0  1 -1   0  0 -1   1  0 -1
                      -1  0  1  -1  1  0  -1  0  0       0 -1  0   1 -1  0   0 -1  1
                       1  0 -1   0  0 -1   0  1 -1       0  1  0   0  0  1   1  0  0
                       1  0 -1   0  1 -1   0  0 -1       0 -1  0   0 -1  1   1 -1  0
                      -1  0  1  -1  0  0  -1  1  0       0  1  0   1  0  0   0  0  1
                       0  0 -1   0  1 -1   1  0 -1       1 -1  0   0 -1  1   0 -1  0
                       0  0  1   1  0  0   0  1  0      -1  1  0  -1  0  0  -1  0  1
                       0  0  1   0  1  0   1  0  0       1 -1  0   0 -1  0   0 -1  1
                       0  0 -1   1  0 -1   0  1 -1      -1  1  0  -1  0  1  -1  0  0
           tolrde3     1.00000000E-30
           tolrde4     5.00000000E-03
           tolrde5     5.00000000E-03
           tolrde6     5.00000000E-03
           tolrde7     5.00000000E-03
           tolwfr      1.00000000E-26
            typat      1  2
          usepead3          1
          usepead4          1
          usepead5          1
          usepead6          1
          usepead7          0
           useylm           1
              wtk        0.06250    0.06250    0.06250    0.06250    0.06250    0.06250
                         0.06250    0.06250    0.06250    0.06250    0.06250    0.06250
                         0.06250    0.06250    0.06250    0.06250
           xangst      0.0000000000E+00  0.0000000000E+00  0.0000000000E+00
                       1.4076113748E+00  1.4076113748E+00  1.4076113748E+00
            xcart      0.0000000000E+00  0.0000000000E+00  0.0000000000E+00
                       2.6600000000E+00  2.6600000000E+00  2.6600000000E+00
             xred      0.0000000000E+00  0.0000000000E+00  0.0000000000E+00
                       2.5000000000E-01  2.5000000000E-01  2.5000000000E-01
            znucl       13.00000   33.00000

================================================================================

 chkinp: Checking input parameters for consistency, jdtset=   3.
 This is a calculation with spin-up and spin-down wavefunctions,         ... nsppol=  2
 in which the target spin-polarization is zero.                  ... spinmagntarget=   0.00
 Tip ... It might be possible that the ground state is either non-spin-polarized, or antiferromagnetic.
 In the former case, it is advantageous to use nsppol=1 and nspden=1,
 while in the latter  case, it is advantageous to use nsppol=1 and nspden=2.

 chkinp: Checking input parameters for consistency, jdtset=   4.
 This is a calculation with spin-up and spin-down wavefunctions,         ... nsppol=  2
 in which the target spin-polarization is zero.                  ... spinmagntarget=   0.00
 Tip ... It might be possible that the ground state is either non-spin-polarized, or antiferromagnetic.
 In the former case, it is advantageous to use nsppol=1 and nspden=1,
 while in the latter  case, it is advantageous to use nsppol=1 and nspden=2.

 chkinp: Checking input parameters for consistency, jdtset=   5.
 This is a calculation with spin-up and spin-down wavefunctions,         ... nsppol=  2
 in which the target spin-polarization is zero.                  ... spinmagntarget=   0.00
 Tip ... It might be possible that the ground state is either non-spin-polarized, or antiferromagnetic.
 In the former case, it is advantageous to use nsppol=1 and nspden=1,
 while in the latter  case, it is advantageous to use nsppol=1 and nspden=2.

 chkinp: Checking input parameters for consistency, jdtset=   6.
 This is a calculation with spin-up and spin-down wavefunctions,         ... nsppol=  2
 in which the target spin-polarization is zero.                  ... spinmagntarget=   0.00
 Tip ... It might be possible that the ground state is either non-spin-polarized, or antiferromagnetic.
 In the former case, it is advantageous to use nsppol=1 and nspden=1,
 while in the latter  case, it is advantageous to use nsppol=1 and nspden=2.

 chkinp: Checking input parameters for consistency, jdtset=   7.
 This is a calculation with spin-up and spin-down wavefunctions,         ... nsppol=  2
 in which the target spin-polarization is zero.                  ... spinmagntarget=   0.00
 Tip ... It might be possible that the ground state is either non-spin-polarized, or antiferromagnetic.
 In the former case, it is advantageous to use nsppol=1 and nspden=1,
 while in the latter  case, it is advantageous to use nsppol=1 and nspden=2.

================================================================================
== DATASET  3 ==================================================================
-   nproc =    1

 mkfilename : getwfk/=0, take file _WFK from output of DATASET   2.

 mkfilename : getden/=0, take file _DEN from output of DATASET   2.

 Exchange-correlation functional for the present dataset will be:
  LDA: Perdew-Wang 92 LSD fit to Ceperley-Alder data - ixc=7
 Citation for XC functional:
  J.P.Perdew and Y.Wang, PRB 45, 13244 (1992)

 Real(R)+Recip(G) space primitive vectors, cartesian coordinates (Bohr,Bohr^-1):
 R(1)=  0.0000000  5.3200000  5.3200000  G(1)= -0.0939850  0.0939850  0.0939850
 R(2)=  5.3200000  0.0000000  5.3200000  G(2)=  0.0939850 -0.0939850  0.0939850
 R(3)=  5.3200000  5.3200000  0.0000000  G(3)=  0.0939850  0.0939850 -0.0939850
 Unit cell volume ucvol=  3.0113754E+02 bohr^3
 Angles (23,13,12)=  6.00000000E+01  6.00000000E+01  6.00000000E+01 degrees

 Coarse grid specifications (used for wave-functions):

 getcut: wavevector=  0.0000  0.0000  0.0000  ngfft=  12  12  12
         ecut(hartree)=      3.000   => boxcut(ratio)=   2.04564

 Fine grid specifications (used for densities):

 getcut: wavevector=  0.0000  0.0000  0.0000  ngfft=  18  18  18
         ecut(hartree)=      6.000   => boxcut(ratio)=   2.17641

--- Pseudopotential description ------------------------------------------------
- pspini: atom type   1  psp file is /home/baguet/PROGRAM/abinit/nonlinear-pol/tests/Psps_for_tests/Al.LDA_PW-JTH.xml
- pspatm: opening atomic psp file    /home/baguet/PROGRAM/abinit/nonlinear-pol/tests/Psps_for_tests/Al.LDA_PW-JTH.xml
- pspatm : Reading pseudopotential header in XML form from /home/baguet/PROGRAM/abinit/nonlinear-pol/tests/Psps_for_tests/Al.LDA_PW-JTH.xml
 Pseudopotential format is: paw10
 basis_size (lnmax)=  4 (lmn_size=  8), orbitals=   0   0   1   1
 Spheres core radius: rc_sph= 1.90363307
 1 radial meshes are used:
  - mesh 1: r(i)=AA*[exp(BB*(i-1))-1], size=2001 , AA= 0.46377E-03 BB= 0.60291E-02
 Shapefunction is SIN type: shapef(r)=[sin(pi*r/rshp)/(pi*r/rshp)]**2
 Radius for shape functions =  1.60786206
 mmax= 2001
 Radial grid used for partial waves is grid 1
 Radial grid used for projectors is grid 1
 Radial grid used for (t)core density is grid 1
 Radial grid used for Vloc is grid 1
 Radial grid used for pseudo valence density is grid 1
 Mesh size for Vloc has been set to 1771 to avoid numerical noise.
 Compensation charge density is not taken into account in XC energy/potential
 pspatm: atomic psp has been read  and splines computed

- pspini: atom type   2  psp file is /home/baguet/PROGRAM/abinit/nonlinear-pol/tests/Psps_for_tests/As.LDA_PW-JTH_sp.xml
- pspatm: opening atomic psp file    /home/baguet/PROGRAM/abinit/nonlinear-pol/tests/Psps_for_tests/As.LDA_PW-JTH_sp.xml
- pspatm : Reading pseudopotential header in XML form from /home/baguet/PROGRAM/abinit/nonlinear-pol/tests/Psps_for_tests/As.LDA_PW-JTH_sp.xml
 Pseudopotential format is: paw10
 basis_size (lnmax)=  4 (lmn_size=  8), orbitals=   0   0   1   1
 Spheres core radius: rc_sph= 2.10391912
 1 radial meshes are used:
  - mesh 1: r(i)=AA*[exp(BB*(i-1))-1], size=1500 , AA= 0.25579E-03 BB= 0.84411E-02
 Shapefunction is BESSEL type: shapef(r,l)=aa(1,l)*jl(q(1,l)*r)+aa(2,l)*jl(q(2,l)*r)
 Radius for shape functions =  1.80731519
 mmax= 1500
 Radial grid used for partial waves is grid 1
 Radial grid used for projectors is grid 1
 Radial grid used for (t)core density is grid 1
 Radial grid used for Vloc is grid 1
 Radial grid used for pseudo valence density is grid 1
 Mesh size for Vloc has been set to 1335 to avoid numerical noise.
 Compensation charge density is not taken into account in XC energy/potential
 pspatm: atomic psp has been read  and splines computed

   2.52339172E+02                                ecore*ucvol(ha*bohr**3)
--------------------------------------------------------------------------------

-inwffil : will read wavefunctions from disk file t103o_DS2_WFK

 ==>  initialize data related to q vector <== 

 The list of irreducible perturbations for this q vector is:
    1)    idir= 1    ipert=   3
    2)    idir= 2    ipert=   3
    3)    idir= 3    ipert=   3

================================================================================

--------------------------------------------------------------------------------
 Perturbation wavevector (in red.coord.)   0.000000  0.000000  0.000000
 Perturbation : derivative vs k along direction   1

 dfpt_looppert : COMMENT -
  In a d/dk calculation, iscf is set to -3 automatically.
 The set of symmetries contains only one element for this perturbation.
 symkpt : not enough symmetry to change the number of k points.

--------------------------------------------------------------------------------

-inwffil : will read wavefunctions from disk file t103o_DS2_WFK
--------------------------------------------------------------------------------

 Initialisation of the first-order wave-functions :
  ireadwf=   0

     iter   2DEtotal(Ha)        deltaE(Ha) residm    vres2
-ETOT  1  -10.110180092797     -1.011E+01 7.967E-27 0.000E+00

 At SCF step    1   max residual=  7.97E-27 < tolwfr=  1.00E-26 =>converged.
================================================================================

 ----iterations are completed or convergence reached----

 Mean square residual over all n,k,spin=   2.4864E-27; max=  7.9670E-27
 dfpt_looppert : ek2=    1.6738545539E+01
          f-sum rule ratio=    1.2461933097E+00
 prteigrs : about to open file t103_1WF1_EIG
 Expectation of eigenvalue derivatives (hartree) for nkpt=  16  k points, SPIN UP:
  (in case of degenerate eigenvalues, averaged derivative)
 kpt#   1, nband=  8, wtk=  0.06250, kpt= -0.2500  0.5000  0.0000 (reduced coord)
  -0.06227   -0.06445    0.17935    0.15446    0.22627    0.60272   -0.55617   -0.58917
 prteigrs : prtvol=0 or 1, do not print more k-points.

 Expectation of eigenvalue derivatives (hartree) for nkpt=  16  k points, SPIN DOWN:
  (in case of degenerate eigenvalues, averaged derivative)
 kpt#   1, nband=  8, wtk=  0.06250, kpt= -0.2500  0.5000  0.0000 (reduced coord)
  -0.06227   -0.06445    0.17935    0.15446    0.22627    0.60272   -0.55617   -0.58917
 prteigrs : prtvol=0 or 1, do not print more k-points.


 Nine components of 2nd-order total energy (hartree) are
 1,2,3: 0th-order hamiltonian combined with 1st-order wavefunctions
     kin0=   2.42659145E+00 eigvalue=  -2.32608750E-02  local=  -1.03087072E+00
 4,5,6: 1st-order hamiltonian combined with 1st and 0th-order wfs
     kin1=  -2.08594635E+01  Hartree=   0.00000000E+00     xc=   0.00000000E+00
 7,8,9: eventually, occupation + non-local contributions
    edocc=   8.61913515E+00     enl0=   8.15379958E-02   enl1=   6.76150369E-01
 10: eventually, PAW "on-site" Hxc contribution: epaw1=   0.00000000E+00
 1-10 gives the relaxation energy (to be shifted if some occ is /=2.0)
   erelax=  -1.01101801E+01
 11 Contribution from 1st-order change of wavefunctions overlap
 eovl1 =  -1.85235457E-02
  No Ewald or frozen-wf contrib.: the relaxation energy is the total one
 2DEtotal=   -0.1011018009E+02 Ha. Also 2DEtotal=   -0.275111991399E+03 eV
    (  non-var. 2DEtotal :   -1.0110180093E+01 Ha)

--------------------------------------------------------------------------------
 Perturbation wavevector (in red.coord.)   0.000000  0.000000  0.000000
 Perturbation : derivative vs k along direction   2
 The set of symmetries contains only one element for this perturbation.
 symkpt : not enough symmetry to change the number of k points.

--------------------------------------------------------------------------------

-inwffil : will read wavefunctions from disk file t103o_DS2_WFK
--------------------------------------------------------------------------------

 Initialisation of the first-order wave-functions :
  ireadwf=   0

     iter   2DEtotal(Ha)        deltaE(Ha) residm    vres2
-ETOT  1  -10.110180092642     -1.011E+01 8.242E-27 0.000E+00

 At SCF step    1   max residual=  8.24E-27 < tolwfr=  1.00E-26 =>converged.
================================================================================

 ----iterations are completed or convergence reached----

 Mean square residual over all n,k,spin=   2.3732E-27; max=  8.2424E-27
 dfpt_looppert : ek2=    1.6738545539E+01
          f-sum rule ratio=    1.2461933096E+00
 prteigrs : about to open file t103_1WF1_EIG
 Expectation of eigenvalue derivatives (hartree) for nkpt=  16  k points, SPIN UP:
  (in case of degenerate eigenvalues, averaged derivative)
 kpt#   1, nband=  8, wtk=  0.06250, kpt= -0.2500  0.5000  0.0000 (reduced coord)
  -0.09216    0.15419    0.19492   -0.04284   -0.04176   -0.51561    0.00085    0.13575
 prteigrs : prtvol=0 or 1, do not print more k-points.

 Expectation of eigenvalue derivatives (hartree) for nkpt=  16  k points, SPIN DOWN:
  (in case of degenerate eigenvalues, averaged derivative)
 kpt#   1, nband=  8, wtk=  0.06250, kpt= -0.2500  0.5000  0.0000 (reduced coord)
  -0.09216    0.15419    0.19492   -0.04284   -0.04176   -0.51561    0.00085    0.13575
 prteigrs : prtvol=0 or 1, do not print more k-points.


 Nine components of 2nd-order total energy (hartree) are
 1,2,3: 0th-order hamiltonian combined with 1st-order wavefunctions
     kin0=   2.42659145E+00 eigvalue=  -2.32608750E-02  local=  -1.03087072E+00
 4,5,6: 1st-order hamiltonian combined with 1st and 0th-order wfs
     kin1=  -2.08594635E+01  Hartree=   0.00000000E+00     xc=   0.00000000E+00
 7,8,9: eventually, occupation + non-local contributions
    edocc=   8.61913515E+00     enl0=   8.15379958E-02   enl1=   6.76150369E-01
 10: eventually, PAW "on-site" Hxc contribution: epaw1=   0.00000000E+00
 1-10 gives the relaxation energy (to be shifted if some occ is /=2.0)
   erelax=  -1.01101801E+01
 11 Contribution from 1st-order change of wavefunctions overlap
 eovl1 =  -1.85235457E-02
  No Ewald or frozen-wf contrib.: the relaxation energy is the total one
 2DEtotal=   -0.1011018009E+02 Ha. Also 2DEtotal=   -0.275111991395E+03 eV
    (  non-var. 2DEtotal :   -1.0110180093E+01 Ha)

--------------------------------------------------------------------------------
 Perturbation wavevector (in red.coord.)   0.000000  0.000000  0.000000
 Perturbation : derivative vs k along direction   3
 The set of symmetries contains only one element for this perturbation.
 symkpt : not enough symmetry to change the number of k points.

--------------------------------------------------------------------------------

-inwffil : will read wavefunctions from disk file t103o_DS2_WFK
--------------------------------------------------------------------------------

 Initialisation of the first-order wave-functions :
  ireadwf=   0

     iter   2DEtotal(Ha)        deltaE(Ha) residm    vres2
-ETOT  1  -10.110180092487     -1.011E+01 7.967E-27 0.000E+00

 At SCF step    1   max residual=  7.97E-27 < tolwfr=  1.00E-26 =>converged.
================================================================================

 ----iterations are completed or convergence reached----

 Mean square residual over all n,k,spin=   2.4863E-27; max=  7.9669E-27
 dfpt_looppert : ek2=    1.6738545539E+01
          f-sum rule ratio=    1.2461933096E+00
 prteigrs : about to open file t103_1WF1_EIG
 Expectation of eigenvalue derivatives (hartree) for nkpt=  16  k points, SPIN UP:
  (in case of degenerate eigenvalues, averaged derivative)
 kpt#   1, nband=  8, wtk=  0.06250, kpt= -0.2500  0.5000  0.0000 (reduced coord)
   0.07721   -0.04487   -0.18714   -0.05581   -0.09225   -0.04356    0.27766    0.22671
 prteigrs : prtvol=0 or 1, do not print more k-points.

 Expectation of eigenvalue derivatives (hartree) for nkpt=  16  k points, SPIN DOWN:
  (in case of degenerate eigenvalues, averaged derivative)
 kpt#   1, nband=  8, wtk=  0.06250, kpt= -0.2500  0.5000  0.0000 (reduced coord)
   0.07721   -0.04487   -0.18714   -0.05581   -0.09225   -0.04356    0.27766    0.22671
 prteigrs : prtvol=0 or 1, do not print more k-points.


 Nine components of 2nd-order total energy (hartree) are
 1,2,3: 0th-order hamiltonian combined with 1st-order wavefunctions
     kin0=   2.42659145E+00 eigvalue=  -2.32608750E-02  local=  -1.03087072E+00
 4,5,6: 1st-order hamiltonian combined with 1st and 0th-order wfs
     kin1=  -2.08594635E+01  Hartree=   0.00000000E+00     xc=   0.00000000E+00
 7,8,9: eventually, occupation + non-local contributions
    edocc=   8.61913515E+00     enl0=   8.15379958E-02   enl1=   6.76150369E-01
 10: eventually, PAW "on-site" Hxc contribution: epaw1=   0.00000000E+00
 1-10 gives the relaxation energy (to be shifted if some occ is /=2.0)
   erelax=  -1.01101801E+01
 11 Contribution from 1st-order change of wavefunctions overlap
 eovl1 =  -1.85235457E-02
  No Ewald or frozen-wf contrib.: the relaxation energy is the total one
 2DEtotal=   -0.1011018009E+02 Ha. Also 2DEtotal=   -0.275111991390E+03 eV
    (  non-var. 2DEtotal :   -1.0110180092E+01 Ha)
================================================================================

 ---- first-order wavefunction calculations are completed ----


 respfn : d/dk was computed, but no 2DTE, so no DDB output.

================================================================================
== DATASET  4 ==================================================================
-   nproc =    1

 mkfilename : getwfk/=0, take file _WFK from output of DATASET   2.

 mkfilename : getddk/=0, take file _1WF from output of DATASET   3.

 mkfilename : getden/=0, take file _DEN from output of DATASET   2.

 Exchange-correlation functional for the present dataset will be:
  LDA: Perdew-Wang 92 LSD fit to Ceperley-Alder data - ixc=7
 Citation for XC functional:
  J.P.Perdew and Y.Wang, PRB 45, 13244 (1992)

 Real(R)+Recip(G) space primitive vectors, cartesian coordinates (Bohr,Bohr^-1):
 R(1)=  0.0000000  5.3200000  5.3200000  G(1)= -0.0939850  0.0939850  0.0939850
 R(2)=  5.3200000  0.0000000  5.3200000  G(2)=  0.0939850 -0.0939850  0.0939850
 R(3)=  5.3200000  5.3200000  0.0000000  G(3)=  0.0939850  0.0939850 -0.0939850
 Unit cell volume ucvol=  3.0113754E+02 bohr^3
 Angles (23,13,12)=  6.00000000E+01  6.00000000E+01  6.00000000E+01 degrees

 Coarse grid specifications (used for wave-functions):

 getcut: wavevector=  0.0000  0.0000  0.0000  ngfft=  12  12  12
         ecut(hartree)=      3.000   => boxcut(ratio)=   2.04564

 Fine grid specifications (used for densities):

 getcut: wavevector=  0.0000  0.0000  0.0000  ngfft=  18  18  18
         ecut(hartree)=      6.000   => boxcut(ratio)=   2.17641
--------------------------------------------------------------------------------

-inwffil : will read wavefunctions from disk file t103o_DS2_WFK
-open ddk wf file :t103o_DS3_1WF7
-open ddk wf file :t103o_DS3_1WF8
-open ddk wf file :t103o_DS3_1WF9

 ==>  initialize data related to q vector <== 

 The list of irreducible perturbations for this q vector is:
    1)    idir= 1    ipert=   1
    2)    idir= 1    ipert=   2
    3)    idir= 1    ipert=   4

================================================================================

 The perturbation idir=   2  ipert=   1 is
 symmetric of a previously calculated perturbation.
 So, its SCF calculation is not needed.


 The perturbation idir=   3  ipert=   1 is
 symmetric of a previously calculated perturbation.
 So, its SCF calculation is not needed.


 The perturbation idir=   2  ipert=   2 is
 symmetric of a previously calculated perturbation.
 So, its SCF calculation is not needed.


 The perturbation idir=   3  ipert=   2 is
 symmetric of a previously calculated perturbation.
 So, its SCF calculation is not needed.


--------------------------------------------------------------------------------
 Perturbation wavevector (in red.coord.)   0.000000  0.000000  0.000000
 Perturbation : displacement of atom   1   along direction   1
 symkpt : not enough symmetry to change the number of k points.

--------------------------------------------------------------------------------

-inwffil : will read wavefunctions from disk file t103o_DS2_WFK
--------------------------------------------------------------------------------

 Initialisation of the first-order wave-functions :
  ireadwf=   0

     iter   2DEtotal(Ha)        deltaE(Ha) residm    vres2
-ETOT  1   6.5048525069833     -1.167E+01 2.525E-02 1.087E+03
 ETOT  2   5.4327087372667     -1.072E+00 2.453E-04 1.753E+02
 ETOT  3   5.2489017860447     -1.838E-01 7.377E-05 1.974E+00
 ETOT  4   5.2473336163193     -1.568E-03 2.820E-06 2.974E-02
 ETOT  5   5.2473128340319     -2.078E-05 2.772E-08 1.808E-03
 ETOT  6   5.2473115987069     -1.235E-06 1.902E-09 1.427E-04
 ETOT  7   5.2473114786536     -1.201E-07 2.115E-10 3.537E-06
 ETOT  8   5.2473114767396     -1.914E-09 8.162E-12 5.087E-08
 ETOT  9   5.2473114767216     -1.801E-11 3.494E-14 3.863E-09
 ETOT 10   5.2473114767206     -1.020E-12 1.925E-15 2.217E-10
 ETOT 11   5.2473114767206      8.882E-15 1.584E-17 1.822E-11
 ETOT 12   5.2473114767206     -4.086E-14 3.449E-19 1.672E-12
 ETOT 13   5.2473114767206      3.553E-15 5.693E-20 1.463E-13
 ETOT 14   5.2473114767206      3.730E-14 9.293E-22 1.341E-14
 ETOT 15   5.2473114767206     -8.882E-15 3.492E-22 1.189E-15
 ETOT 16   5.2473114767206     -1.421E-14 1.039E-23 1.107E-16
 ETOT 17   5.2473114767206      1.954E-14 1.919E-24 1.019E-17
 ETOT 18   5.2473114767206     -4.086E-14 1.696E-24 8.846E-19
 ETOT 19   5.2473114767206      2.842E-14 1.370E-26 7.897E-20
 ETOT 20   5.2473114767206     -3.553E-15 9.652E-27 6.967E-21

 At SCF step   20   max residual=  9.65E-27 < tolwfr=  1.00E-26 =>converged.
-open ddk wf file :t103o_DS3_1WF7
-open ddk wf file :t103o_DS3_1WF8
-open ddk wf file :t103o_DS3_1WF9
================================================================================

 ----iterations are completed or convergence reached----

 Mean square residual over all n,k,spin=   4.4157E-27; max=  9.6517E-27

 Fourteen components of 2nd-order total energy (hartree) are
 1,2,3: 0th-order hamiltonian combined with 1st-order wavefunctions
     kin0=   1.15464304E+01 eigvalue=   3.27445203E-01  local=  -7.88497903E+00
 4,5,6: 1st-order hamiltonian combined with 1st and 0th-order wfs
 loc psp =  -5.37095752E+00  Hartree=   3.63107580E+00     xc=  -1.51816157E+00
 note that "loc psp" includes a xc core correction that could be resolved
 7,8,9: eventually, occupation + non-local contributions
    edocc=   1.83697418E+00     enl0=   4.62898199E+00   enl1=  -2.01336295E+01
 10: eventually, PAW "on-site" Hxc contribution: epaw1=   1.24901708E-02
 1-10 gives the relaxation energy (to be shifted if some occ is /=2.0)
   erelax=  -1.29243299E+01
 11,12,13 Non-relaxation  contributions : frozen-wavefunctions and Ewald
 fr.local=  -2.63051752E+01 fr.nonlo=   3.32167673E+01  Ewald=   1.18104987E+01
 14,15 Frozen wf xc core corrections (1) and (2)
 frxc 1  =  -3.63110022E+00  frxc 2 =   3.08065077E+00
 16 Contribution from 1st-order change of wavefunctions overlap
 eovl1 =  -1.72036414E-01
 Resulting in :
 2DEtotal=    0.5247311477E+01 Ha. Also 2DEtotal=    0.142786606826E+03 eV
    (2DErelax=   -1.2924329942E+01 Ha. 2DEnonrelax=    1.8171641418E+01 Ha)
    (  non-var. 2DEtotal :    5.2473114767E+00 Ha)


--------------------------------------------------------------------------------
 Perturbation wavevector (in red.coord.)   0.000000  0.000000  0.000000
 Perturbation : displacement of atom   2   along direction   1
 symkpt : not enough symmetry to change the number of k points.

--------------------------------------------------------------------------------

-inwffil : will read wavefunctions from disk file t103o_DS2_WFK
--------------------------------------------------------------------------------

 Initialisation of the first-order wave-functions :
  ireadwf=   0

     iter   2DEtotal(Ha)        deltaE(Ha) residm    vres2
-ETOT  1   31.893628893759     -6.038E+01 8.374E-02 2.003E+04
 ETOT  2   7.7890306708995     -2.410E+01 7.305E-03 1.998E+03
 ETOT  3   5.3476656773958     -2.441E+00 1.638E-03 2.661E+01
 ETOT  4   5.3209024727153     -2.676E-02 2.364E-05 5.621E-01
 ETOT  5   5.3205967417964     -3.057E-04 1.340E-06 8.149E-03
 ETOT  6   5.3205936307032     -3.111E-06 1.067E-08 3.792E-04
 ETOT  7   5.3205934378234     -1.929E-07 1.996E-10 2.254E-05
 ETOT  8   5.3205934254365     -1.239E-08 1.526E-11 1.066E-06
 ETOT  9   5.3205934248034     -6.331E-10 7.519E-13 6.728E-08
 ETOT 10   5.3205934247894     -1.398E-11 1.436E-14 5.358E-09
 ETOT 11   5.3205934247896      2.274E-13 4.129E-16 4.475E-10
 ETOT 12   5.3205934247890     -6.963E-13 3.593E-17 3.962E-11
 ETOT 13   5.3205934247891      1.563E-13 1.096E-18 3.553E-12
 ETOT 14   5.3205934247892      9.948E-14 1.056E-19 3.285E-13
 ETOT 15   5.3205934247898      5.400E-13 7.936E-21 3.202E-14
 ETOT 16   5.3205934247891     -6.253E-13 5.527E-21 2.517E-15
 ETOT 17   5.3205934247892      2.842E-14 6.019E-23 2.262E-16
 ETOT 18   5.3205934247894      1.990E-13 1.612E-24 2.046E-17
 ETOT 19   5.3205934247896      2.132E-13 2.401E-25 1.829E-18
 ETOT 20   5.3205934247897      1.421E-13 1.998E-26 1.661E-19
 ETOT 21   5.3205934247898      1.421E-13 9.401E-27 1.496E-20

 At SCF step   21   max residual=  9.40E-27 < tolwfr=  1.00E-26 =>converged.
-open ddk wf file :t103o_DS3_1WF7
-open ddk wf file :t103o_DS3_1WF8
-open ddk wf file :t103o_DS3_1WF9
================================================================================

 ----iterations are completed or convergence reached----

 Mean square residual over all n,k,spin=   4.8685E-27; max=  9.4011E-27

 Fourteen components of 2nd-order total energy (hartree) are
 1,2,3: 0th-order hamiltonian combined with 1st-order wavefunctions
     kin0=   5.31370399E+01 eigvalue=   9.84291455E-01  local=  -1.98962508E+01
 4,5,6: 1st-order hamiltonian combined with 1st and 0th-order wfs
 loc psp =  -1.27972604E+02  Hartree=   3.84049437E+01     xc=  -1.29338212E+01
 note that "loc psp" includes a xc core correction that could be resolved
 7,8,9: eventually, occupation + non-local contributions
    edocc=   1.63233367E+01     enl0=   2.22969594E-01   enl1=  -3.52350820E+01
 10: eventually, PAW "on-site" Hxc contribution: epaw1=   1.25627724E-02
 1-10 gives the relaxation energy (to be shifted if some occ is /=2.0)
   erelax=  -8.69526140E+01
 11,12,13 Non-relaxation  contributions : frozen-wavefunctions and Ewald
 fr.local=   6.53820734E+01 fr.nonlo=   9.46630237E+00  Ewald=   1.18104987E+01
 14,15 Frozen wf xc core corrections (1) and (2)
 frxc 1  =  -1.88140938E+02  frxc 2 =   1.93755271E+02
 16 Contribution from 1st-order change of wavefunctions overlap
 eovl1 =  -5.34877093E+00
 Resulting in :
 2DEtotal=    0.5320593425E+01 Ha. Also 2DEtotal=    0.144780710045E+03 eV
    (2DErelax=   -8.6952613958E+01 Ha. 2DEnonrelax=    9.2273207383E+01 Ha)
    (  non-var. 2DEtotal :    5.3205934248E+00 Ha)


--------------------------------------------------------------------------------
 Perturbation wavevector (in red.coord.)   0.000000  0.000000  0.000000
 Perturbation : homogeneous electric field along direction   1
 symkpt : not enough symmetry to change the number of k points.

--------------------------------------------------------------------------------

-inwffil : will read wavefunctions from disk file t103o_DS2_WFK
--------------------------------------------------------------------------------

 Initialisation of the first-order wave-functions :
  ireadwf=   0
-dfpt_looppert : read the wavefunctions from file: t103o_DS3_1WF7

     iter   2DEtotal(Ha)        deltaE(Ha) residm    vres2
-ETOT  1  -345.12364060622     -3.451E+02 2.273E+00 8.873E+03
 ETOT  2  -355.84619062735     -1.072E+01 5.541E-03 9.270E+02
 ETOT  3  -357.04800464699     -1.202E+00 7.426E-04 1.061E+01
 ETOT  4  -357.05926433987     -1.126E-02 8.186E-06 3.704E-01
 ETOT  5  -357.05946564364     -2.013E-04 6.864E-07 9.487E-03
 ETOT  6  -357.05947069639     -5.053E-06 1.673E-08 4.942E-04
 ETOT  7  -357.05947100689     -3.105E-07 4.243E-10 9.609E-06
 ETOT  8  -357.05947101311     -6.217E-09 8.315E-12 5.202E-07
 ETOT  9  -357.05947101355     -4.425E-10 2.617E-13 3.099E-08
 ETOT 10  -357.05947101356     -7.788E-12 1.338E-14 2.266E-09
 ETOT 11  -357.05947101356     -2.274E-13 2.265E-16 1.964E-10
 ETOT 12  -357.05947101356      3.979E-13 4.916E-18 1.778E-11
 ETOT 13  -357.05947101356     -7.958E-13 2.656E-19 1.619E-12
 ETOT 14  -357.05947101356      7.958E-13 5.175E-20 1.441E-13
 ETOT 15  -357.05947101356      3.979E-13 4.428E-21 1.295E-14
 ETOT 16  -357.05947101356     -9.095E-13 2.600E-22 1.211E-15
 ETOT 17  -357.05947101356      2.274E-13 2.474E-23 1.126E-16
 ETOT 18  -357.05947101356     -1.705E-13 1.382E-23 9.309E-18
 ETOT 19  -357.05947101356      1.705E-13 3.145E-25 8.387E-19
 ETOT 20  -357.05947101356     -3.979E-13 4.533E-26 7.333E-20
 ETOT 21  -357.05947101356     -5.684E-14 9.836E-27 6.656E-21

 At SCF step   21   max residual=  9.84E-27 < tolwfr=  1.00E-26 =>converged.
-open ddk wf file :t103o_DS3_1WF7
-open ddk wf file :t103o_DS3_1WF8
-open ddk wf file :t103o_DS3_1WF9
================================================================================

 ----iterations are completed or convergence reached----

 Mean square residual over all n,k,spin=   4.0754E-27; max=  9.8360E-27

 Eight components of 2nd-order total energy (hartree) are
 1,2,3: 0th-order hamiltonian combined with 1st-order wavefunctions
     kin0=   5.39197793E+00 eigvalue=  -2.28522633E-01  local=  -2.04723308E+00
 4,5,6: 1st-order hamiltonian combined with 1st and 0th-order wfs
    dotwf=  -7.14118942E+02  Hartree=   4.18720945E+01     xc=  -2.69199694E+01
 7,8,9: eventually, occupation + non-local contributions
    edocc=   3.36938415E+02     enl0=   4.91214908E-02   enl1=   0.00000000E+00
 10: eventually, PAW "on-site" Hxc contribution: epaw1=   2.00358691E+00
 1-10 gives the relaxation energy (to be shifted if some occ is /=2.0)
   erelax=  -3.57059471E+02
  No Ewald or frozen-wf contrib.: the relaxation energy is the total one
 2DEtotal=   -0.3570594710E+03 Ha. Also 2DEtotal=   -0.971608232660E+04 eV
    (  non-var. 2DEtotal :   -3.5705947101E+02 Ha)

--------------------------------------------------------------------------------
 Perturbation wavevector (in red.coord.)   0.000000  0.000000  0.000000
 Perturbation : homogeneous electric field along direction   2
 symkpt : not enough symmetry to change the number of k points.

--------------------------------------------------------------------------------

-inwffil : will read wavefunctions from disk file t103o_DS2_WFK
--------------------------------------------------------------------------------

 Initialisation of the first-order wave-functions :
  ireadwf=   0
-dfpt_looppert : read the wavefunctions from file: t103o_DS3_1WF8

     iter   2DEtotal(Ha)        deltaE(Ha) residm    vres2
-ETOT  1  -345.12364482700     -3.451E+02 2.273E+00 8.873E+03
 ETOT  2  -355.84618996328     -1.072E+01 5.541E-03 9.270E+02
 ETOT  3  -357.04800432125     -1.202E+00 7.426E-04 1.061E+01
 ETOT  4  -357.05926429756     -1.126E-02 8.186E-06 3.705E-01
 ETOT  5  -357.05946562842     -2.013E-04 6.865E-07 9.496E-03
 ETOT  6  -357.05947068400     -5.056E-06 1.676E-08 4.945E-04
 ETOT  7  -357.05947099570     -3.117E-07 4.235E-10 9.705E-06
 ETOT  8  -357.05947100199     -6.289E-09 8.046E-12 5.597E-07
 ETOT  9  -357.05947100238     -3.928E-10 2.743E-13 3.347E-08
 ETOT 10  -357.05947100240     -1.336E-11 1.574E-14 2.304E-09
 ETOT 11  -357.05947100240     -7.390E-13 1.780E-16 2.021E-10
 ETOT 12  -357.05947100240     -3.411E-13 4.620E-18 1.814E-11
 ETOT 13  -357.05947100240      1.705E-13 1.583E-19 1.706E-12
 ETOT 14  -357.05947100240      4.547E-13 1.206E-19 1.454E-13
 ETOT 15  -357.05947100240     -2.274E-13 2.691E-21 1.353E-14
 ETOT 16  -357.05947100240     -3.411E-13 2.047E-22 1.293E-15
 ETOT 17  -357.05947100240      1.137E-13 1.019E-22 1.103E-16
 ETOT 18  -357.05947100240      1.705E-13 6.587E-24 9.244E-18
 ETOT 19  -357.05947100240     -3.979E-13 1.563E-25 8.263E-19
 ETOT 20  -357.05947100240      4.547E-13 9.951E-27 7.438E-20

 At SCF step   20   max residual=  9.95E-27 < tolwfr=  1.00E-26 =>converged.
-open ddk wf file :t103o_DS3_1WF8
-open ddk wf file :t103o_DS3_1WF7
-open ddk wf file :t103o_DS3_1WF9
================================================================================

 ----iterations are completed or convergence reached----

 Mean square residual over all n,k,spin=   3.5922E-27; max=  9.9509E-27

 Eight components of 2nd-order total energy (hartree) are
 1,2,3: 0th-order hamiltonian combined with 1st-order wavefunctions
     kin0=   5.39197793E+00 eigvalue=  -2.28522633E-01  local=  -2.04723308E+00
 4,5,6: 1st-order hamiltonian combined with 1st and 0th-order wfs
    dotwf=  -7.14118942E+02  Hartree=   4.18720945E+01     xc=  -2.69199694E+01
 7,8,9: eventually, occupation + non-local contributions
    edocc=   3.36938415E+02     enl0=   4.91214908E-02   enl1=   0.00000000E+00
 10: eventually, PAW "on-site" Hxc contribution: epaw1=   2.00358691E+00
 1-10 gives the relaxation energy (to be shifted if some occ is /=2.0)
   erelax=  -3.57059471E+02
  No Ewald or frozen-wf contrib.: the relaxation energy is the total one
 2DEtotal=   -0.3570594710E+03 Ha. Also 2DEtotal=   -0.971608232629E+04 eV
    (  non-var. 2DEtotal :   -3.5705947100E+02 Ha)

--------------------------------------------------------------------------------
 Perturbation wavevector (in red.coord.)   0.000000  0.000000  0.000000
 Perturbation : homogeneous electric field along direction   3
 symkpt : not enough symmetry to change the number of k points.

--------------------------------------------------------------------------------

-inwffil : will read wavefunctions from disk file t103o_DS2_WFK
--------------------------------------------------------------------------------

 Initialisation of the first-order wave-functions :
  ireadwf=   0
-dfpt_looppert : read the wavefunctions from file: t103o_DS3_1WF9

     iter   2DEtotal(Ha)        deltaE(Ha) residm    vres2
-ETOT  1  -345.12364051943     -3.451E+02 2.273E+00 8.873E+03
 ETOT  2  -355.84619074162     -1.072E+01 5.541E-03 9.270E+02
 ETOT  3  -357.04800431580     -1.202E+00 7.426E-04 1.061E+01
 ETOT  4  -357.05926427945     -1.126E-02 8.186E-06 3.705E-01
 ETOT  5  -357.05946561748     -2.013E-04 6.865E-07 9.495E-03
 ETOT  6  -357.05947067283     -5.055E-06 1.675E-08 4.945E-04
 ETOT  7  -357.05947098455     -3.117E-07 4.235E-10 9.705E-06
 ETOT  8  -357.05947099084     -6.290E-09 8.043E-12 5.599E-07
 ETOT  9  -357.05947099124     -3.926E-10 2.741E-13 3.351E-08
 ETOT 10  -357.05947099125     -1.336E-11 1.578E-14 2.304E-09
 ETOT 11  -357.05947099125      0.000E+00 1.791E-16 2.021E-10
 ETOT 12  -357.05947099125      0.000E+00 4.628E-18 1.814E-11
 ETOT 13  -357.05947099125     -3.411E-13 1.583E-19 1.706E-12
 ETOT 14  -357.05947099125     -5.684E-14 1.214E-19 1.454E-13
 ETOT 15  -357.05947099125     -5.684E-14 2.633E-21 1.354E-14
 ETOT 16  -357.05947099125      5.684E-13 2.089E-22 1.294E-15
 ETOT 17  -357.05947099125      0.000E+00 1.042E-22 1.101E-16
 ETOT 18  -357.05947099125     -8.527E-13 6.289E-24 9.239E-18
 ETOT 19  -357.05947099125      5.116E-13 1.499E-25 8.264E-19
 ETOT 20  -357.05947099125     -1.137E-13 9.626E-27 7.443E-20

 At SCF step   20   max residual=  9.63E-27 < tolwfr=  1.00E-26 =>converged.
-open ddk wf file :t103o_DS3_1WF9
-open ddk wf file :t103o_DS3_1WF8
-open ddk wf file :t103o_DS3_1WF7
================================================================================

 ----iterations are completed or convergence reached----

 Mean square residual over all n,k,spin=   4.4257E-27; max=  9.6263E-27

 Eight components of 2nd-order total energy (hartree) are
 1,2,3: 0th-order hamiltonian combined with 1st-order wavefunctions
     kin0=   5.39197793E+00 eigvalue=  -2.28522633E-01  local=  -2.04723308E+00
 4,5,6: 1st-order hamiltonian combined with 1st and 0th-order wfs
    dotwf=  -7.14118942E+02  Hartree=   4.18720945E+01     xc=  -2.69199694E+01
 7,8,9: eventually, occupation + non-local contributions
    edocc=   3.36938415E+02     enl0=   4.91214908E-02   enl1=   0.00000000E+00
 10: eventually, PAW "on-site" Hxc contribution: epaw1=   2.00358691E+00
 1-10 gives the relaxation energy (to be shifted if some occ is /=2.0)
   erelax=  -3.57059471E+02
  No Ewald or frozen-wf contrib.: the relaxation energy is the total one
 2DEtotal=   -0.3570594710E+03 Ha. Also 2DEtotal=   -0.971608232599E+04 eV
    (  non-var. 2DEtotal :   -3.5705947099E+02 Ha)
================================================================================

 ---- first-order wavefunction calculations are completed ----


 ==> Compute Derivative Database <==
  
  2nd-order matrix (non-cartesian coordinates, masses not included,
   asr not included )
     j1       j2             matrix element
  dir pert dir pert     real part     imaginary part
  
   1    1   1    1         5.2473114767         0.0000000000
   1    1   2    1         2.6236557384         0.0000000000
   1    1   3    1         2.6236557384         0.0000000000
   1    1   1    2        -5.3320415123        -0.0000000000
   1    1   2    2        -2.6660207561         0.0000000000
   1    1   3    2        -2.6660207561         0.0000000000
   1    1   1    4        -7.2239720754         0.0000000000
   1    1   2    4         0.0000000000         0.0000000000
   1    1   3    4         0.0000000000         0.0000000000
  
   2    1   1    1         2.6236557384         0.0000000000
   2    1   2    1         5.2473114767         0.0000000000
   2    1   3    1         2.6236557384         0.0000000000
   2    1   1    2        -2.6660207561         0.0000000000
   2    1   2    2        -5.3320415123         0.0000000000
   2    1   3    2        -2.6660207561        -0.0000000000
   2    1   1    4         0.0000000000         0.0000000000
   2    1   2    4        -7.2239720754         0.0000000000
   2    1   3    4        -0.0000000000         0.0000000000
  
   3    1   1    1         2.6236557384         0.0000000000
   3    1   2    1         2.6236557384         0.0000000000
   3    1   3    1         5.2473114767         0.0000000000
   3    1   1    2        -2.6660207561         0.0000000000
   3    1   2    2        -2.6660207561        -0.0000000000
   3    1   3    2        -5.3320415123         0.0000000000
   3    1   1    4        -0.0000000000         0.0000000000
   3    1   2    4        -0.0000000000         0.0000000000
   3    1   3    4        -7.2239720754         0.0000000000
  
   1    2   1    1        -5.3320413824         0.0000000000
   1    2   2    1        -2.6660206912        -0.0000000000
   1    2   3    1        -2.6660206912        -0.0000000000
   1    2   1    2         5.3205934249         0.0000000000
   1    2   2    2         2.6602967124         0.0000000000
   1    2   3    2         2.6602967124         0.0000000000
   1    2   1    4       -52.2231657636         0.0000000000
   1    2   2    4         0.0000000000         0.0000000000
   1    2   3    4         0.0000000000         0.0000000000
  
   2    2   1    1        -2.6660206912        -0.0000000000
   2    2   2    1        -5.3320413824        -0.0000000000
   2    2   3    1        -2.6660206912         0.0000000000
   2    2   1    2         2.6602967124         0.0000000000
   2    2   2    2         5.3205934249         0.0000000000
   2    2   3    2         2.6602967124         0.0000000000
   2    2   1    4        -0.0000000000         0.0000000000
   2    2   2    4       -52.2231657636         0.0000000000
   2    2   3    4         0.0000000000         0.0000000000
  
   3    2   1    1        -2.6660206912        -0.0000000000
   3    2   2    1        -2.6660206912         0.0000000000
   3    2   3    1        -5.3320413824        -0.0000000000
   3    2   1    2         2.6602967124         0.0000000000
   3    2   2    2         2.6602967124         0.0000000000
   3    2   3    2         5.3205934249         0.0000000000
   3    2   1    4        -0.0000000000         0.0000000000
   3    2   2    4        -0.0000000000         0.0000000000
   3    2   3    4       -52.2231657636         0.0000000000
  
   1    4   1    1        -7.2239721093         0.0000000000
   1    4   2    1         0.0000000000         0.0000000000
   1    4   3    1        -0.0000000000         0.0000000000
   1    4   1    2       -52.2231659098         0.0000000000
   1    4   2    2        -0.0000000000         0.0000000000
   1    4   3    2        -0.0000000000         0.0000000000
   1    4   1    4      -357.0594710024         0.0000000000
   1    4   2    4       119.0198236675         0.0000000000
   1    4   3    4       119.0198236675         0.0000000000
  
   2    4   1    1         0.0000000000         0.0000000000
   2    4   2    1        -7.2239721093         0.0000000000
   2    4   3    1        -0.0000000000         0.0000000000
   2    4   1    2         0.0000000000         0.0000000000
   2    4   2    2       -52.2231659097         0.0000000000
   2    4   3    2        -0.0000000000         0.0000000000
   2    4   1    4       119.0198236675         0.0000000000
   2    4   2    4      -357.0594710024         0.0000000000
   2    4   3    4       119.0198236675         0.0000000000
  
   3    4   1    1         0.0000000000         0.0000000000
   3    4   2    1        -0.0000000000         0.0000000000
   3    4   3    1        -7.2239721093         0.0000000000
   3    4   1    2         0.0000000000         0.0000000000
   3    4   2    2         0.0000000000         0.0000000000
   3    4   3    2       -52.2231659097         0.0000000000
   3    4   1    4       119.0198236675         0.0000000000
   3    4   2    4       119.0198236675         0.0000000000
   3    4   3    4      -357.0594710024         0.0000000000
  
   1    5   1    4        -0.0000000035         0.0000000000
   1    5   2    4         0.0000000383         0.0000000000
   1    5   3    4        -0.0000000203         0.0000000000
  
   2    5   1    4         0.0000000160         0.0000000000
   2    5   2    4         0.0000000146         0.0000000000
   2    5   3    4        -0.0000000202         0.0000000000
  
   3    5   1    4        -0.0000000860         0.0000000000
   3    5   2    4         0.0000001024         0.0000000000
   3    5   3    4        -0.0000000579         0.0000000000
  
   1    6   1    4         2.5358558818         0.0000000000
   1    6   2    4        -2.5358559685         0.0000000000
   1    6   3    4        -2.5358558485         0.0000000000
  
   2    6   1    4        -2.5358559085         0.0000000000
   2    6   2    4         2.5358559044         0.0000000000
   2    6   3    4        -2.5358559155         0.0000000000
  
   3    6   1    4        -2.5358558918         0.0000000000
   3    6   2    4        -2.5358559137         0.0000000000
   3    6   3    4         2.5358558994         0.0000000000
  
  
  Dynamical matrix, in cartesian coordinates,
   if specified in the inputs, asr has been imposed
     j1       j2             matrix element
  dir pert dir pert     real part    imaginary part
  
   1    1   1    1         0.0927008218         0.0000000000
   1    1   2    1        -0.0000000000         0.0000000000
   1    1   3    1        -0.0000000000         0.0000000000
   1    1   1    2        -0.0941976919        -0.0000000000
   1    1   2    2         0.0000000000         0.0000000000
   1    1   3    2         0.0000000000         0.0000000000
  
   2    1   1    1        -0.0000000000         0.0000000000
   2    1   2    1         0.0927008218         0.0000000000
   2    1   3    1        -0.0000000000         0.0000000000
   2    1   1    2         0.0000000000         0.0000000000
   2    1   2    2        -0.0941976919         0.0000000000
   2    1   3    2         0.0000000000        -0.0000000000
  
   3    1   1    1        -0.0000000000         0.0000000000
   3    1   2    1        -0.0000000000         0.0000000000
   3    1   3    1         0.0927008218         0.0000000000
   3    1   1    2         0.0000000000         0.0000000000
   3    1   2    2         0.0000000000        -0.0000000000
   3    1   3    2        -0.0941976919         0.0000000000
  
   1    2   1    1        -0.0941976896         0.0000000000
   1    2   2    1         0.0000000000        -0.0000000000
   1    2   3    1         0.0000000000        -0.0000000000
   1    2   1    2         0.0939954461         0.0000000000
   1    2   2    2        -0.0000000000         0.0000000000
   1    2   3    2         0.0000000000         0.0000000000
  
   2    2   1    1         0.0000000000        -0.0000000000
   2    2   2    1        -0.0941976896        -0.0000000000
   2    2   3    1         0.0000000000         0.0000000000
   2    2   1    2         0.0000000000         0.0000000000
   2    2   2    2         0.0939954461         0.0000000000
   2    2   3    2        -0.0000000000         0.0000000000
  
   3    2   1    1         0.0000000000        -0.0000000000
   3    2   2    1         0.0000000000         0.0000000000
   3    2   3    1        -0.0941976896        -0.0000000000
   3    2   1    2         0.0000000000         0.0000000000
   3    2   2    2         0.0000000000         0.0000000000
   3    2   3    2         0.0939954461         0.0000000000
  
  Dielectric tensor, in cartesian coordinates,
     j1       j2             matrix element
  dir pert dir pert     real part    imaginary part
  
   1    4   1    4        15.2425513253        -0.0000000000
   1    4   2    4        -0.0000000000        -0.0000000000
   1    4   3    4        -0.0000000000        -0.0000000000
  
   2    4   1    4        -0.0000000000        -0.0000000000
   2    4   2    4        15.2425513253        -0.0000000000
   2    4   3    4        -0.0000000000        -0.0000000000
  
   3    4   1    4        -0.0000000000        -0.0000000000
   3    4   2    4        -0.0000000000        -0.0000000000
   3    4   3    4        15.2425513253        -0.0000000000
  
  Effective charges, in cartesian coordinates,
  (from electric field response) 
   if specified in the inputs, asr has been imposed
     j1       j2             matrix element
  dir pert dir pert     real part    imaginary part
  
   1    1   1    4         1.8502691354         0.0000000000
   2    1   1    4         0.0000000000         0.0000000000
   3    1   1    4         0.0000000000         0.0000000000
   1    2   1    4        -3.3115749752         0.0000000000
   2    2   1    4         0.0000000000         0.0000000000
   3    2   1    4         0.0000000000         0.0000000000
  
   1    1   2    4         0.0000000000         0.0000000000
   2    1   2    4         1.8502691354         0.0000000000
   3    1   2    4        -0.0000000000         0.0000000000
   1    2   2    4         0.0000000000         0.0000000000
   2    2   2    4        -3.3115749752         0.0000000000
   3    2   2    4        -0.0000000000         0.0000000000
  
   1    1   3    4         0.0000000000         0.0000000000
   2    1   3    4        -0.0000000000         0.0000000000
   3    1   3    4         1.8502691354         0.0000000000
   1    2   3    4         0.0000000000         0.0000000000
   2    2   3    4        -0.0000000000         0.0000000000
   3    2   3    4        -3.3115749752         0.0000000000
  
  Effective charges, in cartesian coordinates,
  (from phonon response) 
   if specified in the inputs, asr has been imposed
     j1       j2             matrix element
  dir pert dir pert     real part    imaginary part
  
   1    4   1    1         1.8502691300         0.0000000000
   2    4   1    1         0.0000000000         0.0000000000
   3    4   1    1         0.0000000000         0.0000000000
  
   1    4   2    1         0.0000000000         0.0000000000
   2    4   2    1         1.8502691300         0.0000000000
   3    4   2    1        -0.0000000000         0.0000000000
  
   1    4   3    1         0.0000000000         0.0000000000
   2    4   3    1        -0.0000000000         0.0000000000
   3    4   3    1         1.8502691301         0.0000000000
  
   1    4   1    2        -3.3115749984         0.0000000000
   2    4   1    2         0.0000000000         0.0000000000
   3    4   1    2        -0.0000000000         0.0000000000
  
   1    4   2    2         0.0000000000         0.0000000000
   2    4   2    2        -3.3115749984         0.0000000000
   3    4   2    2        -0.0000000000         0.0000000000
  
   1    4   3    2         0.0000000000         0.0000000000
   2    4   3    2        -0.0000000000         0.0000000000
   3    4   3    2        -3.3115749984         0.0000000000
  
  
  
  
  Warning: The rigid-atom proper piezoelectric tensor
  from  electric field response requires nsym=1

  Phonon wavevector (reduced coordinates) :  0.00000  0.00000  0.00000
 Phonon energies in Hartree :
  -9.596818E-05 -9.596818E-05 -9.596818E-05  1.606926E-03  1.606926E-03
   1.606926E-03
 Phonon frequencies in cm-1    :
- -2.106258E+01 -2.106258E+01 -2.106258E+01  3.526796E+02  3.526796E+02
-  3.526796E+02

  Phonon at Gamma, with non-analyticity in the
  direction (cartesian coordinates)  1.00000  0.00000  0.00000
 Phonon energies in Hartree :
  -9.596818E-05 -9.596818E-05  1.314182E-04  1.606926E-03  1.606926E-03
   1.722243E-03
 Phonon frequencies in cm-1    :
- -2.106258E+01 -2.106258E+01  2.884295E+01  3.526796E+02  3.526796E+02
-  3.779888E+02

  Phonon at Gamma, with non-analyticity in the
  direction (cartesian coordinates)  0.00000  1.00000  0.00000
 Phonon energies in Hartree :
  -9.596818E-05 -9.596818E-05  1.314182E-04  1.606926E-03  1.606926E-03
   1.722243E-03
 Phonon frequencies in cm-1    :
- -2.106258E+01 -2.106258E+01  2.884295E+01  3.526796E+02  3.526796E+02
-  3.779888E+02

  Phonon at Gamma, with non-analyticity in the
  direction (cartesian coordinates)  0.00000  0.00000  1.00000
 Phonon energies in Hartree :
  -9.596818E-05 -9.596818E-05  1.314182E-04  1.606926E-03  1.606926E-03
   1.722243E-03
 Phonon frequencies in cm-1    :
- -2.106258E+01 -2.106258E+01  2.884295E+01  3.526796E+02  3.526796E+02
-  3.779888E+02

================================================================================
== DATASET  5 ==================================================================
-   nproc =    1

 mkfilename : getwfk/=0, take file _WFK from output of DATASET   2.

 mkfilename : getddk/=0, take file _1WF from output of DATASET   3.

 mkfilename : getden/=0, take file _DEN from output of DATASET   2.

 Exchange-correlation functional for the present dataset will be:
  LDA: Perdew-Wang 92 LSD fit to Ceperley-Alder data - ixc=7
 Citation for XC functional:
  J.P.Perdew and Y.Wang, PRB 45, 13244 (1992)

 Real(R)+Recip(G) space primitive vectors, cartesian coordinates (Bohr,Bohr^-1):
 R(1)=  0.0000000  5.3200000  5.3200000  G(1)= -0.0939850  0.0939850  0.0939850
 R(2)=  5.3200000  0.0000000  5.3200000  G(2)=  0.0939850 -0.0939850  0.0939850
 R(3)=  5.3200000  5.3200000  0.0000000  G(3)=  0.0939850  0.0939850 -0.0939850
 Unit cell volume ucvol=  3.0113754E+02 bohr^3
 Angles (23,13,12)=  6.00000000E+01  6.00000000E+01  6.00000000E+01 degrees

 Coarse grid specifications (used for wave-functions):

 getcut: wavevector=  0.0000  0.0000  0.0000  ngfft=  12  12  12
         ecut(hartree)=      3.000   => boxcut(ratio)=   2.04564

 Fine grid specifications (used for densities):

 getcut: wavevector=  0.0000  0.0000  0.0000  ngfft=  18  18  18
         ecut(hartree)=      6.000   => boxcut(ratio)=   2.17641
--------------------------------------------------------------------------------

-inwffil : will read wavefunctions from disk file t103o_DS2_WFK

 ==>  initialize data related to q vector <== 

 The list of irreducible perturbations for this q vector is:

================================================================================

--------------------------------------------------------------------------------
 Perturbation wavevector (in red.coord.)   0.000000  0.000000  0.000000
 Perturbation : 2nd derivative wrt k, idir1 = 1 idir2 = 1

 dfpt_looppert : COMMENT -
  In this case, iscf is set to -3 automatically.
 symkpt : not enough symmetry to change the number of k points.

--------------------------------------------------------------------------------

-inwffil : will read wavefunctions from disk file t103o_DS2_WFK
--------------------------------------------------------------------------------

 Initialisation of the first-order wave-functions :
  ireadwf=   0
-dfpt_looppert : read the wavefunctions from file: t103o_DS3_1WF7

     iter   2DEtotal(Ha)        deltaE(Ha) residm    vres2
-ETOT  1   966.76392618050      9.668E+02 7.442E-27 0.000E+00

 At SCF step    1   max residual=  7.44E-27 < tolwfr=  1.00E-26 =>converged.
================================================================================

 ----iterations are completed or convergence reached----

 Mean square residual over all n,k,spin=   9.3425E-28; max=  7.4417E-27

 Two components of 2nd-order total energy (hartree) are
 1,2,3: 0th-order hamiltonian combined with 1st-order wavefunctions
     kin0=   2.94401336E+03 eigvalue=  -1.02417192E+02  local=  -2.56817528E+03
 4,5,6: 1st-order hamiltonian combined with 1st and 0th-order wfs
 loc psp =   0.00000000E+00  Hartree=   0.00000000E+00     xc=   0.00000000E+00
 note that "loc psp" includes a xc core correction that could be resolved
 7,8,9: eventually, occupation + non-local contributions
    edocc=   0.00000000E+00     enl0=   2.64788942E+02   enl1=   0.00000000E+00
 10: eventually, PAW "on-site" Hxc contribution: epaw1=   0.00000000E+00

--------------------------------------------------------------------------------
 Perturbation wavevector (in red.coord.)   0.000000  0.000000  0.000000
 Perturbation : 2nd derivative wrt k, idir1 = 2 idir2 = 2
 symkpt : not enough symmetry to change the number of k points.

--------------------------------------------------------------------------------

-inwffil : will read wavefunctions from disk file t103o_DS2_WFK
--------------------------------------------------------------------------------

 Initialisation of the first-order wave-functions :
  ireadwf=   0
-dfpt_looppert : read the wavefunctions from file: t103o_DS3_1WF8

     iter   2DEtotal(Ha)        deltaE(Ha) residm    vres2
-ETOT  1   966.76392611610      9.668E+02 7.444E-27 0.000E+00

 At SCF step    1   max residual=  7.44E-27 < tolwfr=  1.00E-26 =>converged.
================================================================================

 ----iterations are completed or convergence reached----

 Mean square residual over all n,k,spin=   8.8136E-28; max=  7.4438E-27

 Two components of 2nd-order total energy (hartree) are
 1,2,3: 0th-order hamiltonian combined with 1st-order wavefunctions
     kin0=   2.94401336E+03 eigvalue=  -1.02417192E+02  local=  -2.56817528E+03
 4,5,6: 1st-order hamiltonian combined with 1st and 0th-order wfs
 loc psp =   0.00000000E+00  Hartree=   0.00000000E+00     xc=   0.00000000E+00
 note that "loc psp" includes a xc core correction that could be resolved
 7,8,9: eventually, occupation + non-local contributions
    edocc=   0.00000000E+00     enl0=   2.64788942E+02   enl1=   0.00000000E+00
 10: eventually, PAW "on-site" Hxc contribution: epaw1=   0.00000000E+00

--------------------------------------------------------------------------------
 Perturbation wavevector (in red.coord.)   0.000000  0.000000  0.000000
 Perturbation : 2nd derivative wrt k, idir1 = 2 idir2 = 3
 symkpt : not enough symmetry to change the number of k points.

--------------------------------------------------------------------------------

-inwffil : will read wavefunctions from disk file t103o_DS2_WFK
--------------------------------------------------------------------------------

 Initialisation of the first-order wave-functions :
  ireadwf=   0
-dfpt_looppert : read the wavefunctions from file: t103o_DS3_1WF8
-dfpt_looppert : read the wavefunctions from file: t103o_DS3_1WF9

     iter   2DEtotal(Ha)        deltaE(Ha) residm    vres2
-ETOT  1   264.88049987338      2.649E+02 8.692E-27 0.000E+00

 At SCF step    1   max residual=  8.69E-27 < tolwfr=  1.00E-26 =>converged.
================================================================================

 ----iterations are completed or convergence reached----

 Mean square residual over all n,k,spin=   1.1838E-27; max=  8.6922E-27

 Two components of 2nd-order total energy (hartree) are
 1,2,3: 0th-order hamiltonian combined with 1st-order wavefunctions
     kin0=   1.20936511E+03 eigvalue=  -4.67634290E+01  local=  -9.79024695E+02
 4,5,6: 1st-order hamiltonian combined with 1st and 0th-order wfs
 loc psp =   0.00000000E+00  Hartree=   0.00000000E+00     xc=   0.00000000E+00
 note that "loc psp" includes a xc core correction that could be resolved
 7,8,9: eventually, occupation + non-local contributions
    edocc=   0.00000000E+00     enl0=   9.33427964E+01   enl1=   0.00000000E+00
 10: eventually, PAW "on-site" Hxc contribution: epaw1=   0.00000000E+00

--------------------------------------------------------------------------------
 Perturbation wavevector (in red.coord.)   0.000000  0.000000  0.000000
 Perturbation : 2nd derivative wrt k, idir1 = 1 idir2 = 2
 symkpt : not enough symmetry to change the number of k points.

--------------------------------------------------------------------------------

-inwffil : will read wavefunctions from disk file t103o_DS2_WFK
--------------------------------------------------------------------------------

 Initialisation of the first-order wave-functions :
  ireadwf=   0
-dfpt_looppert : read the wavefunctions from file: t103o_DS3_1WF7
-dfpt_looppert : read the wavefunctions from file: t103o_DS3_1WF8

     iter   2DEtotal(Ha)        deltaE(Ha) residm    vres2
-ETOT  1   264.88049988887      2.649E+02 8.692E-27 0.000E+00

 At SCF step    1   max residual=  8.69E-27 < tolwfr=  1.00E-26 =>converged.
================================================================================

 ----iterations are completed or convergence reached----

 Mean square residual over all n,k,spin=   1.1839E-27; max=  8.6916E-27

 Two components of 2nd-order total energy (hartree) are
 1,2,3: 0th-order hamiltonian combined with 1st-order wavefunctions
     kin0=   1.20936511E+03 eigvalue=  -4.67634290E+01  local=  -9.79024695E+02
 4,5,6: 1st-order hamiltonian combined with 1st and 0th-order wfs
 loc psp =   0.00000000E+00  Hartree=   0.00000000E+00     xc=   0.00000000E+00
 note that "loc psp" includes a xc core correction that could be resolved
 7,8,9: eventually, occupation + non-local contributions
    edocc=   0.00000000E+00     enl0=   9.33427964E+01   enl1=   0.00000000E+00
 10: eventually, PAW "on-site" Hxc contribution: epaw1=   0.00000000E+00
================================================================================

 ---- first-order wavefunction calculations are completed ----


 respfn : d/dk was computed, but no 2DTE, so no DDB output.

================================================================================
== DATASET  6 ==================================================================
-   nproc =    1

 mkfilename : getwfk/=0, take file _WFK from output of DATASET   2.

 mkfilename : getddk/=0, take file _1WF from output of DATASET   3.

 mkfilename : getdelfd/=0, take file _1WF from output of DATASET   4.

 mkfilename : getdkdk/=0, take file _1WF from output of DATASET   5.

 mkfilename : getden/=0, take file _DEN from output of DATASET   2.

 mkfilename : get1den/=0, take file _DEN from output of DATASET   4.

 Exchange-correlation functional for the present dataset will be:
  LDA: Perdew-Wang 92 LSD fit to Ceperley-Alder data - ixc=7
 Citation for XC functional:
  J.P.Perdew and Y.Wang, PRB 45, 13244 (1992)

 Real(R)+Recip(G) space primitive vectors, cartesian coordinates (Bohr,Bohr^-1):
 R(1)=  0.0000000  5.3200000  5.3200000  G(1)= -0.0939850  0.0939850  0.0939850
 R(2)=  5.3200000  0.0000000  5.3200000  G(2)=  0.0939850 -0.0939850  0.0939850
 R(3)=  5.3200000  5.3200000  0.0000000  G(3)=  0.0939850  0.0939850 -0.0939850
 Unit cell volume ucvol=  3.0113754E+02 bohr^3
 Angles (23,13,12)=  6.00000000E+01  6.00000000E+01  6.00000000E+01 degrees

 Coarse grid specifications (used for wave-functions):

 getcut: wavevector=  0.0000  0.0000  0.0000  ngfft=  12  12  12
         ecut(hartree)=      3.000   => boxcut(ratio)=   2.04564

 Fine grid specifications (used for densities):

 getcut: wavevector=  0.0000  0.0000  0.0000  ngfft=  18  18  18
         ecut(hartree)=      6.000   => boxcut(ratio)=   2.17641
--------------------------------------------------------------------------------

-inwffil : will read wavefunctions from disk file t103o_DS2_WFK

 ==>  initialize data related to q vector <== 

 The list of irreducible perturbations for this q vector is:

================================================================================

--------------------------------------------------------------------------------
 Perturbation wavevector (in red.coord.)   0.000000  0.000000  0.000000
 Perturbation : 2nd derivative wrt k (idir1 =1) and Efield (idir2 =1)

 dfpt_looppert : COMMENT -
  In this case, iscf is set to -3 automatically.
 symkpt : not enough symmetry to change the number of k points.

--------------------------------------------------------------------------------

-inwffil : will read wavefunctions from disk file t103o_DS2_WFK
--------------------------------------------------------------------------------

 Initialisation of the first-order wave-functions :
  ireadwf=   0
-dfpt_looppert : read the wavefunctions from file: t103o_DS5_1WF25
-dfpt_looppert : read the wavefunctions from file: t103o_DS4_1WF10
-dfpt_looppert : read the wavefunctions from file: t103o_DS3_1WF7

     iter   2DEtotal(Ha)        deltaE(Ha) residm    vres2
-ETOT  1  -20004.028191664     -2.000E+04 4.186E-27 0.000E+00

 At SCF step    1   max residual=  4.19E-27 < tolwfr=  1.00E-26 =>converged.
================================================================================

 ----iterations are completed or convergence reached----

 Mean square residual over all n,k,spin=   7.1671E-28; max=  4.1858E-27

 Two components of 2nd-order total energy (hartree) are
 1,2,3: 0th-order hamiltonian combined with 1st-order wavefunctions
     kin0=   5.73956258E+04 eigvalue=  -4.48886449E+02  local=  -5.51398704E+04
 4,5,6: 1st-order hamiltonian combined with 1st and 0th-order wfs
 loc psp =   0.00000000E+00  Hartree=   0.00000000E+00     xc=   0.00000000E+00
 note that "loc psp" includes a xc core correction that could be resolved
 7,8,9: eventually, occupation + non-local contributions
    edocc=   0.00000000E+00     enl0=   1.83494040E+04   enl1=   0.00000000E+00
 10: eventually, PAW "on-site" Hxc contribution: epaw1=   2.00358691E+00

--------------------------------------------------------------------------------
 Perturbation wavevector (in red.coord.)   0.000000  0.000000  0.000000
 Perturbation : 2nd derivative wrt k (idir1 =2) and Efield (idir2 =2)
 symkpt : not enough symmetry to change the number of k points.

--------------------------------------------------------------------------------

-inwffil : will read wavefunctions from disk file t103o_DS2_WFK
--------------------------------------------------------------------------------

 Initialisation of the first-order wave-functions :
  ireadwf=   0
-dfpt_looppert : read the wavefunctions from file: t103o_DS5_1WF26
-dfpt_looppert : read the wavefunctions from file: t103o_DS4_1WF11
-dfpt_looppert : read the wavefunctions from file: t103o_DS3_1WF8

     iter   2DEtotal(Ha)        deltaE(Ha) residm    vres2
-ETOT  1  -20004.028192331     -2.000E+04 8.417E-27 0.000E+00

 At SCF step    1   max residual=  8.42E-27 < tolwfr=  1.00E-26 =>converged.
================================================================================

[...]
      1      1      2         -0.000000001
      1      1      3          0.000000000
      1      2      1         -0.000000001
      1      2      2          0.000000001
      1      2      3         49.202050992
      1      3      1          0.000000000
      1      3      2         49.202050992
      1      3      3         -0.000000002
      2      1      1         -0.000000001
      2      1      2          0.000000001
      2      1      3         49.202050992
      2      2      1          0.000000001
      2      2      2         -0.000000002
      2      2      3         -0.000000001
      2      3      1         49.202050992
      2      3      2         -0.000000001
      2      3      3         -0.000000001
      3      1      1          0.000000000
      3      1      2         49.202050992
      3      1      3         -0.000000002
      3      2      1         49.202050992
      3      2      2         -0.000000001
      3      2      3         -0.000000001
      3      3      1         -0.000000002
      3      3      2         -0.000000001
      3      3      3         -0.000000004
 

  First-order change in the electronic dielectric 
  susceptibility tensor (Bohr^-1)
  induced by an atomic displacement
   atom  displacement
    1          1       -0.000000000       -0.000000000       -0.000000000
                       -0.000000000       -0.000000000       -0.197443527
                       -0.000000000       -0.197443527        0.000000000
    1          2        0.000000000       -0.000000000       -0.197443527
                       -0.000000000       -0.000000000       -0.000000000
                       -0.197443527       -0.000000000       -0.000000000
    1          3       -0.000000000       -0.197443527       -0.000000000
                       -0.197443527       -0.000000000       -0.000000000
                       -0.000000000       -0.000000000       -0.000000000

    2          1        0.000000000        0.000000000        0.000000000
                        0.000000000       -0.000000000        0.204011045
                       -0.000000000        0.204011045       -0.000000000
    2          2       -0.000000000        0.000000000        0.204011045
                        0.000000000        0.000000000        0.000000000
                        0.204011045        0.000000000        0.000000000
    2          3        0.000000000        0.204011045        0.000000000
                        0.204011045       -0.000000000        0.000000000
                        0.000000000        0.000000000        0.000000000


== END DATASET(S) ==============================================================
================================================================================
  
 -outvars: echo values of variables after computation  --------
            acell      1.0640000000E+01  1.0640000000E+01  1.0640000000E+01 Bohr
              amu      2.69815390E+01  7.49215900E+01
  d3e_pert1_atpol3          1       1
  d3e_pert1_atpol4          1       1
  d3e_pert1_atpol5          1       1
  d3e_pert1_atpol6          1       1
  d3e_pert1_atpol7          1       2
    d3e_pert1_dir3          0       0       0
    d3e_pert1_dir4          0       0       0
    d3e_pert1_dir5          0       0       0
    d3e_pert1_dir6          0       0       0
    d3e_pert1_dir7          1       1       1
   d3e_pert1_elfd3          0
   d3e_pert1_elfd4          0
   d3e_pert1_elfd5          0
   d3e_pert1_elfd6          0
   d3e_pert1_elfd7          1
   d3e_pert1_phon3          0
   d3e_pert1_phon4          0
   d3e_pert1_phon5          0
   d3e_pert1_phon6          0
   d3e_pert1_phon7          1
    d3e_pert2_dir3          0       0       0
    d3e_pert2_dir4          0       0       0
    d3e_pert2_dir5          0       0       0
    d3e_pert2_dir6          0       0       0
    d3e_pert2_dir7          1       1       1
   d3e_pert2_elfd3          0
   d3e_pert2_elfd4          0
   d3e_pert2_elfd5          0
   d3e_pert2_elfd6          0
   d3e_pert2_elfd7          1
    d3e_pert3_dir3          0       0       0
    d3e_pert3_dir4          0       0       0
    d3e_pert3_dir5          0       0       0
    d3e_pert3_dir6          0       0       0
    d3e_pert3_dir7          1       1       1
   d3e_pert3_elfd3          0
   d3e_pert3_elfd4          0
   d3e_pert3_elfd5          0
   d3e_pert3_elfd6          0
   d3e_pert3_elfd7          1
             ecut      3.00000000E+00 Hartree
           etotal3    -1.0110180092E+01
           etotal4    -3.5705947099E+02
           etotal5     2.6488049989E+02
           etotal6    -6.7314437270E+03
           etotal7     0.0000000000E+00
            fcart3     0.0000000000E+00  0.0000000000E+00  0.0000000000E+00
                       0.0000000000E+00  0.0000000000E+00  0.0000000000E+00
            fcart4     0.0000000000E+00  0.0000000000E+00  0.0000000000E+00
                       0.0000000000E+00  0.0000000000E+00  0.0000000000E+00
            fcart5     0.0000000000E+00  0.0000000000E+00  0.0000000000E+00
                       0.0000000000E+00  0.0000000000E+00  0.0000000000E+00
            fcart6     0.0000000000E+00  0.0000000000E+00  0.0000000000E+00
                       0.0000000000E+00  0.0000000000E+00  0.0000000000E+00
            fcart7     0.0000000000E+00  0.0000000000E+00  0.0000000000E+00
                       0.0000000000E+00  0.0000000000E+00  0.0000000000E+00
-          fftalg         312
           getddk3          0
           getddk4          3
           getddk5          3
           getddk6          3
           getddk7          3
         getdelfd3          0
         getdelfd4          0
         getdelfd5          0
         getdelfd6          4
         getdelfd7          0
          getdkdk3          0
          getdkdk4          0
          getdkdk5          0
          getdkdk6          5
          getdkdk7          0
          getdkde3          0
          getdkde4          0
          getdkde5          0
          getdkde6          0
          getdkde7          6
           getden           2
           getwfk           2
          get1den3          0
          get1den4          0
          get1den5          0
          get1den6          4
          get1den7          4
           get1wf3          0
           get1wf4          0
           get1wf5          0
           get1wf6          0
           get1wf7          4
             iscf3          7
             iscf4          7
             iscf5          7
             iscf6          7
             iscf7         17
              ixc           7
           jdtset        3    4    5    6    7
              kpt     -2.50000000E-01  5.00000000E-01  0.00000000E+00
                       5.00000000E-01 -2.50000000E-01  0.00000000E+00
                      -2.50000000E-01 -2.50000000E-01  2.50000000E-01
                      -2.50000000E-01  0.00000000E+00  0.00000000E+00
                      -2.50000000E-01  2.50000000E-01  2.50000000E-01
                       5.00000000E-01  5.00000000E-01  2.50000000E-01
                      -2.50000000E-01  5.00000000E-01  5.00000000E-01
                       0.00000000E+00 -2.50000000E-01  0.00000000E+00
                       2.50000000E-01 -2.50000000E-01  2.50000000E-01
                       5.00000000E-01 -2.50000000E-01  5.00000000E-01
                      -2.50000000E-01 -2.50000000E-01 -2.50000000E-01
                       5.00000000E-01  0.00000000E+00  2.50000000E-01
                      -2.50000000E-01  0.00000000E+00  5.00000000E-01
                       0.00000000E+00  5.00000000E-01  2.50000000E-01
                       0.00000000E+00 -2.50000000E-01  5.00000000E-01
                       0.00000000E+00  0.00000000E+00  2.50000000E-01
           kptopt           2
         kptrlatt        2   -2    2     -2    2    2     -2   -2    2
          kptrlen      2.12800000E+01
P           mkmem          16
P          mkqmem          16
P          mk1mem          16
            natom           2
            nband           8
           ndtset           5
            ngfft          12      12      12
          ngfftdg          18      18      18
             nkpt          16
            nline3        100
            nline4          4
            nline5        100
            nline6        100
            nline7          4
           nspden           2
           nsppol           2
            nstep3          1
            nstep4        100
            nstep5          1
            nstep6          1
            nstep7        100
             nsym          24
           ntypat           2
              occ      1.000000  1.000000  1.000000  1.000000  0.000000  0.000000
                       0.000000  0.000000
                       1.000000  1.000000  1.000000  1.000000  0.000000  0.000000
                       0.000000  0.000000
        optdriver3          1
        optdriver4          1
        optdriver5          1
        optdriver6          1
        optdriver7          5
        pawecutdg      6.00000000E+00 Hartree
         pawxcdev           0
          prepanl3          0
          prepanl4          1
          prepanl5          1
          prepanl6          1
          prepanl7          0
          rfatpol3          1       1
          rfatpol4          1       2
          rfatpol5          1       1
          rfatpol6          1       1
          rfatpol7          1       1
            rfddk3          1
            rfddk4          0
            rfddk5          0
            rfddk6          0
            rfddk7          0
            rfdir3          1       1       1
            rfdir4          1       1       1
            rfdir5          1       1       1
            rfdir6          1       1       1
            rfdir7          0       0       0
           rfelfd3          0
           rfelfd4          3
           rfelfd5          0
           rfelfd6          0
           rfelfd7          0
           rfphon3          0
           rfphon4          1
           rfphon5          0
           rfphon6          0
           rfphon7          0
         rf2_dkdk3          0
         rf2_dkdk4          0
         rf2_dkdk5          1
         rf2_dkdk6          0
         rf2_dkdk7          0
         rf2_dkde3          0
         rf2_dkde4          0
         rf2_dkde5          0
         rf2_dkde6          1
         rf2_dkde7          0
    rf2_pert1_dir3          0       0       0
    rf2_pert1_dir4          0       0       0
    rf2_pert1_dir5          1       1       1
    rf2_pert1_dir6          1       1       1
    rf2_pert1_dir7          0       0       0
    rf2_pert2_dir3          0       0       0
    rf2_pert2_dir4          0       0       0
    rf2_pert2_dir5          1       1       1
    rf2_pert2_dir6          1       1       1
    rf2_pert2_dir7          0       0       0
            rprim      0.0000000000E+00  5.0000000000E-01  5.0000000000E-01
                       5.0000000000E-01  0.0000000000E+00  5.0000000000E-01
                       5.0000000000E-01  5.0000000000E-01  0.0000000000E+00
           shiftk      5.00000000E-01  5.00000000E-01  5.00000000E-01
          spgroup         216
   spinmagntarget      0.00000000E+00
           strten3     0.0000000000E+00  0.0000000000E+00  0.0000000000E+00
                       0.0000000000E+00  0.0000000000E+00  0.0000000000E+00
           strten4     0.0000000000E+00  0.0000000000E+00  0.0000000000E+00
                       0.0000000000E+00  0.0000000000E+00  0.0000000000E+00
           strten5     0.0000000000E+00  0.0000000000E+00  0.0000000000E+00
                       0.0000000000E+00  0.0000000000E+00  0.0000000000E+00
           strten6     0.0000000000E+00  0.0000000000E+00  0.0000000000E+00
                       0.0000000000E+00  0.0000000000E+00  0.0000000000E+00
           strten7     0.0000000000E+00  0.0000000000E+00  0.0000000000E+00
                       0.0000000000E+00  0.0000000000E+00  0.0000000000E+00
           symrel      1  0  0   0  1  0   0  0  1       0 -1  1   0 -1  0   1 -1  0
                      -1  0  0  -1  0  1  -1  1  0       0  1 -1   1  0 -1   0  0 -1
                      -1  0  0  -1  1  0  -1  0  1       0 -1  1   1 -1  0   0 -1  0
                       1  0  0   0  0  1   0  1  0       0  1 -1   0  0 -1   1  0 -1
                      -1  0  1  -1  1  0  -1  0  0       0 -1  0   1 -1  0   0 -1  1
                       1  0 -1   0  0 -1   0  1 -1       0  1  0   0  0  1   1  0  0
                       1  0 -1   0  1 -1   0  0 -1       0 -1  0   0 -1  1   1 -1  0
                      -1  0  1  -1  0  0  -1  1  0       0  1  0   1  0  0   0  0  1
                       0  0 -1   0  1 -1   1  0 -1       1 -1  0   0 -1  1   0 -1  0
                       0  0  1   1  0  0   0  1  0      -1  1  0  -1  0  0  -1  0  1
                       0  0  1   0  1  0   1  0  0       1 -1  0   0 -1  0   0 -1  1
                       0  0 -1   1  0 -1   0  1 -1      -1  1  0  -1  0  1  -1  0  0
           tolrde3     1.00000000E-30
           tolrde4     5.00000000E-03
           tolrde5     5.00000000E-03
           tolrde6     5.00000000E-03
           tolrde7     5.00000000E-03
           tolwfr      1.00000000E-26
            typat      1  2
          usepead3          1
          usepead4          1
          usepead5          1
          usepead6          1
          usepead7          0
           useylm           1
              wtk        0.06250    0.06250    0.06250    0.06250    0.06250    0.06250
                         0.06250    0.06250    0.06250    0.06250    0.06250    0.06250
                         0.06250    0.06250    0.06250    0.06250
           xangst      0.0000000000E+00  0.0000000000E+00  0.0000000000E+00
                       1.4076113748E+00  1.4076113748E+00  1.4076113748E+00
            xcart      0.0000000000E+00  0.0000000000E+00  0.0000000000E+00
                       2.6600000000E+00  2.6600000000E+00  2.6600000000E+00
             xred      0.0000000000E+00  0.0000000000E+00  0.0000000000E+00
                       2.5000000000E-01  2.5000000000E-01  2.5000000000E-01
            znucl       13.00000   33.00000

================================================================================


- Timing analysis has been suppressed with timopt=0



================================================================================

 Suggested references for the acknowledgment of ABINIT usage.

 The users of ABINIT have little formal obligations with respect to the ABINIT group
 (those specified in the GNU General Public License, http://www.gnu.org/copyleft/gpl.txt).
 However, it is common practice in the scientific literature,
 to acknowledge the efforts of people that have made the research possible.
 In this spirit, please find below suggested citations of work written by ABINIT developers,
 corresponding to implementations inside of ABINIT that you have used in the present run.
 Note also that it will be of great value to readers of publications presenting these results,
 to read papers enabling them to understand the theoretical formalism and details
 of the ABINIT implementation.
 For information on why they are suggested, see also https://www.abinit.org/about/?text=acknowledgments.
-
- [1] Nonlinear optical susceptibilities, Raman efficiencies, and electrooptic tensors
- from first principles density functional theory.
- M. Veithen, X. Gonze, and Ph. Ghosez, Phys. Rev. B 71, 125107 (2005).
- Comment : to be cited for non-linear response calculations, with optdriver=5.
-
- [2] Projector augmented-wave approach to density-functional perturbation theory.
- C. Audouze, F. Jollet, M. Torrent and X. Gonze, Phys. Rev. B 73, 235101 (2006).
- Comparison between projector augmented-wave and ultrasoft pseudopotential formalisms
- at the density-functional perturbation theory level.
- C. Audouze, F. Jollet, M. Torrent and X. Gonze, Phys. Rev. B 78, 035105 (2008).
- Comment : to be cited in case the computation of response function with PAW, i.e. (rfphon=1 or rfelfd=1) and usepaw=1.
- Strong suggestion to cite these papers.
-
- [3] Implementation of the Projector Augmented-Wave Method in the ABINIT code.
- M. Torrent, F. Jollet, F. Bottin, G. Zerah, and X. Gonze Comput. Mat. Science 42, 337, (2008).
- Comment : PAW calculations. Strong suggestion to cite this paper.
-
- [4] Recent developments in the ABINIT software package.
- Computer Phys. Comm. 205, 106 (2016).
- X.Gonze, F.Jollet, F.Abreu Araujo, D.Adams, B.Amadon, T.Applencourt,
- C.Audouze, J.-M.Beuken, J.Bieder, A.Bokhanchuk, E.Bousquet, F.Bruneval
- D.Caliste, M.Cote, F.Dahm, F.Da Pieve, M.Delaveau, M.Di Gennaro,
- B.Dorado, C.Espejo, G.Geneste, L.Genovese, A.Gerossier, M.Giantomassi,
- Y.Gillet, D.R.Hamann, L.He, G.Jomard, J.Laflamme Janssen, S.Le Roux,
- A.Levitt, A.Lherbier, F.Liu, I.Lukacevic, A.Martin, C.Martins,
- M.J.T.Oliveira, S.Ponce, Y.Pouillon, T.Rangel, G.-M.Rignanese,
- A.H.Romero, B.Rousseau, O.Rubel, A.A.Shukri, M.Stankovski, M.Torrent,
- M.J.Van Setten, B.Van Troeye, M.J.Verstraete, D.Waroquier, J.Wiktor,
- B.Xu, A.Zhou, J.W.Zwanziger.
- Comment : the fourth generic paper describing the ABINIT project.
- Note that a version of this paper, that is not formatted for Computer Phys. Comm. 
- is available at https://www.abinit.org/about/ABINIT16.pdf .
- The licence allows the authors to put it on the Web.
-
- [5] First-principles responses of solids to atomic displacements and homogeneous electric fields:,
- implementation of a conjugate-gradient algorithm. X. Gonze, Phys. Rev. B55, 10337 (1997).
- Comment : Non-vanishing rfphon and/or rfelfd, in the norm-conserving case.
-
- [6] Dynamical matrices, Born effective charges, dielectric permittivity tensors, and ,
- interatomic force constants from density-functional perturbation theory,
- X. Gonze and C. Lee, Phys. Rev. B55, 10355 (1997).
- Comment : Non-vanishing rfphon and/or rfelfd, in the norm-conserving case.
-
- [7] ABINIT : First-principles approach of materials and nanosystem properties.
- Computer Phys. Comm. 180, 2582-2615 (2009).
- X. Gonze, B. Amadon, P.-M. Anglade, J.-M. Beuken, F. Bottin, P. Boulanger, F. Bruneval,
- D. Caliste, R. Caracas, M. Cote, T. Deutsch, L. Genovese, Ph. Ghosez, M. Giantomassi
- S. Goedecker, D.R. Hamann, P. Hermet, F. Jollet, G. Jomard, S. Leroux, M. Mancini, S. Mazevet,
- M.J.T. Oliveira, G. Onida, Y. Pouillon, T. Rangel, G.-M. Rignanese, D. Sangalli, R. Shaltaf,
- M. Torrent, M.J. Verstraete, G. Zerah, J.W. Zwanziger
- Comment : the third generic paper describing the ABINIT project.
- Note that a version of this paper, that is not formatted for Computer Phys. Comm. 
- is available at https://www.abinit.org/about/ABINIT_CPC_v10.pdf .
- The licence allows the authors to put it on the Web.
-
- [8] A brief introduction to the ABINIT software package.
- Z. Kristallogr. 220, 558-562 (2005).
- X. Gonze, G.-M. Rignanese, M. Verstraete, J.-M. Beuken, Y. Pouillon, R. Caracas, F. Jollet,
- M. Torrent, G. Zerah, M. Mikami, Ph. Ghosez, M. Veithen, J.-Y. Raty, V. Olevano, F. Bruneval,
- L. Reining, R. Godby, G. Onida, D.R. Hamann, and D.C. Allan.
- Comment : the second generic paper describing the ABINIT project. Note that this paper
- should be cited especially if you are using the GW part of ABINIT, as several authors
- of this part are not in the list of authors of the first or third paper.
- The .pdf of the latter paper is available at https://www.abinit.org/about/zfk_0505-06_558-562.pdf.
- Note that it should not redistributed (Copyright by Oldenburg Wissenshaftverlag,
- the licence allows the authors to put it on the Web).
-
- Proc.   0 individual time (sec): cpu=         36.2  wall=         36.2

================================================================================

 Calculation completed.
.Delivered  35 WARNINGs and   8 COMMENTs to log file.
+Overall time at end (sec) : cpu=         36.2  wall=         36.2
