
.Version 10.1.4.5 of ABINIT, released Sep 2024.
.(MPI version, prepared for a x86_64_linux_gnu13.2 computer) 

.Copyright (C) 1998-2025 ABINIT group . 
 ABINIT comes with ABSOLUTELY NO WARRANTY.
 It is free software, and you are welcome to redistribute it
 under certain conditions (GNU General Public License,
 see ~abinit/COPYING or http://www.gnu.org/copyleft/gpl.txt).

 ABINIT is a project of the Universite Catholique de Louvain,
 Corning Inc. and other collaborators, see ~abinit/doc/developers/contributors.txt .
 Please read https://docs.abinit.org/theory/acknowledgments for suggested
 acknowledgments of the ABINIT effort.
 For more information, see https://www.abinit.org .

.Starting date : Fri 13 Sep 2024.
- ( at 19h14 )
  
- input  file    -> /home/buildbot/ABINIT3/eos_gnu_13.2_mpich/trunk_merge-10.0/tests/TestBot_MPI1/v8_t17/t17.abi
- output file    -> t17.abo
- root for input  files -> t17i
- root for output files -> t17o

 Symmetries : space group P1 (#  1); Bravais aP (primitive triclinic)
================================================================================
 Values of the parameters that define the memory need of the present run
     intxc =       0    ionmov =      15      iscf =       7    lmnmax =       4
     lnmax =       4     mgfft =      27  mpssoang =       3    mqgrid =    3001
     natom =       9  nloc_mem =       1    nspden =       1   nspinor =       1
    nsppol =       1      nsym =       1    n1xccc =    2501    ntypat =       1
    occopt =       1   xclevel =       1
-    mband =          20        mffmem =           1         mkmem =           1
       mpw =        2218          nfft =       17496          nkpt =           1
================================================================================
P This job should need less than                       6.971 Mbytes of memory.
  Rough estimation (10% accuracy) of disk space for files :
_ WF disk file :      0.679 Mbytes ; DEN or POT disk file :      0.135 Mbytes.
================================================================================

--------------------------------------------------------------------------------
------------- Echo of variables that govern the present computation ------------
--------------------------------------------------------------------------------
-
- outvars: echo of selected default values
-   iomode0 =  0 , fftalg0 =512 , wfoptalg0 =  0
-
- outvars: echo of global parameters not present in the input file
-  max_nthreads =    0
-
 -outvars: echo values of preprocessed input variables --------
            acell      1.0261200000E+01  1.0261200000E+01  1.0261200000E+01 Bohr
              amu      2.80855000E+01
        boxcutmin      1.50000000E+00
            dtion      3.00000000E-02
             ecut      1.20000000E+01 Hartree
           ecutsm      5.00000000E-01 Hartree
           enunit           1
-          fftalg         512
           ionmov          15
           istwfk        1
              kpt      5.00000000E-01  5.00000000E-01  5.00000000E-01
         kptrlatt        1    0    0      0    1    0      0    0    1
          kptrlen      1.01591062E+01
P           mkmem           1
            natom           9
            nband          20
            ngfft          27      27      24
             nkpt           1
           nnsclo           1
             nsym           1
            ntime          12
           ntypat           1
              occ      2.000000  2.000000  2.000000  2.000000  2.000000  2.000000
                       2.000000  2.000000  2.000000  2.000000  2.000000  2.000000
                       2.000000  2.000000  2.000000  2.000000  2.000000  2.000000
                       0.000000  0.000000
        optforces           1
           prtden           0
            prtwf           0
            rprim      1.0100000000E+00  1.0000000000E-02  1.0000000000E-02
                      -2.0000000000E-02  1.0200000000E+00  1.0000000000E-02
                       0.0000000000E+00  1.0000000000E-02  9.9000000000E-01
           shiftk      5.00000000E-01  5.00000000E-01  5.00000000E-01
          spgroup           1
           tolmxf      1.00000000E-04
           tolrff      1.00000000E-02
            typat      1  1  1  1  1  1  1  1  1
           xangst      0.0000000000E+00  0.0000000000E+00  0.0000000000E+00
                       8.0076109319E-01  8.6342321440E-01  1.8977826139E+00
                       1.8924612206E+00  1.9766261148E+00  1.9196111864E+00
                      -5.4299931728E-02  2.7964464840E+00  2.7149965864E+00
                       1.2896233785E+00  4.2082447089E+00  4.0860698625E+00
                       2.7421465523E+00  5.4299931728E-02  2.7149965864E+00
                       4.0860698625E+00  1.4660981567E+00  4.0860698625E+00
                       2.6878466205E+00  2.7964464840E+00  5.4299931728E-02
                       4.0317699308E+00  4.2082447089E+00  1.4253732079E+00
            xcart      0.0000000000E+00  0.0000000000E+00  0.0000000000E+00
                       1.5132191640E+00  1.6316334120E+00  3.5862894000E+00
                       3.5762334240E+00  3.7352820240E+00  3.6275394240E+00
                      -1.0261200000E-01  5.2845180000E+00  5.1306000000E+00
                       2.4370350000E+00  7.9524300000E+00  7.7215530000E+00
                       5.1819060000E+00  1.0261200000E-01  5.1306000000E+00
                       7.7215530000E+00  2.7705240000E+00  7.7215530000E+00
                       5.0792940000E+00  5.2845180000E+00  1.0261200000E-01
                       7.6189410000E+00  7.9524300000E+00  2.6935650000E+00
             xred      0.0000000000E+00  0.0000000000E+00  0.0000000000E+00
                       1.4900000000E-01  1.5100000000E-01  3.5000000000E-01
                       3.5200000000E-01  3.5000000000E-01  3.5000000000E-01
                      -4.3584396543E-19  5.0000000000E-01  5.0000000000E-01
                       2.5000000000E-01  7.5000000000E-01  7.5000000000E-01
                       5.0000000000E-01 -2.2228363279E-18  5.0000000000E-01
                       7.5000000000E-01  2.5000000000E-01  7.5000000000E-01
                       5.0000000000E-01  5.0000000000E-01 -1.8002024377E-18
                       7.5000000000E-01  7.5000000000E-01  2.5000000000E-01
            znucl       14.00000

================================================================================

 chkinp: Checking input parameters for consistency.

================================================================================
== DATASET  1 ==================================================================
-   mpi_nproc: 1, omp_nthreads: -1 (-1 if OMP is not activated)


--- !DatasetInfo
iteration_state: {dtset: 1, }
dimensions: {natom: 9, nkpt: 1, mband: 20, nsppol: 1, nspinor: 1, nspden: 1, mpw: 2218, }
cutoff_energies: {ecut:  12.0, pawecutdg:  -1.0, }
electrons: {nelect:   3.60000000E+01, charge:   0.00000000E+00, occopt:   1.00000000E+00, tsmear:   1.00000000E-02, }
meta: {optdriver: 0, ionmov: 15, optcell: 0, iscf: 7, paral_kgb: 0, }
...

 Exchange-correlation functional for the present dataset will be:
  LDA: new Teter (4/93) with spin-polarized option - ixc=1
 Citation for XC functional:
  S. Goedecker, M. Teter, J. Huetter, PRB 54, 1703 (1996)

 Real(R)+Recip(G) space primitive vectors, cartesian coordinates (Bohr,Bohr^-1):
 R(1)= 10.3638120  0.1026120  0.1026120  G(1)=  0.0964711  0.0018918 -0.0000191
 R(2)= -0.2052240 10.4664240  0.1026120  G(2)= -0.0009363  0.0955347 -0.0009650
 R(3)=  0.0000000  0.1026120 10.1585880  G(3)= -0.0009650 -0.0009841  0.0984488
 Unit cell volume ucvol=  1.1020255E+03 bohr^3
 Angles (23,13,12)=  8.88597883E+01  8.94270607E+01  9.05504223E+01 degrees

 getcut: wavevector=  0.0000  0.0000  0.0000  ngfft=  27  27  24
         ecut(hartree)=     12.000   => boxcut(ratio)=   1.51533

--- Pseudopotential description ------------------------------------------------
- pspini: atom type   1  psp file is /home/buildbot/ABINIT3/eos_gnu_13.2_mpich/trunk_merge-10.0/tests/Pspdir/14si.psp
- pspatm: opening atomic psp file    /home/buildbot/ABINIT3/eos_gnu_13.2_mpich/trunk_merge-10.0/tests/Pspdir/14si.psp
-   Si  Fri Oct 08 11:18:59 1993
- 14.00000   4.00000    930920                znucl, zion, pspdat
    1    1    2    2      2001   0.00050      pspcod,pspxc,lmax,lloc,mmax,r2well
    0  19.464  25.000    2   1.8971118        l,e99.0,e99.9,nproj,rcpsp
   0.00112760   6.14571089   4.47651660  29.74712295     rms, ekb1, ekb2, epsatm
    1  21.459  28.812    2   1.8971118        l,e99.0,e99.9,nproj,rcpsp
   0.00119946   3.20906540   2.09352485  19.11150542     rms, ekb1, ekb2, epsatm
    2   8.223  21.459    0   1.8971118        l,e99.0,e99.9,nproj,rcpsp
   0.00098688   0.00000000   0.00000000  -3.97301006     rms, ekb1, ekb2, epsatm
    1.70000000000000    0.22513330685109    0.96523597101781   rchrg,fchrg,qchrg
  pspatm : epsatm=   -3.97301006
         --- l  ekb(1:nproj) -->
             0    6.145711    4.476517
             1    3.209065    2.093525
 pspatm: atomic psp has been read  and splines computed

  -1.28725526E+03                                ecore*ucvol(ha*bohr**3)
--------------------------------------------------------------------------------

_setup2: Arith. and geom. avg. npw (full set) are    2218.000    2218.000

================================================================================

=== [ionmov=15] Fast inertial relaxation engine                             
================================================================================

--- Iteration: ( 1/12) Internal Cycle: (1/1)
--------------------------------------------------------------------------------

---SELF-CONSISTENT-FIELD CONVERGENCE--------------------------------------------

--- !BeginCycle
iteration_state: {dtset: 1, itime: 1, icycle: 1, }
solver: {iscf: 7, nstep: 30, nline: 4, wfoptalg: 0, }
tolerances: {tolrff: 1.00E-02, }
...

     iter   Etot(hartree)      deltaE(h)  residm     vres2    diffor    maxfor
 ETOT  1  -36.738978958157    -3.674E+01 1.019E-01 1.436E+02 4.159E-01 4.159E-01
 ETOT  2  -37.867949828643    -1.129E+00 6.871E-03 3.561E+01 1.072E-01 4.854E-01
 ETOT  3  -37.931463227841    -6.351E-02 6.719E-04 1.488E+00 1.428E-02 4.802E-01
 ETOT  4  -37.933346539280    -1.883E-03 6.406E-05 7.914E-01 7.704E-03 4.749E-01
 ETOT  5  -37.933333194282     1.334E-05 3.036E-05 3.763E-01 8.858E-03 4.799E-01
 ETOT  6  -37.932243804873     1.089E-03 2.161E-05 1.032E+00 1.650E-02 4.722E-01
 ETOT  7  -37.934072691615    -1.829E-03 6.421E-06 1.642E-02 1.002E-02 4.776E-01
 ETOT  8  -37.934077373185    -4.682E-06 5.222E-06 9.010E-03 5.875E-04 4.778E-01
 ETOT  9  -37.934088379803    -1.101E-05 1.846E-06 8.902E-04 4.910E-04 4.775E-01

 At SCF step    9, forces are sufficiently converged : 
  for the second time, max diff in force=  4.910E-04 is less than < tolrff=  1.000E-02 times max force

 Cartesian components of stress tensor (hartree/bohr^3)
  sigma(1 1)= -1.70374951E-03  sigma(3 2)=  5.91288358E-06
  sigma(2 2)= -1.74500190E-03  sigma(3 1)= -4.91022646E-05
  sigma(3 3)= -8.52152090E-04  sigma(2 1)= -9.55896599E-04


--- !ResultsGS
iteration_state: {dtset: 1, itime: 1, icycle: 1, }
comment   : Summary of ground state results
lattice_vectors:
- [ 10.3638120,   0.1026120,   0.1026120, ]
- [ -0.2052240,  10.4664240,   0.1026120, ]
- [  0.0000000,   0.1026120,  10.1585880, ]
lattice_lengths: [  10.36483,   10.46894,   10.15911, ]
lattice_angles: [ 88.860,  89.427,  90.550, ] # degrees, (23, 13, 12)
lattice_volume:   1.1020255E+03
convergence: {deltae: -1.101E-05, res2:  8.902E-04, residm:  1.846E-06, diffor:  4.910E-04, }
etotal    :  -3.79340884E+01
entropy   :   0.00000000E+00
fermie    :   3.04011118E-01
cartesian_stress_tensor: # hartree/bohr^3
- [ -1.70374951E-03,  -9.55896599E-04,  -4.91022646E-05, ]
- [ -9.55896599E-04,  -1.74500190E-03,   5.91288358E-06, ]
- [ -4.91022646E-05,   5.91288358E-06,  -8.52152090E-04, ]
pressure_GPa:   4.2179E+01
xred      :
- [  0.0000E+00,   0.0000E+00,   0.0000E+00, Si]
- [  1.4900E-01,   1.5100E-01,   3.5000E-01, Si]
- [  3.5200E-01,   3.5000E-01,   3.5000E-01, Si]
- [ -4.3584E-19,   5.0000E-01,   5.0000E-01, Si]
- [  2.5000E-01,   7.5000E-01,   7.5000E-01, Si]
- [  5.0000E-01,  -2.2228E-18,   5.0000E-01, Si]
- [  7.5000E-01,   2.5000E-01,   7.5000E-01, Si]
- [  5.0000E-01,   5.0000E-01,  -1.8002E-18, Si]
- [  7.5000E-01,   7.5000E-01,   2.5000E-01, Si]
cartesian_forces: # hartree/bohr
- [ -1.09909511E-02,  -1.62555608E-02,  -2.33242059E-02, ]
- [ -4.69413550E-01,  -4.77546269E-01,  -1.84995260E-02, ]
- [  4.60592125E-01,   4.74772224E-01,  -6.43816548E-03, ]
- [ -5.21923790E-03,   1.42652321E-02,   2.79286141E-02, ]
- [ -7.94848867E-03,   9.09156022E-04,   1.63223118E-02, ]
- [  1.73974299E-02,  -9.26430319E-03,   2.71235438E-02, ]
- [ -3.20649321E-04,  -5.39049128E-03,   1.44855990E-02, ]
- [  2.12556716E-02,   2.11957434E-02,  -1.18993494E-02, ]
- [ -5.35234928E-03,  -2.68573049E-03,  -2.56988220E-02, ]
force_length_stats: {min:   1.54593917E-02, max:   6.69881895E-01, mean:   1.68834195E-01, }
...

 Integrated electronic density in atomic spheres:
 ------------------------------------------------
 Atom  Sphere_radius  Integrated_density
    1        2.00000          1.81360913
    2        2.00000          2.40694572
    3        2.00000          2.40210518
    4        2.00000          1.81837685
    5        2.00000          1.78460990
    6        2.00000          1.81663434
    7        2.00000          1.77957427
    8        2.00000          1.87427901
    9        2.00000          1.75861237

---OUTPUT-----------------------------------------------------------------------

 Cartesian coordinates (xcart) [bohr]
  0.00000000000000E+00  0.00000000000000E+00  0.00000000000000E+00
  1.51321916400000E+00  1.63163341200000E+00  3.58628940000000E+00
  3.57623342400000E+00  3.73528202400000E+00  3.62753942400000E+00
 -1.02612000000000E-01  5.28451800000000E+00  5.13060000000000E+00
  2.43703500000000E+00  7.95243000000000E+00  7.72155300000000E+00
  5.18190600000000E+00  1.02612000000000E-01  5.13060000000000E+00
  7.72155300000000E+00  2.77052400000000E+00  7.72155300000000E+00
  5.07929400000000E+00  5.28451800000000E+00  1.02612000000000E-01
  7.61894100000000E+00  7.95243000000000E+00  2.69356500000000E+00
 Reduced coordinates (xred)
  0.00000000000000E+00  0.00000000000000E+00  0.00000000000000E+00
  1.49000000000000E-01  1.51000000000000E-01  3.50000000000000E-01
  3.52000000000000E-01  3.50000000000000E-01  3.50000000000000E-01
 -4.35843965427024E-19  5.00000000000000E-01  5.00000000000000E-01
  2.50000000000000E-01  7.50000000000000E-01  7.50000000000000E-01
  5.00000000000000E-01 -2.22283632788845E-18  5.00000000000000E-01
  7.50000000000000E-01  2.50000000000000E-01  7.50000000000000E-01
  5.00000000000000E-01  5.00000000000000E-01 -1.80020243773700E-18
  7.50000000000000E-01  7.50000000000000E-01  2.50000000000000E-01
 Cartesian forces (fcart) [Ha/bohr]; max,rms= 4.77546E-01 1.81731E-01 (free atoms)
 -1.09909511282353E-02 -1.62555608224579E-02 -2.33242058856265E-02
 -4.69413549887236E-01 -4.77546269459458E-01 -1.84995259666432E-02
  4.60592124688054E-01  4.74772223793124E-01 -6.43816548075194E-03
 -5.21923789801707E-03  1.42652320731686E-02  2.79286140920092E-02
 -7.94848867121548E-03  9.09156021887664E-04  1.63223118020058E-02
  1.73974299300691E-02 -9.26430319302741E-03  2.71235437564260E-02
 -3.20649321007688E-04 -5.39049128038046E-03  1.44855990304638E-02
  2.12556715686642E-02  2.11957433604858E-02 -1.18993493737128E-02
 -5.35234928107617E-03 -2.68573049334275E-03 -2.56988219741703E-02
 Gradient of E wrt nuclear positions in reduced coordinates (gred)
  1.17969510215669E-01  1.70275328385629E-01  2.38609013626369E-01
  4.91581403244420E+00  4.90376508277737E+00  2.36931040292204E-01
 -4.82154688333910E+00 -4.87398220640844E+00  1.66853431669208E-02
  4.97616054156228E-02 -1.53242891163774E-01 -2.85179067965207E-01
  8.06084868962617E-02 -1.28216981049185E-02 -1.65904931121832E-01
 -1.82136265471100E-01  9.77512943708129E-02 -2.74586277442261E-01
  2.38988208439977E-03  5.48669660847963E-02 -1.46600103392419E-01
 -2.21243705651152E-01 -2.16260447026086E-01  1.18705650137900E-01
  5.83833374052051E-02  2.96485710846083E-02  2.61339332698326E-01
 Cartesian velocities (vel) [bohr*Ha/hbar]; max,rms= 0.00000E+00 0.00000E+00 (free atoms)
  0.00000000000000E+00  0.00000000000000E+00  0.00000000000000E+00
  0.00000000000000E+00  0.00000000000000E+00  0.00000000000000E+00
  0.00000000000000E+00  0.00000000000000E+00  0.00000000000000E+00
  0.00000000000000E+00  0.00000000000000E+00  0.00000000000000E+00
  0.00000000000000E+00  0.00000000000000E+00  0.00000000000000E+00
  0.00000000000000E+00  0.00000000000000E+00  0.00000000000000E+00
  0.00000000000000E+00  0.00000000000000E+00  0.00000000000000E+00
  0.00000000000000E+00  0.00000000000000E+00  0.00000000000000E+00
  0.00000000000000E+00  0.00000000000000E+00  0.00000000000000E+00
 Kinetic energy of ions (ekin) [Ha]=  0.00000000000000E+00
 Scale of Primitive Cell (acell) [bohr]
  1.02612000000000E+01  1.02612000000000E+01  1.02612000000000E+01
 Real space primitive translations (rprimd) [bohr]
  1.03638120000000E+01  1.02612000000000E-01  1.02612000000000E-01
 -2.05224000000000E-01  1.04664240000000E+01  1.02612000000000E-01
  0.00000000000000E+00  1.02612000000000E-01  1.01585880000000E+01
 Total energy (etotal) [Ha]= -3.79340883798030E+01

--- Iteration: ( 2/12) Internal Cycle: (1/1)
--------------------------------------------------------------------------------

---SELF-CONSISTENT-FIELD CONVERGENCE--------------------------------------------

--- !BeginCycle
iteration_state: {dtset: 1, itime: 2, icycle: 1, }
solver: {iscf: 7, nstep: 30, nline: 4, wfoptalg: 0, }
tolerances: {tolrff: 1.00E-02, }
...

     iter   Etot(hartree)      deltaE(h)  residm     vres2    diffor    maxfor
 ETOT  1  -38.008698388249    -3.801E+01 7.482E-05 6.951E-01 1.011E-01 3.764E-01
 ETOT  2  -38.006429249389     2.269E-03 3.661E-05 1.901E+00 2.230E-02 3.586E-01
 ETOT  3  -38.009818763646    -3.390E-03 5.595E-06 2.169E-01 1.760E-02 3.677E-01
 ETOT  4  -38.010074268339    -2.555E-04 4.674E-07 2.470E-02 2.078E-03 3.679E-01
 ETOT  5  -38.010097587235    -2.332E-05 3.171E-07 6.356E-03 3.971E-04 3.676E-01

 At SCF step    5, forces are sufficiently converged : 
  for the second time, max diff in force=  3.971E-04 is less than < tolrff=  1.000E-02 times max force

 Cartesian components of stress tensor (hartree/bohr^3)
  sigma(1 1)= -1.53352305E-03  sigma(3 2)=  2.80603890E-05
  sigma(2 2)= -1.56464272E-03  sigma(3 1)= -2.70214521E-05
  sigma(3 3)= -8.96423244E-04  sigma(2 1)= -7.88374230E-04


--- !ResultsGS
iteration_state: {dtset: 1, itime: 2, icycle: 1, }
comment   : Summary of ground state results
lattice_vectors:
- [ 10.3638120,   0.1026120,   0.1026120, ]
- [ -0.2052240,  10.4664240,   0.1026120, ]
- [  0.0000000,   0.1026120,  10.1585880, ]
lattice_lengths: [  10.36483,   10.46894,   10.15911, ]
lattice_angles: [ 88.860,  89.427,  90.550, ] # degrees, (23, 13, 12)
lattice_volume:   1.1020255E+03
convergence: {deltae: -2.332E-05, res2:  6.356E-03, residm:  3.171E-07, diffor:  3.971E-04, }
etotal    :  -3.80100976E+01
entropy   :   0.00000000E+00
fermie    :   3.02642122E-01
cartesian_stress_tensor: # hartree/bohr^3
- [ -1.53352305E-03,  -7.88374230E-04,  -2.70214521E-05, ]
- [ -7.88374230E-04,  -1.56464272E-03,   2.80603890E-05, ]
- [ -2.70214521E-05,   2.80603890E-05,  -8.96423244E-04, ]
pressure_GPa:   3.9175E+01
xred      :
- [ -1.0617E-04,  -1.5325E-04,  -2.1475E-04, Si]
- [  1.4458E-01,   1.4659E-01,   3.4979E-01, Si]
- [  3.5634E-01,   3.5439E-01,   3.4998E-01, Si]
- [ -4.4785E-05,   5.0014E-01,   5.0026E-01, Si]
- [  2.4993E-01,   7.5001E-01,   7.5015E-01, Si]
- [  5.0016E-01,  -8.7976E-05,   5.0025E-01, Si]
- [  7.5000E-01,   2.4995E-01,   7.5013E-01, Si]
- [  5.0020E-01,   5.0019E-01,  -1.0684E-04, Si]
- [  7.4995E-01,   7.4997E-01,   2.4976E-01, Si]
cartesian_forces: # hartree/bohr
- [ -1.09111175E-02,  -1.58906634E-02,  -2.37457380E-02, ]
- [ -3.61328571E-01,  -3.67631301E-01,  -1.62415275E-02, ]
- [  3.53019752E-01,   3.64935255E-01,  -4.21413678E-03, ]
- [ -4.51450661E-03,   1.24391352E-02,   2.69514320E-02, ]
- [ -7.05990055E-03,   2.05888450E-05,   1.70131401E-02, ]
- [  1.52620323E-02,  -8.34718969E-03,   2.61587857E-02, ]
- [ -1.06092341E-03,  -4.68944445E-03,   1.53746696E-02, ]
- [  2.10390129E-02,   2.10720239E-02,  -1.75041893E-02, ]
- [ -4.44577750E-03,  -1.90840520E-03,  -2.37924356E-02, ]
force_length_stats: {min:   1.61089078E-02, max:   5.15727541E-01, mean:   1.34317670E-01, }
...

 Integrated electronic density in atomic spheres:
 ------------------------------------------------
 Atom  Sphere_radius  Integrated_density
    1        2.00000          1.82405917
    2        2.00000          2.32385037
    3        2.00000          2.31408680
    4        2.00000          1.81165296
    5        2.00000          1.78750278
    6        2.00000          1.80788608
    7        2.00000          1.78247478
    8        2.00000          1.88011927
    9        2.00000          1.76063255

---OUTPUT-----------------------------------------------------------------------

 Cartesian coordinates (xcart) [bohr]
 -1.06890231745319E-03 -1.63688671720053E-03 -2.20815723770570E-03
  1.46827298204352E+00  1.58496515577287E+00  3.58321635767258E+00
  3.62030583659141E+00  3.78163760471378E+00  3.62828226429368E+00
 -1.03104452138198E-01  5.28598325555751E+00  5.13321687157144E+00
  2.43628076172843E+00  7.95255865479075E+00  7.72306356369402E+00
  5.18362291823282E+00  1.01733382848126E-01  5.13311826099628E+00
  7.72154084255666E+00  2.77002048309173E+00  7.72288803733028E+00
  5.08131769170382E+00  5.28656459565116E+00  1.01567110244782E-01
  7.61840190959900E+00  7.95212119029127E+00  2.69116751543466E+00
 Reduced coordinates (xred)
 -1.06172559194102E-04 -1.53247795547066E-04 -2.14748112263732E-04
  1.44575767370800E-01  1.46586611425500E-01  3.49786762063737E-01
  3.56339392195005E-01  3.54386583985768E-01  3.49984983191150E-01
 -4.47854448740610E-05  5.00137918602047E-01  5.00256661161169E-01
  2.49927452361793E-01  7.50011539528295E-01  7.50149314438010E-01
  5.00163922638924E-01 -8.79761649337338E-05  5.00247127649698E-01
  7.49997849106124E-01  2.49950619730524E-01  7.50131940093053E-01
  5.00199119335086E-01  5.00194634402323E-01 -1.06835085124112E-04
  7.49947454996335E-01  7.49973316286024E-01  2.49764794600571E-01
 Cartesian forces (fcart) [Ha/bohr]; max,rms= 3.67631E-01 1.39973E-01 (free atoms)
 -1.09111174609476E-02 -1.58906633788532E-02 -2.37457380244553E-02
 -3.61328571380910E-01 -3.67631300693071E-01 -1.62415275074953E-02
  3.53019751677834E-01  3.64935255474674E-01 -4.21413677874850E-03
 -4.51450660761714E-03  1.24391352028611E-02  2.69514319540945E-02
 -7.05990055111164E-03  2.05888449927472E-05  1.70131400904294E-02
  1.52620323296894E-02 -8.34718968887819E-03  2.61587856763698E-02
 -1.06092341233186E-03 -4.68944445033124E-03  1.53746695607627E-02
  2.10390129017959E-02  2.10720238875457E-02 -1.75041893392471E-02
 -4.44577749640149E-03 -1.90840519894042E-03 -2.37924356317102E-02
 Gradient of E wrt nuclear positions in reduced coordinates (gred)
  1.17147940495974E-01  1.66515795064710E-01  2.42853742097006E-01
  3.78413134266765E+00  3.77529834961270E+00  2.02714369466030E-01
 -3.69564465410738E+00 -3.74668656982479E+00  5.36294287618591E-03
  4.27455528769922E-02 -1.33885288666185E-01 -2.75064897773117E-01
  7.14196170568959E-02 -3.41010494302484E-03 -1.72831593427517E-01
 -1.60000517290292E-01  8.78131564992317E-02 -2.64879804438187E-01
  9.89877847277429E-03  4.72863614022723E-02 -1.55703740429992E-01
 -2.18410477018457E-01 -2.14434886284945E-01  1.75655605256255E-01
  4.87124168458505E-02  2.15031871400343E-02  2.41893376373337E-01
 Cartesian velocities (vel) [bohr*Ha/hbar]; max,rms= 0.00000E+00 0.00000E+00 (free atoms)
  0.00000000000000E+00  0.00000000000000E+00  0.00000000000000E+00
  0.00000000000000E+00  0.00000000000000E+00  0.00000000000000E+00
  0.00000000000000E+00  0.00000000000000E+00  0.00000000000000E+00
  0.00000000000000E+00  0.00000000000000E+00  0.00000000000000E+00
  0.00000000000000E+00  0.00000000000000E+00  0.00000000000000E+00
  0.00000000000000E+00  0.00000000000000E+00  0.00000000000000E+00
  0.00000000000000E+00  0.00000000000000E+00  0.00000000000000E+00
  0.00000000000000E+00  0.00000000000000E+00  0.00000000000000E+00
  0.00000000000000E+00  0.00000000000000E+00  0.00000000000000E+00
 Kinetic energy of ions (ekin) [Ha]=  0.00000000000000E+00
 Scale of Primitive Cell (acell) [bohr]
  1.02612000000000E+01  1.02612000000000E+01  1.02612000000000E+01
 Real space primitive translations (rprimd) [bohr]
  1.03638120000000E+01  1.02612000000000E-01  1.02612000000000E-01
 -2.05224000000000E-01  1.04664240000000E+01  1.02612000000000E-01
  0.00000000000000E+00  1.02612000000000E-01  1.01585880000000E+01
 Total energy (etotal) [Ha]= -3.80100975872347E+01

 Difference of energy with previous step (new-old):
           Absolute (Ha)=-7.60092E-02
           Relative     =-2.00171E-03

--- Iteration: ( 3/12) Internal Cycle: (1/1)
--------------------------------------------------------------------------------

---SELF-CONSISTENT-FIELD CONVERGENCE--------------------------------------------

--- !BeginCycle
iteration_state: {dtset: 1, itime: 3, icycle: 1, }
solver: {iscf: 7, nstep: 30, nline: 4, wfoptalg: 0, }
tolerances: {tolrff: 1.00E-02, }
...

     iter   Etot(hartree)      deltaE(h)  residm     vres2    diffor    maxfor
 ETOT  1  -38.099603678782    -3.810E+01 3.055E-04 1.417E+00 1.380E-01 2.297E-01
 ETOT  2  -38.101486107065    -1.882E-03 9.370E-05 3.335E-01 1.941E-02 2.105E-01
 ETOT  3  -38.102005584115    -5.195E-04 2.656E-05 1.223E-02 5.470E-03 2.159E-01
 ETOT  4  -38.102023731149    -1.815E-05 5.526E-06 1.192E-03 9.138E-04 2.156E-01
 ETOT  5  -38.102025165936    -1.435E-06 8.783E-06 4.493E-05 2.387E-04 2.155E-01

 At SCF step    5, forces are sufficiently converged : 
  for the second time, max diff in force=  2.387E-04 is less than < tolrff=  1.000E-02 times max force

 Cartesian components of stress tensor (hartree/bohr^3)
  sigma(1 1)= -1.27830205E-03  sigma(3 2)=  4.39353286E-05
  sigma(2 2)= -1.29771383E-03  sigma(3 1)= -7.62817472E-06
  sigma(3 3)= -9.70852046E-04  sigma(2 1)= -5.44155641E-04


--- !ResultsGS
iteration_state: {dtset: 1, itime: 3, icycle: 1, }
comment   : Summary of ground state results
lattice_vectors:
- [ 10.3638120,   0.1026120,   0.1026120, ]
- [ -0.2052240,  10.4664240,   0.1026120, ]
- [  0.0000000,   0.1026120,  10.1585880, ]
lattice_lengths: [  10.36483,   10.46894,   10.15911, ]
lattice_angles: [ 88.860,  89.427,  90.550, ] # degrees, (23, 13, 12)
lattice_volume:   1.1020255E+03
convergence: {deltae: -1.435E-06, res2:  4.493E-05, residm:  8.783E-06, diffor:  2.387E-04, }
etotal    :  -3.81020252E+01
entropy   :   0.00000000E+00
fermie    :   3.00016241E-01
cartesian_stress_tensor: # hartree/bohr^3
- [ -1.27830205E-03,  -5.44155641E-04,  -7.62817472E-06, ]
- [ -5.44155641E-04,  -1.29771383E-03,   4.39353286E-05, ]
- [ -7.62817472E-06,   4.39353286E-05,  -9.70852046E-04, ]
pressure_GPa:   3.4784E+01
xred      :
- [ -3.2392E-04,  -4.6462E-04,  -6.6187E-04, Si]
- [  1.3675E-01,   1.3878E-01,   3.4939E-01, Si]
- [  3.6400E-01,   3.6214E-01,   3.4997E-01, Si]
- [ -1.2907E-04,   5.0040E-01,   5.0077E-01, Si]
- [  2.4979E-01,   7.5002E-01,   7.5046E-01, Si]
- [  5.0048E-01,  -2.5791E-04,   5.0075E-01, Si]
- [  7.4998E-01,   2.4986E-01,   7.5041E-01, Si]
- [  5.0061E-01,   5.0059E-01,  -3.9144E-04, Si]
- [  7.4985E-01,   7.4993E-01,   2.4930E-01, Si]
cartesian_forces: # hartree/bohr
- [ -1.16304219E-02,  -1.61607973E-02,  -2.71975417E-02, ]
- [ -2.12112556E-01,  -2.15549965E-01,  -8.56950769E-03, ]
- [  2.04494889E-01,   2.12915336E-01,   1.28709721E-03, ]
- [ -2.39828917E-03,   9.41759683E-03,   2.30093735E-02, ]
- [ -6.18374263E-03,  -6.09563163E-04,   1.78812524E-02, ]
- [  1.18041771E-02,  -5.94573069E-03,   2.21762826E-02, ]
- [ -1.52592789E-03,  -4.08624314E-03,   1.65106768E-02, ]
- [  2.12087925E-02,   2.13270752E-02,  -2.51578082E-02, ]
- [ -3.65692049E-03,  -1.30770860E-03,  -1.99398249E-02, ]
force_length_stats: {min:   1.70771276E-02, max:   3.02534230E-01, mean:   8.64205324E-02, }
...

 Integrated electronic density in atomic spheres:
 ------------------------------------------------
 Atom  Sphere_radius  Integrated_density
    1        2.00000          1.84339215
    2        2.00000          2.15897229
    3        2.00000          2.22291674
    4        2.00000          1.80142916
    5        2.00000          1.79309012
    6        2.00000          1.79810063
    7        2.00000          1.78012637
    8        2.00000          1.88732364
    9        2.00000          1.76939471

---OUTPUT-----------------------------------------------------------------------

 Cartesian coordinates (xcart) [bohr]
 -3.26170322844953E-03 -4.96411120128286E-03 -6.80457090559835E-03
  1.38873303730622E+00  1.50236998868084E+00  3.57754391488523E+00
  3.69811375500089E+00  3.86360863143157E+00  3.62968054617372E+00
 -1.04031799517061E-01  5.28877113608350E+00  5.13848882845619E+00
  2.43483743827936E+00  7.95271383944646E+00  7.72625456355159E+00
  5.18689679766258E+00  1.00037946375110E-01  5.13819182536653E+00
  7.72142581338076E+00  2.76907354277225E+00  7.72574261788143E+00
  5.08545295175120E+00  5.29075127790164E+00  9.87585677593009E-02
  7.61740329736450E+00  7.95158518450991E+00  2.68645553083161E+00
 Reduced coordinates (xred)
 -3.23920902123772E-04 -4.64624527499917E-04 -6.61869216664147E-04
  1.36746322051401E-01  1.38775855289607E-01  3.49386354995784E-01
  3.64000648053399E-01  3.62143459355203E-01  3.49966889790619E-01
 -1.29074315622640E-04  5.00400038864459E-01  5.00773830402602E-01
  2.49788446029267E-01  7.50024637177431E-01  7.50464704687067E-01
  5.00476452893167E-01 -2.57910629086900E-04  5.00745123269860E-01
  7.49984906173274E-01  2.49857507098050E-01  7.50414013066661E-01
  5.00606026155827E-01  5.00593446160657E-01 -3.91443426393329E-04
  7.49850193861411E-01  7.49927591211180E-01  2.49302396430463E-01
 Cartesian forces (fcart) [Ha/bohr]; max,rms= 2.15550E-01 8.24860E-02 (free atoms)
 -1.16304219115430E-02 -1.61607972722428E-02 -2.71975416600684E-02
 -2.12112556241817E-01 -2.15549964900986E-01 -8.56950768718466E-03
  2.04494888737208E-01  2.12915335749534E-01  1.28709720569470E-03
 -2.39828917061651E-03  9.41759683214739E-03  2.30093735195756E-02
 -6.18374262786983E-03 -6.09563163295965E-04  1.78812524442427E-02
  1.18041770927957E-02 -5.94573069461804E-03  2.21762825580764E-02
 -1.52592789184587E-03 -4.08624313994494E-03  1.65106767533057E-02
  2.12087925065363E-02  2.13270751936027E-02 -2.51578082170415E-02
 -3.65692049284849E-03 -1.30770860419585E-03 -1.99398249166006E-02
 Gradient of E wrt nuclear positions in reduced coordinates (gred)
  1.24984592046435E-01  1.69549708867785E-01  2.77946912067170E-01
  2.22129200305083E+00  2.21338607291947E+00  1.09172110955362E-01
 -2.14132632188375E+00 -2.18662699262924E+00 -3.49227586605348E-02
  2.15280218041745E-02 -1.01421785838653E-01 -2.34709104169619E-01
  6.23148634711324E-02  3.27606304896621E-03 -1.81585728009743E-01
 -1.24001721592255E-01  6.23774861735295E-02 -2.24669614561048E-01
  1.45395338147128E-02  4.07610026810687E-02 -1.67305865156934E-01
 -2.19410859107750E-01 -2.16284165406000E-01  2.53379394820173E-01
  4.00798883964651E-02  1.49826101830799E-02  2.02694652715174E-01
 Cartesian velocities (vel) [bohr*Ha/hbar]; max,rms= 0.00000E+00 0.00000E+00 (free atoms)
  0.00000000000000E+00  0.00000000000000E+00  0.00000000000000E+00
  0.00000000000000E+00  0.00000000000000E+00  0.00000000000000E+00
  0.00000000000000E+00  0.00000000000000E+00  0.00000000000000E+00
  0.00000000000000E+00  0.00000000000000E+00  0.00000000000000E+00
  0.00000000000000E+00  0.00000000000000E+00  0.00000000000000E+00
  0.00000000000000E+00  0.00000000000000E+00  0.00000000000000E+00
  0.00000000000000E+00  0.00000000000000E+00  0.00000000000000E+00
  0.00000000000000E+00  0.00000000000000E+00  0.00000000000000E+00
  0.00000000000000E+00  0.00000000000000E+00  0.00000000000000E+00
 Kinetic energy of ions (ekin) [Ha]=  0.00000000000000E+00
 Scale of Primitive Cell (acell) [bohr]
  1.02612000000000E+01  1.02612000000000E+01  1.02612000000000E+01
 Real space primitive translations (rprimd) [bohr]
  1.03638120000000E+01  1.02612000000000E-01  1.02612000000000E-01
 -2.05224000000000E-01  1.04664240000000E+01  1.02612000000000E-01
  0.00000000000000E+00  1.02612000000000E-01  1.01585880000000E+01
 Total energy (etotal) [Ha]= -3.81020251659355E+01

 Difference of energy with previous step (new-old):
           Absolute (Ha)=-9.19276E-02
           Relative     =-2.41558E-03

--- Iteration: ( 4/12) Internal Cycle: (1/1)
--------------------------------------------------------------------------------

---SELF-CONSISTENT-FIELD CONVERGENCE--------------------------------------------

--- !BeginCycle
iteration_state: {dtset: 1, itime: 4, icycle: 1, }
solver: {iscf: 7, nstep: 30, nline: 4, wfoptalg: 0, }
tolerances: {tolrff: 1.00E-02, }
...

     iter   Etot(hartree)      deltaE(h)  residm     vres2    diffor    maxfor
 ETOT  1  -38.157897007646    -3.816E+01 5.827E-04 2.232E+00 1.111E-01 1.045E-01
 ETOT  2  -38.160739177803    -2.842E-03 1.385E-04 5.829E-01 2.132E-02 8.339E-02
 ETOT  3  -38.161503858477    -7.647E-04 4.254E-05 1.531E-02 5.812E-03 8.885E-02
 ETOT  4  -38.161519899647    -1.604E-05 5.653E-06 5.679E-04 3.723E-04 8.865E-02
 ETOT  5  -38.161520601601    -7.020E-07 7.827E-06 7.367E-05 1.652E-04 8.858E-02

 At SCF step    5, forces are sufficiently converged : 
  for the second time, max diff in force=  1.652E-04 is less than < tolrff=  1.000E-02 times max force

 Cartesian components of stress tensor (hartree/bohr^3)
  sigma(1 1)= -1.04136569E-03  sigma(3 2)=  5.01158211E-05
  sigma(2 2)= -1.05088501E-03  sigma(3 1)=  7.01439237E-06
  sigma(3 3)= -1.05896086E-03  sigma(2 1)= -3.24290193E-04


--- !ResultsGS
iteration_state: {dtset: 1, itime: 4, icycle: 1, }
comment   : Summary of ground state results
lattice_vectors:
- [ 10.3638120,   0.1026120,   0.1026120, ]
- [ -0.2052240,  10.4664240,   0.1026120, ]
- [  0.0000000,   0.1026120,  10.1585880, ]
lattice_lengths: [  10.36483,   10.46894,   10.15911, ]
lattice_angles: [ 88.860,  89.427,  90.550, ] # degrees, (23, 13, 12)
lattice_volume:   1.1020255E+03
convergence: {deltae: -7.020E-07, res2:  7.367E-05, residm:  7.827E-06, diffor:  1.652E-04, }
etotal    :  -3.81615206E+01
entropy   :   0.00000000E+00
fermie    :   2.96534222E-01
cartesian_stress_tensor: # hartree/bohr^3
- [ -1.04136569E-03,  -3.24290193E-04,   7.01439237E-06, ]
- [ -3.24290193E-04,  -1.05088501E-03,   5.01158211E-05, ]
- [  7.01439237E-06,   5.01158211E-05,  -1.05896086E-03, ]
pressure_GPa:   3.0904E+01
xred      :
- [ -6.9835E-04,  -9.8536E-04,  -1.4649E-03, Si]
- [  1.2692E-01,   1.2898E-01,   3.4889E-01, Si]
- [  3.7356E-01,   3.7185E-01,   3.5001E-01, Si]
- [ -2.3099E-04,   5.0077E-01,   5.0156E-01, Si]
- [  2.4958E-01,   7.5003E-01,   7.5101E-01, Si]
- [  5.0093E-01,  -4.9379E-04,   5.0150E-01, Si]
- [  7.4995E-01,   2.4972E-01,   7.5091E-01, Si]
- [  5.0128E-01,   5.0126E-01,  -1.0251E-03, Si]
- [  7.4971E-01,   7.4987E-01,   2.4861E-01, Si]
cartesian_forces: # hartree/bohr
- [ -1.30322040E-02,  -1.69043715E-02,  -3.24800403E-02, ]
- [ -8.77855270E-02,  -8.85831823E-02,   3.01431406E-03, ]
- [  8.09556254E-02,   8.58335336E-02,   1.03909185E-02, ]
- [  9.75256830E-04,   5.46413279E-03,   1.66580009E-02, ]
- [ -5.30980199E-03,  -9.60477748E-04,   1.80947819E-02, ]
- [  7.30170469E-03,  -2.18820960E-03,   1.57631043E-02, ]
- [ -1.76010487E-03,  -3.61365806E-03,   1.70737893E-02, ]
- [  2.14487266E-02,   2.16737843E-02,  -3.34418535E-02, ]
- [ -2.79367559E-03,  -7.21551529E-04,  -1.50730151E-02, ]
force_length_stats: {min:   1.53466949E-02, max:   1.24749209E-01, mean:   4.60170702E-02, }
...

 Integrated electronic density in atomic spheres:
 ------------------------------------------------
 Atom  Sphere_radius  Integrated_density
    1        2.00000          1.86077480
    2        2.00000          2.06484816
    3        2.00000          2.07391907
    4        2.00000          1.78898996
    5        2.00000          1.79388086
    6        2.00000          1.78499069
    7        2.00000          1.79263544
    8        2.00000          1.90987040
    9        2.00000          1.77634038

---OUTPUT-----------------------------------------------------------------------

 Cartesian coordinates (xcart) [bohr]
 -7.03538516365512E-03 -1.05351266072137E-02 -1.50536383047092E-02
  1.28894750200192E+00  1.39879684826952E+00  3.57050018827775E+00
  3.79519475405570E+00  3.96620841357680E+00  3.63207900950284E+00
 -1.05164464466437E-01  5.29273711885989E+00  5.14653936067981E+00
  2.43264920951648E+00  7.95280266149143E+00  7.73175184385327E+00
  5.19159527698078E+00  9.76929745837341E-02  5.14591725000335E+00
  7.72110578387820E+00  2.76765762643493E+00  7.73074005313924E+00
  5.09233304548823E+00  5.29772167689469E+00  9.24596710542172E-02
  7.61594386570878E+00  7.95086524249622E+00  2.67937808579422E+00
 Reduced coordinates (xred)
 -6.98353452957345E-04 -9.85356158858831E-04 -1.46485608964765E-03
  1.26924103885407E-01  1.28981254311940E-01  3.48891128143243E-01
  3.73560204152701E-01  3.71852085840406E-01  3.50008363721619E-01
 -2.30994777438460E-04  5.00772219721293E-01  5.01563585855226E-01
  2.49577408284192E-01  7.50029866819306E-01  7.51007929659157E-01
  5.00925136346981E-01 -4.93791205229405E-04  5.01503455875528E-01
  7.49951258497991E-01  2.49717715074174E-01  7.50907706900117E-01
  5.01283062835800E-01  5.01258997613259E-01 -1.02506124400178E-03
  7.49708174227324E-01  7.49867007983710E-01  2.48607747178760E-01
 Cartesian forces (fcart) [Ha/bohr]; max,rms= 8.85832E-02 3.58313E-02 (free atoms)
 -1.30322039505921E-02 -1.69043715419462E-02 -3.24800403389078E-02
 -8.77855270471116E-02 -8.85831822700168E-02  3.01431406281126E-03
  8.09556253601063E-02  8.58335336443862E-02  1.03909184954217E-02
  9.75256829668339E-04  5.46413279091905E-03  1.66580008770482E-02
 -5.30980198642042E-03 -9.60477747941264E-04  1.80947818956613E-02
  7.30170469371429E-03 -2.18820959639681E-03  1.57631043007926E-02
 -1.76010486881224E-03 -3.61365805572652E-03  1.70737893421503E-02
  2.14487265619755E-02  2.16737843061401E-02 -3.34418535387345E-02
 -2.79367559252801E-03 -7.21551529417761E-04 -1.50730150962431E-02
 Gradient of E wrt nuclear positions in reduced coordinates (gred)
  1.40130744961512E-01  1.77586640887242E-01  3.31685939399007E-01
  9.18573091341658E-01  9.08824143109949E-01 -2.15314771676148E-02
 -8.48882665057545E-01 -8.82822352210161E-01 -1.14364610490887E-01
 -1.23773748143361E-02 -5.86990952604460E-02 -1.69782453407514E-01
  5.32716043272820E-02  7.10632678977966E-03 -1.83718877685210E-01
 -7.70664418205799E-02  2.27837308223078E-02 -1.59906345629675E-01
  1.68602249690922E-02  3.57088859686755E-02 -1.73074786845282E-01
 -2.21083024607625E-01 -2.19013687297337E-01  3.37498021701124E-01
  3.05738407005412E-02  8.52540718998950E-03  1.53194590126051E-01
 Cartesian velocities (vel) [bohr*Ha/hbar]; max,rms= 0.00000E+00 0.00000E+00 (free atoms)
  0.00000000000000E+00  0.00000000000000E+00  0.00000000000000E+00
  0.00000000000000E+00  0.00000000000000E+00  0.00000000000000E+00
  0.00000000000000E+00  0.00000000000000E+00  0.00000000000000E+00
  0.00000000000000E+00  0.00000000000000E+00  0.00000000000000E+00
  0.00000000000000E+00  0.00000000000000E+00  0.00000000000000E+00
  0.00000000000000E+00  0.00000000000000E+00  0.00000000000000E+00
  0.00000000000000E+00  0.00000000000000E+00  0.00000000000000E+00
  0.00000000000000E+00  0.00000000000000E+00  0.00000000000000E+00
  0.00000000000000E+00  0.00000000000000E+00  0.00000000000000E+00
 Kinetic energy of ions (ekin) [Ha]=  0.00000000000000E+00
 Scale of Primitive Cell (acell) [bohr]
  1.02612000000000E+01  1.02612000000000E+01  1.02612000000000E+01
 Real space primitive translations (rprimd) [bohr]
  1.03638120000000E+01  1.02612000000000E-01  1.02612000000000E-01
 -2.05224000000000E-01  1.04664240000000E+01  1.02612000000000E-01
  0.00000000000000E+00  1.02612000000000E-01  1.01585880000000E+01
 Total energy (etotal) [Ha]= -3.81615206016011E+01

 Difference of energy with previous step (new-old):
           Absolute (Ha)=-5.94954E-02
           Relative     =-1.56026E-03

--- Iteration: ( 5/12) Internal Cycle: (1/1)
--------------------------------------------------------------------------------

---SELF-CONSISTENT-FIELD CONVERGENCE--------------------------------------------

--- !BeginCycle
iteration_state: {dtset: 1, itime: 5, icycle: 1, }
solver: {iscf: 7, nstep: 30, nline: 4, wfoptalg: 0, }
tolerances: {tolrff: 1.00E-02, }
...

     iter   Etot(hartree)      deltaE(h)  residm     vres2    diffor    maxfor
 ETOT  1  -38.178740454528    -3.818E+01 6.710E-04 2.543E+00 6.670E-02 3.640E-02
 ETOT  2  -38.181341375038    -2.601E-03 1.278E-04 1.015E+00 1.954E-02 3.915E-02
 ETOT  3  -38.182565124702    -1.224E-03 9.445E-06 2.838E-02 5.995E-03 3.915E-02
 ETOT  4  -38.182595925731    -3.080E-05 2.272E-06 1.108E-03 7.843E-04 3.892E-02
 ETOT  5  -38.182597160360    -1.235E-06 6.571E-07 8.173E-05 1.970E-04 3.897E-02
 ETOT  6  -38.182597226242    -6.588E-08 2.386E-07 4.788E-06 3.224E-05 3.897E-02

 At SCF step    6, forces are sufficiently converged : 
  for the second time, max diff in force=  3.224E-05 is less than < tolrff=  1.000E-02 times max force

 Cartesian components of stress tensor (hartree/bohr^3)
  sigma(1 1)= -8.74296648E-04  sigma(3 2)=  4.25291667E-05
  sigma(2 2)= -8.79119974E-04  sigma(3 1)=  1.38197868E-05
  sigma(3 3)= -1.14703233E-03  sigma(2 1)= -1.77743008E-04


--- !ResultsGS
iteration_state: {dtset: 1, itime: 5, icycle: 1, }
comment   : Summary of ground state results
lattice_vectors:
- [ 10.3638120,   0.1026120,   0.1026120, ]
- [ -0.2052240,  10.4664240,   0.1026120, ]
- [  0.0000000,   0.1026120,  10.1585880, ]
lattice_lengths: [  10.36483,   10.46894,   10.15911, ]
lattice_angles: [ 88.860,  89.427,  90.550, ] # degrees, (23, 13, 12)
lattice_volume:   1.1020255E+03
convergence: {deltae: -6.588E-08, res2:  4.788E-06, residm:  2.386E-07, diffor:  3.224E-05, }
etotal    :  -3.81825972E+01
entropy   :   0.00000000E+00
fermie    :   2.97969574E-01
cartesian_stress_tensor: # hartree/bohr^3
- [ -8.74296648E-04,  -1.77743008E-04,   1.38197868E-05, ]
- [ -1.77743008E-04,  -8.79119974E-04,   4.25291667E-05, ]
- [  1.38197868E-05,   4.25291667E-05,  -1.14703233E-03, ]
pressure_GPa:   2.8445E+01
xred      :
- [ -1.4088E-03,  -1.9227E-03,  -3.0799E-03, Si]
- [  1.1637E-01,   1.1848E-01,   3.4856E-01, Si]
- [  3.8370E-01,   3.8221E-01,   3.5038E-01, Si]
- [ -2.7624E-04,   5.0124E-01,   5.0269E-01, Si]
- [  2.4925E-01,   7.5001E-01,   7.5198E-01, Si]
- [  5.0151E-01,  -7.4931E-04,   5.0258E-01, Si]
- [  7.4987E-01,   2.4950E-01,   7.5181E-01, Si]
- [  5.0247E-01,   5.0243E-01,  -2.5217E-03, Si]
- [  7.4950E-01,   7.4979E-01,   2.4760E-01, Si]
cartesian_forces: # hartree/bohr
- [ -1.45596986E-02,  -1.74522252E-02,  -3.71849572E-02, ]
- [ -9.38605161E-03,  -8.49284913E-03,   1.59912194E-02, ]
- [  3.68633840E-03,   5.60926334E-03,   2.01940104E-02, ]
- [  4.81419192E-03,   1.18526836E-03,   9.05545972E-03, ]
- [ -4.39432052E-03,  -9.66038426E-04,   1.66697678E-02, ]
- [  2.46737449E-03,   2.23538012E-03,   8.07973627E-03, ]
- [ -1.72013352E-03,  -3.22299645E-03,   1.60513891E-02, ]
- [  2.09514357E-02,   2.13232238E-02,  -3.89732854E-02, ]
- [ -1.85913626E-03,  -2.19026434E-04,  -9.88334003E-03, ]
force_length_stats: {min:   8.73882140E-03, max:   4.91178125E-02, mean:   2.19137321E-02, }
...

 Integrated electronic density in atomic spheres:
 ------------------------------------------------
 Atom  Sphere_radius  Integrated_density
    1        2.00000          1.88644746
    2        2.00000          1.98682792
    3        2.00000          1.98363143
    4        2.00000          1.77845990
    5        2.00000          1.80108734
    6        2.00000          1.76708464
    7        2.00000          1.80007248
    8        2.00000          1.94120341
    9        2.00000          1.77854993

---OUTPUT-----------------------------------------------------------------------

 Cartesian coordinates (xcart) [bohr]
 -1.42062272565842E-02 -2.05844548110269E-02 -3.16292841488658E-02
  1.18174928832509E+00  1.28777450130709E+00  3.56495674802698E+00
  3.89812699703591E+00  4.07567394056393E+00  3.63792573404888E+00
 -1.05729756334842E-01  5.29776632858864E+00  5.15805892391834E+00
  2.42928390436661E+00  7.95269486178994E+00  7.74160441068758E+00
  5.19770992920139E+00  9.51890181627953E-02  5.15687746861455E+00
  7.72035884434600E+00  2.76547591097747E+00  7.73987801051672E+00
  5.10442433917191E+00  5.30998500179463E+00  7.74990522293537E-02
  7.61385226914452E+00  7.94997232762652E+00  2.66914076010646E+00
 Reduced coordinates (xred)
 -1.40882647245640E-03 -1.92270613854678E-03 -3.07989938410589E-03
  1.16372655938628E-01  1.18480488459117E-01  3.48558086731545E-01
  3.83697158469453E-01  3.82207823040747E-01  3.50376911839141E-01
 -2.76235062858294E-04  5.01242096809198E-01  5.02693269469421E-01
  2.49252361553344E-01  7.50013211555541E-01  7.51981256814405E-01
  5.01510076913276E-01 -7.49307910685630E-04  5.02579039979341E-01
  7.49874898521746E-01  2.49501166785826E-01  7.51810195836604E-01
  5.02473008003419E-01  5.02433686362300E-01 -2.52165295933859E-03
  7.49504902135449E-01  7.49793541036504E-01  2.47602791672986E-01
 Cartesian forces (fcart) [Ha/bohr]; max,rms= 3.89733E-02 1.49492E-02 (free atoms)
 -1.45596985863384E-02 -1.74522251686469E-02 -3.71849571828118E-02
 -9.38605160500581E-03 -8.49284912601145E-03  1.59912194270082E-02
  3.68633839765588E-03  5.60926333858434E-03  2.01940103558171E-02
  4.81419192172992E-03  1.18526835716231E-03  9.05545972462809E-03
 -4.39432051805247E-03 -9.66038425568413E-04  1.66697677795318E-02
  2.46737449158315E-03  2.23538011869235E-03  8.07973627391602E-03
 -1.72013352133521E-03 -3.22299645326735E-03  1.60513890834566E-02
  2.09514356793976E-02  2.13232237932675E-02 -3.89732854320706E-02
 -1.85913625963470E-03 -2.19026434212327E-04 -9.88334002947535E-03
 Gradient of E wrt nuclear positions in reduced coordinates (gred)
  1.56500409480925E-01  1.83490011602290E-01  3.79537467546831E-01
  9.65058514832526E-02  8.53226258584354E-02 -1.61576741542054E-01
 -4.08522436420167E-02 -6.00245511085898E-02 -2.05718209002178E-01
 -5.09442015986563E-02 -1.23467322901626E-02 -9.21123072497553E-02
  4.39305206403695E-02  7.49862951690134E-03 -1.69242175793014E-01
 -2.66298600876417E-02 -2.37191495592829E-02 -8.23080887801073E-02
  1.65107934054471E-02  3.17331696119781E-02 -1.62728730414471E-01
 -2.15325632386488E-01 -2.14879037066602E-01  3.93725531070932E-01
  2.03043627048092E-02  2.92503343503157E-03  1.00423254163815E-01
 Cartesian velocities (vel) [bohr*Ha/hbar]; max,rms= 0.00000E+00 0.00000E+00 (free atoms)
  0.00000000000000E+00  0.00000000000000E+00  0.00000000000000E+00
  0.00000000000000E+00  0.00000000000000E+00  0.00000000000000E+00
  0.00000000000000E+00  0.00000000000000E+00  0.00000000000000E+00
  0.00000000000000E+00  0.00000000000000E+00  0.00000000000000E+00
  0.00000000000000E+00  0.00000000000000E+00  0.00000000000000E+00
  0.00000000000000E+00  0.00000000000000E+00  0.00000000000000E+00
  0.00000000000000E+00  0.00000000000000E+00  0.00000000000000E+00
  0.00000000000000E+00  0.00000000000000E+00  0.00000000000000E+00
  0.00000000000000E+00  0.00000000000000E+00  0.00000000000000E+00
 Kinetic energy of ions (ekin) [Ha]=  0.00000000000000E+00
 Scale of Primitive Cell (acell) [bohr]
  1.02612000000000E+01  1.02612000000000E+01  1.02612000000000E+01
 Real space primitive translations (rprimd) [bohr]
  1.03638120000000E+01  1.02612000000000E-01  1.02612000000000E-01
 -2.05224000000000E-01  1.04664240000000E+01  1.02612000000000E-01
  0.00000000000000E+00  1.02612000000000E-01  1.01585880000000E+01
 Total energy (etotal) [Ha]= -3.81825972262424E+01

 Difference of energy with previous step (new-old):
           Absolute (Ha)=-2.10766E-02
           Relative     =-5.52148E-04

--- Iteration: ( 6/12) Internal Cycle: (1/1)
--------------------------------------------------------------------------------

---SELF-CONSISTENT-FIELD CONVERGENCE--------------------------------------------

--- !BeginCycle
iteration_state: {dtset: 1, itime: 6, icycle: 1, }
solver: {iscf: 7, nstep: 30, nline: 4, wfoptalg: 0, }
tolerances: {tolrff: 1.00E-02, }
...

     iter   Etot(hartree)      deltaE(h)  residm     vres2    diffor    maxfor
 ETOT  1  -38.179107923997    -3.818E+01 4.919E-04 2.794E+00 3.017E-02 3.225E-02
 ETOT  2  -38.180157318067    -1.049E-03 8.585E-05 2.279E+00 1.754E-02 3.952E-02
 ETOT  3  -38.182809056281    -2.652E-03 1.254E-05 4.623E-02 7.521E-03 3.373E-02
 ETOT  4  -38.182850783990    -4.173E-05 3.704E-06 6.954E-03 1.091E-03 3.302E-02
 ETOT  5  -38.182857490216    -6.706E-06 3.521E-06 4.091E-04 4.462E-04 3.331E-02
 ETOT  6  -38.182857888062    -3.978E-07 1.369E-06 5.281E-05 1.004E-04 3.329E-02
 ETOT  7  -38.182857932141    -4.408E-08 1.566E-06 1.797E-06 2.039E-05 3.329E-02

 At SCF step    7, forces are sufficiently converged : 
  for the second time, max diff in force=  2.039E-05 is less than < tolrff=  1.000E-02 times max force

 Cartesian components of stress tensor (hartree/bohr^3)
  sigma(1 1)= -7.87926012E-04  sigma(3 2)=  2.15622488E-05
  sigma(2 2)= -7.95144948E-04  sigma(3 1)=  1.44815386E-05
  sigma(3 3)= -1.18837098E-03  sigma(2 1)= -9.40787779E-05


--- !ResultsGS
iteration_state: {dtset: 1, itime: 6, icycle: 1, }
comment   : Summary of ground state results
lattice_vectors:
- [ 10.3638120,   0.1026120,   0.1026120, ]
- [ -0.2052240,  10.4664240,   0.1026120, ]
- [  0.0000000,   0.1026120,  10.1585880, ]
lattice_lengths: [  10.36483,   10.46894,   10.15911, ]
lattice_angles: [ 88.860,  89.427,  90.550, ] # degrees, (23, 13, 12)
lattice_volume:   1.1020255E+03
convergence: {deltae: -4.408E-08, res2:  1.797E-06, residm:  1.566E-06, diffor:  2.039E-05, }
etotal    :  -3.81828579E+01
entropy   :   0.00000000E+00
fermie    :   3.06037421E-01
cartesian_stress_tensor: # hartree/bohr^3
- [ -7.87926012E-04,  -9.40787779E-05,   1.44815386E-05, ]
- [ -9.40787779E-05,  -7.95144948E-04,   2.15622488E-05, ]
- [  1.44815386E-05,   2.15622488E-05,  -1.18837098E-03, ]
pressure_GPa:   2.7180E+01
xred      :
- [ -3.1228E-03,  -4.0241E-03,  -7.1415E-03, Si]
- [  1.0642E-01,   1.0865E-01,   3.4939E-01, Si]
- [  3.9290E-01,   3.9174E-01,   3.5213E-01, Si]
- [  3.8361E-05,   5.0174E-01,   5.0433E-01, Si]
- [  2.4866E-01,   7.4995E-01,   7.5402E-01, Si]
- [  5.0221E-01,  -8.0915E-04,   5.0410E-01, Si]
- [  7.4969E-01,   2.4909E-01,   7.5374E-01, Si]
- [  5.0502E-01,   5.0496E-01,  -6.5777E-03, Si]
- [  7.4918E-01,   7.4971E-01,   2.4602E-01, Si]
cartesian_forces: # hartree/bohr
- [ -1.47539809E-02,  -1.60465619E-02,  -3.19665178E-02, ]
- [  2.89355565E-02,   3.04346077E-02,   2.27901983E-02, ]
- [ -3.25985821E-02,  -3.32914013E-02,   2.20815578E-02, ]
- [  7.33363116E-03,  -2.42799585E-03,   1.94727975E-03, ]
- [ -3.11197706E-03,  -4.71936360E-04,   1.07165526E-02, ]
- [ -1.59111509E-03,   6.03140768E-03,   9.71796162E-04, ]
- [ -1.32257628E-03,  -2.63707228E-03,   1.04437995E-02, ]
- [  1.77876701E-02,   1.83144582E-02,  -3.16340356E-02, ]
- [ -6.78626387E-04,   9.44940854E-05,  -5.35063079E-03, ]
force_length_stats: {min:   5.39432227E-03, max:   5.15614211E-02, mean:   2.44866665E-02, }
...

 Integrated electronic density in atomic spheres:
 ------------------------------------------------
 Atom  Sphere_radius  Integrated_density
    1        2.00000          1.90370815
    2        2.00000          1.89031068
    3        2.00000          1.87462360
    4        2.00000          1.76301696
    5        2.00000          1.80780154
    6        2.00000          1.73335439
    7        2.00000          1.80389915
    8        2.00000          1.90921387
    9        2.00000          1.80762377

---OUTPUT-----------------------------------------------------------------------

 Cartesian coordinates (xcart) [bohr]
 -3.15380810271651E-02 -4.31708948477183E-02 -7.32808594167786E-02
  1.08057872411428E+00  1.18390872452781E+00  3.57136751771247E+00
  3.99156707048580E+00  4.17655016246623E+00  3.65768118086453E+00
 -1.02571828318685E-01  5.30319315137537E+00  5.17475099181615E+00
  2.42316580678177E+00  7.95214345707021E+00  7.76219847641386E+00
  5.20497693858834E+00  9.47903541613671E-02  5.17237520040689E+00
  7.71855643567039E+00  2.76134980490751E+00  7.75938518173832E+00
  5.13028260028493E+00  5.33629527430826E+00  3.68158185134052E-02
  7.61055192142036E+00  7.94888740203096E+00  2.65301831595114E+00
 Reduced coordinates (xred)
 -3.12278121578185E-03 -4.02407325814447E-03 -7.14149509611967E-03
  1.06416011874940E-01  1.08646243847565E-01  3.49389063669899E-01
  3.92901878384007E-01  3.91738449367093E-01  3.52132369927133E-01
  3.83609436134361E-05  5.01741482119231E-01  5.04328195863420E-01
  2.48660705582240E-01  7.49946388628575E-01  7.54015164830260E-01
  5.02210082623412E-01 -8.09153777502764E-04  5.04098153040182E-01
  7.49692839830909E-01  2.49089843698939E-01  7.53736453630757E-01
  5.05018132212081E-01  5.04962278058250E-01 -6.57771447619040E-03
  7.49184769764580E-01  7.49708541315995E-01  2.46019808610660E-01
 Cartesian forces (fcart) [Ha/bohr]; max,rms= 3.32914E-02 1.77075E-02 (free atoms)
 -1.47539809186331E-02 -1.60465618550943E-02 -3.19665177880264E-02
  2.89355565005640E-02  3.04346077141011E-02  2.27901983382521E-02
 -3.25985820686143E-02 -3.32914012948822E-02  2.20815577840641E-02
  7.33363116267790E-03 -2.42799585176469E-03  1.94727974791216E-03
 -3.11197705522285E-03 -4.71936360305986E-04  1.07165525941966E-02
 -1.59111508849212E-03  6.03140768179954E-03  9.71796161668596E-04
 -1.32257627724110E-03 -2.63707228330881E-03  1.04437995196548E-02
  1.77876701316972E-02  1.83144581640344E-02 -3.16340355705043E-02
 -6.78626386735686E-04  9.44940854209299E-05 -5.35063078721770E-03
 Gradient of E wrt nuclear positions in reduced coordinates (gred)
  1.57834202620641E-01  1.68202397460863E-01  3.26381253808307E-01
 -3.05344171485867E-01 -3.14941785794066E-01 -2.34639191323347E-01
  3.38995840488021E-01  3.39486077292598E-01 -2.20901350656830E-01
 -7.59550474064867E-02  2.67176569070470E-02 -1.95324711694422E-02
  3.12007245876512E-02  3.20118677400246E-03 -1.08816616250971E-01
  1.57714048947098E-02 -6.35535230652329E-02 -1.04909716314175E-02
  1.29058679978107E-02  2.62576330855267E-02 -1.05823661213637E-01
 -1.82981320686092E-01 -1.84790396001978E-01  3.19477850956970E-01
  7.57249898961272E-03 -5.79246658761132E-04  5.43451574803671E-02
 Cartesian velocities (vel) [bohr*Ha/hbar]; max,rms= 0.00000E+00 0.00000E+00 (free atoms)
  0.00000000000000E+00  0.00000000000000E+00  0.00000000000000E+00
  0.00000000000000E+00  0.00000000000000E+00  0.00000000000000E+00
  0.00000000000000E+00  0.00000000000000E+00  0.00000000000000E+00
  0.00000000000000E+00  0.00000000000000E+00  0.00000000000000E+00
  0.00000000000000E+00  0.00000000000000E+00  0.00000000000000E+00
  0.00000000000000E+00  0.00000000000000E+00  0.00000000000000E+00
  0.00000000000000E+00  0.00000000000000E+00  0.00000000000000E+00
  0.00000000000000E+00  0.00000000000000E+00  0.00000000000000E+00
  0.00000000000000E+00  0.00000000000000E+00  0.00000000000000E+00
 Kinetic energy of ions (ekin) [Ha]=  0.00000000000000E+00
 Scale of Primitive Cell (acell) [bohr]
  1.02612000000000E+01  1.02612000000000E+01  1.02612000000000E+01
 Real space primitive translations (rprimd) [bohr]
  1.03638120000000E+01  1.02612000000000E-01  1.02612000000000E-01
 -2.05224000000000E-01  1.04664240000000E+01  1.02612000000000E-01
  0.00000000000000E+00  1.02612000000000E-01  1.01585880000000E+01
 Total energy (etotal) [Ha]= -3.81828579321412E+01

 Difference of energy with previous step (new-old):
           Absolute (Ha)=-2.60706E-04
           Relative     =-6.82785E-06

--- Iteration: ( 7/12) Internal Cycle: (1/1)
--------------------------------------------------------------------------------

---SELF-CONSISTENT-FIELD CONVERGENCE--------------------------------------------

--- !BeginCycle
iteration_state: {dtset: 1, itime: 7, icycle: 1, }
solver: {iscf: 7, nstep: 30, nline: 4, wfoptalg: 0, }
tolerances: {tolrff: 1.00E-02, }
...

     iter   Etot(hartree)      deltaE(h)  residm     vres2    diffor    maxfor
 ETOT  1  -38.183099047428    -3.818E+01 6.350E-07 8.857E-04 4.801E-04 3.306E-02
 ETOT  2  -38.183099689587    -6.422E-07 8.075E-07 3.247E-04 2.511E-04 3.284E-02
 ETOT  3  -38.183100013136    -3.235E-07 2.853E-07 2.083E-05 1.025E-04 3.290E-02

 At SCF step    3, forces are sufficiently converged : 
  for the second time, max diff in force=  1.025E-04 is less than < tolrff=  1.000E-02 times max force

 Cartesian components of stress tensor (hartree/bohr^3)
  sigma(1 1)= -7.88808879E-04  sigma(3 2)=  2.14894431E-05
  sigma(2 2)= -7.96023487E-04  sigma(3 1)=  1.42716799E-05
  sigma(3 3)= -1.18581400E-03  sigma(2 1)= -9.39006501E-05


--- !ResultsGS
iteration_state: {dtset: 1, itime: 7, icycle: 1, }
comment   : Summary of ground state results
lattice_vectors:
- [ 10.3638120,   0.1026120,   0.1026120, ]
- [ -0.2052240,  10.4664240,   0.1026120, ]
- [  0.0000000,   0.1026120,  10.1585880, ]
lattice_lengths: [  10.36483,   10.46894,   10.15911, ]
lattice_angles: [ 88.860,  89.427,  90.550, ] # degrees, (23, 13, 12)
lattice_volume:   1.1020255E+03
convergence: {deltae: -3.235E-07, res2:  2.083E-05, residm:  2.853E-07, diffor:  1.025E-04, }
etotal    :  -3.81831000E+01
entropy   :   0.00000000E+00
fermie    :   3.05998995E-01
cartesian_stress_tensor: # hartree/bohr^3
- [ -7.88808879E-04,  -9.39006501E-05,   1.42716799E-05, ]
- [ -9.39006501E-05,  -7.96023487E-04,   2.14894431E-05, ]
- [  1.42716799E-05,   2.14894431E-05,  -1.18581400E-03, ]
pressure_GPa:   2.7172E+01
xred      :
- [ -3.1658E-03,  -4.0699E-03,  -7.2304E-03, Si]
- [  1.0650E-01,   1.0873E-01,   3.4945E-01, Si]
- [  3.9281E-01,   3.9165E-01,   3.5219E-01, Si]
- [  5.9040E-05,   5.0173E-01,   5.0433E-01, Si]
- [  2.4865E-01,   7.4995E-01,   7.5404E-01, Si]
- [  5.0221E-01,  -7.9185E-04,   5.0410E-01, Si]
- [  7.4969E-01,   2.4908E-01,   7.5377E-01, Si]
- [  5.0507E-01,   5.0501E-01,  -6.6647E-03, Si]
- [  7.4918E-01,   7.4971E-01,   2.4601E-01, Si]
cartesian_forces: # hartree/bohr
- [ -1.46525035E-02,  -1.59392272E-02,  -3.14699627E-02, ]
- [  2.85830613E-02,   3.00488159E-02,   2.23838947E-02, ]
- [ -3.22362892E-02,  -3.28993169E-02,   2.16328979E-02, ]
- [  7.28507574E-03,  -2.38905731E-03,   2.01974171E-03, ]
- [ -3.09428378E-03,  -4.55126170E-04,   1.05715562E-02, ]
- [ -1.58265066E-03,   5.96973417E-03,   1.04816299E-03, ]
- [ -1.30386125E-03,  -2.61934742E-03,   1.03171153E-02, ]
- [  1.76724898E-02,   1.81918157E-02,  -3.10973678E-02, ]
- [ -6.71038499E-04,   9.17092712E-05,  -5.40603837E-03, ]
force_length_stats: {min:   5.44829828E-03, max:   5.08873821E-02, mean:   2.41923173E-02, }
...

 Integrated electronic density in atomic spheres:
 ------------------------------------------------
 Atom  Sphere_radius  Integrated_density
    1        2.00000          1.91131207
    2        2.00000          1.89028882
    3        2.00000          1.87893264
    4        2.00000          1.76312196
    5        2.00000          1.80799468
    6        2.00000          1.73345891
    7        2.00000          1.80400012
    8        2.00000          1.90259990
    9        2.00000          1.80740376

---OUTPUT-----------------------------------------------------------------------

 Cartesian coordinates (xcart) [bohr]
 -3.19740199522044E-02 -4.36637119979504E-02 -7.41926323173156E-02
  1.08142267083020E+00  1.18482123116454E+00  3.57203378200469E+00
  3.99062954531701E+00  4.17557950319960E+00  3.65827316821172E+00
 -1.02356024735951E-01  5.30311968738857E+00  5.17480638779864E+00
  2.42307795129907E+00  7.95213650362626E+00  7.76249846682964E+00
  5.20492888793590E+00  9.49713013973330E-02  5.17240554987913E+00
  7.71852148821782E+00  2.76127757996310E+00  7.75967676159074E+00
  5.13078856620055E+00  5.33681801841244E+00  3.59425204975544E-02
  7.61053052288763E+00  7.94888732284611E+00  2.65286781950521E+00
 Reduced coordinates (xred)
 -3.16575157930803E-03 -4.06986636283827E-03 -7.23035239632084E-03
  1.06499141829231E-01  1.08731986752464E-01  3.49452944192506E-01
  3.92809586762433E-01  3.91646024278543E-01  3.52192510322456E-01
  5.90397061662523E-05  5.01734208236823E-01  5.04333513578926E-01
  2.48652211184602E-01  7.49945517105438E-01  7.54044790155319E-01
  5.02205788858243E-01 -7.91851330098213E-04  5.04101009207332E-01
  7.49689326208195E-01  2.49082695058022E-01  7.53765264123771E-01
  5.05067948878797E-01  5.05012587245742E-01 -6.66469232488382E-03
  7.49182708151641E-01  7.49708699015904E-01  2.46005013140894E-01
 Cartesian forces (fcart) [Ha/bohr]; max,rms= 3.28993E-02 1.74783E-02 (free atoms)
 -1.46525034578630E-02 -1.59392272239612E-02 -3.14699626789983E-02
  2.85830613047075E-02  3.00488159032237E-02  2.23838947386232E-02
 -3.22362891709664E-02 -3.28993168921735E-02  2.16328978545673E-02
  7.28507574321131E-03 -2.38905731043935E-03  2.01974170979378E-03
 -3.09428377762436E-03 -4.55126169887925E-04  1.05715561787941E-02
 -1.58265066191396E-03  5.96973416931829E-03  1.04816299195872E-03
 -1.30386125188837E-03 -2.61934742087297E-03  1.03171153379678E-02
  1.76724897713201E-02  1.81918156736328E-02 -3.10973677594143E-02
 -6.71038498982687E-04  9.17092711601023E-05 -5.40603837329230E-03
 Gradient of E wrt nuclear positions in reduced coordinates (gred)
  1.56720542960965E-01  1.67048860799101E-01  3.21325941215226E-01
 -3.01609699050844E-01 -3.10934573974804E-01 -2.30472133582503E-01
  3.35246910335819E-01  3.35502744780375E-01 -2.16383831845694E-01
 -7.54632591959888E-02  2.62927094193574E-02 -2.02725779474717E-02
  3.10305082298748E-02  3.04375365094545E-03 -1.07345382332679E-01
  1.56821734582389E-02 -6.29141209837445E-02 -1.12604223547381E-02
  1.27230895271467E-02  2.60889572495458E-02 -1.04538547589345E-01
 -1.81830097051258E-01 -1.83585474028729E-01  3.14038648362471E-01
  7.49983078604675E-03 -5.42856912047556E-04  5.49083060747344E-02
 Cartesian velocities (vel) [bohr*Ha/hbar]; max,rms= 0.00000E+00 0.00000E+00 (free atoms)
  0.00000000000000E+00  0.00000000000000E+00  0.00000000000000E+00
  0.00000000000000E+00  0.00000000000000E+00  0.00000000000000E+00
  0.00000000000000E+00  0.00000000000000E+00  0.00000000000000E+00
  0.00000000000000E+00  0.00000000000000E+00  0.00000000000000E+00
  0.00000000000000E+00  0.00000000000000E+00  0.00000000000000E+00
  0.00000000000000E+00  0.00000000000000E+00  0.00000000000000E+00
  0.00000000000000E+00  0.00000000000000E+00  0.00000000000000E+00
  0.00000000000000E+00  0.00000000000000E+00  0.00000000000000E+00
  0.00000000000000E+00  0.00000000000000E+00  0.00000000000000E+00
 Kinetic energy of ions (ekin) [Ha]=  0.00000000000000E+00
 Scale of Primitive Cell (acell) [bohr]
  1.02612000000000E+01  1.02612000000000E+01  1.02612000000000E+01
 Real space primitive translations (rprimd) [bohr]
  1.03638120000000E+01  1.02612000000000E-01  1.02612000000000E-01
 -2.05224000000000E-01  1.04664240000000E+01  1.02612000000000E-01
  0.00000000000000E+00  1.02612000000000E-01  1.01585880000000E+01
 Total energy (etotal) [Ha]= -3.81831000131360E+01

 Difference of energy with previous step (new-old):
           Absolute (Ha)=-2.42081E-04
           Relative     =-6.34002E-06

--- Iteration: ( 8/12) Internal Cycle: (1/1)
--------------------------------------------------------------------------------

---SELF-CONSISTENT-FIELD CONVERGENCE--------------------------------------------

--- !BeginCycle
iteration_state: {dtset: 1, itime: 8, icycle: 1, }
solver: {iscf: 7, nstep: 30, nline: 4, wfoptalg: 0, }
tolerances: {tolrff: 1.00E-02, }
...

     iter   Etot(hartree)      deltaE(h)  residm     vres2    diffor    maxfor
 ETOT  1  -38.183568810428    -3.818E+01 3.857E-07 2.521E-03 9.176E-04 3.242E-02
 ETOT  2  -38.183571255412    -2.445E-06 2.303E-07 5.725E-04 4.126E-04 3.200E-02
 ETOT  3  -38.183571835857    -5.804E-07 1.018E-07 2.541E-05 1.368E-04 3.213E-02
 ETOT  4  -38.183571860155    -2.430E-08 7.730E-08 2.436E-06 2.300E-05 3.211E-02

 At SCF step    4, forces are sufficiently converged : 
  for the second time, max diff in force=  2.300E-05 is less than < tolrff=  1.000E-02 times max force

 Cartesian components of stress tensor (hartree/bohr^3)
  sigma(1 1)= -7.90700039E-04  sigma(3 2)=  2.12267162E-05
  sigma(2 2)= -7.97861132E-04  sigma(3 1)=  1.39013122E-05
  sigma(3 3)= -1.18078043E-03  sigma(2 1)= -9.38298086E-05


--- !ResultsGS
iteration_state: {dtset: 1, itime: 8, icycle: 1, }
comment   : Summary of ground state results
lattice_vectors:
- [ 10.3638120,   0.1026120,   0.1026120, ]
- [ -0.2052240,  10.4664240,   0.1026120, ]
- [  0.0000000,   0.1026120,  10.1585880, ]
lattice_lengths: [  10.36483,   10.46894,   10.15911, ]
lattice_angles: [ 88.860,  89.427,  90.550, ] # degrees, (23, 13, 12)
lattice_volume:   1.1020255E+03
convergence: {deltae: -2.430E-08, res2:  2.436E-06, residm:  7.730E-08, diffor:  2.300E-05, }
etotal    :  -3.81835719E+01
entropy   :   0.00000000E+00
fermie    :   3.05932229E-01
cartesian_stress_tensor: # hartree/bohr^3
- [ -7.90700039E-04,  -9.38298086E-05,   1.39013122E-05, ]
- [ -9.38298086E-05,  -7.97861132E-04,   2.12267162E-05, ]
- [  1.39013122E-05,   2.12267162E-05,  -1.18078043E-03, ]
pressure_GPa:   2.7159E+01
xred      :
- [ -3.2514E-03,  -4.1612E-03,  -7.4066E-03, Si]
- [  1.0666E-01,   1.0890E-01,   3.4958E-01, Si]
- [  3.9263E-01,   3.9146E-01,   3.5231E-01, Si]
- [  1.0029E-04,   5.0172E-01,   5.0434E-01, Si]
- [  2.4864E-01,   7.4994E-01,   7.5410E-01, Si]
- [  5.0220E-01,  -7.5741E-04,   5.0411E-01, Si]
- [  7.4968E-01,   2.4907E-01,   7.5382E-01, Si]
- [  5.0517E-01,   5.0511E-01,  -6.8371E-03, Si]
- [  7.4918E-01,   7.4971E-01,   2.4598E-01, Si]
cartesian_forces: # hartree/bohr
- [ -1.44707276E-02,  -1.57439411E-02,  -3.05250827E-02, ]
- [  2.78322388E-02,   2.92769278E-02,   2.16390206E-02, ]
- [ -3.14640909E-02,  -3.21099437E-02,   2.08039036E-02, ]
- [  7.16622110E-03,  -2.33832362E-03,   2.15150924E-03, ]
- [ -3.06342719E-03,  -4.21407682E-04,   1.02876005E-02, ]
- [ -1.52952396E-03,   5.88480531E-03,   1.19734918E-03, ]
- [ -1.26915785E-03,  -2.59412403E-03,   1.00260569E-02, ]
- [  1.74593588E-02,   1.79671408E-02,  -3.00588609E-02, ]
- [ -6.60891185E-04,   7.88662263E-05,  -5.52149638E-03, ]
force_length_stats: {min:   5.56146737E-03, max:   4.95362484E-02, mean:   2.36151354E-02, }
...

 Integrated electronic density in atomic spheres:
 ------------------------------------------------
 Atom  Sphere_radius  Integrated_density
    1        2.00000          1.90143281
    2        2.00000          1.89038571
    3        2.00000          1.87878079
    4        2.00000          1.76322025
    5        2.00000          1.80830041
    6        2.00000          1.73358850
    7        2.00000          1.80432364
    8        2.00000          1.90222834
    9        2.00000          1.80736186

---OUTPUT-----------------------------------------------------------------------

 Cartesian coordinates (xcart) [bohr]
 -3.28433343488735E-02 -4.46464724848800E-02 -7.60016678307831E-02
  1.08310036457704E+00  1.18663462890577E+00  3.57335392988968E+00
  3.98876450105907E+00  4.17364927528892E+00  3.65944392254405E+00
 -1.01925551557915E-01  5.30297403221234E+00  5.17491978373575E+00
  2.42290257800790E+00  7.95212307437323E+00  7.76309434836658E+00
  5.20483300694941E+00  9.53315059297654E-02  5.17246886877753E+00
  7.71845211096352E+00  2.76113348253249E+00  7.76025641988829E+00
  5.13179799335982E+00  5.33786088615203E+00  3.42116566872549E-02
  7.61048791899004E+00  7.94888702309033E+00  2.65256456194164E+00
 Reduced coordinates (xred)
 -3.25143984797616E-03 -4.16119442589554E-03 -7.40664377792195E-03
  1.06664396026063E-01  1.08902384373323E-01  3.49579507646076E-01
  3.92625990049917E-01  3.91462237029520E-01  3.52311469013900E-01
  1.00290192401403E-04  5.01719780617310E-01  5.04344405209644E-01
  2.48635255947028E-01  7.49943823329509E-01  7.54103636438829E-01
  5.02197219335202E-01 -7.57410617721736E-04  5.04106980923472E-01
  7.49682349634767E-01  2.49068434342336E-01  7.53822539554005E-01
  5.05167335325926E-01  5.05112942438642E-01 -6.83709420784886E-03
  7.49178603336673E-01  7.49709002912977E-01  2.45975199199845E-01
 Cartesian forces (fcart) [Ha/bohr]; max,rms= 3.21099E-02 1.70285E-02 (free atoms)
 -1.44707275545407E-02 -1.57439410842897E-02 -3.05250827255094E-02
  2.78322388118908E-02  2.92769278182607E-02  2.16390206035062E-02
 -3.14640909215059E-02 -3.21099437128024E-02  2.08039036374099E-02
  7.16622109720443E-03 -2.33832361917686E-03  2.15150924270167E-03
 -3.06342719438082E-03 -4.21407682001508E-04  1.02876005091131E-02
 -1.52952396489255E-03  5.88480531145470E-03  1.19734917542465E-03
 -1.26915785472595E-03 -2.59412403273755E-03  1.00260568683299E-02
  1.74593587659644E-02  1.79671407749745E-02 -3.00588609266101E-02
 -6.60891185013767E-04  7.88662263181498E-05 -5.52149638436602E-03
 Gradient of E wrt nuclear positions in reduced coordinates (gred)
  1.54719656949650E-01  1.64945262016172E-01  3.11707256356908E-01
 -2.93672677884994E-01 -3.02933319767547E-01 -2.22826059151819E-01
  3.27248058445610E-01  3.27484368759007E-01 -2.08043420299890E-01
 -7.42501988050615E-02  2.57237963395601E-02 -2.16163559115873E-02
  3.07363937398747E-02  2.72631143070422E-03 -1.04464253595605E-01
  1.51249847854333E-02 -6.20296249668967E-02 -1.27672286078977E-02
  1.23907079125772E-02  2.58619466362697E-02 -1.01584392734687E-01
 -1.79704756302807E-01 -1.81384234137784E-01  3.03511939653529E-01
  7.40783115971751E-03 -3.94506309486413E-04  5.60825142910491E-02
 Cartesian velocities (vel) [bohr*Ha/hbar]; max,rms= 0.00000E+00 0.00000E+00 (free atoms)
  0.00000000000000E+00  0.00000000000000E+00  0.00000000000000E+00
  0.00000000000000E+00  0.00000000000000E+00  0.00000000000000E+00
  0.00000000000000E+00  0.00000000000000E+00  0.00000000000000E+00
  0.00000000000000E+00  0.00000000000000E+00  0.00000000000000E+00
  0.00000000000000E+00  0.00000000000000E+00  0.00000000000000E+00
  0.00000000000000E+00  0.00000000000000E+00  0.00000000000000E+00
  0.00000000000000E+00  0.00000000000000E+00  0.00000000000000E+00
  0.00000000000000E+00  0.00000000000000E+00  0.00000000000000E+00
  0.00000000000000E+00  0.00000000000000E+00  0.00000000000000E+00
 Kinetic energy of ions (ekin) [Ha]=  0.00000000000000E+00
 Scale of Primitive Cell (acell) [bohr]
  1.02612000000000E+01  1.02612000000000E+01  1.02612000000000E+01
 Real space primitive translations (rprimd) [bohr]
  1.03638120000000E+01  1.02612000000000E-01  1.02612000000000E-01
 -2.05224000000000E-01  1.04664240000000E+01  1.02612000000000E-01
  0.00000000000000E+00  1.02612000000000E-01  1.01585880000000E+01
 Total energy (etotal) [Ha]= -3.81835718601548E+01

 Difference of energy with previous step (new-old):
           Absolute (Ha)=-4.71847E-04
           Relative     =-1.23574E-05

--- Iteration: ( 9/12) Internal Cycle: (1/1)
--------------------------------------------------------------------------------

---SELF-CONSISTENT-FIELD CONVERGENCE--------------------------------------------

--- !BeginCycle
iteration_state: {dtset: 1, itime: 9, icycle: 1, }
solver: {iscf: 7, nstep: 30, nline: 4, wfoptalg: 0, }
tolerances: {tolrff: 1.00E-02, }
...

     iter   Etot(hartree)      deltaE(h)  residm     vres2    diffor    maxfor
 ETOT  1  -38.184241435081    -3.818E+01 8.660E-07 7.009E-03 1.384E-03 3.141E-02
 ETOT  2  -38.184246835071    -5.400E-06 1.968E-07 2.445E-03 7.062E-04 3.076E-02
 ETOT  3  -38.184249282961    -2.448E-06 1.880E-08 1.413E-04 2.716E-04 3.095E-02
 ETOT  4  -38.184249439573    -1.566E-07 2.657E-09 9.319E-06 5.344E-05 3.094E-02

 At SCF step    4, forces are sufficiently converged : 
  for the second time, max diff in force=  5.344E-05 is less than < tolrff=  1.000E-02 times max force

 Cartesian components of stress tensor (hartree/bohr^3)
  sigma(1 1)= -7.93523933E-04  sigma(3 2)=  2.09117229E-05
  sigma(2 2)= -8.00575055E-04  sigma(3 1)=  1.32931565E-05
  sigma(3 3)= -1.17337832E-03  sigma(2 1)= -9.36275669E-05


--- !ResultsGS
iteration_state: {dtset: 1, itime: 9, icycle: 1, }
comment   : Summary of ground state results
lattice_vectors:
- [ 10.3638120,   0.1026120,   0.1026120, ]
- [ -0.2052240,  10.4664240,   0.1026120, ]
- [  0.0000000,   0.1026120,  10.1585880, ]
lattice_lengths: [  10.36483,   10.46894,   10.15911, ]
lattice_angles: [ 88.860,  89.427,  90.550, ] # degrees, (23, 13, 12)
lattice_volume:   1.1020255E+03
convergence: {deltae: -1.566E-07, res2:  9.319E-06, residm:  2.657E-09, diffor:  5.344E-05, }
etotal    :  -3.81842494E+01
entropy   :   0.00000000E+00
fermie    :   3.05826873E-01
cartesian_stress_tensor: # hartree/bohr^3
- [ -7.93523933E-04,  -9.36275669E-05,   1.32931565E-05, ]
- [ -9.36275669E-05,  -8.00575055E-04,   2.09117229E-05, ]
- [  1.32931565E-05,   2.09117229E-05,  -1.17337832E-03, ]
pressure_GPa:   2.7141E+01
xred      :
- [ -3.3795E-03,  -4.2977E-03,  -7.6676E-03, Si]
- [  1.0691E-01,   1.0916E-01,   3.4977E-01, Si]
- [  3.9235E-01,   3.9119E-01,   3.5249E-01, Si]
- [  1.6186E-04,   5.0170E-01,   5.0436E-01, Si]
- [  2.4861E-01,   7.4994E-01,   7.5419E-01, Si]
- [  5.0218E-01,  -7.0599E-04,   5.0412E-01, Si]
- [  7.4967E-01,   2.4905E-01,   7.5391E-01, Si]
- [  5.0532E-01,   5.0526E-01,  -7.0918E-03, Si]
- [  7.4917E-01,   7.4971E-01,   2.4593E-01, Si]
cartesian_forces: # hartree/bohr
- [ -1.41916989E-02,  -1.54486934E-02,  -2.91244882E-02, ]
- [  2.67189906E-02,   2.81401629E-02,   2.05236764E-02, ]
- [ -3.03227189E-02,  -3.09440462E-02,   1.95631423E-02, ]
- [  6.98489309E-03,  -2.26930434E-03,   2.35342654E-03, ]
- [ -3.01978289E-03,  -3.76756422E-04,   9.87950397E-03, ]
- [ -1.44823119E-03,   5.75831911E-03,   1.41355293E-03, ]
- [ -1.21309242E-03,  -2.54926147E-03,   9.60269107E-03, ]
- [  1.71376329E-02,   1.76251853E-02,  -2.85255637E-02, ]
- [ -6.45992324E-04,   6.43946033E-05,  -5.68594117E-03, ]
force_length_stats: {min:   5.72288212E-03, max:   4.75364892E-02, mean:   2.27632553E-02, }
...

 Integrated electronic density in atomic spheres:
 ------------------------------------------------
 Atom  Sphere_radius  Integrated_density
    1        2.00000          1.89563273
    2        2.00000          1.88690542
    3        2.00000          1.87857944
    4        2.00000          1.76342272
    5        2.00000          1.80871679
    6        2.00000          1.73379400
    7        2.00000          1.80257143
    8        2.00000          1.90166648
    9        2.00000          1.80712563

---OUTPUT-----------------------------------------------------------------------

 Cartesian coordinates (xcart) [bohr]
 -3.41426913661760E-02 -4.61153098623995E-02 -7.86798062809311E-02
  1.08558959117233E+00  1.18932561426775E+00  3.57530450459713E+00
  3.98599345406020E+00  4.17078164651745E+00  3.66116780345132E+00
 -1.01283076585347E-01  5.30275770616054E+00  5.17509690255613E+00
  2.42263993631211E+00  7.95210426315941E+00  7.76397802505324E+00
  5.20469109501808E+00  9.58693623450974E-02  5.17257127563493E+00
  7.71834924445742E+00  2.76091758292277E+00  7.76111567310913E+00
  5.13330776820265E+00  5.33942070512321E+00  3.16549621566514E-02
  7.61042426672874E+00  7.94888586536617E+00  2.65210248372239E+00
 Reduced coordinates (xred)
 -3.37951772179284E-03 -4.29771836214747E-03 -7.66760397526564E-03
  1.06909587803143E-01  1.09155253854004E-01  3.49766489109018E-01
  3.92353206377650E-01  3.91189210009379E-01  3.52486679154723E-01
  1.61857803508570E-04  5.01698341478789E-01  5.04361435249404E-01
  2.48609866153787E-01  7.49941419380339E-01  7.54190905324836E-01
  5.02184544489254E-01 -7.05992602301045E-04  5.04116670394420E-01
  7.49672001141581E-01  2.49047075574557E-01  7.53907443751940E-01
  5.05315984577148E-01  5.05263012853322E-01 -7.09178971798876E-03
  7.49172469375721E-01  7.49709397814058E-01  2.45929770708913E-01
 Cartesian forces (fcart) [Ha/bohr]; max,rms= 3.09440E-02 1.63635E-02 (free atoms)
 -1.41916988832800E-02 -1.54486934318391E-02 -2.91244882084409E-02
  2.67189905637380E-02  2.81401628621656E-02  2.05236763551883E-02
 -3.03227188627061E-02 -3.09440461881024E-02  1.95631422611124E-02
  6.98489309177160E-03 -2.26930434242954E-03  2.35342653812287E-03
 -3.01978289466228E-03 -3.76756422267972E-04  9.87950397415054E-03
 -1.44823119067070E-03  5.75831911459142E-03  1.41355293034135E-03
 -1.21309241862913E-03 -2.54926147273032E-03  9.60269106867961E-03
  1.71376329180369E-02  1.76251852773282E-02 -2.85255637446233E-02
 -6.45992323598262E-04  6.43946032841070E-05 -5.68594117453088E-03
 Gradient of E wrt nuclear positions in reduced coordinates (gred)
  1.51653842501397E-01  1.61768620476065E-01  2.97448897750837E-01
 -2.81904088902125E-01 -2.91149473303185E-01 -2.11379090729312E-01
  3.15426774935696E-01  3.15643144870686E-01 -1.95558671748575E-01
 -7.23987507899641E-02  2.49434793288446E-02 -2.36746327318711E-02
  3.03213662693019E-02  2.30980487360993E-03 -1.00323150787756E-01
  1.42732756583727E-02 -6.07112686717808E-02 -1.49505744765170E-02
  1.18484952475980E-02  2.54473444459999E-02 -9.72881974397561E-02
 -1.76492696052260E-01 -1.78028543466140E-01  2.87970894037688E-01
  7.27178113198433E-03 -2.23108554100423E-04  5.77545261252632E-02
 Cartesian velocities (vel) [bohr*Ha/hbar]; max,rms= 0.00000E+00 0.00000E+00 (free atoms)
  0.00000000000000E+00  0.00000000000000E+00  0.00000000000000E+00
  0.00000000000000E+00  0.00000000000000E+00  0.00000000000000E+00
  0.00000000000000E+00  0.00000000000000E+00  0.00000000000000E+00
  0.00000000000000E+00  0.00000000000000E+00  0.00000000000000E+00
  0.00000000000000E+00  0.00000000000000E+00  0.00000000000000E+00
  0.00000000000000E+00  0.00000000000000E+00  0.00000000000000E+00
  0.00000000000000E+00  0.00000000000000E+00  0.00000000000000E+00
  0.00000000000000E+00  0.00000000000000E+00  0.00000000000000E+00
  0.00000000000000E+00  0.00000000000000E+00  0.00000000000000E+00
 Kinetic energy of ions (ekin) [Ha]=  0.00000000000000E+00
 Scale of Primitive Cell (acell) [bohr]
  1.02612000000000E+01  1.02612000000000E+01  1.02612000000000E+01
 Real space primitive translations (rprimd) [bohr]
  1.03638120000000E+01  1.02612000000000E-01  1.02612000000000E-01
 -2.05224000000000E-01  1.04664240000000E+01  1.02612000000000E-01
  0.00000000000000E+00  1.02612000000000E-01  1.01585880000000E+01
 Total energy (etotal) [Ha]= -3.81842494395731E+01

 Difference of energy with previous step (new-old):
           Absolute (Ha)=-6.77579E-04
           Relative     =-1.77452E-05

--- Iteration: (10/12) Internal Cycle: (1/1)
--------------------------------------------------------------------------------

---SELF-CONSISTENT-FIELD CONVERGENCE--------------------------------------------

--- !BeginCycle
iteration_state: {dtset: 1, itime: 10, icycle: 1, }
solver: {iscf: 7, nstep: 30, nline: 4, wfoptalg: 0, }
tolerances: {tolrff: 1.00E-02, }
...

     iter   Etot(hartree)      deltaE(h)  residm     vres2    diffor    maxfor
 ETOT  1  -38.185084531003    -3.819E+01 1.482E-06 1.234E-02 1.783E-03 2.998E-02
 ETOT  2  -38.185093361675    -8.831E-06 3.411E-07 4.910E-03 1.044E-03 2.917E-02
 ETOT  3  -38.185098288447    -4.927E-06 9.740E-08 3.279E-04 4.275E-04 2.939E-02
 ETOT  4  -38.185098658003    -3.696E-07 2.612E-08 1.397E-05 7.804E-05 2.939E-02
[...]
 Reduced coordinates (xred)
 -4.04460836565059E-03 -5.00718355871968E-03 -8.96559843754301E-03
  1.08140382480214E-01  1.10425844433202E-01  3.50687761566513E-01
  3.90974845835095E-01  3.89810789126313E-01  3.53337579540693E-01
  4.79459649592670E-04  5.01589770971326E-01  5.04467477045785E-01
  2.48476881675760E-01  7.49931665867017E-01  7.54628770412363E-01
  5.02121768917996E-01 -4.40615654012494E-04  5.04184448772106E-01
  7.49620333714397E-01  2.48935539473676E-01  7.54332668184690E-01
  5.06090246966804E-01  5.06043924017782E-01 -8.34728864003262E-03
  7.49140689125793E-01  7.49710265323417E-01  2.45674181555425E-01
 Cartesian forces (fcart) [Ha/bohr]; max,rms= 2.49108E-02 1.31094E-02 (free atoms)
 -1.28166563568043E-02 -1.39771104776103E-02 -2.23894086146379E-02
  2.10693068699371E-02  2.22417962035327E-02  1.51711683782187E-02
 -2.45260199032244E-02 -2.49108392316151E-02  1.36179504517559E-02
  6.13155392093644E-03 -1.84051787197283E-03  3.34171874661951E-03
 -2.76913713122527E-03 -1.42189412133666E-04  7.81707917022921E-03
 -1.13394662090955E-03  5.01717379763612E-03  2.48767557714996E-03
 -9.31641877138694E-04 -2.30873353218512E-03  7.58376394934199E-03
  1.55321677720379E-02  1.59271036559622E-02 -2.11852957993021E-02
 -5.55626673609383E-04 -6.68313161393129E-06 -6.44465185937531E-03
 Gradient of E wrt nuclear positions in reduced coordinates (gred)
  1.36561058207618E-01  1.45957501066109E-01  2.28878996940086E-01
 -2.22197354492000E-01 -2.30024886084313E-01 -1.56399924224988E-01
  2.55341845288754E-01  2.54296712553543E-01 -1.35782997008568E-01
 -6.37003133285974E-02  2.01790820054875E-02 -3.37582847389051E-02
  2.79112808423803E-02  1.17795149267559E-04 -7.93958963137825E-02
  1.09819219930963E-02 -5.29998466754018E-02 -2.57860935036517E-02
  9.11407984482722E-03  2.31948035919033E-02 -7.68034296854136E-02
 -1.60432913129647E-01 -1.61338380783844E-01  2.13578379722895E-01
  6.42039477356840E-03  6.17219177248617E-04  6.54692488123289E-02
 Cartesian velocities (vel) [bohr*Ha/hbar]; max,rms= 0.00000E+00 0.00000E+00 (free atoms)
  0.00000000000000E+00  0.00000000000000E+00  0.00000000000000E+00
  0.00000000000000E+00  0.00000000000000E+00  0.00000000000000E+00
  0.00000000000000E+00  0.00000000000000E+00  0.00000000000000E+00
  0.00000000000000E+00  0.00000000000000E+00  0.00000000000000E+00
  0.00000000000000E+00  0.00000000000000E+00  0.00000000000000E+00
  0.00000000000000E+00  0.00000000000000E+00  0.00000000000000E+00
  0.00000000000000E+00  0.00000000000000E+00  0.00000000000000E+00
  0.00000000000000E+00  0.00000000000000E+00  0.00000000000000E+00
  0.00000000000000E+00  0.00000000000000E+00  0.00000000000000E+00
 Kinetic energy of ions (ekin) [Ha]=  0.00000000000000E+00
 Scale of Primitive Cell (acell) [bohr]
  1.02612000000000E+01  1.02612000000000E+01  1.02612000000000E+01
 Real space primitive translations (rprimd) [bohr]
  1.03638120000000E+01  1.02612000000000E-01  1.02612000000000E-01
 -2.05224000000000E-01  1.04664240000000E+01  1.02612000000000E-01
  0.00000000000000E+00  1.02612000000000E-01  1.01585880000000E+01
 Total energy (etotal) [Ha]= -3.81872547780113E+01

 Difference of energy with previous step (new-old):
           Absolute (Ha)=-1.17746E-03
           Relative     =-3.08343E-05

 fconv : WARNING -
  ntime=   12 was not enough Broyd/MD steps to converge gradients: 
  max grad (force/stress) = 2.4911E-02 > tolmxf= 1.0000E-04 ha/bohr (free atoms)

================================================================================

 ----iterations are completed or convergence reached----

 Mean square residual over all n,k,spin=   37.155E-10; max=  67.235E-09
 reduced coordinates (array xred) for    9 atoms
      -0.004044608366     -0.005007183559     -0.008965598438
       0.108140382480      0.110425844433      0.350687761567
       0.390974845835      0.389810789126      0.353337579541
       0.000479459650      0.501589770971      0.504467477046
       0.248476881676      0.749931665867      0.754628770412
       0.502121768918     -0.000440615654      0.504184448772
       0.749620333714      0.248935539474      0.754332668185
       0.506090246967      0.506043924018     -0.008347288640
       0.749140689126      0.749710265323      0.245674181555
 rms dE/dt=  1.3498E-01; max dE/dt=  2.5535E-01; dE/dt below (all hartree)
    1       0.136573494622      0.145973518117      0.228939036394
    2      -0.222184918077     -0.230008869034     -0.156339884771
    3       0.255354281704      0.254312729604     -0.135722957554
    4      -0.063687876914      0.020195099056     -0.033698245285
    5       0.027923717257      0.000133812200     -0.079335856859
    6       0.010994358408     -0.052983829625     -0.025726054049
    7       0.009126516260      0.023210820643     -0.076743390231
    8      -0.160420476715     -0.161322363733      0.213638419177
    9       0.006432831188      0.000633236228      0.065529288267

 cartesian coordinates (angstrom) at end:
    1     -0.02163803831941    -0.02843920533068    -0.04868781860623
    2      0.58108132232805     0.63651814989513     1.89705796077353
    3      2.10188725257821     2.19941943598806     1.94183104482042
    4     -0.05184308338810     2.80552019673943     2.73912473163290
    5      1.28127757229066     4.20803487065065     4.11086629658010
    6      2.75383080570197     0.05220196812490     2.73758218588107
    7      4.08410326159540     1.46041719072639     4.10928254160862
    8      2.72059095064968     2.82979876225129     0.01008635326051
    9      4.02708868323617     4.20635843427728     1.40205654178623

 cartesian forces (hartree/bohr) at end:
    1     -0.01281665635680    -0.01397711047761    -0.02238940861464
    2      0.02106930686994     0.02224179620353     0.01517116837822
    3     -0.02452601990322    -0.02491083923162     0.01361795045176
    4      0.00613155392094    -0.00184051787197     0.00334171874662
    5     -0.00276913713123    -0.00014218941213     0.00781707917023
    6     -0.00113394662091     0.00501717379764     0.00248767557715
    7     -0.00093164187714    -0.00230873353219     0.00758376394934
    8      0.01553216777204     0.01592710365596    -0.02118529579930
    9     -0.00055562667361    -0.00000668313161    -0.00644465185938
 frms,max,avg= 1.3109365E-02 2.4910839E-02  -1.127E-06 -1.495E-06 -5.895E-06 h/b

 cartesian forces (eV/Angstrom) at end:
    1     -0.65905891309262    -0.71873185822438    -1.15130958461845
    2      1.08342722928228     1.14371904988664     0.78013277904464
    3     -1.26117854531736    -1.28096674913946     0.70026310867878
    4      0.31529715318893    -0.09464322631901     0.17183807255931
    5     -0.14239474454980    -0.00731167293600     0.40197033907015
    6     -0.05830987479702     0.25799342806842     0.12792141072996
    7     -0.04790694747875    -0.11871984158603     0.38997278903798
    8      0.79869611268597     0.81900453066600    -1.08939161933768
    9     -0.02857146992163    -0.00034366041617    -0.33139729516469
 frms,max,avg= 6.7411060E-01 1.2809667E+00  -5.794E-05 -7.686E-05 -3.031E-04 e/A
 length scales= 10.261200000000 10.261200000000 10.261200000000 bohr
              =  5.429993172784  5.429993172784  5.429993172784 angstroms
 prteigrs : about to open file t17o_EIG
 Fermi (or HOMO) energy (eV) =   8.30741   Average Vxc (eV)=  -9.83549
 Eigenvalues (   eV  ) for nkpt=   1  k points:
 kpt#   1, nband= 20, wtk=  1.00000, kpt=  0.5000  0.5000  0.5000 (reduced coord)
  -2.78908   -1.98977   -1.80736   -1.54919   -0.90900    0.31441    0.97463    1.60663
   5.67138    6.11802    6.23044    6.27080    6.87908    7.00959    7.34678    7.38891
   7.92277    8.30741    8.69376    8.89226

--- !EnergyTerms
iteration_state     : {dtset: 1, itime: 12, icycle: 1, }
comment             : Components of total free energy in Hartree
kinetic             :  1.47548036684704E+01
hartree             :  2.81348647698456E+00
xc                  : -1.52324649412027E+01
Ewald energy        : -3.87271943493769E+01
psp_core            : -1.16808117997316E+00
local_psp           : -9.57516314599696E+00
non_local_psp       :  8.94735869308345E+00
total_energy        : -3.81872547780113E+01
total_energy_eV     : -1.03912804832408E+03
band_energy         :  4.63015332542267E+00
...

 rms coord change=  1.5875E-02   atom, delta coord (reduced):
     1       -0.004044608366     -0.005007183559     -0.008965598438
     2       -0.040859617520     -0.040574155567      0.000687761567
     3        0.038974845835      0.039810789126      0.003337579541
     4        0.000479459650      0.001589770971      0.004467477046
     5       -0.001523118324     -0.000068334133      0.004628770412
     6        0.002121768918     -0.000440615654      0.004184448772
     7       -0.000379666286     -0.001064460526      0.004332668185
     8        0.006090246967      0.006043924018     -0.008347288640
     9       -0.000859310874     -0.000289734677     -0.004325818445

 Cartesian components of stress tensor (hartree/bohr^3)
  sigma(1 1)= -8.08150162E-04  sigma(3 2)=  1.91621913E-05
  sigma(2 2)= -8.15048628E-04  sigma(3 1)=  1.03069314E-05
  sigma(3 3)= -1.13751861E-03  sigma(2 1)= -9.32561123E-05

-Cartesian components of stress tensor (GPa)         [Pressure=  2.7074E+01 GPa]
- sigma(1 1)= -2.37765947E+01  sigma(3 2)=  5.63771038E-01
- sigma(2 2)= -2.39795545E+01  sigma(3 1)=  3.03240340E-01
- sigma(3 3)= -3.34669472E+01  sigma(2 1)= -2.74368909E+00

== END DATASET(S) ==============================================================
================================================================================
  
 -outvars: echo values of variables after computation  --------
            acell      1.0261200000E+01  1.0261200000E+01  1.0261200000E+01 Bohr
              amu      2.80855000E+01
        boxcutmin      1.50000000E+00
            dtion      3.00000000E-02
             ecut      1.20000000E+01 Hartree
           ecutsm      5.00000000E-01 Hartree
           enunit           1
           etotal     -3.8187254778E+01
            fcart     -1.2816656357E-02 -1.3977110478E-02 -2.2389408615E-02
                       2.1069306870E-02  2.2241796204E-02  1.5171168378E-02
                      -2.4526019903E-02 -2.4910839232E-02  1.3617950452E-02
                       6.1315539209E-03 -1.8405178720E-03  3.3417187466E-03
                      -2.7691371312E-03 -1.4218941213E-04  7.8170791702E-03
                      -1.1339466209E-03  5.0171737976E-03  2.4876755771E-03
                      -9.3164187714E-04 -2.3087335322E-03  7.5837639493E-03
                       1.5532167772E-02  1.5927103656E-02 -2.1185295799E-02
                      -5.5562667361E-04 -6.6831316139E-06 -6.4446518594E-03
-          fftalg         512
           ionmov          15
           istwfk        1
              kpt      5.00000000E-01  5.00000000E-01  5.00000000E-01
         kptrlatt        1    0    0      0    1    0      0    0    1
          kptrlen      1.01591062E+01
P           mkmem           1
            natom           9
            nband          20
            ngfft          27      27      24
             nkpt           1
           nnsclo           1
             nsym           1
            ntime          12
           ntypat           1
              occ      2.000000  2.000000  2.000000  2.000000  2.000000  2.000000
                       2.000000  2.000000  2.000000  2.000000  2.000000  2.000000
                       2.000000  2.000000  2.000000  2.000000  2.000000  2.000000
                       0.000000  0.000000
        optforces           1
           prtden           0
            prtwf           0
            rprim      1.0100000000E+00  1.0000000000E-02  1.0000000000E-02
                      -2.0000000000E-02  1.0200000000E+00  1.0000000000E-02
                       0.0000000000E+00  1.0000000000E-02  9.9000000000E-01
           shiftk      5.00000000E-01  5.00000000E-01  5.00000000E-01
          spgroup           1
           strten     -8.0815016216E-04 -8.1504862831E-04 -1.1375186060E-03
                       1.9162191313E-05  1.0306931395E-05 -9.3256112290E-05
           tolmxf      1.00000000E-04
           tolrff      1.00000000E-02
            typat      1  1  1  1  1  1  1  1  1
           xangst     -2.1638038319E-02 -2.8439205331E-02 -4.8687818606E-02
                       5.8108132233E-01  6.3651814990E-01  1.8970579608E+00
                       2.1018872526E+00  2.1994194360E+00  1.9418310448E+00
                      -5.1843083388E-02  2.8055201967E+00  2.7391247316E+00
                       1.2812775723E+00  4.2080348707E+00  4.1108662966E+00
                       2.7538308057E+00  5.2201968125E-02  2.7375821859E+00
                       4.0841032616E+00  1.4604171907E+00  4.1092825416E+00
                       2.7205909506E+00  2.8297987623E+00  1.0086353261E-02
                       4.0270886832E+00  4.2063584343E+00  1.4020565418E+00
            xcart     -4.0889966477E-02 -5.3742309512E-02 -9.2006643173E-02
                       1.0980845601E+00  1.2028449819E+00  3.5849200041E+00
                       3.9719912696E+00  4.1563003854E+00  3.6695288710E+00
                      -9.7969229488E-02  5.3016648321E+00  5.1761955866E+00
                       2.4212637118E+00  7.9520334632E+00  7.7684114694E+00
                       5.2039860391E+00  9.8647423354E-02  5.1732805976E+00
                       7.7178366628E+00  2.7597885302E+00  7.7654186063E+00
                       5.1411718163E+00  5.3475446718E+00  1.9060445342E-02
                       7.6100947242E+00  7.9488654575E+00  2.6495028868E+00
             xred     -4.0446083657E-03 -5.0071835587E-03 -8.9655984375E-03
                       1.0814038248E-01  1.1042584443E-01  3.5068776157E-01
                       3.9097484584E-01  3.8981078913E-01  3.5333757954E-01
                       4.7945964959E-04  5.0158977097E-01  5.0446747705E-01
                       2.4847688168E-01  7.4993166587E-01  7.5462877041E-01
                       5.0212176892E-01 -4.4061565401E-04  5.0418444877E-01
                       7.4962033371E-01  2.4893553947E-01  7.5433266818E-01
                       5.0609024697E-01  5.0604392402E-01 -8.3472886400E-03
                       7.4914068913E-01  7.4971026532E-01  2.4567418156E-01
            znucl       14.00000

================================================================================


- Timing analysis has been suppressed with timopt=0



================================================================================

 Suggested references for the acknowledgment of ABINIT usage.

 The users of ABINIT have little formal obligations with respect to the ABINIT group
 (those specified in the GNU General Public License, http://www.gnu.org/copyleft/gpl.txt).
 However, it is common practice in the scientific literature,
 to acknowledge the efforts of people that have made the research possible.
 In this spirit, please find below suggested citations of work written by ABINIT developers,
 corresponding to implementations inside of ABINIT that you have used in the present run.
 Note also that it will be of great value to readers of publications presenting these results,
 to read papers enabling them to understand the theoretical formalism and details
 of the ABINIT implementation.
 For information on why they are suggested, see also https://docs.abinit.org/theory/acknowledgments.
-
- [1] The Abinit project: Impact, environment and recent developments.
- Computer Phys. Comm. 248, 107042 (2020).
- X.Gonze, B. Amadon, G. Antonius, F.Arnardi, L.Baguet, J.-M.Beuken,
- J.Bieder, F.Bottin, J.Bouchet, E.Bousquet, N.Brouwer, F.Bruneval,
- G.Brunin, T.Cavignac, J.-B. Charraud, Wei Chen, M.Cote, S.Cottenier,
- J.Denier, G.Geneste, Ph.Ghosez, M.Giantomassi, Y.Gillet, O.Gingras,
- D.R.Hamann, G.Hautier, Xu He, N.Helbig, N.Holzwarth, Y.Jia, F.Jollet,
- W.Lafargue-Dit-Hauret, K.Lejaeghere, M.A.L.Marques, A.Martin, C.Martins,
- H.P.C. Miranda, F.Naccarato, K. Persson, G.Petretto, V.Planes, Y.Pouillon,
- S.Prokhorenko, F.Ricci, G.-M.Rignanese, A.H.Romero, M.M.Schmitt, M.Torrent,
- M.J.van Setten, B.Van Troeye, M.J.Verstraete, G.Zerah and J.W.Zwanzig
- Comment: the fifth generic paper describing the ABINIT project.
- Note that a version of this paper, that is not formatted for Computer Phys. Comm. 
- is available at https://www.abinit.org/sites/default/files/ABINIT20.pdf .
- The licence allows the authors to put it on the Web.
- DOI and bibtex: see https://docs.abinit.org/theory/bibliography/#gonze2020
-
- [2] ABINIT: Overview, and focus on selected capabilities
- J. Chem. Phys. 152, 124102 (2020).
- A. Romero, D.C. Allan, B. Amadon, G. Antonius, T. Applencourt, L.Baguet,
- J.Bieder, F.Bottin, J.Bouchet, E.Bousquet, F.Bruneval,
- G.Brunin, D.Caliste, M.Cote,
- J.Denier, C. Dreyer, Ph.Ghosez, M.Giantomassi, Y.Gillet, O.Gingras,
- D.R.Hamann, G.Hautier, F.Jollet, G. Jomard,
- A.Martin, 
- H.P.C. Miranda, F.Naccarato, G.Petretto, N.A. Pike, V.Planes,
- S.Prokhorenko, T. Rangel, F.Ricci, G.-M.Rignanese, M.Royo, M.Stengel, M.Torrent,
- M.J.van Setten, B.Van Troeye, M.J.Verstraete, J.Wiktor, J.W.Zwanziger, and X.Gonze.
- Comment: a global overview of ABINIT, with focus on selected capabilities .
- Note that a version of this paper, that is not formatted for J. Chem. Phys 
- is available at https://www.abinit.org/sites/default/files/ABINIT20_JPC.pdf .
- The licence allows the authors to put it on the Web.
- DOI and bibtex: see https://docs.abinit.org/theory/bibliography/#romero2020
-
- [3] Recent developments in the ABINIT software package.
- Computer Phys. Comm. 205, 106 (2016).
- X.Gonze, F.Jollet, F.Abreu Araujo, D.Adams, B.Amadon, T.Applencourt,
- C.Audouze, J.-M.Beuken, J.Bieder, A.Bokhanchuk, E.Bousquet, F.Bruneval
- D.Caliste, M.Cote, F.Dahm, F.Da Pieve, M.Delaveau, M.Di Gennaro,
- B.Dorado, C.Espejo, G.Geneste, L.Genovese, A.Gerossier, M.Giantomassi,
- Y.Gillet, D.R.Hamann, L.He, G.Jomard, J.Laflamme Janssen, S.Le Roux,
- A.Levitt, A.Lherbier, F.Liu, I.Lukacevic, A.Martin, C.Martins,
- M.J.T.Oliveira, S.Ponce, Y.Pouillon, T.Rangel, G.-M.Rignanese,
- A.H.Romero, B.Rousseau, O.Rubel, A.A.Shukri, M.Stankovski, M.Torrent,
- M.J.Van Setten, B.Van Troeye, M.J.Verstraete, D.Waroquier, J.Wiktor,
- B.Xu, A.Zhou, J.W.Zwanziger.
- Comment: the fourth generic paper describing the ABINIT project.
- Note that a version of this paper, that is not formatted for Computer Phys. Comm. 
- is available at https://www.abinit.org/sites/default/files/ABINIT16.pdf .
- The licence allows the authors to put it on the Web.
- DOI and bibtex: see https://docs.abinit.org/theory/bibliography/#gonze2016
-
- And optionally:
-
- [4] ABINIT: First-principles approach of materials and nanosystem properties.
- Computer Phys. Comm. 180, 2582-2615 (2009).
- X. Gonze, B. Amadon, P.-M. Anglade, J.-M. Beuken, F. Bottin, P. Boulanger, F. Bruneval,
- D. Caliste, R. Caracas, M. Cote, T. Deutsch, L. Genovese, Ph. Ghosez, M. Giantomassi
- S. Goedecker, D.R. Hamann, P. Hermet, F. Jollet, G. Jomard, S. Leroux, M. Mancini, S. Mazevet,
- M.J.T. Oliveira, G. Onida, Y. Pouillon, T. Rangel, G.-M. Rignanese, D. Sangalli, R. Shaltaf,
- M. Torrent, M.J. Verstraete, G. Zerah, J.W. Zwanziger
- Comment: the third generic paper describing the ABINIT project.
- Note that a version of this paper, that is not formatted for Computer Phys. Comm. 
- is available at https://www.abinit.org/sites/default/files/ABINIT_CPC_v10.pdf .
- The licence allows the authors to put it on the Web.
- DOI and bibtex: see https://docs.abinit.org/theory/bibliography/#gonze2009
-
- Proc.   0 individual time (sec): cpu=          8.9  wall=          9.5

================================================================================

 Calculation completed.
.Delivered   1 WARNINGs and   2 COMMENTs to log file.
+Overall time at end (sec) : cpu=          8.9  wall=          9.5
