
.Version 8.3.1 of ABINIT 
.(MPI version, prepared for a x86_64_linux_gnu6.1 computer) 

.Copyright (C) 1998-2017 ABINIT group . 
 ABINIT comes with ABSOLUTELY NO WARRANTY.
 It is free software, and you are welcome to redistribute it
 under certain conditions (GNU General Public License,
 see ~abinit/COPYING or http://www.gnu.org/copyleft/gpl.txt).

 ABINIT is a project of the Universite Catholique de Louvain,
 Corning Inc. and other collaborators, see ~abinit/doc/developers/contributors.txt .
 Please read ~abinit/doc/users/acknowledgments.html for suggested
 acknowledgments of the ABINIT effort.
 For more information, see http://www.abinit.org .

.Starting date : Tue  7 Mar 2017.
- ( at 15h36 )
  
- input  file    -> t30.in
- output file    -> t30.out
- root for input  files -> t30i
- root for output files -> t30o


 DATASET   11 : space group P4 m m (# 99); Bravais tP (primitive tetrag.)
================================================================================
 Values of the parameters that define the memory need for DATASET 11.
     intxc =       0    ionmov =       0      iscf =      17    lmnmax =       8
     lnmax =       4     mgfft =      30  mpssoang =       2    mqgrid =    3001
     natom =       2  nloc_mem =       2    nspden =       1   nspinor =       1
    nsppol =       1      nsym =       8    n1xccc =       1    ntypat =       2
    occopt =       1   xclevel =       1
-    mband =           2        mffmem =           1         mkmem =           1
       mpw =         736          nfft =       27000          nkpt =           1
 PAW method is used; the additional fine FFT grid is defined by:
   mgfftf=        50    nfftf =    125000
================================================================================
P This job should need less than                      21.827 Mbytes of memory.
P Max. in XC chain
P            3 blocks of mpw  integer numbers, for      0.008 Mbytes.
P            8 blocks of mpw  real(dp)  numbers, for      0.045 Mbytes.
P           15 blocks of nfft (fine grid) real(dp)  numbers, for     14.305 Mbytes.
P            2 blocks of nfft (coarse grid) integer numbers, for      0.206 Mbytes.
P           18 blocks of nfft (coarse grid) real(dp)  numbers, for      3.708 Mbytes.
P              Additional     integer numbers, for      0.591 Mbytes.
P              Additional     real(dp)  numbers, for      2.726 Mbytes.
P              With residue estimated to be             0.237 Mbytes.
P
P Comparison of the memory needs of different chains
P Main chain + fourwf.f                20.296 Mbytes.
P Main chain + nonlop.f + opernl.f     19.608 Mbytes.
P XC chain                             21.827 Mbytes.
P mkrho chain                          18.904 Mbytes.
P fourdp chain                         18.892 Mbytes.
- parallel k-point chain               18.424 Mbytes.
P newvtr chain                         18.836 Mbytes.
  Rough estimation (10% accuracy) of disk space for files :
_ WF disk file :      0.024 Mbytes ; DEN or POT disk file :      0.956 Mbytes.
================================================================================


 DATASET   12 : space group P4 m m (# 99); Bravais tP (primitive tetrag.)
================================================================================
 Values of the parameters that define the memory need for DATASET 12.
     intxc =       0    ionmov =       0      iscf =      17    lmnmax =       8
     lnmax =       4     mgfft =      30  mpssoang =       2    mqgrid =    3001
     natom =       2  nloc_mem =       2    nspden =       1   nspinor =       1
    nsppol =       1      nsym =       8    n1xccc =       1    ntypat =       2
    occopt =       1   xclevel =       1
-    mband =           2        mffmem =           1         mkmem =           1
       mpw =         736          nfft =       27000          nkpt =           1
 PAW method is used; the additional fine FFT grid is defined by:
   mgfftf=        50    nfftf =    125000
================================================================================
P This job should need less than                      21.827 Mbytes of memory.
P Max. in XC chain
P            3 blocks of mpw  integer numbers, for      0.008 Mbytes.
P            8 blocks of mpw  real(dp)  numbers, for      0.045 Mbytes.
P           15 blocks of nfft (fine grid) real(dp)  numbers, for     14.305 Mbytes.
P            2 blocks of nfft (coarse grid) integer numbers, for      0.206 Mbytes.
P           18 blocks of nfft (coarse grid) real(dp)  numbers, for      3.708 Mbytes.
P              Additional     integer numbers, for      0.591 Mbytes.
P              Additional     real(dp)  numbers, for      2.726 Mbytes.
P              With residue estimated to be             0.237 Mbytes.
P
P Comparison of the memory needs of different chains
P Main chain + fourwf.f                20.296 Mbytes.
P Main chain + nonlop.f + opernl.f     19.608 Mbytes.
P XC chain                             21.827 Mbytes.
P mkrho chain                          18.904 Mbytes.
P fourdp chain                         18.892 Mbytes.
- parallel k-point chain               18.424 Mbytes.
P newvtr chain                         18.836 Mbytes.
  Rough estimation (10% accuracy) of disk space for files :
_ WF disk file :      0.024 Mbytes ; DEN or POT disk file :      0.956 Mbytes.
================================================================================


 DATASET   13 : space group P4 m m (# 99); Bravais tP (primitive tetrag.)
================================================================================
 Values of the parameters that define the memory need for DATASET 13.
     intxc =       0    ionmov =       0      iscf =      17    lmnmax =       8
     lnmax =       4     mgfft =      30  mpssoang =       2    mqgrid =    3001
     natom =       2  nloc_mem =       2    nspden =       1   nspinor =       1
    nsppol =       1      nsym =       8    n1xccc =       1    ntypat =       2
    occopt =       1   xclevel =       1
-    mband =           2        mffmem =           1         mkmem =           1
       mpw =         736          nfft =       27000          nkpt =           1
 PAW method is used; the additional fine FFT grid is defined by:
   mgfftf=        50    nfftf =    125000
================================================================================
P This job should need less than                      21.827 Mbytes of memory.
P Max. in XC chain
P            3 blocks of mpw  integer numbers, for      0.008 Mbytes.
P            8 blocks of mpw  real(dp)  numbers, for      0.045 Mbytes.
P           15 blocks of nfft (fine grid) real(dp)  numbers, for     14.305 Mbytes.
P            2 blocks of nfft (coarse grid) integer numbers, for      0.206 Mbytes.
P           18 blocks of nfft (coarse grid) real(dp)  numbers, for      3.708 Mbytes.
P              Additional     integer numbers, for      0.591 Mbytes.
P              Additional     real(dp)  numbers, for      2.726 Mbytes.
P              With residue estimated to be             0.237 Mbytes.
P
P Comparison of the memory needs of different chains
P Main chain + fourwf.f                20.296 Mbytes.
P Main chain + nonlop.f + opernl.f     19.608 Mbytes.
P XC chain                             21.827 Mbytes.
P mkrho chain                          18.904 Mbytes.
P fourdp chain                         18.892 Mbytes.
- parallel k-point chain               18.424 Mbytes.
P newvtr chain                         18.836 Mbytes.
  Rough estimation (10% accuracy) of disk space for files :
_ WF disk file :      0.024 Mbytes ; DEN or POT disk file :      0.956 Mbytes.
================================================================================


 DATASET   14 : space group P4 m m (# 99); Bravais tP (primitive tetrag.)
================================================================================
 Values of the parameters that define the memory need for DATASET 14.
     intxc =       0    ionmov =       0      iscf =      17    lmnmax =       8
     lnmax =       4     mgfft =      30  mpssoang =       2    mqgrid =    3001
     natom =       2  nloc_mem =       2    nspden =       1   nspinor =       1
    nsppol =       1      nsym =       8    n1xccc =       1    ntypat =       2
    occopt =       1   xclevel =       1
-    mband =           2        mffmem =           1         mkmem =           1
       mpw =         736          nfft =       27000          nkpt =           1
 PAW method is used; the additional fine FFT grid is defined by:
   mgfftf=        50    nfftf =    125000
================================================================================
P This job should need less than                      21.827 Mbytes of memory.
P Max. in XC chain
P            3 blocks of mpw  integer numbers, for      0.008 Mbytes.
P            8 blocks of mpw  real(dp)  numbers, for      0.045 Mbytes.
P           15 blocks of nfft (fine grid) real(dp)  numbers, for     14.305 Mbytes.
P            2 blocks of nfft (coarse grid) integer numbers, for      0.206 Mbytes.
P           18 blocks of nfft (coarse grid) real(dp)  numbers, for      3.708 Mbytes.
P              Additional     integer numbers, for      0.591 Mbytes.
P              Additional     real(dp)  numbers, for      2.726 Mbytes.
P              With residue estimated to be             0.237 Mbytes.
P
P Comparison of the memory needs of different chains
P Main chain + fourwf.f                20.296 Mbytes.
P Main chain + nonlop.f + opernl.f     19.608 Mbytes.
P XC chain                             21.827 Mbytes.
P mkrho chain                          18.904 Mbytes.
P fourdp chain                         18.892 Mbytes.
- parallel k-point chain               18.424 Mbytes.
P newvtr chain                         18.836 Mbytes.
  Rough estimation (10% accuracy) of disk space for files :
_ WF disk file :      0.024 Mbytes ; DEN or POT disk file :      0.956 Mbytes.
================================================================================


 DATASET   15 : space group P4 m m (# 99); Bravais tP (primitive tetrag.)
================================================================================
 Values of the parameters that define the memory need for DATASET 15.
     intxc =       0    ionmov =       0      iscf =      17    lmnmax =       8
     lnmax =       4     mgfft =      30  mpssoang =       2    mqgrid =    3001
     natom =       2  nloc_mem =       2    nspden =       1   nspinor =       1
    nsppol =       1      nsym =       8    n1xccc =       1    ntypat =       2
    occopt =       1   xclevel =       1
-    mband =           2        mffmem =           1         mkmem =           1
       mpw =         736          nfft =       27000          nkpt =           1
 PAW method is used; the additional fine FFT grid is defined by:
   mgfftf=        50    nfftf =    125000
================================================================================
P This job should need less than                      21.827 Mbytes of memory.
P Max. in XC chain
P            3 blocks of mpw  integer numbers, for      0.008 Mbytes.
P            8 blocks of mpw  real(dp)  numbers, for      0.045 Mbytes.
P           15 blocks of nfft (fine grid) real(dp)  numbers, for     14.305 Mbytes.
P            2 blocks of nfft (coarse grid) integer numbers, for      0.206 Mbytes.
P           18 blocks of nfft (coarse grid) real(dp)  numbers, for      3.708 Mbytes.
P              Additional     integer numbers, for      0.591 Mbytes.
P              Additional     real(dp)  numbers, for      2.726 Mbytes.
P              With residue estimated to be             0.237 Mbytes.
P
P Comparison of the memory needs of different chains
P Main chain + fourwf.f                20.296 Mbytes.
P Main chain + nonlop.f + opernl.f     19.608 Mbytes.
P XC chain                             21.827 Mbytes.
P mkrho chain                          18.904 Mbytes.
P fourdp chain                         18.892 Mbytes.
- parallel k-point chain               18.424 Mbytes.
P newvtr chain                         18.836 Mbytes.
  Rough estimation (10% accuracy) of disk space for files :
_ WF disk file :      0.024 Mbytes ; DEN or POT disk file :      0.956 Mbytes.
================================================================================


 DATASET   16 : space group P4 m m (# 99); Bravais tP (primitive tetrag.)
================================================================================
 Values of the parameters that define the memory need for DATASET 16.
     intxc =       0    ionmov =       0      iscf =      17    lmnmax =       8
     lnmax =       4     mgfft =      30  mpssoang =       2    mqgrid =    3001
     natom =       2  nloc_mem =       2    nspden =       1   nspinor =       1
    nsppol =       1      nsym =       8    n1xccc =       1    ntypat =       2
    occopt =       1   xclevel =       1
-    mband =           2        mffmem =           1         mkmem =           1
       mpw =         736          nfft =       27000          nkpt =           1
 PAW method is used; the additional fine FFT grid is defined by:
   mgfftf=        50    nfftf =    125000
================================================================================
P This job should need less than                      21.827 Mbytes of memory.
P Max. in XC chain
P            3 blocks of mpw  integer numbers, for      0.008 Mbytes.
P            8 blocks of mpw  real(dp)  numbers, for      0.045 Mbytes.
P           15 blocks of nfft (fine grid) real(dp)  numbers, for     14.305 Mbytes.
P            2 blocks of nfft (coarse grid) integer numbers, for      0.206 Mbytes.
P           18 blocks of nfft (coarse grid) real(dp)  numbers, for      3.708 Mbytes.
P              Additional     integer numbers, for      0.591 Mbytes.
P              Additional     real(dp)  numbers, for      2.726 Mbytes.
P              With residue estimated to be             0.237 Mbytes.
P
P Comparison of the memory needs of different chains
P Main chain + fourwf.f                20.296 Mbytes.
P Main chain + nonlop.f + opernl.f     19.608 Mbytes.
P XC chain                             21.827 Mbytes.
P mkrho chain                          18.904 Mbytes.
P fourdp chain                         18.892 Mbytes.
- parallel k-point chain               18.424 Mbytes.
P newvtr chain                         18.836 Mbytes.
  Rough estimation (10% accuracy) of disk space for files :
_ WF disk file :      0.024 Mbytes ; DEN or POT disk file :      0.956 Mbytes.
================================================================================


 DATASET   21 : space group Pm (#  6); Bravais mP (primitive monocl.)
================================================================================
 Values of the parameters that define the memory need for DATASET 21.
     intxc =       0    ionmov =       0      iscf =      17    lmnmax =       8
     lnmax =       4     mgfft =      30  mpssoang =       2    mqgrid =    3001
     natom =       2  nloc_mem =       2    nspden =       1   nspinor =       1
    nsppol =       1      nsym =       2    n1xccc =       1    ntypat =       2
    occopt =       1   xclevel =       1
-    mband =           2        mffmem =           1         mkmem =           1
       mpw =         736          nfft =       27000          nkpt =           1
 PAW method is used; the additional fine FFT grid is defined by:
   mgfftf=        50    nfftf =    125000
================================================================================
P This job should need less than                      21.826 Mbytes of memory.
P Max. in XC chain
P            3 blocks of mpw  integer numbers, for      0.008 Mbytes.
P            8 blocks of mpw  real(dp)  numbers, for      0.045 Mbytes.
P           15 blocks of nfft (fine grid) real(dp)  numbers, for     14.305 Mbytes.
P            2 blocks of nfft (coarse grid) integer numbers, for      0.206 Mbytes.
P           18 blocks of nfft (coarse grid) real(dp)  numbers, for      3.708 Mbytes.
P              Additional     integer numbers, for      0.591 Mbytes.
P              Additional     real(dp)  numbers, for      2.726 Mbytes.
P              With residue estimated to be             0.237 Mbytes.
P
P Comparison of the memory needs of different chains
P Main chain + fourwf.f                20.296 Mbytes.
P Main chain + nonlop.f + opernl.f     19.607 Mbytes.
P XC chain                             21.826 Mbytes.
P mkrho chain                          18.903 Mbytes.
P fourdp chain                         18.891 Mbytes.
- parallel k-point chain               18.424 Mbytes.
P newvtr chain                         18.836 Mbytes.
  Rough estimation (10% accuracy) of disk space for files :
_ WF disk file :      0.024 Mbytes ; DEN or POT disk file :      0.956 Mbytes.
================================================================================


 DATASET   22 : space group Pm (#  6); Bravais mP (primitive monocl.)
================================================================================
 Values of the parameters that define the memory need for DATASET 22.
     intxc =       0    ionmov =       0      iscf =      17    lmnmax =       8
     lnmax =       4     mgfft =      30  mpssoang =       2    mqgrid =    3001
     natom =       2  nloc_mem =       2    nspden =       1   nspinor =       1
    nsppol =       1      nsym =       2    n1xccc =       1    ntypat =       2
    occopt =       1   xclevel =       1
-    mband =           2        mffmem =           1         mkmem =           1
       mpw =         736          nfft =       27000          nkpt =           1
 PAW method is used; the additional fine FFT grid is defined by:
   mgfftf=        50    nfftf =    125000
================================================================================
P This job should need less than                      21.826 Mbytes of memory.
P Max. in XC chain
P            3 blocks of mpw  integer numbers, for      0.008 Mbytes.
P            8 blocks of mpw  real(dp)  numbers, for      0.045 Mbytes.
P           15 blocks of nfft (fine grid) real(dp)  numbers, for     14.305 Mbytes.
P            2 blocks of nfft (coarse grid) integer numbers, for      0.206 Mbytes.
P           18 blocks of nfft (coarse grid) real(dp)  numbers, for      3.708 Mbytes.
P              Additional     integer numbers, for      0.591 Mbytes.
P              Additional     real(dp)  numbers, for      2.726 Mbytes.
P              With residue estimated to be             0.237 Mbytes.
P
P Comparison of the memory needs of different chains
P Main chain + fourwf.f                20.296 Mbytes.
P Main chain + nonlop.f + opernl.f     19.607 Mbytes.
P XC chain                             21.826 Mbytes.
P mkrho chain                          18.903 Mbytes.
P fourdp chain                         18.891 Mbytes.
- parallel k-point chain               18.424 Mbytes.
P newvtr chain                         18.836 Mbytes.
  Rough estimation (10% accuracy) of disk space for files :
_ WF disk file :      0.024 Mbytes ; DEN or POT disk file :      0.956 Mbytes.
================================================================================


 DATASET   23 : space group Pm (#  6); Bravais mP (primitive monocl.)
================================================================================
 Values of the parameters that define the memory need for DATASET 23.
     intxc =       0    ionmov =       0      iscf =      17    lmnmax =       8
     lnmax =       4     mgfft =      30  mpssoang =       2    mqgrid =    3001
     natom =       2  nloc_mem =       2    nspden =       1   nspinor =       1
    nsppol =       1      nsym =       2    n1xccc =       1    ntypat =       2
    occopt =       1   xclevel =       1
-    mband =           2        mffmem =           1         mkmem =           1
       mpw =         736          nfft =       27000          nkpt =           1
 PAW method is used; the additional fine FFT grid is defined by:
   mgfftf=        50    nfftf =    125000
================================================================================
P This job should need less than                      21.826 Mbytes of memory.
P Max. in XC chain
P            3 blocks of mpw  integer numbers, for      0.008 Mbytes.
P            8 blocks of mpw  real(dp)  numbers, for      0.045 Mbytes.
P           15 blocks of nfft (fine grid) real(dp)  numbers, for     14.305 Mbytes.
P            2 blocks of nfft (coarse grid) integer numbers, for      0.206 Mbytes.
P           18 blocks of nfft (coarse grid) real(dp)  numbers, for      3.708 Mbytes.
P              Additional     integer numbers, for      0.591 Mbytes.
P              Additional     real(dp)  numbers, for      2.726 Mbytes.
P              With residue estimated to be             0.237 Mbytes.
P
P Comparison of the memory needs of different chains
P Main chain + fourwf.f                20.296 Mbytes.
P Main chain + nonlop.f + opernl.f     19.607 Mbytes.
P XC chain                             21.826 Mbytes.
P mkrho chain                          18.903 Mbytes.
P fourdp chain                         18.891 Mbytes.
- parallel k-point chain               18.424 Mbytes.
P newvtr chain                         18.836 Mbytes.
  Rough estimation (10% accuracy) of disk space for files :
_ WF disk file :      0.024 Mbytes ; DEN or POT disk file :      0.956 Mbytes.
================================================================================


 DATASET   24 : space group Pm (#  6); Bravais mP (primitive monocl.)
================================================================================
 Values of the parameters that define the memory need for DATASET 24.
     intxc =       0    ionmov =       0      iscf =      17    lmnmax =       8
     lnmax =       4     mgfft =      30  mpssoang =       2    mqgrid =    3001
     natom =       2  nloc_mem =       2    nspden =       1   nspinor =       1
    nsppol =       1      nsym =       2    n1xccc =       1    ntypat =       2
    occopt =       1   xclevel =       1
-    mband =           2        mffmem =           1         mkmem =           1
       mpw =         736          nfft =       27000          nkpt =           1
 PAW method is used; the additional fine FFT grid is defined by:
   mgfftf=        50    nfftf =    125000
================================================================================
P This job should need less than                      21.826 Mbytes of memory.
P Max. in XC chain
P            3 blocks of mpw  integer numbers, for      0.008 Mbytes.
P            8 blocks of mpw  real(dp)  numbers, for      0.045 Mbytes.
P           15 blocks of nfft (fine grid) real(dp)  numbers, for     14.305 Mbytes.
P            2 blocks of nfft (coarse grid) integer numbers, for      0.206 Mbytes.
P           18 blocks of nfft (coarse grid) real(dp)  numbers, for      3.708 Mbytes.
P              Additional     integer numbers, for      0.591 Mbytes.
P              Additional     real(dp)  numbers, for      2.726 Mbytes.
P              With residue estimated to be             0.237 Mbytes.
P
P Comparison of the memory needs of different chains
P Main chain + fourwf.f                20.296 Mbytes.
P Main chain + nonlop.f + opernl.f     19.607 Mbytes.
P XC chain                             21.826 Mbytes.
P mkrho chain                          18.903 Mbytes.
P fourdp chain                         18.891 Mbytes.
- parallel k-point chain               18.424 Mbytes.
P newvtr chain                         18.836 Mbytes.
  Rough estimation (10% accuracy) of disk space for files :
_ WF disk file :      0.024 Mbytes ; DEN or POT disk file :      0.956 Mbytes.
================================================================================


 DATASET   25 : space group Pm (#  6); Bravais mP (primitive monocl.)
================================================================================
 Values of the parameters that define the memory need for DATASET 25.
     intxc =       0    ionmov =       0      iscf =      17    lmnmax =       8
     lnmax =       4     mgfft =      30  mpssoang =       2    mqgrid =    3001
     natom =       2  nloc_mem =       2    nspden =       1   nspinor =       1
    nsppol =       1      nsym =       2    n1xccc =       1    ntypat =       2
    occopt =       1   xclevel =       1
-    mband =           2        mffmem =           1         mkmem =           1
       mpw =         736          nfft =       27000          nkpt =           1
 PAW method is used; the additional fine FFT grid is defined by:
   mgfftf=        50    nfftf =    125000
================================================================================
P This job should need less than                      21.826 Mbytes of memory.
P Max. in XC chain
P            3 blocks of mpw  integer numbers, for      0.008 Mbytes.
P            8 blocks of mpw  real(dp)  numbers, for      0.045 Mbytes.
P           15 blocks of nfft (fine grid) real(dp)  numbers, for     14.305 Mbytes.
P            2 blocks of nfft (coarse grid) integer numbers, for      0.206 Mbytes.
P           18 blocks of nfft (coarse grid) real(dp)  numbers, for      3.708 Mbytes.
P              Additional     integer numbers, for      0.591 Mbytes.
P              Additional     real(dp)  numbers, for      2.726 Mbytes.
P              With residue estimated to be             0.237 Mbytes.
P
P Comparison of the memory needs of different chains
P Main chain + fourwf.f                20.296 Mbytes.
P Main chain + nonlop.f + opernl.f     19.607 Mbytes.
P XC chain                             21.826 Mbytes.
P mkrho chain                          18.903 Mbytes.
P fourdp chain                         18.891 Mbytes.
- parallel k-point chain               18.424 Mbytes.
P newvtr chain                         18.836 Mbytes.
  Rough estimation (10% accuracy) of disk space for files :
_ WF disk file :      0.024 Mbytes ; DEN or POT disk file :      0.956 Mbytes.
================================================================================


 DATASET   26 : space group Pm (#  6); Bravais mP (primitive monocl.)
================================================================================
 Values of the parameters that define the memory need for DATASET 26.
     intxc =       0    ionmov =       0      iscf =      17    lmnmax =       8
     lnmax =       4     mgfft =      30  mpssoang =       2    mqgrid =    3001
     natom =       2  nloc_mem =       2    nspden =       1   nspinor =       1
    nsppol =       1      nsym =       2    n1xccc =       1    ntypat =       2
    occopt =       1   xclevel =       1
-    mband =           2        mffmem =           1         mkmem =           1
       mpw =         736          nfft =       27000          nkpt =           1
 PAW method is used; the additional fine FFT grid is defined by:
   mgfftf=        50    nfftf =    125000
================================================================================
P This job should need less than                      21.826 Mbytes of memory.
P Max. in XC chain
P            3 blocks of mpw  integer numbers, for      0.008 Mbytes.
P            8 blocks of mpw  real(dp)  numbers, for      0.045 Mbytes.
P           15 blocks of nfft (fine grid) real(dp)  numbers, for     14.305 Mbytes.
P            2 blocks of nfft (coarse grid) integer numbers, for      0.206 Mbytes.
P           18 blocks of nfft (coarse grid) real(dp)  numbers, for      3.708 Mbytes.
P              Additional     integer numbers, for      0.591 Mbytes.
P              Additional     real(dp)  numbers, for      2.726 Mbytes.
P              With residue estimated to be             0.237 Mbytes.
P
P Comparison of the memory needs of different chains
P Main chain + fourwf.f                20.296 Mbytes.
P Main chain + nonlop.f + opernl.f     19.607 Mbytes.
P XC chain                             21.826 Mbytes.
P mkrho chain                          18.903 Mbytes.
P fourdp chain                         18.891 Mbytes.
- parallel k-point chain               18.424 Mbytes.
P newvtr chain                         18.836 Mbytes.
  Rough estimation (10% accuracy) of disk space for files :
_ WF disk file :      0.024 Mbytes ; DEN or POT disk file :      0.956 Mbytes.
================================================================================

--------------------------------------------------------------------------------
------------- Echo of variables that govern the present computation ------------
--------------------------------------------------------------------------------
-
- outvars: echo of selected default values                                      
-   iomode0 =  0 , fftalg0 =312 , wfoptalg0 = 10
-
- outvars: echo of global parameters not present in the input file              
-  max_nthreads =    1
-
 -outvars: echo values of preprocessed input variables --------
            acell      1.0000000000E+01  1.0000000000E+01  1.0000000000E+01 Bohr
              amu      6.94100000E+00  1.00794000E+00
          chempot21   -2.00000000E-01 -1.00000000E-02  5.00000000E-02
                       2.00000000E-01  1.00000000E-02  5.00000000E-02
                       0.00000000E+00  0.00000000E+00  0.00000000E+00
                       0.00000000E+00  0.00000000E+00  0.00000000E+00
          chempot22   -2.00000000E-01 -1.00000000E-02  5.00000000E-02
                       2.00000000E-01  1.00000000E-02  5.00000000E-02
                       0.00000000E+00  0.00000000E+00  0.00000000E+00
                       0.00000000E+00  0.00000000E+00  0.00000000E+00
          chempot23   -2.00000000E-01 -1.00000000E-02  5.00000000E-02
                       2.00000000E-01  1.00000000E-02  5.00000000E-02
                       0.00000000E+00  0.00000000E+00  0.00000000E+00
                       0.00000000E+00  0.00000000E+00  0.00000000E+00
          chempot24   -2.00000000E-01 -1.00000000E-02  5.00000000E-02
                       2.00000000E-01  1.00000000E-02  5.00000000E-02
                       0.00000000E+00  0.00000000E+00  0.00000000E+00
                       0.00000000E+00  0.00000000E+00  0.00000000E+00
          chempot25   -2.00000000E-01 -1.00000000E-02  5.00000000E-02
                       2.00000000E-01  1.00000000E-02  5.00000000E-02
                       0.00000000E+00  0.00000000E+00  0.00000000E+00
                       0.00000000E+00  0.00000000E+00  0.00000000E+00
          chempot26   -2.00000000E-01 -1.00000000E-02  5.00000000E-02
                       2.00000000E-01  1.00000000E-02  5.00000000E-02
                       0.00000000E+00  0.00000000E+00  0.00000000E+00
                       0.00000000E+00  0.00000000E+00  0.00000000E+00
           diemac      1.00000000E+00
           diemix      5.00000000E-01
             ecut      1.00000000E+01 Hartree
-          fftalg         312
           istwfk        9
              ixc           7
           jdtset       11   12   13   14   15   16   21   22   23   24
                        25   26
              kpt      5.00000000E-01  5.00000000E-01  5.00000000E-01
         kptrlatt        1    0    0      0    1    0      0    0    1
          kptrlen      1.00000000E+01
P           mkmem           1
            natom           2
            nband           2
           ndtset          12
            ngfft          30      30      30
          ngfftdg          50      50      50
             nkpt           1
            nstep          10
             nsym11         8
             nsym12         8
             nsym13         8
             nsym14         8
             nsym15         8
             nsym16         8
             nsym21         2
             nsym22         2
             nsym23         2
             nsym24         2
             nsym25         2
             nsym26         2
            ntime           5
           ntypat           2
        nzchempot11      0
        nzchempot12      0
        nzchempot13      0
        nzchempot14      0
        nzchempot15      0
        nzchempot16      0
        nzchempot21      2
        nzchempot22      2
        nzchempot23      2
        nzchempot24      2
        nzchempot25      2
        nzchempot26      2
              occ      2.000000  2.000000
        optforces           1
        pawecutdg      3.00000000E+01 Hartree
           prtvol          10
           shiftk      5.00000000E-01  5.00000000E-01  5.00000000E-01
          spgroup11        99
          spgroup12        99
          spgroup13        99
          spgroup14        99
          spgroup15        99
          spgroup16        99
          spgroup21         6
          spgroup22         6
          spgroup23         6
          spgroup24         6
          spgroup25         6
          spgroup26         6
           symafm11      1    1    1    1    1    1    1    1
           symafm12      1    1    1    1    1    1    1    1
           symafm13      1    1    1    1    1    1    1    1
           symafm14      1    1    1    1    1    1    1    1
           symafm15      1    1    1    1    1    1    1    1
           symafm16      1    1    1    1    1    1    1    1
           symafm21      1    1
           symafm22      1    1
           symafm23      1    1
           symafm24      1    1
           symafm25      1    1
           symafm26      1    1
           symrel11    1  0  0   0  1  0   0  0  1       1  0  0   0 -1  0   0  0  1
                       1  0  0   0  1  0   0  0 -1       1  0  0   0 -1  0   0  0 -1
                       1  0  0   0  0  1   0  1  0       1  0  0   0  0 -1   0  1  0
                       1  0  0   0  0  1   0 -1  0       1  0  0   0  0 -1   0 -1  0
           symrel12    1  0  0   0  1  0   0  0  1       1  0  0   0 -1  0   0  0  1
                       1  0  0   0  1  0   0  0 -1       1  0  0   0 -1  0   0  0 -1
                       1  0  0   0  0  1   0  1  0       1  0  0   0  0 -1   0  1  0
                       1  0  0   0  0  1   0 -1  0       1  0  0   0  0 -1   0 -1  0
           symrel13    1  0  0   0  1  0   0  0  1       1  0  0   0 -1  0   0  0  1
                       1  0  0   0  1  0   0  0 -1       1  0  0   0 -1  0   0  0 -1
                       1  0  0   0  0  1   0  1  0       1  0  0   0  0 -1   0  1  0
                       1  0  0   0  0  1   0 -1  0       1  0  0   0  0 -1   0 -1  0
           symrel14    1  0  0   0  1  0   0  0  1       1  0  0   0 -1  0   0  0  1
                       1  0  0   0  1  0   0  0 -1       1  0  0   0 -1  0   0  0 -1
                       1  0  0   0  0  1   0  1  0       1  0  0   0  0 -1   0  1  0
                       1  0  0   0  0  1   0 -1  0       1  0  0   0  0 -1   0 -1  0
           symrel15    1  0  0   0  1  0   0  0  1       1  0  0   0 -1  0   0  0  1
                       1  0  0   0  1  0   0  0 -1       1  0  0   0 -1  0   0  0 -1
                       1  0  0   0  0  1   0  1  0       1  0  0   0  0 -1   0  1  0
                       1  0  0   0  0  1   0 -1  0       1  0  0   0  0 -1   0 -1  0
           symrel16    1  0  0   0  1  0   0  0  1       1  0  0   0 -1  0   0  0  1
                       1  0  0   0  1  0   0  0 -1       1  0  0   0 -1  0   0  0 -1
                       1  0  0   0  0  1   0  1  0       1  0  0   0  0 -1   0  1  0
                       1  0  0   0  0  1   0 -1  0       1  0  0   0  0 -1   0 -1  0
           symrel21    1  0  0   0  1  0   0  0  1       1  0  0   0 -1  0   0  0  1
           symrel22    1  0  0   0  1  0   0  0  1       1  0  0   0 -1  0   0  0  1
           symrel23    1  0  0   0  1  0   0  0  1       1  0  0   0 -1  0   0  0  1
           symrel24    1  0  0   0  1  0   0  0  1       1  0  0   0 -1  0   0  0  1
           symrel25    1  0  0   0  1  0   0  0  1       1  0  0   0 -1  0   0  0  1
           symrel26    1  0  0   0  1  0   0  0  1       1  0  0   0 -1  0   0  0  1
            tnons11    0.0000000  0.0000000  0.0000000     0.0000000  0.0000000  0.0000000
                       0.0000000  0.0000000  0.0000000     0.0000000  0.0000000  0.0000000
                       0.0000000  0.0000000  0.0000000     0.0000000  0.0000000  0.0000000
                       0.0000000  0.0000000  0.0000000     0.0000000  0.0000000  0.0000000
            tnons12    0.0000000  0.0000000  0.0000000     0.0000000  0.0000000  0.0000000
                       0.0000000  0.0000000  0.2000000     0.0000000  0.0000000  0.2000000
                       0.0000000 -0.1000000  0.1000000     0.0000000 -0.1000000  0.1000000
                       0.0000000  0.1000000  0.1000000     0.0000000  0.1000000  0.1000000
            tnons13    0.0000000  0.0000000  0.0000000     0.0000000  0.0000000  0.0000000
                       0.0000000  0.0000000  0.4000000     0.0000000  0.0000000  0.4000000
                       0.0000000 -0.2000000  0.2000000     0.0000000 -0.2000000  0.2000000
                       0.0000000  0.2000000  0.2000000     0.0000000  0.2000000  0.2000000
            tnons14    0.0000000  0.0000000  0.0000000     0.0000000  0.0000000  0.0000000
                       0.0000000  0.0000000 -0.4000000     0.0000000  0.0000000 -0.4000000
                       0.0000000 -0.3000000  0.3000000     0.0000000 -0.3000000  0.3000000
                       0.0000000  0.3000000  0.3000000     0.0000000  0.3000000  0.3000000
            tnons15    0.0000000  0.0000000  0.0000000     0.0000000  0.0000000  0.0000000
                       0.0000000  0.0000000 -0.2000000     0.0000000  0.0000000 -0.2000000
                       0.0000000 -0.4000000  0.4000000     0.0000000 -0.4000000  0.4000000
                       0.0000000  0.4000000  0.4000000     0.0000000  0.4000000  0.4000000
            tnons16    0.0000000  0.0000000  0.0000000     0.0000000  0.0000000  0.0000000
                       0.0000000  0.0000000  0.0000000     0.0000000  0.0000000  0.0000000
                       0.0000000  0.5000000  0.5000000     0.0000000  0.5000000  0.5000000
                       0.0000000  0.5000000  0.5000000     0.0000000  0.5000000  0.5000000
            tnons21    0.0000000  0.0000000  0.0000000     0.0000000  0.0000000  0.0000000
            tnons22    0.0000000  0.0000000  0.0000000     0.0000000  0.0000000  0.0000000
            tnons23    0.0000000  0.0000000  0.0000000     0.0000000  0.0000000  0.0000000
            tnons24    0.0000000  0.0000000  0.0000000     0.0000000  0.0000000  0.0000000
            tnons25    0.0000000  0.0000000  0.0000000     0.0000000  0.0000000  0.0000000
            tnons26    0.0000000  0.0000000  0.0000000     0.0000000  0.0000000  0.0000000
           tolrff      1.00000000E-02
            typat      1  2
           useylm           1
           xangst11   -7.9376581289E-01  0.0000000000E+00  0.0000000000E+00
                       7.9376581289E-01  0.0000000000E+00  0.0000000000E+00
           xangst12   -7.9376581289E-01  0.0000000000E+00  5.2917720859E-01
                       7.9376581289E-01  0.0000000000E+00  5.2917720859E-01
           xangst13   -7.9376581289E-01  0.0000000000E+00  1.0583544172E+00
                       7.9376581289E-01  0.0000000000E+00  1.0583544172E+00
           xangst14   -7.9376581289E-01  0.0000000000E+00  1.5875316258E+00
                       7.9376581289E-01  0.0000000000E+00  1.5875316258E+00
           xangst15   -7.9376581289E-01  0.0000000000E+00  2.1167088344E+00
                       7.9376581289E-01  0.0000000000E+00  2.1167088344E+00
           xangst16   -7.9376581289E-01  0.0000000000E+00  2.6458860429E+00
                       7.9376581289E-01  0.0000000000E+00  2.6458860429E+00
           xangst21   -7.9376581289E-01  0.0000000000E+00  0.0000000000E+00
                       7.9376581289E-01  0.0000000000E+00  0.0000000000E+00
           xangst22   -7.9376581289E-01  0.0000000000E+00  5.2917720859E-01
                       7.9376581289E-01  0.0000000000E+00  5.2917720859E-01
           xangst23   -7.9376581289E-01  0.0000000000E+00  1.0583544172E+00
                       7.9376581289E-01  0.0000000000E+00  1.0583544172E+00
           xangst24   -7.9376581289E-01  0.0000000000E+00  1.5875316258E+00
                       7.9376581289E-01  0.0000000000E+00  1.5875316258E+00
           xangst25   -7.9376581289E-01  0.0000000000E+00  2.1167088344E+00
                       7.9376581289E-01  0.0000000000E+00  2.1167088344E+00
           xangst26   -7.9376581289E-01  0.0000000000E+00  2.6458860429E+00
                       7.9376581289E-01  0.0000000000E+00  2.6458860429E+00
            xcart11   -1.5000000000E+00  0.0000000000E+00  0.0000000000E+00
                       1.5000000000E+00  0.0000000000E+00  0.0000000000E+00
            xcart12   -1.5000000000E+00  0.0000000000E+00  1.0000000000E+00
                       1.5000000000E+00  0.0000000000E+00  1.0000000000E+00
            xcart13   -1.5000000000E+00  0.0000000000E+00  2.0000000000E+00
                       1.5000000000E+00  0.0000000000E+00  2.0000000000E+00
            xcart14   -1.5000000000E+00  0.0000000000E+00  3.0000000000E+00
                       1.5000000000E+00  0.0000000000E+00  3.0000000000E+00
            xcart15   -1.5000000000E+00  0.0000000000E+00  4.0000000000E+00
                       1.5000000000E+00  0.0000000000E+00  4.0000000000E+00
            xcart16   -1.5000000000E+00  0.0000000000E+00  5.0000000000E+00
                       1.5000000000E+00  0.0000000000E+00  5.0000000000E+00
            xcart21   -1.5000000000E+00  0.0000000000E+00  0.0000000000E+00
                       1.5000000000E+00  0.0000000000E+00  0.0000000000E+00
            xcart22   -1.5000000000E+00  0.0000000000E+00  1.0000000000E+00
                       1.5000000000E+00  0.0000000000E+00  1.0000000000E+00
            xcart23   -1.5000000000E+00  0.0000000000E+00  2.0000000000E+00
                       1.5000000000E+00  0.0000000000E+00  2.0000000000E+00
            xcart24   -1.5000000000E+00  0.0000000000E+00  3.0000000000E+00
                       1.5000000000E+00  0.0000000000E+00  3.0000000000E+00
            xcart25   -1.5000000000E+00  0.0000000000E+00  4.0000000000E+00
                       1.5000000000E+00  0.0000000000E+00  4.0000000000E+00
            xcart26   -1.5000000000E+00  0.0000000000E+00  5.0000000000E+00
                       1.5000000000E+00  0.0000000000E+00  5.0000000000E+00
             xred11   -1.5000000000E-01  0.0000000000E+00  0.0000000000E+00
                       1.5000000000E-01  0.0000000000E+00  0.0000000000E+00
             xred12   -1.5000000000E-01  0.0000000000E+00  1.0000000000E-01
                       1.5000000000E-01  0.0000000000E+00  1.0000000000E-01
             xred13   -1.5000000000E-01  0.0000000000E+00  2.0000000000E-01
                       1.5000000000E-01  0.0000000000E+00  2.0000000000E-01
             xred14   -1.5000000000E-01  0.0000000000E+00  3.0000000000E-01
                       1.5000000000E-01  0.0000000000E+00  3.0000000000E-01
             xred15   -1.5000000000E-01  0.0000000000E+00  4.0000000000E-01
                       1.5000000000E-01  0.0000000000E+00  4.0000000000E-01
             xred16   -1.5000000000E-01  0.0000000000E+00  5.0000000000E-01
                       1.5000000000E-01  0.0000000000E+00  5.0000000000E-01
             xred21   -1.5000000000E-01  0.0000000000E+00  0.0000000000E+00
                       1.5000000000E-01  0.0000000000E+00  0.0000000000E+00
             xred22   -1.5000000000E-01  0.0000000000E+00  1.0000000000E-01
                       1.5000000000E-01  0.0000000000E+00  1.0000000000E-01
             xred23   -1.5000000000E-01  0.0000000000E+00  2.0000000000E-01
                       1.5000000000E-01  0.0000000000E+00  2.0000000000E-01
             xred24   -1.5000000000E-01  0.0000000000E+00  3.0000000000E-01
                       1.5000000000E-01  0.0000000000E+00  3.0000000000E-01
             xred25   -1.5000000000E-01  0.0000000000E+00  4.0000000000E-01
                       1.5000000000E-01  0.0000000000E+00  4.0000000000E-01
             xred26   -1.5000000000E-01  0.0000000000E+00  5.0000000000E-01
                       1.5000000000E-01  0.0000000000E+00  5.0000000000E-01
            znucl        3.00000    1.00000

================================================================================

 chkinp: Checking input parameters for consistency, jdtset=  11.

 chkinp: Checking input parameters for consistency, jdtset=  12.

 chkinp: WARNING -
   Chksymbreak=1 . Found potentially symmetry-breaking value of tnons, 
   which is neither a rational fraction in 1/8th nor in 1/12th :
   for the symmetry number    3
   symrel is   1  0  0  0  1  0  0  0 -1
   tnons is     0.000000E+00    0.000000E+00    2.000000E-01
   Please, read the description of the input variable chksymbreak,
   then, if you feel confident, you might switch it to zero, or consult with the forum.

 chkinp: WARNING -
   Chksymbreak=1 . Found potentially symmetry-breaking value of tnons, 
   which is neither a rational fraction in 1/8th nor in 1/12th :
   for the symmetry number    4
   symrel is   1  0  0  0 -1  0  0  0 -1
   tnons is     0.000000E+00    0.000000E+00    2.000000E-01
   Please, read the description of the input variable chksymbreak,
   then, if you feel confident, you might switch it to zero, or consult with the forum.

 chkinp: WARNING -
   Chksymbreak=1 . Found potentially symmetry-breaking value of tnons, 
   which is neither a rational fraction in 1/8th nor in 1/12th :
   for the symmetry number    5
   symrel is   1  0  0  0  0  1  0  1  0
   tnons is     0.000000E+00   -1.000000E-01    1.000000E-01
   Please, read the description of the input variable chksymbreak,
   then, if you feel confident, you might switch it to zero, or consult with the forum.

 chkinp: WARNING -
   Chksymbreak=1 . Found potentially symmetry-breaking value of tnons, 
   which is neither a rational fraction in 1/8th nor in 1/12th :
   for the symmetry number    5
   symrel is   1  0  0  0  0  1  0  1  0
   tnons is     0.000000E+00   -1.000000E-01    1.000000E-01
   Please, read the description of the input variable chksymbreak,
   then, if you feel confident, you might switch it to zero, or consult with the forum.

 chkinp: WARNING -
   Chksymbreak=1 . Found potentially symmetry-breaking value of tnons, 
   which is neither a rational fraction in 1/8th nor in 1/12th :
   for the symmetry number    6
   symrel is   1  0  0  0  0 -1  0  1  0
   tnons is     0.000000E+00   -1.000000E-01    1.000000E-01
   Please, read the description of the input variable chksymbreak,
   then, if you feel confident, you might switch it to zero, or consult with the forum.

 chkinp: WARNING -
   Chksymbreak=1 . Found potentially symmetry-breaking value of tnons, 
   which is neither a rational fraction in 1/8th nor in 1/12th :
   for the symmetry number    6
   symrel is   1  0  0  0  0 -1  0  1  0
   tnons is     0.000000E+00   -1.000000E-01    1.000000E-01
   Please, read the description of the input variable chksymbreak,
   then, if you feel confident, you might switch it to zero, or consult with the forum.

 chkinp: WARNING -
   Chksymbreak=1 . Found potentially symmetry-breaking value of tnons, 
   which is neither a rational fraction in 1/8th nor in 1/12th :
   for the symmetry number    7
   symrel is   1  0  0  0  0  1  0 -1  0
   tnons is     0.000000E+00    1.000000E-01    1.000000E-01
   Please, read the description of the input variable chksymbreak,
   then, if you feel confident, you might switch it to zero, or consult with the forum.

 chkinp: WARNING -
   Chksymbreak=1 . Found potentially symmetry-breaking value of tnons, 
   which is neither a rational fraction in 1/8th nor in 1/12th :
   for the symmetry number    7
   symrel is   1  0  0  0  0  1  0 -1  0
   tnons is     0.000000E+00    1.000000E-01    1.000000E-01
   Please, read the description of the input variable chksymbreak,
   then, if you feel confident, you might switch it to zero, or consult with the forum.

 chkinp: WARNING -
   Chksymbreak=1 . Found potentially symmetry-breaking value of tnons, 
   which is neither a rational fraction in 1/8th nor in 1/12th :
   for the symmetry number    8
   symrel is   1  0  0  0  0 -1  0 -1  0
   tnons is     0.000000E+00    1.000000E-01    1.000000E-01
   Please, read the description of the input variable chksymbreak,
   then, if you feel confident, you might switch it to zero, or consult with the forum.

 chkinp: WARNING -
   Chksymbreak=1 . Found potentially symmetry-breaking value of tnons, 
   which is neither a rational fraction in 1/8th nor in 1/12th :
   for the symmetry number    8
   symrel is   1  0  0  0  0 -1  0 -1  0
   tnons is     0.000000E+00    1.000000E-01    1.000000E-01
   Please, read the description of the input variable chksymbreak,
   then, if you feel confident, you might switch it to zero, or consult with the forum.

 chkinp: Checking input parameters for consistency, jdtset=  13.

 chkinp: WARNING -
   Chksymbreak=1 . Found potentially symmetry-breaking value of tnons, 
   which is neither a rational fraction in 1/8th nor in 1/12th :
   for the symmetry number    3
   symrel is   1  0  0  0  1  0  0  0 -1
   tnons is     0.000000E+00    0.000000E+00    4.000000E-01
   Please, read the description of the input variable chksymbreak,
   then, if you feel confident, you might switch it to zero, or consult with the forum.

 chkinp: WARNING -
   Chksymbreak=1 . Found potentially symmetry-breaking value of tnons, 
   which is neither a rational fraction in 1/8th nor in 1/12th :
   for the symmetry number    4
   symrel is   1  0  0  0 -1  0  0  0 -1
   tnons is     0.000000E+00    0.000000E+00    4.000000E-01
   Please, read the description of the input variable chksymbreak,
   then, if you feel confident, you might switch it to zero, or consult with the forum.

 chkinp: WARNING -
   Chksymbreak=1 . Found potentially symmetry-breaking value of tnons, 
   which is neither a rational fraction in 1/8th nor in 1/12th :
   for the symmetry number    5
   symrel is   1  0  0  0  0  1  0  1  0
   tnons is     0.000000E+00   -2.000000E-01    2.000000E-01
   Please, read the description of the input variable chksymbreak,
   then, if you feel confident, you might switch it to zero, or consult with the forum.

 chkinp: WARNING -
   Chksymbreak=1 . Found potentially symmetry-breaking value of tnons, 
   which is neither a rational fraction in 1/8th nor in 1/12th :
   for the symmetry number    5
   symrel is   1  0  0  0  0  1  0  1  0
   tnons is     0.000000E+00   -2.000000E-01    2.000000E-01
   Please, read the description of the input variable chksymbreak,
   then, if you feel confident, you might switch it to zero, or consult with the forum.

 chkinp: WARNING -
   Chksymbreak=1 . Found potentially symmetry-breaking value of tnons, 
   which is neither a rational fraction in 1/8th nor in 1/12th :
   for the symmetry number    6
   symrel is   1  0  0  0  0 -1  0  1  0
   tnons is     0.000000E+00   -2.000000E-01    2.000000E-01
   Please, read the description of the input variable chksymbreak,
   then, if you feel confident, you might switch it to zero, or consult with the forum.

 chkinp: WARNING -
   Chksymbreak=1 . Found potentially symmetry-breaking value of tnons, 
   which is neither a rational fraction in 1/8th nor in 1/12th :
   for the symmetry number    6
   symrel is   1  0  0  0  0 -1  0  1  0
   tnons is     0.000000E+00   -2.000000E-01    2.000000E-01
   Please, read the description of the input variable chksymbreak,
   then, if you feel confident, you might switch it to zero, or consult with the forum.

 chkinp: WARNING -
   Chksymbreak=1 . Found potentially symmetry-breaking value of tnons, 
   which is neither a rational fraction in 1/8th nor in 1/12th :
   for the symmetry number    7
   symrel is   1  0  0  0  0  1  0 -1  0
   tnons is     0.000000E+00    2.000000E-01    2.000000E-01
   Please, read the description of the input variable chksymbreak,
   then, if you feel confident, you might switch it to zero, or consult with the forum.

 chkinp: WARNING -
   Chksymbreak=1 . Found potentially symmetry-breaking value of tnons, 
   which is neither a rational fraction in 1/8th nor in 1/12th :
   for the symmetry number    7
   symrel is   1  0  0  0  0  1  0 -1  0
   tnons is     0.000000E+00    2.000000E-01    2.000000E-01
   Please, read the description of the input variable chksymbreak,
   then, if you feel confident, you might switch it to zero, or consult with the forum.

 chkinp: WARNING -
   Chksymbreak=1 . Found potentially symmetry-breaking value of tnons, 
   which is neither a rational fraction in 1/8th nor in 1/12th :
   for the symmetry number    8
   symrel is   1  0  0  0  0 -1  0 -1  0
   tnons is     0.000000E+00    2.000000E-01    2.000000E-01
   Please, read the description of the input variable chksymbreak,
   then, if you feel confident, you might switch it to zero, or consult with the forum.

 chkinp: WARNING -
   Chksymbreak=1 . Found potentially symmetry-breaking value of tnons, 
   which is neither a rational fraction in 1/8th nor in 1/12th :
   for the symmetry number    8
   symrel is   1  0  0  0  0 -1  0 -1  0
   tnons is     0.000000E+00    2.000000E-01    2.000000E-01
   Please, read the description of the input variable chksymbreak,
   then, if you feel confident, you might switch it to zero, or consult with the forum.

 chkinp: Checking input parameters for consistency, jdtset=  14.

 chkinp: WARNING -
   Chksymbreak=1 . Found potentially symmetry-breaking value of tnons, 
   which is neither a rational fraction in 1/8th nor in 1/12th :
   for the symmetry number    3
   symrel is   1  0  0  0  1  0  0  0 -1
   tnons is     0.000000E+00    0.000000E+00   -4.000000E-01
   Please, read the description of the input variable chksymbreak,
   then, if you feel confident, you might switch it to zero, or consult with the forum.

 chkinp: WARNING -
   Chksymbreak=1 . Found potentially symmetry-breaking value of tnons, 
   which is neither a rational fraction in 1/8th nor in 1/12th :
   for the symmetry number    4
   symrel is   1  0  0  0 -1  0  0  0 -1
   tnons is     0.000000E+00    0.000000E+00   -4.000000E-01
   Please, read the description of the input variable chksymbreak,
   then, if you feel confident, you might switch it to zero, or consult with the forum.

 chkinp: WARNING -
   Chksymbreak=1 . Found potentially symmetry-breaking value of tnons, 
   which is neither a rational fraction in 1/8th nor in 1/12th :
   for the symmetry number    5
   symrel is   1  0  0  0  0  1  0  1  0
   tnons is     0.000000E+00   -3.000000E-01    3.000000E-01
   Please, read the description of the input variable chksymbreak,
   then, if you feel confident, you might switch it to zero, or consult with the forum.

 chkinp: WARNING -
   Chksymbreak=1 . Found potentially symmetry-breaking value of tnons, 
   which is neither a rational fraction in 1/8th nor in 1/12th :
   for the symmetry number    5
   symrel is   1  0  0  0  0  1  0  1  0
   tnons is     0.000000E+00   -3.000000E-01    3.000000E-01
   Please, read the description of the input variable chksymbreak,
   then, if you feel confident, you might switch it to zero, or consult with the forum.

 chkinp: WARNING -
   Chksymbreak=1 . Found potentially symmetry-breaking value of tnons, 
   which is neither a rational fraction in 1/8th nor in 1/12th :
   for the symmetry number    6
   symrel is   1  0  0  0  0 -1  0  1  0
   tnons is     0.000000E+00   -3.000000E-01    3.000000E-01
   Please, read the description of the input variable chksymbreak,
   then, if you feel confident, you might switch it to zero, or consult with the forum.

 chkinp: WARNING -
   Chksymbreak=1 . Found potentially symmetry-breaking value of tnons, 
   which is neither a rational fraction in 1/8th nor in 1/12th :
   for the symmetry number    6
   symrel is   1  0  0  0  0 -1  0  1  0
   tnons is     0.000000E+00   -3.000000E-01    3.000000E-01
   Please, read the description of the input variable chksymbreak,
   then, if you feel confident, you might switch it to zero, or consult with the forum.

 chkinp: WARNING -
   Chksymbreak=1 . Found potentially symmetry-breaking value of tnons, 
   which is neither a rational fraction in 1/8th nor in 1/12th :
   for the symmetry number    7
   symrel is   1  0  0  0  0  1  0 -1  0
   tnons is     0.000000E+00    3.000000E-01    3.000000E-01
   Please, read the description of the input variable chksymbreak,
   then, if you feel confident, you might switch it to zero, or consult with the forum.

 chkinp: WARNING -
   Chksymbreak=1 . Found potentially symmetry-breaking value of tnons, 
   which is neither a rational fraction in 1/8th nor in 1/12th :
   for the symmetry number    7
   symrel is   1  0  0  0  0  1  0 -1  0
   tnons is     0.000000E+00    3.000000E-01    3.000000E-01
   Please, read the description of the input variable chksymbreak,
   then, if you feel confident, you might switch it to zero, or consult with the forum.

 chkinp: WARNING -
   Chksymbreak=1 . Found potentially symmetry-breaking value of tnons, 
   which is neither a rational fraction in 1/8th nor in 1/12th :
   for the symmetry number    8
   symrel is   1  0  0  0  0 -1  0 -1  0
   tnons is     0.000000E+00    3.000000E-01    3.000000E-01
   Please, read the description of the input variable chksymbreak,
   then, if you feel confident, you might switch it to zero, or consult with the forum.

 chkinp: WARNING -
   Chksymbreak=1 . Found potentially symmetry-breaking value of tnons, 
   which is neither a rational fraction in 1/8th nor in 1/12th :
   for the symmetry number    8
   symrel is   1  0  0  0  0 -1  0 -1  0
   tnons is     0.000000E+00    3.000000E-01    3.000000E-01
   Please, read the description of the input variable chksymbreak,
   then, if you feel confident, you might switch it to zero, or consult with the forum.

 chkinp: Checking input parameters for consistency, jdtset=  15.

 chkinp: WARNING -
   Chksymbreak=1 . Found potentially symmetry-breaking value of tnons, 
   which is neither a rational fraction in 1/8th nor in 1/12th :
   for the symmetry number    3
   symrel is   1  0  0  0  1  0  0  0 -1
   tnons is     0.000000E+00    0.000000E+00   -2.000000E-01
   Please, read the description of the input variable chksymbreak,
   then, if you feel confident, you might switch it to zero, or consult with the forum.

 chkinp: WARNING -
   Chksymbreak=1 . Found potentially symmetry-breaking value of tnons, 
   which is neither a rational fraction in 1/8th nor in 1/12th :
   for the symmetry number    4
   symrel is   1  0  0  0 -1  0  0  0 -1
   tnons is     0.000000E+00    0.000000E+00   -2.000000E-01
   Please, read the description of the input variable chksymbreak,
   then, if you feel confident, you might switch it to zero, or consult with the forum.

 chkinp: WARNING -
   Chksymbreak=1 . Found potentially symmetry-breaking value of tnons, 
   which is neither a rational fraction in 1/8th nor in 1/12th :
   for the symmetry number    5
   symrel is   1  0  0  0  0  1  0  1  0
   tnons is     0.000000E+00   -4.000000E-01    4.000000E-01
   Please, read the description of the input variable chksymbreak,
   then, if you feel confident, you might switch it to zero, or consult with the forum.

 chkinp: WARNING -
   Chksymbreak=1 . Found potentially symmetry-breaking value of tnons, 
   which is neither a rational fraction in 1/8th nor in 1/12th :
   for the symmetry number    5
   symrel is   1  0  0  0  0  1  0  1  0
   tnons is     0.000000E+00   -4.000000E-01    4.000000E-01
   Please, read the description of the input variable chksymbreak,
   then, if you feel confident, you might switch it to zero, or consult with the forum.

 chkinp: WARNING -
   Chksymbreak=1 . Found potentially symmetry-breaking value of tnons, 
   which is neither a rational fraction in 1/8th nor in 1/12th :
   for the symmetry number    6
   symrel is   1  0  0  0  0 -1  0  1  0
   tnons is     0.000000E+00   -4.000000E-01    4.000000E-01
   Please, read the description of the input variable chksymbreak,
   then, if you feel confident, you might switch it to zero, or consult with the forum.

 chkinp: WARNING -
   Chksymbreak=1 . Found potentially symmetry-breaking value of tnons, 
   which is neither a rational fraction in 1/8th nor in 1/12th :
   for the symmetry number    6
   symrel is   1  0  0  0  0 -1  0  1  0
   tnons is     0.000000E+00   -4.000000E-01    4.000000E-01
   Please, read the description of the input variable chksymbreak,
   then, if you feel confident, you might switch it to zero, or consult with the forum.

 chkinp: WARNING -
   Chksymbreak=1 . Found potentially symmetry-breaking value of tnons, 
   which is neither a rational fraction in 1/8th nor in 1/12th :
   for the symmetry number    7
   symrel is   1  0  0  0  0  1  0 -1  0
   tnons is     0.000000E+00    4.000000E-01    4.000000E-01
   Please, read the description of the input variable chksymbreak,
   then, if you feel confident, you might switch it to zero, or consult with the forum.

 chkinp: WARNING -
   Chksymbreak=1 . Found potentially symmetry-breaking value of tnons, 
   which is neither a rational fraction in 1/8th nor in 1/12th :
   for the symmetry number    7
   symrel is   1  0  0  0  0  1  0 -1  0
   tnons is     0.000000E+00    4.000000E-01    4.000000E-01
   Please, read the description of the input variable chksymbreak,
   then, if you feel confident, you might switch it to zero, or consult with the forum.

 chkinp: WARNING -
   Chksymbreak=1 . Found potentially symmetry-breaking value of tnons, 
   which is neither a rational fraction in 1/8th nor in 1/12th :
   for the symmetry number    8
   symrel is   1  0  0  0  0 -1  0 -1  0
   tnons is     0.000000E+00    4.000000E-01    4.000000E-01
   Please, read the description of the input variable chksymbreak,
   then, if you feel confident, you might switch it to zero, or consult with the forum.

 chkinp: WARNING -
   Chksymbreak=1 . Found potentially symmetry-breaking value of tnons, 
   which is neither a rational fraction in 1/8th nor in 1/12th :
   for the symmetry number    8
   symrel is   1  0  0  0  0 -1  0 -1  0
   tnons is     0.000000E+00    4.000000E-01    4.000000E-01
   Please, read the description of the input variable chksymbreak,
   then, if you feel confident, you might switch it to zero, or consult with the forum.

 chkinp: Checking input parameters for consistency, jdtset=  16.

 chkinp: Checking input parameters for consistency, jdtset=  21.

 chkinp: Checking input parameters for consistency, jdtset=  22.

 chkinp: Checking input parameters for consistency, jdtset=  23.

 chkinp: Checking input parameters for consistency, jdtset=  24.

 chkinp: Checking input parameters for consistency, jdtset=  25.

 chkinp: Checking input parameters for consistency, jdtset=  26.

================================================================================
== DATASET 11 ==================================================================
-   nproc =    1

 Exchange-correlation functional for the present dataset will be:
  LDA: Perdew-Wang 92 LSD fit to Ceperley-Alder data - ixc=7
 Citation for XC functional:
  J.P.Perdew and Y.Wang, PRB 45, 13244 (1992)

 Real(R)+Recip(G) space primitive vectors, cartesian coordinates (Bohr,Bohr^-1):
 R(1)= 10.0000000  0.0000000  0.0000000  G(1)=  0.1000000  0.0000000  0.0000000
 R(2)=  0.0000000 10.0000000  0.0000000  G(2)=  0.0000000  0.1000000  0.0000000
 R(3)=  0.0000000  0.0000000 10.0000000  G(3)=  0.0000000  0.0000000  0.1000000
 Unit cell volume ucvol=  1.0000000E+03 bohr^3
 Angles (23,13,12)=  9.00000000E+01  9.00000000E+01  9.00000000E+01 degrees

 Coarse grid specifications (used for wave-functions):

 getcut: wavevector=  0.0000  0.0000  0.0000  ngfft=  30  30  30
         ecut(hartree)=     10.000   => boxcut(ratio)=   2.10744

 Fine grid specifications (used for densities):

 getcut: wavevector=  0.0000  0.0000  0.0000  ngfft=  50  50  50
         ecut(hartree)=     30.000   => boxcut(ratio)=   2.02789

--- Pseudopotential description ------------------------------------------------
- pspini: atom type   1  psp file is /cea/dsku/u-basque/hal1/home/abinit/abinit/REPOSITORY/GONZE/ABINIT-GIT/gonze/tests/Psps_for_tests/Li.LDA-PW-paw.abinit
- pspatm: opening atomic psp file    /cea/dsku/u-basque/hal1/home/abinit/abinit/REPOSITORY/GONZE/ABINIT-GIT/gonze/tests/Psps_for_tests/Li.LDA-PW-paw.abinit
- Paw atomic data for element Li - Generated by atompaw v3.0.1.9 & AtomPAW2Abinit v3.3.1
-  3.00000   3.00000  20130717                znucl, zion, pspdat
    7    7    1    0      1277   0.00000      pspcod,pspxc,lmax,lloc,mmax,r2well
 Pseudopotential format is: paw5
 basis_size (lnmax)=  4 (lmn_size=  8), orbitals=   0   0   1   1
 Spheres core radius: rc_sph= 1.61126257
 4 radial meshes are used:
  - mesh 1: r(i)=AA*[exp(BB*(i-1))-1], size=1277 , AA= 0.17851E-02 BB= 0.53552E-02
  - mesh 2: r(i)=AA*[exp(BB*(i-1))-1], size=1272 , AA= 0.17851E-02 BB= 0.53552E-02
  - mesh 3: r(i)=AA*[exp(BB*(i-1))-1], size=1612 , AA= 0.17851E-02 BB= 0.53552E-02
  - mesh 4: r(i)=AA*[exp(BB*(i-1))-1], size=1754 , AA= 0.17851E-02 BB= 0.53552E-02
 Shapefunction is SIN type: shapef(r)=[sin(pi*r/rshp)/(pi*r/rshp)]**2
 Radius for shape functions = sphere core radius
 Radial grid used for partial waves is grid 1
 Radial grid used for projectors is grid  2
 Radial grid used for (t)core density is grid 1
 Radial grid used for Vloc is grid 3
 Radial grid used for pseudo valence density is grid 4
 Compensation charge density is not taken into account in XC energy/potential
 pspatm: atomic psp has been read  and splines computed

- pspini: atom type   2  psp file is /cea/dsku/u-basque/hal1/home/abinit/abinit/REPOSITORY/GONZE/ABINIT-GIT/gonze/tests/Psps_for_tests/H.LDA-PW-paw.abinit
- pspatm: opening atomic psp file    /cea/dsku/u-basque/hal1/home/abinit/abinit/REPOSITORY/GONZE/ABINIT-GIT/gonze/tests/Psps_for_tests/H.LDA-PW-paw.abinit
- Paw atomic data for element H - Generated by atompaw v3.0.1.9 & AtomPAW2Abinit v3.3.1
-  1.00000   1.00000  20130717                znucl, zion, pspdat
    7    7    0    0       366   0.00000      pspcod,pspxc,lmax,lloc,mmax,r2well
 Pseudopotential format is: paw5
 basis_size (lnmax)=  1 (lmn_size=  1), orbitals=   0
 Spheres core radius: rc_sph= 0.90000000
 5 radial meshes are used:
  - mesh 1: r(i)=step*(i-1), size= 366 , step= 0.25000E-02
  - mesh 2: r(i)=step*(i-1), size= 361 , step= 0.25000E-02
  - mesh 3: r(i)=step*(i-1), size= 386 , step= 0.25000E-02
  - mesh 4: r(i)=step*(i-1), size=4001 , step= 0.25000E-02
  - mesh 5: r(i)=step*(i-1), size=5572 , step= 0.25000E-02
 Shapefunction is SIN type: shapef(r)=[sin(pi*r/rshp)/(pi*r/rshp)]**2
 Radius for shape functions = sphere core radius
 Radial grid used for partial waves is grid 1
 Radial grid used for projectors is grid  2
 Radial grid used for (t)core density is grid 3
 Radial grid used for Vloc is grid 4
 Radial grid used for pseudo valence density is grid 5
 Compensation charge density is not taken into account in XC energy/potential
 pspatm: atomic psp has been read  and splines computed

   1.26599846E+01                                ecore*ucvol(ha*bohr**3)
--------------------------------------------------------------------------------

P newkpt: treating      2 bands with npw=     736 for ikpt=   1 by node    0
_setup2: Arith. and geom. avg. npw (full set) are    1472.000    1472.000

================================================================================

     iter   Etot(hartree)      deltaE(h)  residm     nres2    diffor    maxfor

 ETOT  1  -7.9451219766230    -7.945E+00 5.463E-02 2.023E+00 1.488E-03 1.488E-03

 cartesian forces (ha/bohr); non-corrected avg= -1.58E-03  0.00E+00  0.00E+00
    1     1.48810442286E-03    0.00000000000E+00    0.00000000000E+00
    2    -1.48810442286E-03    0.00000000000E+00    0.00000000000E+00
 prteigrs : about to open file t30o_DS11_EIG
 Fermi (or HOMO) energy (hartree) =  -0.25599   Average Vxc (hartree)=  -0.13574
 Eigenvalues (hartree) for nkpt=   1  k points:
 kpt#   1, nband=  2, wtk=  1.00000, kpt=  0.5000  0.5000  0.5000 (reduced coord)
  -1.84098   -0.25599

 ETOT  2  -7.9177846070685     2.734E-02 1.268E-07 5.588E-01 5.578E-03 4.090E-03

 cartesian forces (ha/bohr); non-corrected avg= -1.90E-03  0.00E+00  0.00E+00
    1    -4.08972362780E-03    0.00000000000E+00    0.00000000000E+00
    2     4.08972362780E-03    0.00000000000E+00    0.00000000000E+00
 prteigrs : about to open file t30o_DS11_EIG
 Fermi (or HOMO) energy (hartree) =  -0.17946   Average Vxc (hartree)=  -0.12170
 Eigenvalues (hartree) for nkpt=   1  k points:
 kpt#   1, nband=  2, wtk=  1.00000, kpt=  0.5000  0.5000  0.5000 (reduced coord)
  -1.82028   -0.17946

 ETOT  3  -7.9118009519336     5.984E-03 8.065E-05 1.832E-01 4.056E-03 8.145E-03

 cartesian forces (ha/bohr); non-corrected avg= -6.73E-04  0.00E+00  0.00E+00
    1    -8.14526244607E-03    0.00000000000E+00    0.00000000000E+00
    2     8.14526244607E-03    0.00000000000E+00    0.00000000000E+00
 prteigrs : about to open file t30o_DS11_EIG
 Fermi (or HOMO) energy (hartree) =  -0.10797   Average Vxc (hartree)=  -0.09810
 Eigenvalues (hartree) for nkpt=   1  k points:
 kpt#   1, nband=  2, wtk=  1.00000, kpt=  0.5000  0.5000  0.5000 (reduced coord)
  -1.80727   -0.10797

 ETOT  4  -7.9105325537356     1.268E-03 3.150E-06 2.379E-02 1.217E-03 6.928E-03

 cartesian forces (ha/bohr); non-corrected avg= -1.48E-03  0.00E+00  0.00E+00
    1    -6.92782294586E-03    0.00000000000E+00    0.00000000000E+00
    2     6.92782294586E-03    0.00000000000E+00    0.00000000000E+00
 prteigrs : about to open file t30o_DS11_EIG
 Fermi (or HOMO) energy (hartree) =  -0.12224   Average Vxc (hartree)=  -0.10196
 Eigenvalues (hartree) for nkpt=   1  k points:
 kpt#   1, nband=  2, wtk=  1.00000, kpt=  0.5000  0.5000  0.5000 (reduced coord)
  -1.80904   -0.12224

 ETOT  5  -7.9108079849227    -2.754E-04 1.361E-07 1.098E-04 5.698E-01 5.767E-01

 cartesian forces (ha/bohr); non-corrected avg= -5.71E-01  0.00E+00  0.00E+00
    1    -5.76736419469E-01    0.00000000000E+00    0.00000000000E+00
    2     5.76736419469E-01    0.00000000000E+00    0.00000000000E+00
 prteigrs : about to open file t30o_DS11_EIG
 Fermi (or HOMO) energy (hartree) =  -0.12421   Average Vxc (hartree)=  -0.08661
 Eigenvalues (hartree) for nkpt=   1  k points:
 kpt#   1, nband=  2, wtk=  1.00000, kpt=  0.5000  0.5000  0.5000 (reduced coord)
  -1.80739   -0.12421

 ETOT  6  -7.9108107978041    -2.813E-06 2.803E-09 6.931E-05 5.665E-01 1.026E-02

 cartesian forces (ha/bohr); non-corrected avg= -4.18E-03  0.00E+00  0.00E+00
    1    -1.02640734798E-02    0.00000000000E+00    0.00000000000E+00
    2     1.02640734798E-02    0.00000000000E+00    0.00000000000E+00
 prteigrs : about to open file t30o_DS11_EIG
 Fermi (or HOMO) energy (hartree) =  -0.12478   Average Vxc (hartree)=  -0.08843
 Eigenvalues (hartree) for nkpt=   1  k points:
 kpt#   1, nband=  2, wtk=  1.00000, kpt=  0.5000  0.5000  0.5000 (reduced coord)
  -1.80787   -0.12478

 ETOT  7  -7.9108108013960    -3.592E-09 5.429E-10 9.084E-06 1.158E-03 9.106E-03

 cartesian forces (ha/bohr); non-corrected avg= -3.14E-03  0.00E+00  0.00E+00
    1    -9.10585909457E-03    0.00000000000E+00    0.00000000000E+00
    2     9.10585909457E-03    0.00000000000E+00    0.00000000000E+00
 prteigrs : about to open file t30o_DS11_EIG
 Fermi (or HOMO) energy (hartree) =  -0.12473   Average Vxc (hartree)=  -0.08907
 Eigenvalues (hartree) for nkpt=   1  k points:
 kpt#   1, nband=  2, wtk=  1.00000, kpt=  0.5000  0.5000  0.5000 (reduced coord)
  -1.80815   -0.12473

 ETOT  8  -7.9108108314478    -3.005E-08 1.425E-10 1.613E-07 3.075E-03 6.031E-03

 cartesian forces (ha/bohr); non-corrected avg= -9.14E-05  0.00E+00  0.00E+00
    1    -6.03086136363E-03    0.00000000000E+00    0.00000000000E+00
    2     6.03086136363E-03    0.00000000000E+00    0.00000000000E+00
 prteigrs : about to open file t30o_DS11_EIG
 Fermi (or HOMO) energy (hartree) =  -0.12467   Average Vxc (hartree)=  -0.08942
 Eigenvalues (hartree) for nkpt=   1  k points:
 kpt#   1, nband=  2, wtk=  1.00000, kpt=  0.5000  0.5000  0.5000 (reduced coord)
  -1.80823   -0.12467

 ETOT  9  -7.9108108358513    -4.404E-09 1.096E-11 1.211E-08 8.389E-05 5.947E-03

 cartesian forces (ha/bohr); non-corrected avg= -1.19E-05  0.00E+00  0.00E+00
    1    -5.94696721932E-03    0.00000000000E+00    0.00000000000E+00
    2     5.94696721932E-03    0.00000000000E+00    0.00000000000E+00
 prteigrs : about to open file t30o_DS11_EIG
 Fermi (or HOMO) energy (hartree) =  -0.12466   Average Vxc (hartree)=  -0.08956
 Eigenvalues (hartree) for nkpt=   1  k points:
 kpt#   1, nband=  2, wtk=  1.00000, kpt=  0.5000  0.5000  0.5000 (reduced coord)
  -1.80825   -0.12466

 ETOT 10  -7.9108108365380    -6.866E-10 7.110E-14 2.153E-10 1.639E-06 5.949E-03

 cartesian forces (ha/bohr); non-corrected avg= -1.20E-05  0.00E+00  0.00E+00
    1    -5.94860611286E-03    0.00000000000E+00    0.00000000000E+00
    2     5.94860611286E-03    0.00000000000E+00    0.00000000000E+00
 prteigrs : about to open file t30o_DS11_EIG
 Fermi (or HOMO) energy (hartree) =  -0.12466   Average Vxc (hartree)=  -0.08952
 Eigenvalues (hartree) for nkpt=   1  k points:
 kpt#   1, nband=  2, wtk=  1.00000, kpt=  0.5000  0.5000  0.5000 (reduced coord)
  -1.80824   -0.12466

 Cartesian components of stress tensor (hartree/bohr^3)
  sigma(1 1)=  6.02779589E-05  sigma(3 2)=  0.00000000E+00
  sigma(2 2)= -1.59127282E-05  sigma(3 1)=  0.00000000E+00
  sigma(3 3)= -1.59127282E-05  sigma(2 1)=  0.00000000E+00

 Integrated electronic density in atomic spheres:
 ------------------------------------------------
 Atom  Sphere_radius  Integrated_density
    1        1.61126          2.05884636
    2        0.90000          0.35609369

 PAW TEST:
 ==== Compensation charge inside spheres ============
 The following values must be close to each other ...
 Compensation charge over spherical meshes =      1.274768916753751
 Compensation charge over fine fft grid    =      1.274789461047114

 ==== Results concerning PAW augmentation regions ====

 Total pseudopotential strength Dij (hartree):
 Atom #  1
  -1.73777   0.15618   0.00000   0.00000   0.00052   0.00000   0.00000   0.00445
   0.15618   0.00649   0.00000   0.00000  -0.00009   0.00000   0.00000  -0.00075
   0.00000   0.00000  -0.00129   0.00000   0.00000  -0.00754   0.00000   0.00000
   0.00000   0.00000   0.00000  -0.00129   0.00000   0.00000  -0.00754   0.00000
   0.00052  -0.00009   0.00000   0.00000  -0.00127   0.00000   0.00000  -0.00741
   0.00000   0.00000  -0.00754   0.00000   0.00000  -0.01647   0.00000   0.00000
   0.00000   0.00000   0.00000  -0.00754   0.00000   0.00000  -0.01647   0.00000
   0.00445  -0.00075   0.00000   0.00000  -0.00741   0.00000   0.00000  -0.01542
 Atom #  2
  -0.03640


 Augmentation waves occupancies Rhoij:
 Atom #  1
   2.00053   0.00697   0.00000   0.00000   0.06633   0.00000   0.00000  -0.02090
   0.00697   0.70627   0.00000   0.00000   1.21287   0.00000   0.00000  -0.02527
   0.00000   0.00000   0.00000   0.00000   0.00000   0.00000   0.00000   0.00000
   0.00000   0.00000   0.00000   0.00000   0.00000   0.00000   0.00000   0.00000
   0.06633   1.21287   0.00000   0.00000   2.08435   0.00000   0.00000  -0.04395
   0.00000   0.00000   0.00000   0.00000   0.00000   0.00000   0.00000   0.00000
   0.00000   0.00000   0.00000   0.00000   0.00000   0.00000   0.00000   0.00000
  -0.02090  -0.02527   0.00000   0.00000  -0.04395   0.00000   0.00000   0.00112
 Atom #  2
   1.31254


================================================================================

 ----iterations are completed or convergence reached----

 Mean square residual over all n,k,spin=   3.8861E-14; max=  7.1098E-14
   0.5000  0.5000  0.5000    1  7.10980E-14 kpt; spin; max resid(k); each band:
  6.62E-15 7.11E-14
 reduced coordinates (array xred) for    2 atoms
      -0.150000000000      0.000000000000      0.000000000000
       0.150000000000      0.000000000000      0.000000000000
 rms dE/dt=  3.4344E-02; max dE/dt=  5.9606E-02; dE/dt below (all hartree)
    1       0.059606354038      0.000000000000      0.000000000000
    2      -0.059365768219      0.000000000000      0.000000000000

 cartesian coordinates (angstrom) at end:
    1     -0.79376581288500     0.00000000000000     0.00000000000000
    2      0.79376581288500     0.00000000000000     0.00000000000000

 cartesian forces (hartree/bohr) at end:
    1     -0.00594860611286    -0.00000000000000    -0.00000000000000
    2      0.00594860611286    -0.00000000000000    -0.00000000000000
 frms,max,avg= 3.4344293E-03 5.9486061E-03  -1.203E-05  0.000E+00  0.000E+00 h/b

 cartesian forces (eV/Angstrom) at end:
    1     -0.30588959944102    -0.00000000000000    -0.00000000000000
    2      0.30588959944102    -0.00000000000000    -0.00000000000000
 frms,max,avg= 1.7660544E-01 3.0588960E-01  -6.186E-04  0.000E+00  0.000E+00 e/A
 length scales= 10.000000000000 10.000000000000 10.000000000000 bohr
              =  5.291772085900  5.291772085900  5.291772085900 angstroms
 prteigrs : about to open file t30o_DS11_EIG
 Fermi (or HOMO) energy (hartree) =  -0.12466   Average Vxc (hartree)=  -0.08952
 Eigenvalues (hartree) for nkpt=   1  k points:
 kpt#   1, nband=  2, wtk=  1.00000, kpt=  0.5000  0.5000  0.5000 (reduced coord)
  -1.80824   -0.12466
 Total charge density [el/Bohr^3]
      Maximum=    7.9108E-01  at reduced coord.    0.8400    0.0000    0.0000
 Next maximum=    7.8518E-01  at reduced coord.    0.8600    0.0000    0.0000
      Minimum=    0.0000E+00  at reduced coord.    0.0000    0.5000    0.0000
 Next minimum=    0.0000E+00  at reduced coord.    0.0200    0.5000    0.0000
   Integrated=    4.0000E+00

--------------------------------------------------------------------------------
 Components of total free energy (in Hartree) :

    Kinetic energy  =  1.63138642489711E+00
    Hartree energy  =  2.42241360306874E+00
    XC energy       = -7.92564425159434E-01
    Ewald energy    = -1.20554451609458E+00
    PspCore energy  =  1.26599846438290E-02
    Loc. psp. energy= -7.09835569221473E+00
    Spherical terms = -2.88080566952750E+00
    >>>>>>>>> Etotal= -7.91081029038657E+00

 "Double-counting" decomposition of free energy:
    Band energy     = -3.86581696897863E+00
    Ewald energy    = -1.20554451609458E+00
    PspCore energy  =  1.26599846438290E-02
    Dble-C XC-energy= -2.18054909946869E+00
    Spherical terms = -6.71560236639884E-01
    >>>> Etotal (DC)= -7.91081083653796E+00

  >Total energy in eV           = -2.15264095455347E+02
  >Total DC energy in eV        = -2.15264110316882E+02
--------------------------------------------------------------------------------

          ===> extra information on forces <===
 ewald contribution to reduced grads
    1       2.851338182688     -0.000000000000     -0.000000000000
    2      -2.851338182688      0.000000000000      0.000000000000
 nonlocal contribution to red. grads
    1       1.979335967116      0.000000000000      0.000000000000
    2       0.072905685685      0.000000000000      0.000000000000
 local psp contribution to red. grads
    1      -4.771083041417      0.000000000000      0.000000000000
    2       2.719066935508     -0.000000000000     -0.000000000000
 residual contribution to red. grads
    1       0.000015245652      0.000000000000      0.000000000000
    2      -0.000000206724      0.000000000000      0.000000000000

 Cartesian components of stress tensor (hartree/bohr^3)
  sigma(1 1)=  6.02779589E-05  sigma(3 2)=  0.00000000E+00
  sigma(2 2)= -1.59127282E-05  sigma(3 1)=  0.00000000E+00
  sigma(3 3)= -1.59127282E-05  sigma(2 1)=  0.00000000E+00

[...]
           jdtset       11   12   13   14   15   16   21   22   23   24
                        25   26
              kpt      5.00000000E-01  5.00000000E-01  5.00000000E-01
         kptrlatt        1    0    0      0    1    0      0    0    1
          kptrlen      1.00000000E+01
P           mkmem           1
            natom           2
            nband           2
           ndtset          12
            ngfft          30      30      30
          ngfftdg          50      50      50
             nkpt           1
            nstep          10
             nsym11         8
             nsym12         8
             nsym13         8
             nsym14         8
             nsym15         8
             nsym16         8
             nsym21         2
             nsym22         2
             nsym23         2
             nsym24         2
             nsym25         2
             nsym26         2
            ntime           5
           ntypat           2
        nzchempot11      0
        nzchempot12      0
        nzchempot13      0
        nzchempot14      0
        nzchempot15      0
        nzchempot16      0
        nzchempot21      2
        nzchempot22      2
        nzchempot23      2
        nzchempot24      2
        nzchempot25      2
        nzchempot26      2
              occ      2.000000  2.000000
        optforces           1
        pawecutdg      3.00000000E+01 Hartree
           prtvol          10
           shiftk      5.00000000E-01  5.00000000E-01  5.00000000E-01
          spgroup11        99
          spgroup12        99
          spgroup13        99
          spgroup14        99
          spgroup15        99
          spgroup16        99
          spgroup21         6
          spgroup22         6
          spgroup23         6
          spgroup24         6
          spgroup25         6
          spgroup26         6
           strten11    6.0277958868E-05 -1.5912728228E-05 -1.5912728228E-05
                       0.0000000000E+00  0.0000000000E+00  0.0000000000E+00
           strten12    6.0277896730E-05 -1.5912536644E-05 -1.5912536644E-05
                       0.0000000000E+00  0.0000000000E+00  0.0000000000E+00
           strten13    6.0265387404E-05 -1.5921832714E-05 -1.5921832714E-05
                       0.0000000000E+00  0.0000000000E+00  0.0000000000E+00
           strten14    6.0279266952E-05 -1.5912005539E-05 -1.5912005539E-05
                       0.0000000000E+00  0.0000000000E+00  0.0000000000E+00
           strten15    6.0276356419E-05 -1.5912538929E-05 -1.5912538929E-05
                       0.0000000000E+00  0.0000000000E+00  0.0000000000E+00
           strten16    6.0267561664E-05 -1.5921872861E-05 -1.5921872861E-05
                       0.0000000000E+00  0.0000000000E+00  0.0000000000E+00
           strten21    6.0277119478E-05 -1.5913141134E-05 -1.5913141302E-05
                       0.0000000000E+00 -4.2788140242E-12  0.0000000000E+00
           strten22    6.0276352843E-05 -1.5914259789E-05 -1.5914260609E-05
                       0.0000000000E+00  1.2615847488E-11  0.0000000000E+00
           strten23    6.0266394207E-05 -1.5921102723E-05 -1.5921101888E-05
                       0.0000000000E+00  4.5300618225E-13  0.0000000000E+00
           strten24    6.0277631891E-05 -1.5913335646E-05 -1.5913323966E-05
                       0.0000000000E+00 -1.2948960875E-10  0.0000000000E+00
           strten25    6.0278351973E-05 -1.5911404411E-05 -1.5911373460E-05
                       0.0000000000E+00  2.8808137749E-10  0.0000000000E+00
           strten26    6.0272471593E-05 -1.5916964002E-05 -1.5916964360E-05
                       0.0000000000E+00  9.4905706771E-11  0.0000000000E+00
           symafm11      1    1    1    1    1    1    1    1
           symafm12      1    1    1    1    1    1    1    1
           symafm13      1    1    1    1    1    1    1    1
           symafm14      1    1    1    1    1    1    1    1
           symafm15      1    1    1    1    1    1    1    1
           symafm16      1    1    1    1    1    1    1    1
           symafm21      1    1
           symafm22      1    1
           symafm23      1    1
           symafm24      1    1
           symafm25      1    1
           symafm26      1    1
           symrel11    1  0  0   0  1  0   0  0  1       1  0  0   0 -1  0   0  0  1
                       1  0  0   0  1  0   0  0 -1       1  0  0   0 -1  0   0  0 -1
                       1  0  0   0  0  1   0  1  0       1  0  0   0  0 -1   0  1  0
                       1  0  0   0  0  1   0 -1  0       1  0  0   0  0 -1   0 -1  0
           symrel12    1  0  0   0  1  0   0  0  1       1  0  0   0 -1  0   0  0  1
                       1  0  0   0  1  0   0  0 -1       1  0  0   0 -1  0   0  0 -1
                       1  0  0   0  0  1   0  1  0       1  0  0   0  0 -1   0  1  0
                       1  0  0   0  0  1   0 -1  0       1  0  0   0  0 -1   0 -1  0
           symrel13    1  0  0   0  1  0   0  0  1       1  0  0   0 -1  0   0  0  1
                       1  0  0   0  1  0   0  0 -1       1  0  0   0 -1  0   0  0 -1
                       1  0  0   0  0  1   0  1  0       1  0  0   0  0 -1   0  1  0
                       1  0  0   0  0  1   0 -1  0       1  0  0   0  0 -1   0 -1  0
           symrel14    1  0  0   0  1  0   0  0  1       1  0  0   0 -1  0   0  0  1
                       1  0  0   0  1  0   0  0 -1       1  0  0   0 -1  0   0  0 -1
                       1  0  0   0  0  1   0  1  0       1  0  0   0  0 -1   0  1  0
                       1  0  0   0  0  1   0 -1  0       1  0  0   0  0 -1   0 -1  0
           symrel15    1  0  0   0  1  0   0  0  1       1  0  0   0 -1  0   0  0  1
                       1  0  0   0  1  0   0  0 -1       1  0  0   0 -1  0   0  0 -1
                       1  0  0   0  0  1   0  1  0       1  0  0   0  0 -1   0  1  0
                       1  0  0   0  0  1   0 -1  0       1  0  0   0  0 -1   0 -1  0
           symrel16    1  0  0   0  1  0   0  0  1       1  0  0   0 -1  0   0  0  1
                       1  0  0   0  1  0   0  0 -1       1  0  0   0 -1  0   0  0 -1
                       1  0  0   0  0  1   0  1  0       1  0  0   0  0 -1   0  1  0
                       1  0  0   0  0  1   0 -1  0       1  0  0   0  0 -1   0 -1  0
           symrel21    1  0  0   0  1  0   0  0  1       1  0  0   0 -1  0   0  0  1
           symrel22    1  0  0   0  1  0   0  0  1       1  0  0   0 -1  0   0  0  1
           symrel23    1  0  0   0  1  0   0  0  1       1  0  0   0 -1  0   0  0  1
           symrel24    1  0  0   0  1  0   0  0  1       1  0  0   0 -1  0   0  0  1
           symrel25    1  0  0   0  1  0   0  0  1       1  0  0   0 -1  0   0  0  1
           symrel26    1  0  0   0  1  0   0  0  1       1  0  0   0 -1  0   0  0  1
            tnons11    0.0000000  0.0000000  0.0000000     0.0000000  0.0000000  0.0000000
                       0.0000000  0.0000000  0.0000000     0.0000000  0.0000000  0.0000000
                       0.0000000  0.0000000  0.0000000     0.0000000  0.0000000  0.0000000
                       0.0000000  0.0000000  0.0000000     0.0000000  0.0000000  0.0000000
            tnons12    0.0000000  0.0000000  0.0000000     0.0000000  0.0000000  0.0000000
                       0.0000000  0.0000000  0.2000000     0.0000000  0.0000000  0.2000000
                       0.0000000 -0.1000000  0.1000000     0.0000000 -0.1000000  0.1000000
                       0.0000000  0.1000000  0.1000000     0.0000000  0.1000000  0.1000000
            tnons13    0.0000000  0.0000000  0.0000000     0.0000000  0.0000000  0.0000000
                       0.0000000  0.0000000  0.4000000     0.0000000  0.0000000  0.4000000
                       0.0000000 -0.2000000  0.2000000     0.0000000 -0.2000000  0.2000000
                       0.0000000  0.2000000  0.2000000     0.0000000  0.2000000  0.2000000
            tnons14    0.0000000  0.0000000  0.0000000     0.0000000  0.0000000  0.0000000
                       0.0000000  0.0000000 -0.4000000     0.0000000  0.0000000 -0.4000000
                       0.0000000 -0.3000000  0.3000000     0.0000000 -0.3000000  0.3000000
                       0.0000000  0.3000000  0.3000000     0.0000000  0.3000000  0.3000000
            tnons15    0.0000000  0.0000000  0.0000000     0.0000000  0.0000000  0.0000000
                       0.0000000  0.0000000 -0.2000000     0.0000000  0.0000000 -0.2000000
                       0.0000000 -0.4000000  0.4000000     0.0000000 -0.4000000  0.4000000
                       0.0000000  0.4000000  0.4000000     0.0000000  0.4000000  0.4000000
            tnons16    0.0000000  0.0000000  0.0000000     0.0000000  0.0000000  0.0000000
                       0.0000000  0.0000000  0.0000000     0.0000000  0.0000000  0.0000000
                       0.0000000  0.5000000  0.5000000     0.0000000  0.5000000  0.5000000
                       0.0000000  0.5000000  0.5000000     0.0000000  0.5000000  0.5000000
            tnons21    0.0000000  0.0000000  0.0000000     0.0000000  0.0000000  0.0000000
            tnons22    0.0000000  0.0000000  0.0000000     0.0000000  0.0000000  0.0000000
            tnons23    0.0000000  0.0000000  0.0000000     0.0000000  0.0000000  0.0000000
            tnons24    0.0000000  0.0000000  0.0000000     0.0000000  0.0000000  0.0000000
            tnons25    0.0000000  0.0000000  0.0000000     0.0000000  0.0000000  0.0000000
            tnons26    0.0000000  0.0000000  0.0000000     0.0000000  0.0000000  0.0000000
           tolrff      1.00000000E-02
            typat      1  2
           useylm           1
           xangst11   -7.9376581289E-01  0.0000000000E+00  0.0000000000E+00
                       7.9376581289E-01  0.0000000000E+00  0.0000000000E+00
           xangst12   -7.9376581289E-01  0.0000000000E+00  5.2917720859E-01
                       7.9376581289E-01  0.0000000000E+00  5.2917720859E-01
           xangst13   -7.9376581289E-01  0.0000000000E+00  1.0583544172E+00
                       7.9376581289E-01  0.0000000000E+00  1.0583544172E+00
           xangst14   -7.9376581289E-01  0.0000000000E+00  1.5875316258E+00
                       7.9376581289E-01  0.0000000000E+00  1.5875316258E+00
           xangst15   -7.9376581289E-01  0.0000000000E+00  2.1167088344E+00
                       7.9376581289E-01  0.0000000000E+00  2.1167088344E+00
           xangst16   -7.9376581289E-01  0.0000000000E+00  2.6458860429E+00
                       7.9376581289E-01  0.0000000000E+00  2.6458860429E+00
           xangst21   -7.9376581289E-01  0.0000000000E+00  0.0000000000E+00
                       7.9376581289E-01  0.0000000000E+00  0.0000000000E+00
           xangst22   -7.9376581289E-01  0.0000000000E+00  5.2917720859E-01
                       7.9376581289E-01  0.0000000000E+00  5.2917720859E-01
           xangst23   -7.9376581289E-01  0.0000000000E+00  1.0583544172E+00
                       7.9376581289E-01  0.0000000000E+00  1.0583544172E+00
           xangst24   -7.9376581289E-01  0.0000000000E+00  1.5875316258E+00
                       7.9376581289E-01  0.0000000000E+00  1.5875316258E+00
           xangst25   -7.9376581289E-01  0.0000000000E+00  2.1167088344E+00
                       7.9376581289E-01  0.0000000000E+00  2.1167088344E+00
           xangst26   -7.9376581289E-01  0.0000000000E+00  2.6458860429E+00
                       7.9376581289E-01  0.0000000000E+00  2.6458860429E+00
            xcart11   -1.5000000000E+00  0.0000000000E+00  0.0000000000E+00
                       1.5000000000E+00  0.0000000000E+00  0.0000000000E+00
            xcart12   -1.5000000000E+00  0.0000000000E+00  1.0000000000E+00
                       1.5000000000E+00  0.0000000000E+00  1.0000000000E+00
            xcart13   -1.5000000000E+00  0.0000000000E+00  2.0000000000E+00
                       1.5000000000E+00  0.0000000000E+00  2.0000000000E+00
            xcart14   -1.5000000000E+00  0.0000000000E+00  3.0000000000E+00
                       1.5000000000E+00  0.0000000000E+00  3.0000000000E+00
            xcart15   -1.5000000000E+00  0.0000000000E+00  4.0000000000E+00
                       1.5000000000E+00  0.0000000000E+00  4.0000000000E+00
            xcart16   -1.5000000000E+00  0.0000000000E+00  5.0000000000E+00
                       1.5000000000E+00  0.0000000000E+00  5.0000000000E+00
            xcart21   -1.5000000000E+00  0.0000000000E+00  0.0000000000E+00
                       1.5000000000E+00  0.0000000000E+00  0.0000000000E+00
            xcart22   -1.5000000000E+00  0.0000000000E+00  1.0000000000E+00
                       1.5000000000E+00  0.0000000000E+00  1.0000000000E+00
            xcart23   -1.5000000000E+00  0.0000000000E+00  2.0000000000E+00
                       1.5000000000E+00  0.0000000000E+00  2.0000000000E+00
            xcart24   -1.5000000000E+00  0.0000000000E+00  3.0000000000E+00
                       1.5000000000E+00  0.0000000000E+00  3.0000000000E+00
            xcart25   -1.5000000000E+00  0.0000000000E+00  4.0000000000E+00
                       1.5000000000E+00  0.0000000000E+00  4.0000000000E+00
            xcart26   -1.5000000000E+00  0.0000000000E+00  5.0000000000E+00
                       1.5000000000E+00  0.0000000000E+00  5.0000000000E+00
             xred11   -1.5000000000E-01  0.0000000000E+00  0.0000000000E+00
                       1.5000000000E-01  0.0000000000E+00  0.0000000000E+00
             xred12   -1.5000000000E-01  0.0000000000E+00  1.0000000000E-01
                       1.5000000000E-01  0.0000000000E+00  1.0000000000E-01
             xred13   -1.5000000000E-01  0.0000000000E+00  2.0000000000E-01
                       1.5000000000E-01  0.0000000000E+00  2.0000000000E-01
             xred14   -1.5000000000E-01  0.0000000000E+00  3.0000000000E-01
                       1.5000000000E-01  0.0000000000E+00  3.0000000000E-01
             xred15   -1.5000000000E-01  0.0000000000E+00  4.0000000000E-01
                       1.5000000000E-01  0.0000000000E+00  4.0000000000E-01
             xred16   -1.5000000000E-01  0.0000000000E+00  5.0000000000E-01
                       1.5000000000E-01  0.0000000000E+00  5.0000000000E-01
             xred21   -1.5000000000E-01  0.0000000000E+00  0.0000000000E+00
                       1.5000000000E-01  0.0000000000E+00  0.0000000000E+00
             xred22   -1.5000000000E-01  0.0000000000E+00  1.0000000000E-01
                       1.5000000000E-01  0.0000000000E+00  1.0000000000E-01
             xred23   -1.5000000000E-01  0.0000000000E+00  2.0000000000E-01
                       1.5000000000E-01  0.0000000000E+00  2.0000000000E-01
             xred24   -1.5000000000E-01  0.0000000000E+00  3.0000000000E-01
                       1.5000000000E-01  0.0000000000E+00  3.0000000000E-01
             xred25   -1.5000000000E-01  0.0000000000E+00  4.0000000000E-01
                       1.5000000000E-01  0.0000000000E+00  4.0000000000E-01
             xred26   -1.5000000000E-01  0.0000000000E+00  5.0000000000E-01
                       1.5000000000E-01  0.0000000000E+00  5.0000000000E-01
            znucl        3.00000    1.00000

================================================================================


- Timing analysis has been suppressed with timopt=0



================================================================================

 Suggested references for the acknowledgment of ABINIT usage.

 The users of ABINIT have little formal obligations with respect to the ABINIT group
 (those specified in the GNU General Public License, http://www.gnu.org/copyleft/gpl.txt).
 However, it is common practice in the scientific literature,
 to acknowledge the efforts of people that have made the research possible.
 In this spirit, please find below suggested citations of work written by ABINIT developers,
 corresponding to implementations inside of ABINIT that you have used in the present run.
 Note also that it will be of great value to readers of publications presenting these results,
 to read papers enabling them to understand the theoretical formalism and details
 of the ABINIT implementation.
 For information on why they are suggested, see also http://www.abinit.org/about/?text=acknowledgments.
-
- [1] Implementation of the Projector Augmented-Wave Method in the ABINIT code.
- M. Torrent, F. Jollet, F. Bottin, G. Zerah, and X. Gonze Comput. Mat. Science 42, 337, (2008).
- Comment : PAW calculations. Strong suggestion to cite this paper.
-
- [2] Recent developments in the ABINIT software package.
- Computer Phys. Comm. 205, 106 (2016).
- X.Gonze, F.Jollet, F.Abreu Araujo, D.Adams, B.Amadon, T.Applencourt,
- C.Audouze, J.-M.Beuken, J.Bieder, A.Bokhanchuk, E.Bousquet, F.Bruneval
- D.Caliste, M.Cote, F.Dahm, F.Da Pieve, M.Delaveau, M.Di Gennaro,
- B.Dorado, C.Espejo, G.Geneste, L.Genovese, A.Gerossier, M.Giantomassi,
- Y.Gillet, D.R.Hamann, L.He, G.Jomard, J.Laflamme Janssen, S.Le Roux,
- A.Levitt, A.Lherbier, F.Liu, I.Lukacevic, A.Martin, C.Martins,
- M.J.T.Oliveira, S.Ponce, Y.Pouillon, T.Rangel, G.-M.Rignanese,
- A.H.Romero, B.Rousseau, O.Rubel, A.A.Shukri, M.Stankovski, M.Torrent,
- M.J.Van Setten, B.Van Troeye, M.J.Verstraete, D.Waroquier, J.Wiktor,
- B.Xue, A.Zhou, J.W.Zwanziger.
- Comment : the fourth generic paper describing the ABINIT project.
- Note that a version of this paper, that is not formatted for Computer Phys. Comm. 
- is available at http://www.abinit.org/about/ABINIT16.pdf .
- The licence allows the authors to put it on the Web.
-
- [3] ABINIT : First-principles approach of materials and nanosystem properties.
- Computer Phys. Comm. 180, 2582-2615 (2009).
- X. Gonze, B. Amadon, P.-M. Anglade, J.-M. Beuken, F. Bottin, P. Boulanger, F. Bruneval,
- D. Caliste, R. Caracas, M. Cote, T. Deutsch, L. Genovese, Ph. Ghosez, M. Giantomassi
- S. Goedecker, D.R. Hamann, P. Hermet, F. Jollet, G. Jomard, S. Leroux, M. Mancini, S. Mazevet,
- M.J.T. Oliveira, G. Onida, Y. Pouillon, T. Rangel, G.-M. Rignanese, D. Sangalli, R. Shaltaf,
- M. Torrent, M.J. Verstraete, G. Zerah, J.W. Zwanziger
- Comment : the third generic paper describing the ABINIT project.
- Note that a version of this paper, that is not formatted for Computer Phys. Comm. 
- is available at http://www.abinit.org/about/ABINIT_CPC_v10.pdf .
- The licence allows the authors to put it on the Web.
-
- [4] A brief introduction to the ABINIT software package.
- Z. Kristallogr. 220, 558-562 (2005).
- X. Gonze, G.-M. Rignanese, M. Verstraete, J.-M. Beuken, Y. Pouillon, R. Caracas, F. Jollet,
- M. Torrent, G. Zerah, M. Mikami, Ph. Ghosez, M. Veithen, J.-Y. Raty, V. Olevano, F. Bruneval,
- L. Reining, R. Godby, G. Onida, D.R. Hamann, and D.C. Allan.
- Comment : the second generic paper describing the ABINIT project. Note that this paper
- should be cited especially if you are using the GW part of ABINIT, as several authors
- of this part are not in the list of authors of the first or third paper.
- The .pdf of the latter paper is available at http://www.abinit.org/about/zfk_0505-06_558-562.pdf.
- Note that it should not redistributed (Copyright by Oldenburg Wissenshaftverlag,
- the licence allows the authors to put it on the Web).
-
- And optionally:
-
- [5] First-principles computation of material properties : the ABINIT software project. 
- X. Gonze, J.-M. Beuken, R. Caracas, F. Detraux, M. Fuchs, G.-M. Rignanese, L. Sindic,
- M. Verstraete, G. Zerah, F. Jollet, M. Torrent, A. Roy, M. Mikami, Ph. Ghosez, J.-Y. Raty, D.C. Allan.
- Computational Materials Science 25, 478-492 (2002). http://dx.doi.org/10.1016/S0927-0256(02)00325-7
- Comment : the original paper describing the ABINIT project.
-
- Proc.   0 individual time (sec): cpu=          9.7  wall=         10.5

================================================================================

 Calculation completed.
.Delivered 113 WARNINGs and  18 COMMENTs to log file.
+Overall time at end (sec) : cpu=          9.7  wall=         10.5
