
.Version 9.5.3 of ABINIT 
.(MPI version, prepared for a x86_64_linux_gnu7.5 computer) 

.Copyright (C) 1998-2021 ABINIT group . 
 ABINIT comes with ABSOLUTELY NO WARRANTY.
 It is free software, and you are welcome to redistribute it
 under certain conditions (GNU General Public License,
 see ~abinit/COPYING or http://www.gnu.org/copyleft/gpl.txt).

 ABINIT is a project of the Universite Catholique de Louvain,
 Corning Inc. and other collaborators, see ~abinit/doc/developers/contributors.txt .
 Please read https://docs.abinit.org/theory/acknowledgments for suggested
 acknowledgments of the ABINIT effort.
 For more information, see https://www.abinit.org .

.Starting date : Tue 20 Jul 2021.
- ( at 13h01 )
  
- input  file    -> /home/marcus/CODES/DEVELOP-MULTIBINIT/abinit/build_abi9/tests/Test_suite/v8_t34/t34.abi
- output file    -> t34.abo
- root for input  files -> t34i
- root for output files -> t34o


 Symmetries : space group P1 (#  1); Bravais aP (primitive triclinic)
================================================================================
 Values of the parameters that define the memory need of the present run
     intxc =       0    ionmov =      25      iscf =       7    lmnmax =       2
     lnmax =       2     mgfft =      24  mpssoang =       3    mqgrid =    3001
     natom =       2  nloc_mem =       1    nspden =       1   nspinor =       1
    nsppol =       1      nsym =       1    n1xccc =    2501    ntypat =       1
    occopt =       3   xclevel =       1
-    mband =          20        mffmem =           1         mkmem =           8
       mpw =         346          nfft =       13824          nkpt =           8
================================================================================
P This job should need less than                       6.172 Mbytes of memory.
  Rough estimation (10% accuracy) of disk space for files :
_ WF disk file :      0.847 Mbytes ; DEN or POT disk file :      0.107 Mbytes.
================================================================================

--------------------------------------------------------------------------------
------------- Echo of variables that govern the present computation ------------
--------------------------------------------------------------------------------
-
- outvars: echo of selected default values                                      
-   iomode0 =  0 , fftalg0 =312 , wfoptalg0 =  0
-
- outvars: echo of global parameters not present in the input file              
-  max_nthreads =    0
-
 -outvars: echo values of preprocessed input variables --------
            acell      5.4200000000E+00  5.4200000000E+00  5.4200000000E+00 Bohr
              amu      5.58470000E+01
      chksymbreak           0
            dtion      2.50000000E+02
             ecut      2.00000000E+01 Hartree
-          fftalg         312
           hmcsst           0
            hmctt           3
           ionmov          25
           istwfk        2    3    6    7    4    5    8    9
              kpt      0.00000000E+00  0.00000000E+00  0.00000000E+00
                       5.00000000E-01  0.00000000E+00  0.00000000E+00
                       0.00000000E+00  5.00000000E-01  0.00000000E+00
                       5.00000000E-01  5.00000000E-01  0.00000000E+00
                       0.00000000E+00  0.00000000E+00  5.00000000E-01
                       5.00000000E-01  0.00000000E+00  5.00000000E-01
                       0.00000000E+00  5.00000000E-01  5.00000000E-01
                       5.00000000E-01  5.00000000E-01  5.00000000E-01
         kptrlatt        2    0    0      0    2    0      0    0    2
          kptrlen      1.08400000E+01
P           mkmem           8
            natom           2
            nband          20
            ngfft          24      24      24
             nkpt           8
             nnos           1
            nstep          10
             nsym           1
            ntime           4
           ntypat           1
              occ      2.000000  2.000000  2.000000  2.000000  2.000000  2.000000
                       2.000000  2.000000  0.000000  0.000000  0.000000  0.000000
                       0.000000  0.000000  0.000000  0.000000  0.000000  0.000000
                       0.000000  0.000000
                       2.000000  2.000000  2.000000  2.000000  2.000000  2.000000
                       2.000000  2.000000  0.000000  0.000000  0.000000  0.000000
                       0.000000  0.000000  0.000000  0.000000  0.000000  0.000000
                       0.000000  0.000000
                       2.000000  2.000000  2.000000  2.000000  2.000000  2.000000
                       2.000000  2.000000  0.000000  0.000000  0.000000  0.000000
                       0.000000  0.000000  0.000000  0.000000  0.000000  0.000000
                       0.000000  0.000000
                       2.000000  2.000000  2.000000  2.000000  2.000000  2.000000
                       2.000000  2.000000  0.000000  0.000000  0.000000  0.000000
                       0.000000  0.000000  0.000000  0.000000  0.000000  0.000000
                       0.000000  0.000000
                       2.000000  2.000000  2.000000  2.000000  2.000000  2.000000
                       2.000000  2.000000  0.000000  0.000000  0.000000  0.000000
                       0.000000  0.000000  0.000000  0.000000  0.000000  0.000000
                       0.000000  0.000000
                       2.000000  2.000000  2.000000  2.000000  2.000000  2.000000
                       2.000000  2.000000  0.000000  0.000000  0.000000  0.000000
                       0.000000  0.000000  0.000000  0.000000  0.000000  0.000000
                       0.000000  0.000000
                       2.000000  2.000000  2.000000  2.000000  2.000000  2.000000
                       2.000000  2.000000  0.000000  0.000000  0.000000  0.000000
                       0.000000  0.000000  0.000000  0.000000  0.000000  0.000000
                       0.000000  0.000000
                       2.000000  2.000000  2.000000  2.000000  2.000000  2.000000
                       2.000000  2.000000  0.000000  0.000000  0.000000  0.000000
                       0.000000  0.000000  0.000000  0.000000  0.000000  0.000000
                       0.000000  0.000000
           occopt           3
           prtden           0
          spgroup           1
           toldfe      1.00000000E-10 Hartree
            typat      1  1
              wtk        0.12500    0.12500    0.12500    0.12500    0.12500    0.12500
                         0.12500    0.12500
           xangst      0.0000000000E+00  1.3566141709E-01  8.1330785311E-03
                       1.4340702353E+00  1.4418158417E+00  1.4832999662E+00
            xcart      0.0000000000E+00  2.5636292509E-01  1.5369291041E-02
                       2.7100000000E+00  2.7246370749E+00  2.8030307090E+00
             xred      0.0000000000E+00  4.7299432674E-02  2.8356625537E-03
                       5.0000000000E-01  5.0270056733E-01  5.1716433745E-01
            znucl       26.00000

================================================================================

 chkinp: Checking input parameters for consistency.

================================================================================
== DATASET  1 ==================================================================
-   mpi_nproc: 1, omp_nthreads: -1 (-1 if OMP is not activated)


--- !DatasetInfo
iteration_state: {dtset: 1, }
dimensions: {natom: 2, nkpt: 8, mband: 20, nsppol: 1, nspinor: 1, nspden: 1, mpw: 346, }
cutoff_energies: {ecut:  20.0, pawecutdg:  -1.0, }
electrons: {nelect:   1.60000000E+01, charge:   0.00000000E+00, occopt:   3.00000000E+00, tsmear:   1.00000000E-02, }
meta: {optdriver: 0, ionmov: 25, optcell: 0, iscf: 7, paral_kgb: 0, }
...

 Exchange-correlation functional for the present dataset will be:
  LDA: new Teter (4/93) with spin-polarized option - ixc=1
 Citation for XC functional:
  S. Goedecker, M. Teter, J. Huetter, PRB 54, 1703 (1996)

 Real(R)+Recip(G) space primitive vectors, cartesian coordinates (Bohr,Bohr^-1):
 R(1)=  5.4200000  0.0000000  0.0000000  G(1)=  0.1845018  0.0000000  0.0000000
 R(2)=  0.0000000  5.4200000  0.0000000  G(2)=  0.0000000  0.1845018  0.0000000
 R(3)=  0.0000000  0.0000000  5.4200000  G(3)=  0.0000000  0.0000000  0.1845018
 Unit cell volume ucvol=  1.5922009E+02 bohr^3
 Angles (23,13,12)=  9.00000000E+01  9.00000000E+01  9.00000000E+01 degrees

 getcut: wavevector=  0.0000  0.0000  0.0000  ngfft=  24  24  24
         ecut(hartree)=     20.000   => boxcut(ratio)=   2.19954

--- Pseudopotential description ------------------------------------------------
- pspini: atom type   1  psp file is /home/marcus/CODES/DEVELOP-MULTIBINIT/abinit/tests/Psps_for_tests/PseudosTM_pwteter/26fe.pspnc
- pspatm: opening atomic psp file    /home/marcus/CODES/DEVELOP-MULTIBINIT/abinit/tests/Psps_for_tests/PseudosTM_pwteter/26fe.pspnc
-  Troullier-Martins psp for element  Fe        Thu Oct 27 17:35:05 EDT 1994
- 26.00000   8.00000    940714                znucl, zion, pspdat
    1    1    2    0      2001   0.00000      pspcod,pspxc,lmax,lloc,mmax,r2well
    0   4.333  10.868    0   2.2918558        l,e99.0,e99.9,nproj,rcpsp
   0.00000000   0.00000000   0.00000000   0.00000000     rms, ekb1, ekb2, epsatm
    1   1.213   4.197    1   2.8345121        l,e99.0,e99.9,nproj,rcpsp
   0.00000000   0.00000000   0.00000000   0.00000000     rms, ekb1, ekb2, epsatm
    2  18.664  23.972    1   2.2918558        l,e99.0,e99.9,nproj,rcpsp
   0.00000000   0.00000000   0.00000000   0.00000000     rms, ekb1, ekb2, epsatm
    1.56404770202776    2.06158206779471    6.88331421535388   rchrg,fchrg,qchrg
  pspatm : epsatm=   62.03296659
         --- l  ekb(1:nproj) -->
             1    1.561134
             2   -8.115829
 pspatm: atomic psp has been read  and splines computed

   1.98505493E+03                                ecore*ucvol(ha*bohr**3)
--------------------------------------------------------------------------------

_setup2: Arith. and geom. avg. npw (full set) are     681.125     681.108

================================================================================

=== [ionmov=25] Hybrid Monte Carlo                                          
================================================================================

--- Iteration: (1/4) Internal Cycle: (1/3)
--------------------------------------------------------------------------------

---SELF-CONSISTENT-FIELD CONVERGENCE--------------------------------------------

--- !BeginCycle
iteration_state: {dtset: 1, itime: 1, icycle: 1, }
solver: {iscf: 7, nstep: 10, nline: 4, wfoptalg: 0, }
tolerances: {toldfe: 1.00E-10, }
...

     iter   Etot(hartree)      deltaE(h)  residm     vres2
 ETOT  1  -47.250174328287    -4.725E+01 1.342E-01 2.823E+03
 ETOT  2  -48.276095300329    -1.026E+00 6.495E-02 1.509E+03
 ETOT  3  -49.534102750154    -1.258E+00 3.839E-02 8.723E+01
 ETOT  4  -49.576016399023    -4.191E-02 4.308E-03 3.237E+01
 ETOT  5  -49.507186513109     6.883E-02 2.706E-04 1.014E+02
 ETOT  6  -49.609487664745    -1.023E-01 8.453E-04 5.719E-01
 ETOT  7  -49.609589452292    -1.018E-04 2.692E-05 5.488E-01
 ETOT  8  -49.609572346440     1.711E-05 2.667E-05 5.723E-01
 ETOT  9  -49.610097716285    -5.254E-04 2.027E-05 1.263E-01
 ETOT 10  -49.610257966856    -1.603E-04 2.044E-05 7.975E-04

 Cartesian components of stress tensor (hartree/bohr^3)
  sigma(1 1)=  9.94495463E-03  sigma(3 2)=  4.42409691E-05
  sigma(2 2)=  1.02098385E-02  sigma(3 1)= -2.22839449E-07
  sigma(3 3)=  9.96721368E-03  sigma(2 1)=  4.72798000E-07


 scprqt:  WARNING -
  nstep=   10 was not enough SCF cycles to converge;
  maximum energy difference=  1.603E-04 exceeds toldfe=  1.000E-10


--- !ResultsGS
iteration_state: {dtset: 1, itime: 1, icycle: 1, }
comment   : Summary of ground state results
lattice_vectors:
- [  5.4200000,   0.0000000,   0.0000000, ]
- [  0.0000000,   5.4200000,   0.0000000, ]
- [  0.0000000,   0.0000000,   5.4200000, ]
lattice_lengths: [   5.42000,    5.42000,    5.42000, ]
lattice_angles: [ 90.000,  90.000,  90.000, ] # degrees, (23, 13, 12)
lattice_volume:   1.5922009E+02
convergence: {deltae: -1.603E-04, res2:  7.975E-04, residm:  2.044E-05, diffor: null, }
etotal    :  -4.96102580E+01
entropy   :   0.00000000E+00
fermie    :  -2.72615655E-01
cartesian_stress_tensor: # hartree/bohr^3
- [  9.94495463E-03,   4.72798000E-07,  -2.22839449E-07, ]
- [  4.72798000E-07,   1.02098385E-02,   4.42409691E-05, ]
- [ -2.22839449E-07,   4.42409691E-05,   9.96721368E-03, ]
pressure_GPa:  -2.9541E+02
xred      :
- [  0.0000E+00,   4.7299E-02,   2.8357E-03, Fe]
- [  5.0000E-01,   5.0270E-01,   5.1716E-01, Fe]
cartesian_forces: # hartree/bohr
- [  1.14719040E-05,  -8.53178759E-03,   6.07872743E-03, ]
- [ -1.14719040E-05,   8.53178759E-03,  -6.07872743E-03, ]
force_length_stats: {min:   1.04758035E-02, max:   1.04758035E-02, mean:   1.04758035E-02, }
...

 Integrated electronic density in atomic spheres:
 ------------------------------------------------
 Atom  Sphere_radius  Integrated_density
    1        2.00000          6.10058988
    2        2.00000          6.09303570

---OUTPUT-----------------------------------------------------------------------

 Cartesian coordinates (xcart) [bohr]
  0.00000000000000E+00  2.56362925093080E-01  1.53692910410540E-02
  2.71000000000000E+00  2.72463707492860E+00  2.80303070897900E+00
 Reduced coordinates (xred)
  0.00000000000000E+00  4.72994326740000E-02  2.83566255370000E-03
  5.00000000000000E-01  5.02700567330000E-01  5.17164337450000E-01
 Cartesian forces (fcart) [Ha/bohr]; max,rms= 8.53179E-03 6.04821E-03 (free atoms)
  1.14719039837126E-05 -8.53178758923400E-03  6.07872743313269E-03
 -1.14719039837126E-05  8.53178758923400E-03 -6.07872743313269E-03
 Gradient of E wrt nuclear positions in reduced coordinates (gred)
 -6.21777195917225E-05  4.62422887336483E-02 -3.29467026875792E-02
  6.21777195917225E-05 -4.62422887336483E-02  3.29467026875792E-02
 Cartesian velocities (vel) [bohr*Ha/hbar]; max,rms= 0.00000E+00 0.00000E+00 (free atoms)
  0.00000000000000E+00  0.00000000000000E+00  0.00000000000000E+00
  0.00000000000000E+00  0.00000000000000E+00  0.00000000000000E+00
 Kinetic energy of ions (ekin) [Ha]=  0.00000000000000E+00
 Total energy (etotal) [Ha]= -4.96102579668560E+01

--- Iteration: (1/4) Internal Cycle: (2/3)
--------------------------------------------------------------------------------

---SELF-CONSISTENT-FIELD CONVERGENCE--------------------------------------------

--- !BeginCycle
iteration_state: {dtset: 1, itime: 1, icycle: 2, }
solver: {iscf: 7, nstep: 10, nline: 4, wfoptalg: 0, }
tolerances: {toldfe: 1.00E-10, }
...

     iter   Etot(hartree)      deltaE(h)  residm     vres2
 ETOT  1  -49.595716461971    -4.960E+01 1.357E-04 1.916E+01
 ETOT  2  -49.563843246894     3.187E-02 2.289E-05 4.258E+01
 ETOT  3  -49.538182393458     2.566E-02 3.860E-04 1.023E+02
 ETOT  4  -49.569005344406    -3.082E-02 1.214E-04 5.789E+01
 ETOT  5  -49.610040628647    -4.104E-02 3.273E-05 7.940E-02
 ETOT  6  -49.610138527673    -9.790E-05 8.314E-06 3.130E-03
 ETOT  7  -49.610142938378    -4.411E-06 7.926E-06 1.085E-03
 ETOT  8  -49.610144160486    -1.222E-06 6.083E-06 7.428E-05
 ETOT  9  -49.610144246508    -8.602E-08 6.392E-06 2.574E-06
 ETOT 10  -49.610144249269    -2.761E-09 4.984E-06 2.593E-07

 Cartesian components of stress tensor (hartree/bohr^3)
  sigma(1 1)=  9.98966094E-03  sigma(3 2)=  5.83020307E-05
  sigma(2 2)=  1.01568249E-02  sigma(3 1)= -2.84807155E-06
  sigma(3 3)=  1.00452527E-02  sigma(2 1)=  1.73361083E-05


 scprqt:  WARNING -
  nstep=   10 was not enough SCF cycles to converge;
  maximum energy difference=  2.761E-09 exceeds toldfe=  1.000E-10


--- !ResultsGS
iteration_state: {dtset: 1, itime: 1, icycle: 2, }
comment   : Summary of ground state results
lattice_vectors:
- [  5.4200000,   0.0000000,   0.0000000, ]
- [  0.0000000,   5.4200000,   0.0000000, ]
- [  0.0000000,   0.0000000,   5.4200000, ]
lattice_lengths: [   5.42000,    5.42000,    5.42000, ]
lattice_angles: [ 90.000,  90.000,  90.000, ] # degrees, (23, 13, 12)
lattice_volume:   1.5922009E+02
convergence: {deltae: -2.761E-09, res2:  2.593E-07, residm:  4.984E-06, diffor: null, }
etotal    :  -4.96101442E+01
entropy   :   0.00000000E+00
fermie    :  -2.73285707E-01
cartesian_stress_tensor: # hartree/bohr^3
- [  9.98966094E-03,   1.73361083E-05,  -2.84807155E-06, ]
- [  1.73361083E-05,   1.01568249E-02,   5.83020307E-05, ]
- [ -2.84807155E-06,   5.83020307E-05,   1.00452527E-02, ]
pressure_GPa:  -2.9609E+02
xred      :
- [ -4.8973E-03,   4.3518E-02,  -1.7897E-03, Fe]
- [  5.0490E-01,   5.0648E-01,   5.2179E-01, Fe]
cartesian_forces: # hartree/bohr
- [  3.70019796E-03,  -8.71202229E-03,   8.04483706E-03, ]
- [ -3.70019796E-03,   8.71202229E-03,  -8.04483706E-03, ]
force_length_stats: {min:   1.24221657E-02, max:   1.24221657E-02, mean:   1.24221657E-02, }
...

 Integrated electronic density in atomic spheres:
 ------------------------------------------------
 Atom  Sphere_radius  Integrated_density
    1        2.00000          6.10189703
    2        2.00000          6.09897763

---OUTPUT-----------------------------------------------------------------------

 Cartesian coordinates (xcart) [bohr]
 -2.65432064998527E-02  2.35867893595626E-01 -9.69994983088831E-03
  2.73654320649985E+00  2.74513210642605E+00  2.82809994985094E+00
 Reduced coordinates (xred)
 -4.89727057192854E-03  4.35180615490085E-02 -1.78965864038530E-03
  5.04897270571928E-01  5.06481938454992E-01  5.21789658644085E-01
 Cartesian forces (fcart) [Ha/bohr]; max,rms= 8.71202E-03 7.17194E-03 (free atoms)
  3.70019796469399E-03 -8.71202229347139E-03  8.04483705977258E-03
 -3.70019796469399E-03  8.71202229347139E-03 -8.04483705977258E-03
 Gradient of E wrt nuclear positions in reduced coordinates (gred)
 -2.00550729686414E-02  4.72191608306149E-02 -4.36030168639674E-02
  2.00550729686414E-02 -4.72191608306149E-02  4.36030168639674E-02
 Cartesian velocities (vel) [bohr*Ha/hbar]; max,rms= 1.07741E-04 9.66033E-05 (free atoms)
 -1.06186911930730E-04 -7.15042560575550E-05 -1.07740810574576E-04
  1.06186911930730E-04  7.15042560575550E-05  1.07740810574576E-04
 Kinetic energy of ions (ekin) [Ha]=  2.85013387775568E-03
 Total energy (etotal) [Ha]= -4.96101442492694E+01

 Difference of energy with previous step (new-old):
           Absolute (Ha)= 1.13718E-04
           Relative     = 2.29222E-06

--- Iteration: (1/4) Internal Cycle: (3/3)
--------------------------------------------------------------------------------

---SELF-CONSISTENT-FIELD CONVERGENCE--------------------------------------------

--- !BeginCycle
iteration_state: {dtset: 1, itime: 1, icycle: 3, }
solver: {iscf: 7, nstep: 10, nline: 4, wfoptalg: 0, }
tolerances: {toldfe: 1.00E-10, }
...

     iter   Etot(hartree)      deltaE(h)  residm     vres2
 ETOT  1  -49.610006037626    -4.961E+01 4.040E-06 2.770E-01
 ETOT  2  -49.609231147166     7.749E-04 3.866E-06 7.977E-01
 ETOT  3  -49.610007895904    -7.767E-04 6.340E-06 2.680E-01
 ETOT  4  -49.608178274490     1.830E-03 2.704E-06 2.937E+00
 ETOT  5  -49.610222631436    -2.044E-03 2.599E-06 1.551E-04
 ETOT  6  -49.610222757153    -1.257E-07 2.221E-06 5.859E-05
 ETOT  7  -49.610222887096    -1.299E-07 2.167E-06 8.703E-08
 ETOT  8  -49.610222887202    -1.059E-10 1.960E-06 1.687E-08
 ETOT  9  -49.610222887231    -2.834E-11 1.904E-06 2.034E-10
 ETOT 10  -49.610222887231    -1.847E-13 1.755E-06 2.734E-11

 At SCF step   10, etot is converged : 
  for the second time, diff in etot=  1.847E-13 < toldfe=  1.000E-10

 Cartesian components of stress tensor (hartree/bohr^3)
  sigma(1 1)=  9.99763436E-03  sigma(3 2)=  5.57283076E-05
  sigma(2 2)=  1.01483899E-02  sigma(3 1)= -4.47558237E-06
  sigma(3 3)=  1.00531823E-02  sigma(2 1)=  1.76929197E-05


--- !ResultsGS
iteration_state: {dtset: 1, itime: 1, icycle: 3, }
comment   : Summary of ground state results
lattice_vectors:
- [  5.4200000,   0.0000000,   0.0000000, ]
- [  0.0000000,   5.4200000,   0.0000000, ]
- [  0.0000000,   0.0000000,   5.4200000, ]
lattice_lengths: [   5.42000,    5.42000,    5.42000, ]
lattice_angles: [ 90.000,  90.000,  90.000, ] # degrees, (23, 13, 12)
lattice_volume:   1.5922009E+02
convergence: {deltae: -1.847E-13, res2:  2.734E-11, residm:  1.755E-06, diffor: null, }
etotal    :  -4.96102229E+01
entropy   :   0.00000000E+00
fermie    :  -2.73350286E-01
cartesian_stress_tensor: # hartree/bohr^3
- [  9.99763436E-03,   1.76929197E-05,  -4.47558237E-06, ]
- [  1.76929197E-05,   1.01483899E-02,   5.57283076E-05, ]
- [ -4.47558237E-06,   5.57283076E-05,   1.00531823E-02, ]
pressure_GPa:  -2.9616E+02
xred      :
- [ -5.1551E-03,   4.2598E-02,  -1.7498E-03, Fe]
- [  5.0516E-01,   5.0740E-01,   5.2175E-01, Fe]
cartesian_forces: # hartree/bohr
- [  3.80563388E-03,  -8.47799278E-03,   7.77295737E-03, ]
- [ -3.80563388E-03,   8.47799278E-03,  -7.77295737E-03, ]
force_length_stats: {min:   1.21152002E-02, max:   1.21152002E-02, mean:   1.21152002E-02, }
...

 Integrated electronic density in atomic spheres:
 ------------------------------------------------
 Atom  Sphere_radius  Integrated_density
    1        2.00000          6.10312657
    2        2.00000          6.09973581

---OUTPUT-----------------------------------------------------------------------

 Cartesian coordinates (xcart) [bohr]
 -2.79406584420600E-02  2.30883462234053E-01 -9.48380711194528E-03
  2.73794065844206E+00  2.75011653778763E+00  2.82788380713200E+00
 Reduced coordinates (xred)
 -5.15510303359041E-03  4.25984247664304E-02 -1.74977990995300E-03
  5.05155103033590E-01  5.07401575237570E-01  5.21749779913653E-01
 Cartesian forces (fcart) [Ha/bohr]; max,rms= 8.47799E-03 6.99471E-03 (free atoms)
  3.80563387571099E-03 -8.47799277712196E-03  7.77295737182543E-03
 -3.80563387571099E-03  8.47799277712196E-03 -7.77295737182543E-03
 Gradient of E wrt nuclear positions in reduced coordinates (gred)
 -2.06265356063536E-02  4.59507208520010E-02 -4.21294289552938E-02
  2.06265356063536E-02 -4.59507208520010E-02  4.21294289552938E-02
 Cartesian velocities (vel) [bohr*Ha/hbar]; max,rms= 1.01331E-05 9.47470E-06 (free atoms)
 -1.01331455156179E-05 -9.24055191275115E-06 -9.01339031148859E-06
  1.01331455156179E-05  9.24055191275116E-06  9.01339031148859E-06
 Kinetic energy of ions (ekin) [Ha]=  2.74164900057781E-05
 Total energy (etotal) [Ha]= -4.96102228872309E+01

 Difference of energy with previous step (new-old):
           Absolute (Ha)=-7.86380E-05
           Relative     =-1.58512E-06

--- Iteration: (2/4) Internal Cycle: (1/3)
--------------------------------------------------------------------------------

---SELF-CONSISTENT-FIELD CONVERGENCE--------------------------------------------

--- !BeginCycle
iteration_state: {dtset: 1, itime: 2, icycle: 1, }
solver: {iscf: 7, nstep: 10, nline: 4, wfoptalg: 0, }
tolerances: {toldfe: 1.00E-10, }
...

     iter   Etot(hartree)      deltaE(h)  residm     vres2
 ETOT  1  -49.610161135256    -4.961E+01 1.343E-06 1.731E-01
 ETOT  2  -49.609490482724     6.707E-04 2.381E-06 6.459E-01
 ETOT  3  -49.610279065506    -7.886E-04 4.447E-06 3.125E-02
 ETOT  4  -49.610309725465    -3.066E-05 1.311E-06 2.059E-03
 ETOT  5  -49.610303968912     5.757E-06 1.436E-06 1.038E-02
 ETOT  6  -49.610311145658    -7.177E-06 1.236E-06 1.546E-05
 ETOT  7  -49.610311180242    -3.458E-08 1.265E-06 6.330E-08
 ETOT  8  -49.610311180345    -1.027E-10 1.216E-06 1.275E-08
 ETOT  9  -49.610311180368    -2.301E-11 1.240E-06 1.417E-11
 ETOT 10  -49.610311180368    -1.776E-13 1.209E-06 2.463E-12

 At SCF step   10, etot is converged : 
  for the second time, diff in etot=  1.776E-13 < toldfe=  1.000E-10

 Cartesian components of stress tensor (hartree/bohr^3)
  sigma(1 1)=  1.00023474E-02  sigma(3 2)=  5.30663395E-05
  sigma(2 2)=  1.01479240E-02  sigma(3 1)= -4.82080748E-06
  sigma(3 3)=  1.00550364E-02  sigma(2 1)=  1.72486408E-05


--- !ResultsGS
iteration_state: {dtset: 1, itime: 2, icycle: 1, }
comment   : Summary of ground state results
lattice_vectors:
- [  5.4200000,   0.0000000,   0.0000000, ]
- [  0.0000000,   5.4200000,   0.0000000, ]
- [  0.0000000,   0.0000000,   5.4200000, ]
lattice_lengths: [   5.42000,    5.42000,    5.42000, ]
lattice_angles: [ 90.000,  90.000,  90.000, ] # degrees, (23, 13, 12)
lattice_volume:   1.5922009E+02
convergence: {deltae: -1.776E-13, res2:  2.463E-12, residm:  1.209E-06, diffor: null, }
etotal    :  -4.96103112E+01
entropy   :   0.00000000E+00
fermie    :  -2.73406630E-01
cartesian_stress_tensor: # hartree/bohr^3
- [  1.00023474E-02,   1.72486408E-05,  -4.82080748E-06, ]
- [  1.72486408E-05,   1.01479240E-02,   5.30663395E-05, ]
- [ -4.82080748E-06,   5.30663395E-05,   1.00550364E-02, ]
pressure_GPa:  -2.9622E+02
xred      :
- [ -4.9396E-03,   4.2118E-02,  -1.3096E-03, Fe]
- [  5.0494E-01,   5.0788E-01,   5.2131E-01, Fe]
cartesian_forces: # hartree/bohr
- [  3.60166126E-03,  -8.21019273E-03,   7.40529755E-03, ]
- [ -3.60166126E-03,   8.21019273E-03,  -7.40529755E-03, ]
force_length_stats: {min:   1.16283129E-02, max:   1.16283129E-02, mean:   1.16283129E-02, }
...

 Integrated electronic density in atomic spheres:
 ------------------------------------------------
 Atom  Sphere_radius  Integrated_density
    1        2.00000          6.10355118
    2        2.00000          6.10166165

---OUTPUT-----------------------------------------------------------------------

 Cartesian coordinates (xcart) [bohr]
 -2.67724587806532E-02  2.28281007921552E-01 -7.09777459635030E-03
  2.73677245878065E+00  2.75271899210013E+00  2.82549777461640E+00
 Reduced coordinates (xred)
 -4.93956804071092E-03  4.21182671441978E-02 -1.30955250855172E-03
  5.04939568040711E-01  5.07881732859802E-01  5.21309552512252E-01
 Cartesian forces (fcart) [Ha/bohr]; max,rms= 8.21019E-03 6.71361E-03 (free atoms)
  3.60166126287592E-03 -8.21019272858230E-03  7.40529754526570E-03
 -3.60166126287592E-03  8.21019272858230E-03 -7.40529754526570E-03
 Gradient of E wrt nuclear positions in reduced coordinates (gred)
 -1.95210040447875E-02  4.44992445889161E-02 -4.01367126953401E-02
  1.95210040447875E-02 -4.44992445889161E-02  4.01367126953401E-02
 Cartesian velocities (vel) [bohr*Ha/hbar]; max,rms= 0.00000E+00 0.00000E+00 (free atoms)
 -0.00000000000000E+00 -0.00000000000000E+00  0.00000000000000E+00
  0.00000000000000E+00  0.00000000000000E+00 -0.00000000000000E+00
 Kinetic energy of ions (ekin) [Ha]=  0.00000000000000E+00
 Total energy (etotal) [Ha]= -4.96103111803681E+01

 Difference of energy with previous step (new-old):
           Absolute (Ha)=-8.82931E-05
           Relative     =-1.77974E-06

--- Iteration: (2/4) Internal Cycle: (2/3)
--------------------------------------------------------------------------------

---SELF-CONSISTENT-FIELD CONVERGENCE--------------------------------------------

--- !BeginCycle
iteration_state: {dtset: 1, itime: 2, icycle: 2, }
solver: {iscf: 7, nstep: 10, nline: 4, wfoptalg: 0, }
tolerances: {toldfe: 1.00E-10, }
...

     iter   Etot(hartree)      deltaE(h)  residm     vres2
 ETOT  1  -49.594588281638    -4.959E+01 2.767E-05 2.050E+01
 ETOT  2  -49.560665279738     3.392E-02 1.523E-05 4.429E+01
 ETOT  3  -49.607314785515    -4.665E-02 4.170E-04 3.039E+00
 ETOT  4  -49.610369405795    -3.055E-03 2.017E-05 1.211E-01
 ETOT  5  -49.609161971735     1.207E-03 3.920E-06 1.947E+00
 ETOT  6  -49.610506195633    -1.344E-03 4.123E-06 9.347E-03
 ETOT  7  -49.610515157198    -8.962E-06 3.158E-06 1.197E-03
 ETOT  8  -49.610516623583    -1.466E-06 3.460E-06 5.716E-05
 ETOT  9  -49.610516690515    -6.693E-08 2.700E-06 4.725E-06
 ETOT 10  -49.610516695913    -5.398E-09 3.031E-06 5.095E-07

 Cartesian components of stress tensor (hartree/bohr^3)
  sigma(1 1)=  1.00061912E-02  sigma(3 2)=  5.51123971E-05
  sigma(2 2)=  1.00909884E-02  sigma(3 1)=  1.48011004E-06
  sigma(3 3)=  1.01261714E-02  sigma(2 1)= -9.32771708E-07


 scprqt:  WARNING -
  nstep=   10 was not enough SCF cycles to converge;
  maximum energy difference=  5.398E-09 exceeds toldfe=  1.000E-10


--- !ResultsGS
iteration_state: {dtset: 1, itime: 2, icycle: 2, }
comment   : Summary of ground state results
lattice_vectors:
- [  5.4200000,   0.0000000,   0.0000000, ]
- [  0.0000000,   5.4200000,   0.0000000, ]
- [  0.0000000,   0.0000000,   5.4200000, ]
lattice_lengths: [   5.42000,    5.42000,    5.42000, ]
lattice_angles: [ 90.000,  90.000,  90.000, ] # degrees, (23, 13, 12)
lattice_volume:   1.5922009E+02
convergence: {deltae: -5.398E-09, res2:  5.095E-07, residm:  3.031E-06, diffor: null, }
etotal    :  -4.96105167E+01
entropy   :   0.00000000E+00
fermie    :  -2.73556859E-01
cartesian_stress_tensor: # hartree/bohr^3
- [  1.00061912E-02,  -9.32771708E-07,   1.48011004E-06, ]
- [ -9.32771708E-07,   1.00909884E-02,   5.51123971E-05, ]
- [  1.48011004E-06,   5.51123971E-05,   1.01261714E-02, ]
pressure_GPa:  -2.9640E+02
xred      :
- [  5.3252E-04,   3.7503E-02,  -4.7090E-03, Fe]
- [  4.9947E-01,   5.1250E-01,   5.2471E-01, Fe]
cartesian_forces: # hartree/bohr
- [ -3.82133232E-04,  -7.28497444E-03,   7.58565165E-03, ]
- [  3.82133232E-04,   7.28497444E-03,  -7.58565165E-03, ]
force_length_stats: {min:   1.05242097E-02, max:   1.05242097E-02, mean:   1.05242097E-02, }
...

 Integrated electronic density in atomic spheres:
 ------------------------------------------------
 Atom  Sphere_radius  Integrated_density
    1        2.00000          6.09932497
    2        2.00000          6.10350853

---OUTPUT-----------------------------------------------------------------------

 Cartesian coordinates (xcart) [bohr]
  2.88627794059999E-03  2.03264145492484E-01 -2.55226104837049E-02
  2.70711372205940E+00  2.77773585452920E+00  2.84392261050376E+00
 Reduced coordinates (xred)
  5.32523605276750E-04  3.75026098694620E-02 -4.70896872393079E-03
  4.99467476394723E-01  5.12497390134538E-01  5.24708968727631E-01
 Cartesian forces (fcart) [Ha/bohr]; max,rms= 7.58565E-03 6.07616E-03 (free atoms)
 -3.82133231625908E-04 -7.28497443610400E-03  7.58565164777246E-03
  3.82133231625908E-04  7.28497443610400E-03 -7.58565164777246E-03
 Gradient of E wrt nuclear positions in reduced coordinates (gred)
  2.07116211541242E-03  3.94845614436837E-02 -4.11142319309268E-02
 -2.07116211541242E-03 -3.94845614436837E-02  4.11142319309268E-02
 Cartesian velocities (vel) [bohr*Ha/hbar]; max,rms= 1.14213E-04 9.66033E-05 (free atoms)
  1.14212598750425E-04 -8.99864543511335E-05 -8.27920375578561E-05
 -1.14212598750425E-04  8.99864543511335E-05  8.27920375578561E-05
 Kinetic energy of ions (ekin) [Ha]=  2.85013387775568E-03
 Total energy (etotal) [Ha]= -4.96105166959133E+01

 Difference of energy with previous step (new-old):
           Absolute (Ha)=-2.05516E-04
           Relative     =-4.14259E-06

--- Iteration: (2/4) Internal Cycle: (3/3)
--------------------------------------------------------------------------------

---SELF-CONSISTENT-FIELD CONVERGENCE--------------------------------------------

--- !BeginCycle
iteration_state: {dtset: 1, itime: 2, icycle: 3, }
solver: {iscf: 7, nstep: 10, nline: 4, wfoptalg: 0, }
tolerances: {toldfe: 1.00E-10, }
...

     iter   Etot(hartree)      deltaE(h)  residm     vres2
 ETOT  1  -47.227369207727    -4.723E+01 2.192E-01 4.628E+03
 ETOT  2  -48.399797448796    -1.172E+00 2.160E-01 1.191E+03
 ETOT  3  -49.161327302024    -7.615E-01 4.333E-02 1.703E+02
 ETOT  4  -49.251378204549    -9.005E-02 3.696E-03 1.310E+01
 ETOT  5  -49.262805264336    -1.143E-02 6.599E-02 1.590E+00
 ETOT  6  -49.262682140889     1.231E-04 1.722E-02 1.636E+00
 ETOT  7  -49.263834164193    -1.152E-03 1.623E-02 3.627E-02
 ETOT  8  -49.263858793296    -2.463E-05 9.818E-04 1.687E-03
 ETOT  9  -49.263859625217    -8.319E-07 7.797E-05 2.679E-04
 ETOT 10  -49.263859793071    -1.679E-07 7.395E-06 3.079E-07

 Cartesian components of stress tensor (hartree/bohr^3)
  sigma(1 1)=  6.95979723E-03  sigma(3 2)= -5.53694668E-03
  sigma(2 2)=  4.98067022E-03  sigma(3 1)=  4.65003663E-03
  sigma(3 3)=  2.62767247E-03  sigma(2 1)=  4.14989889E-03


 scprqt:  WARNING -
  nstep=   10 was not enough SCF cycles to converge;
  maximum energy difference=  1.679E-07 exceeds toldfe=  1.000E-10


--- !ResultsGS
iteration_state: {dtset: 1, itime: 2, icycle: 3, }
comment   : Summary of ground state results
lattice_vectors:
- [  5.4200000,   0.0000000,   0.0000000, ]
- [  0.0000000,   5.4200000,   0.0000000, ]
- [  0.0000000,   0.0000000,   5.4200000, ]
lattice_lengths: [   5.42000,    5.42000,    5.42000, ]
lattice_angles: [ 90.000,  90.000,  90.000, ] # degrees, (23, 13, 12)
lattice_volume:   1.5922009E+02
convergence: {deltae: -1.679E-07, res2:  3.079E-07, residm:  7.395E-06, diffor: null, }
etotal    :  -4.92638598E+01
entropy   :   0.00000000E+00
fermie    :  -2.50641481E-01
cartesian_stress_tensor: # hartree/bohr^3
- [  6.95979723E-03,   4.14989889E-03,   4.65003663E-03, ]
- [  4.14989889E-03,   4.98067022E-03,  -5.53694668E-03, ]
- [  4.65003663E-03,  -5.53694668E-03,   2.62767247E-03, ]
pressure_GPa:  -1.4287E+02
xred      :
- [  1.3622E-01,  -8.8111E-02,  -7.8226E-02, Fe]
- [  3.6378E-01,   6.3811E-01,   5.9823E-01, Fe]
cartesian_forces: # hartree/bohr
- [ -3.90527088E-01,   4.68570780E-01,   5.02996763E-01, ]
- [  3.90527088E-01,  -4.68570780E-01,  -5.02996763E-01, ]
force_length_stats: {min:   7.90617307E-01, max:   7.90617307E-01, mean:   7.90617307E-01, }
...

 Integrated electronic density in atomic spheres:
 ------------------------------------------------
 Atom  Sphere_radius  Integrated_density
    1        2.00000          7.17559101
    2        2.00000          7.16670450

---OUTPUT-----------------------------------------------------------------------

 Cartesian coordinates (xcart) [bohr]
  7.38334049466442E-01 -4.77558939276230E-01 -4.23982865557673E-01
  1.97166595053356E+00  3.45855893929791E+00  3.24238286557773E+00
 Reduced coordinates (xred)
  1.36223994366502E-01 -8.81105054015185E-02 -7.82256209516003E-02
  3.63776005633498E-01  6.38110505405519E-01  5.98225620955300E-01
 Cartesian forces (fcart) [Ha/bohr]; max,rms= 5.02997E-01 4.56463E-01 (free atoms)
 -3.90527087611825E-01  4.68570780496894E-01  5.02996762634290E-01
  3.90527087611825E-01 -4.68570780496894E-01 -5.02996762634290E-01
 Gradient of E wrt nuclear positions in reduced coordinates (gred)
  2.11665681485609E+00 -2.53965363029316E+00 -2.72624245347785E+00
 -2.11665681485609E+00  2.53965363029316E+00  2.72624245347785E+00
 Cartesian velocities (vel) [bohr*Ha/hbar]; max,rms= 2.94226E-03 2.48962E-03 (free atoms)
  2.94226029352203E-03 -2.71434738541136E-03 -1.60315516451036E-03
 -2.94226029352203E-03  2.71434738541136E-03  1.60315516451036E-03
 Kinetic energy of ions (ekin) [Ha]=  1.89299186941673E+00
 Total energy (etotal) [Ha]= -4.92638597930710E+01

 Difference of energy with previous step (new-old):
           Absolute (Ha)= 3.46657E-01
           Relative     = 7.01207E-03

--- Iteration: (3/4) Internal Cycle: (1/3)
--------------------------------------------------------------------------------

---SELF-CONSISTENT-FIELD CONVERGENCE--------------------------------------------

--- !BeginCycle
iteration_state: {dtset: 1, itime: 3, icycle: 1, }
solver: {iscf: 7, nstep: 10, nline: 4, wfoptalg: 0, }
tolerances: {toldfe: 1.00E-10, }
...

     iter   Etot(hartree)      deltaE(h)  residm     vres2
 ETOT  1  -48.715644771356    -4.872E+01 2.311E-03 1.564E+03
 ETOT  2  -49.402869826808    -6.872E-01 7.559E-04 1.809E+02
 ETOT  3  -49.505557297958    -1.027E-01 4.157E-03 3.420E+00
 ETOT  4  -49.506373778640    -8.165E-04 7.947E-05 3.359E+00
 ETOT  5  -49.490212374610     1.616E-02 4.660E-05 2.540E+01
 ETOT  6  -49.508973984140    -1.876E-02 3.519E-05 2.550E-02
 ETOT  7  -49.508994035605    -2.005E-05 4.993E-05 3.582E-04
 ETOT  8  -49.508994391852    -3.562E-07 6.652E-05 2.170E-05
 ETOT  9  -49.508994423228    -3.138E-08 9.221E-05 6.837E-07
 ETOT 10  -49.508994423769    -5.415E-10 1.230E-04 2.975E-08

 Cartesian components of stress tensor (hartree/bohr^3)
  sigma(1 1)=  9.10556380E-03  sigma(3 2)= -1.66009071E-03
  sigma(2 2)=  8.04934346E-03  sigma(3 1)=  1.62465675E-03
  sigma(3 3)=  7.46943124E-03  sigma(2 1)=  1.60569843E-03


 scprqt:  WARNING -
  nstep=   10 was not enough SCF cycles to converge;
  maximum energy difference=  5.415E-10 exceeds toldfe=  1.000E-10


--- !ResultsGS
iteration_state: {dtset: 1, itime: 3, icycle: 1, }
comment   : Summary of ground state results
lattice_vectors:
- [  5.4200000,   0.0000000,   0.0000000, ]
- [  0.0000000,   5.4200000,   0.0000000, ]
- [  0.0000000,   0.0000000,   5.4200000, ]
lattice_lengths: [   5.42000,    5.42000,    5.42000, ]
lattice_angles: [ 90.000,  90.000,  90.000, ] # degrees, (23, 13, 12)
lattice_volume:   1.5922009E+02
convergence: {deltae: -5.415E-10, res2:  2.975E-08, residm:  1.230E-04, diffor: null, }
etotal    :  -4.95089944E+01
entropy   :   0.00000000E+00
fermie    :  -2.65309534E-01
cartesian_stress_tensor: # hartree/bohr^3
- [  9.10556380E-03,   1.60569843E-03,   1.62465675E-03, ]
- [  1.60569843E-03,   8.04934346E-03,  -1.66009071E-03, ]
- [  1.62465675E-03,  -1.66009071E-03,   7.46943124E-03, ]
pressure_GPa:  -2.4149E+02
xred      :
- [  1.1411E-01,  -6.1573E-02,  -4.9738E-02, Fe]
- [  3.8589E-01,   6.1157E-01,   5.6974E-01, Fe]
cartesian_forces: # hartree/bohr
- [ -1.70615318E-01,   1.90160786E-01,   1.55203519E-01, ]
- [  1.70615318E-01,  -1.90160786E-01,  -1.55203519E-01, ]
force_length_stats: {min:   2.98929496E-01, max:   2.98929496E-01, mean:   2.98929496E-01, }
...

 Integrated electronic density in atomic spheres:
 ------------------------------------------------
 Atom  Sphere_radius  Integrated_density
    1        2.00000          6.53986872
    2        2.00000          6.53433721

---OUTPUT-----------------------------------------------------------------------

 Cartesian coordinates (xcart) [bohr]
  6.18455567610881E-01 -3.33723708405699E-01 -2.69580033601505E-01
  2.09154443238912E+00  3.31472370842738E+00  3.08798003362156E+00
 Reduced coordinates (xred)
  1.14106193286140E-01 -6.15726399272508E-02 -4.97380135796134E-02
  3.85893806713859E-01  6.11572639931251E-01  5.69738013583313E-01
 Cartesian forces (fcart) [Ha/bohr]; max,rms= 1.90161E-01 1.72587E-01 (free atoms)
 -1.70615318409527E-01  1.90160785730490E-01  1.55203518687466E-01
  1.70615318409527E-01 -1.90160785730490E-01 -1.55203518687466E-01
 Gradient of E wrt nuclear positions in reduced coordinates (gred)
  9.24735025779636E-01 -1.03067145865926E+00 -8.41203071286065E-01
 -9.24735025779636E-01  1.03067145865926E+00  8.41203071286065E-01
 Cartesian velocities (vel) [bohr*Ha/hbar]; max,rms= 0.00000E+00 0.00000E+00 (free atoms)
  0.00000000000000E+00 -0.00000000000000E+00 -0.00000000000000E+00
 -0.00000000000000E+00  0.00000000000000E+00  0.00000000000000E+00
 Kinetic energy of ions (ekin) [Ha]=  0.00000000000000E+00
 Total energy (etotal) [Ha]= -4.95089944237693E+01

 Difference of energy with previous step (new-old):
           Absolute (Ha)=-2.45135E-01
           Relative     =-4.96360E-03

--- Iteration: (3/4) Internal Cycle: (2/3)
--------------------------------------------------------------------------------

---SELF-CONSISTENT-FIELD CONVERGENCE--------------------------------------------

--- !BeginCycle
iteration_state: {dtset: 1, itime: 3, icycle: 2, }
solver: {iscf: 7, nstep: 10, nline: 4, wfoptalg: 0, }
tolerances: {toldfe: 1.00E-10, }
...

     iter   Etot(hartree)      deltaE(h)  residm     vres2
 ETOT  1  -49.488982079734    -4.949E+01 1.068E-04 8.322E+01
 ETOT  2  -49.520634694577    -3.165E-02 6.963E-04 1.966E+01
 ETOT  3  -49.532420594848    -1.179E-02 5.000E-04 6.728E+00
 ETOT  4  -49.538372499366    -5.952E-03 3.299E-04 1.429E-01
 ETOT  5  -49.536838248648     1.534E-03 3.433E-04 2.238E+00
 ETOT  6  -49.538482652717    -1.644E-03 2.460E-04 8.707E-04
 ETOT  7  -49.538483675514    -1.023E-06 2.047E-04 2.373E-05
 ETOT  8  -49.538483704025    -2.851E-08 1.500E-04 1.280E-06
 ETOT  9  -49.538483705707    -1.682E-09 1.076E-04 5.119E-08
 ETOT 10  -49.538483705749    -4.216E-11 8.145E-05 3.900E-09

 Cartesian components of stress tensor (hartree/bohr^3)
  sigma(1 1)=  9.41747107E-03  sigma(3 2)= -1.17955024E-03
  sigma(2 2)=  8.32317299E-03  sigma(3 1)=  1.26696544E-03
  sigma(3 3)=  7.95610567E-03  sigma(2 1)=  1.26903788E-03


--- !ResultsGS
iteration_state: {dtset: 1, itime: 3, icycle: 2, }
comment   : Summary of ground state results
lattice_vectors:
- [  5.4200000,   0.0000000,   0.0000000, ]
- [  0.0000000,   5.4200000,   0.0000000, ]
- [  0.0000000,   0.0000000,   5.4200000, ]
lattice_lengths: [   5.42000,    5.42000,    5.42000, ]
lattice_angles: [ 90.000,  90.000,  90.000, ] # degrees, (23, 13, 12)
lattice_volume:   1.5922009E+02
convergence: {deltae: -4.216E-11, res2:  3.900E-09, residm:  8.145E-05, diffor: null, }
etotal    :  -4.95384837E+01
entropy   :   0.00000000E+00
fermie    :  -2.65723759E-01
cartesian_stress_tensor: # hartree/bohr^3
- [  9.41747107E-03,   1.26903788E-03,   1.26696544E-03, ]
- [  1.26903788E-03,   8.32317299E-03,  -1.17955024E-03, ]
- [  1.26696544E-03,  -1.17955024E-03,   7.95610567E-03, ]
pressure_GPa:  -2.5201E+02
xred      :
- [  1.1127E-01,  -5.2225E-02,  -4.4254E-02, Fe]
- [  3.8873E-01,   6.0223E-01,   5.6425E-01, Fe]
cartesian_forces: # hartree/bohr
- [ -1.28884096E-01,   1.44785735E-01,   1.12038472E-01, ]
- [  1.28884096E-01,  -1.44785735E-01,  -1.12038472E-01, ]
force_length_stats: {min:   2.23889791E-01, max:   2.23889791E-01, mean:   2.23889791E-01, }
...

 Integrated electronic density in atomic spheres:
 ------------------------------------------------
 Atom  Sphere_radius  Integrated_density
    1        2.00000          6.45708651
    2        2.00000          6.46416496

---OUTPUT-----------------------------------------------------------------------

 Cartesian coordinates (xcart) [bohr]
  6.03085126744994E-01 -2.83059831011478E-01 -2.39858899597641E-01
  2.10691487325501E+00  3.26405983103316E+00  3.05825889961769E+00
 Reduced coordinates (xred)
  1.11270318587637E-01 -5.22250610722285E-02 -4.42544095198600E-02
  3.88729681412363E-01  6.02225061076228E-01  5.64254409523560E-01
 Cartesian forces (fcart) [Ha/bohr]; max,rms= 1.44786E-01 1.29263E-01 (free atoms)
 -1.28884096013324E-01  1.44785734902431E-01  1.12038471576568E-01
  1.28884096013324E-01 -1.44785734902431E-01 -1.12038471576568E-01
 Gradient of E wrt nuclear positions in reduced coordinates (gred)
  6.98551800392219E-01 -7.84738683171175E-01 -6.07248515944999E-01
 -6.98551800392219E-01  7.84738683171175E-01  6.07248515944999E-01
 Cartesian velocities (vel) [bohr*Ha/hbar]; max,rms= 1.48011E-04 9.66033E-05 (free atoms)
  1.48010545787656E-04 -3.08359641258647E-05 -7.16841880407690E-05
 -1.48010545787656E-04  3.08359641258647E-05  7.16841880407689E-05
 Kinetic energy of ions (ekin) [Ha]=  2.85013387775568E-03
 Total energy (etotal) [Ha]= -4.95384837057495E+01

 Difference of energy with previous step (new-old):
           Absolute (Ha)=-2.94893E-02
           Relative     =-5.95458E-04

--- Iteration: (3/4) Internal Cycle: (3/3)
--------------------------------------------------------------------------------

---SELF-CONSISTENT-FIELD CONVERGENCE--------------------------------------------

--- !BeginCycle
iteration_state: {dtset: 1, itime: 3, icycle: 3, }
solver: {iscf: 7, nstep: 10, nline: 4, wfoptalg: 0, }
tolerances: {toldfe: 1.00E-10, }
...

     iter   Etot(hartree)      deltaE(h)  residm     vres2
 ETOT  1  -49.497758565651    -4.950E+01 3.345E-04 1.010E+02
 ETOT  2  -49.529060810683    -3.130E-02 1.119E-03 3.364E+01
 ETOT  3  -49.552607573725    -2.355E-02 3.122E-03 1.184E+01
 ETOT  4  -49.563036778597    -1.043E-02 1.405E-04 1.762E-01
 ETOT  5  -49.560647848228     2.389E-03 4.739E-05 3.461E+00
 ETOT  6  -49.563172035667    -2.524E-03 5.088E-06 1.082E-03
 ETOT  7  -49.563173287490    -1.252E-06 3.361E-06 3.620E-05
 ETOT  8  -49.563173323244    -3.575E-08 1.282E-06 3.142E-06
 ETOT  9  -49.563173326984    -3.741E-09 1.271E-06 6.791E-08
 ETOT 10  -49.563173327049    -6.466E-11 4.977E-07 4.139E-09

 Cartesian components of stress tensor (hartree/bohr^3)
  sigma(1 1)=  9.56961336E-03  sigma(3 2)= -7.48392355E-04
  sigma(2 2)=  8.60760077E-03  sigma(3 1)=  9.71181619E-04
  sigma(3 3)=  8.36335402E-03  sigma(2 1)=  9.67191859E-04


--- !ResultsGS
iteration_state: {dtset: 1, itime: 3, icycle: 3, }
comment   : Summary of ground state results
lattice_vectors:
- [  5.4200000,   0.0000000,   0.0000000, ]
- [  0.0000000,   5.4200000,   0.0000000, ]
- [  0.0000000,   0.0000000,   5.4200000, ]
lattice_lengths: [   5.42000,    5.42000,    5.42000, ]
lattice_angles: [ 90.000,  90.000,  90.000, ] # degrees, (23, 13, 12)
lattice_volume:   1.5922009E+02
convergence: {deltae: -6.466E-11, res2:  4.139E-09, residm:  4.977E-07, diffor: null, }
etotal    :  -4.95631733E+01
entropy   :   0.00000000E+00
fermie    :  -2.66400411E-01
cartesian_stress_tensor: # hartree/bohr^3
- [  9.56961336E-03,   9.67191859E-04,   9.71181619E-04, ]
- [  9.67191859E-04,   8.60760077E-03,  -7.48392355E-04, ]
- [  9.71181619E-04,  -7.48392355E-04,   8.36335402E-03, ]
pressure_GPa:  -2.6028E+02
xred      :
- [  1.0397E-01,  -4.4025E-02,  -3.7909E-02, Fe]
- [  3.9603E-01,   5.9403E-01,   5.5791E-01, Fe]
cartesian_forces: # hartree/bohr
- [ -8.12171043E-02,   9.17535874E-02,   6.01721280E-02, ]
- [  8.12171043E-02,  -9.17535874E-02,  -6.01721280E-02, ]
force_length_stats: {min:   1.36512358E-01, max:   1.36512358E-01, mean:   1.36512358E-01, }
...

 Integrated electronic density in atomic spheres:
 ------------------------------------------------
 Atom  Sphere_radius  Integrated_density
    1        2.00000          6.36740837
    2        2.00000          6.38415701

---OUTPUT-----------------------------------------------------------------------

 Cartesian coordinates (xcart) [bohr]
  5.63522109849323E-01 -2.38615553917703E-01 -2.05466914232041E-01
  2.14647789015068E+00  3.21961555393938E+00  3.02386691425209E+00
 Reduced coordinates (xred)
  1.03970868975890E-01 -4.40250099479157E-02 -3.79090247660592E-02
  3.96029131024110E-01  5.94025009951916E-01  5.57909024769759E-01
 Cartesian forces (fcart) [Ha/bohr]; max,rms= 9.17536E-02 7.88154E-02 (free atoms)
 -8.12171043367182E-02  9.17535874483091E-02  6.01721280288071E-02
  8.12171043367182E-02 -9.17535874483091E-02 -6.01721280288071E-02
 Gradient of E wrt nuclear positions in reduced coordinates (gred)
  4.40196705505013E-01 -4.97304443969835E-01 -3.26132933916135E-01
 -4.40196705505013E-01  4.97304443969835E-01  3.26132933916135E-01
 Cartesian velocities (vel) [bohr*Ha/hbar]; max,rms= 3.65182E-32 2.81926E-32 (free atoms)
 -2.10925083964998E-32  3.65181736023449E-32  2.46171743729655E-32
  2.10925083964998E-32 -3.65181736023449E-32 -2.46171743729655E-32
 Kinetic energy of ions (ekin) [Ha]=  2.42746479261201E-58
 Total energy (etotal) [Ha]= -4.95631733270491E+01

 Difference of energy with previous step (new-old):
           Absolute (Ha)=-2.46896E-02
           Relative     =-4.98269E-04

--- Iteration: (4/4) Internal Cycle: (1/3)
--------------------------------------------------------------------------------

---SELF-CONSISTENT-FIELD CONVERGENCE--------------------------------------------

--- !BeginCycle
iteration_state: {dtset: 1, itime: 4, icycle: 1, }
solver: {iscf: 7, nstep: 10, nline: 4, wfoptalg: 0, }
tolerances: {toldfe: 1.00E-10, }
...

     iter   Etot(hartree)      deltaE(h)  residm     vres2
 ETOT  1  -49.548464907106    -4.955E+01 1.062E-04 3.504E+01
 ETOT  2  -49.554260727955    -5.796E-03 7.369E-06 1.712E+01
 ETOT  3  -49.567684801867    -1.342E-02 3.296E-04 5.496E+00
 ETOT  4  -49.572479037341    -4.794E-03 4.753E-05 1.298E-01
 ETOT  5  -49.571854220041     6.248E-04 1.169E-06 9.927E-01
 ETOT  6  -49.572575769681    -7.215E-04 6.773E-07 3.322E-04
 ETOT  7  -49.572576286699    -5.170E-07 2.272E-08 1.844E-05
 ETOT  8  -49.572576305606    -1.891E-08 1.860E-08 9.717E-07
 ETOT  9  -49.572576306517    -9.114E-10 5.070E-09 2.602E-08
 ETOT 10  -49.572576306544    -2.650E-11 4.429E-09 2.257E-09

 Cartesian components of stress tensor (hartree/bohr^3)
  sigma(1 1)=  9.65811902E-03  sigma(3 2)= -5.14249353E-04
  sigma(2 2)=  8.75273008E-03  sigma(3 1)=  8.05165632E-04
  sigma(3 3)=  8.56863951E-03  sigma(2 1)=  7.91495032E-04


--- !ResultsGS
iteration_state: {dtset: 1, itime: 4, icycle: 1, }
comment   : Summary of ground state results
lattice_vectors:
- [  5.4200000,   0.0000000,   0.0000000, ]
- [  0.0000000,   5.4200000,   0.0000000, ]
- [  0.0000000,   0.0000000,   5.4200000, ]
lattice_lengths: [   5.42000,    5.42000,    5.42000, ]
lattice_angles: [ 90.000,  90.000,  90.000, ] # degrees, (23, 13, 12)
lattice_volume:   1.5922009E+02
convergence: {deltae: -2.650E-11, res2:  2.257E-09, residm:  4.429E-09, diffor: null, }
etotal    :  -4.95725763E+01
entropy   :   0.00000000E+00
fermie    :  -2.66709710E-01
cartesian_stress_tensor: # hartree/bohr^3
- [  9.65811902E-03,   7.91495032E-04,   8.05165632E-04, ]
- [  7.91495032E-04,   8.75273008E-03,  -5.14249353E-04, ]
- [  8.05165632E-04,  -5.14249353E-04,   8.56863951E-03, ]
pressure_GPa:  -2.6459E+02
xred      :
- [  9.9371E-02,  -3.8828E-02,  -3.4501E-02, Fe]
- [  4.0063E-01,   5.8883E-01,   5.5450E-01, Fe]
cartesian_forces: # hartree/bohr
- [ -5.49329370E-02,   6.20408233E-02,   3.30584335E-02, ]
- [  5.49329370E-02,  -6.20408233E-02,  -3.30584335E-02, ]
force_length_stats: {min:   8.92163177E-02, max:   8.92163177E-02, mean:   8.92163177E-02, }
...

 Integrated electronic density in atomic spheres:
 ------------------------------------------------
 Atom  Sphere_radius  Integrated_density
    1        2.00000          6.33576938
    2        2.00000          6.33708451

---OUTPUT-----------------------------------------------------------------------

 Cartesian coordinates (xcart) [bohr]
  5.38591231870718E-01 -2.10450335378399E-01 -1.86996125426523E-01
  2.17140876812928E+00  3.19145033540008E+00  3.00539612544658E+00
 Reduced coordinates (xred)
  9.93710759909073E-02 -3.88284751620663E-02 -3.45011301524950E-02
  4.00628924009093E-01  5.88828475166066E-01  5.54501130156195E-01
 Cartesian forces (fcart) [Ha/bohr]; max,rms= 6.20408E-02 5.15091E-02 (free atoms)
 -5.49329369646408E-02  6.20408232871060E-02  3.30584335164630E-02
  5.49329369646408E-02 -6.20408232871060E-02 -3.30584335164630E-02
 Gradient of E wrt nuclear positions in reduced coordinates (gred)
  2.97736518348353E-01 -3.36261262216115E-01 -1.79176709659229E-01
 -2.97736518348353E-01  3.36261262216115E-01  1.79176709659229E-01
 Cartesian velocities (vel) [bohr*Ha/hbar]; max,rms= 7.77209E-44 6.83325E-44 (free atoms)
 -6.90339573504797E-44  7.77208576803308E-44  5.65840612459670E-44
  6.90339573504797E-44 -7.77208576803308E-44 -5.65840612459670E-44
 Kinetic energy of ions (ekin) [Ha]=  1.42605181954791E-81
 Total energy (etotal) [Ha]= -4.95725763065438E+01

 Difference of energy with previous step (new-old):
           Absolute (Ha)=-9.40298E-03
           Relative     =-1.89699E-04

--- Iteration: (4/4) Internal Cycle: (2/3)
--------------------------------------------------------------------------------

---SELF-CONSISTENT-FIELD CONVERGENCE--------------------------------------------

--- !BeginCycle
iteration_state: {dtset: 1, itime: 4, icycle: 2, }
solver: {iscf: 7, nstep: 10, nline: 4, wfoptalg: 0, }
tolerances: {toldfe: 1.00E-10, }
...

     iter   Etot(hartree)      deltaE(h)  residm     vres2
 ETOT  1  -49.558640245146    -4.956E+01 2.279E-05 2.576E+01
 ETOT  2  -49.563987175686    -5.347E-03 2.817E-06 1.104E+01
 ETOT  3  -49.570863213476    -6.876E-03 1.795E-04 2.404E+00
 ETOT  4  -49.573105763478    -2.243E-03 2.049E-05 7.596E-02
 ETOT  5  -49.572361241200     7.445E-04 1.067E-06 1.106E+00
 ETOT  6  -49.573163564480    -8.023E-04 7.228E-07 6.044E-04
 ETOT  7  -49.573164366743    -8.023E-07 3.211E-08 8.289E-06
 ETOT  8  -49.573164376785    -1.004E-08 7.658E-09 8.392E-07
 ETOT  9  -49.573164378028    -1.243E-09 5.894E-09 3.865E-08
 ETOT 10  -49.573164378084    -5.571E-11 1.577E-09 1.139E-09

 Cartesian components of stress tensor (hartree/bohr^3)
  sigma(1 1)=  9.65073446E-03  sigma(3 2)= -4.61907136E-04
  sigma(2 2)=  8.86642530E-03  sigma(3 1)=  7.30953717E-04
  sigma(3 3)=  8.59140977E-03  sigma(2 1)=  7.25914135E-04


--- !ResultsGS
iteration_state: {dtset: 1, itime: 4, icycle: 2, }
comment   : Summary of ground state results
lattice_vectors:
- [  5.4200000,   0.0000000,   0.0000000, ]
- [  0.0000000,   5.4200000,   0.0000000, ]
- [  0.0000000,   0.0000000,   5.4200000, ]
lattice_lengths: [   5.42000,    5.42000,    5.42000, ]
lattice_angles: [ 90.000,  90.000,  90.000, ] # degrees, (23, 13, 12)
lattice_volume:   1.5922009E+02
convergence: {deltae: -5.571E-11, res2:  1.139E-09, residm:  1.577E-09, diffor: null, }
etotal    :  -4.95731644E+01
entropy   :   0.00000000E+00
fermie    :  -2.66548223E-01
cartesian_stress_tensor: # hartree/bohr^3
- [  9.65073446E-03,   7.25914135E-04,   7.30953717E-04, ]
- [  7.25914135E-04,   8.86642530E-03,  -4.61907136E-04, ]
- [  7.30953717E-04,  -4.61907136E-04,   8.59140977E-03, ]
pressure_GPa:  -2.6585E+02
xred      :
- [  9.7445E-02,  -4.1973E-02,  -2.8910E-02, Fe]
- [  4.0256E-01,   5.9197E-01,   5.4891E-01, Fe]
cartesian_forces: # hartree/bohr
- [ -4.72001438E-02,   5.95045220E-02,   1.99782188E-02, ]
- [  4.72001438E-02,  -5.95045220E-02,  -1.99782188E-02, ]
force_length_stats: {min:   7.85351573E-02, max:   7.85351573E-02, mean:   7.85351573E-02, }
...

 Integrated electronic density in atomic spheres:
 ------------------------------------------------
 Atom  Sphere_radius  Integrated_density
    1        2.00000          6.33358466
    2        2.00000          6.32564688

---OUTPUT-----------------------------------------------------------------------

 Cartesian coordinates (xcart) [bohr]
  5.28150201169900E-01 -2.27494432050799E-01 -1.56694625406590E-01
  2.18184979883010E+00  3.20849443207248E+00  2.97509462542664E+00
 Reduced coordinates (xred)
  9.74446865627122E-02 -4.19731424447968E-02 -2.89104474919908E-02
  4.02555313437288E-01  5.91973142448797E-01  5.48910447495691E-01
 Cartesian forces (fcart) [Ha/bohr]; max,rms= 5.95045E-02 4.53423E-02 (free atoms)
 -4.72001438024488E-02  5.95045219827346E-02  1.99782187682900E-02
  4.72001438024488E-02 -5.95045219827346E-02 -1.99782187682900E-02
 Gradient of E wrt nuclear positions in reduced coordinates (gred)
  2.55824779409273E-01 -3.22514509146421E-01 -1.08281945724132E-01
 -2.55824779409273E-01  3.22514509146421E-01  1.08281945724132E-01
 Cartesian velocities (vel) [bohr*Ha/hbar]; max,rms= 1.44354E-04 9.66033E-05 (free atoms)
  2.56860213335575E-05 -1.44354044472147E-04  8.06147586709848E-05
 -2.56860213335575E-05  1.44354044472147E-04 -8.06147586709848E-05
 Kinetic energy of ions (ekin) [Ha]=  2.85013387775568E-03
 Total energy (etotal) [Ha]= -4.95731643780837E+01

 Difference of energy with previous step (new-old):
           Absolute (Ha)=-5.88072E-04
           Relative     =-1.18628E-05

--- Iteration: (4/4) Internal Cycle: (3/3)
--------------------------------------------------------------------------------

---SELF-CONSISTENT-FIELD CONVERGENCE--------------------------------------------

--- !BeginCycle
iteration_state: {dtset: 1, itime: 4, icycle: 3, }
solver: {iscf: 7, nstep: 10, nline: 4, wfoptalg: 0, }
tolerances: {toldfe: 1.00E-10, }
...

     iter   Etot(hartree)      deltaE(h)  residm     vres2
 ETOT  1  -47.207495260080    -4.721E+01 2.938E-01 4.543E+03
 ETOT  2  -48.596985570568    -1.389E+00 8.777E-03 1.181E+03
 ETOT  3  -49.395136090689    -7.982E-01 3.423E-02 1.386E+02
 ETOT  4  -49.476655022022    -8.152E-02 1.925E-03 6.263E+00
 ETOT  5  -49.480466614200    -3.812E-03 1.763E-04 2.515E+00
 ETOT  6  -49.472851518757     7.615E-03 4.386E-05 1.270E+01
 ETOT  7  -49.482493253136    -9.642E-03 5.412E-05 1.232E-01
 ETOT  8  -49.482593404102    -1.002E-04 2.013E-03 1.180E-03
 ETOT  9  -49.482594192792    -7.887E-07 3.971E-04 5.376E-05
 ETOT 10  -49.482594218276    -2.548E-08 1.097E-03 7.471E-07

 Cartesian components of stress tensor (hartree/bohr^3)
  sigma(1 1)=  1.17826714E-02  sigma(3 2)= -1.23005387E-03
  sigma(2 2)=  6.13978404E-03  sigma(3 1)= -1.32420246E-05
  sigma(3 3)=  5.52179664E-03  sigma(2 1)= -9.18029273E-06


 scprqt:  WARNING -
  nstep=   10 was not enough SCF cycles to converge;
  maximum energy difference=  2.548E-08 exceeds toldfe=  1.000E-10


--- !ResultsGS
iteration_state: {dtset: 1, itime: 4, icycle: 3, }
comment   : Summary of ground state results
lattice_vectors:
- [  5.4200000,   0.0000000,   0.0000000, ]
- [  0.0000000,   5.4200000,   0.0000000, ]
- [  0.0000000,   0.0000000,   5.4200000, ]
lattice_lengths: [   5.42000,    5.42000,    5.42000, ]
lattice_angles: [ 90.000,  90.000,  90.000, ] # degrees, (23, 13, 12)
lattice_volume:   1.5922009E+02
convergence: {deltae: -2.548E-08, res2:  7.471E-07, residm:  1.097E-03, diffor: null, }
etotal    :  -4.94825942E+01
entropy   :   0.00000000E+00
fermie    :  -2.61385364E-01
cartesian_stress_tensor: # hartree/bohr^3
- [  1.17826714E-02,  -9.18029273E-06,  -1.32420246E-05, ]
- [ -9.18029273E-06,   6.13978404E-03,  -1.23005387E-03, ]
- [ -1.32420246E-05,  -1.23005387E-03,   5.52179664E-03, ]
pressure_GPa:  -2.2992E+02
xred      :
- [ -2.4767E-01,  -2.1821E-02,   4.7268E-01, Fe]
- [  7.4767E-01,   5.7182E-01,   4.7320E-02, Fe]
cartesian_forces: # hartree/bohr
- [  1.96941121E-03,   1.62609491E-01,   1.59504507E-01, ]
- [ -1.96941121E-03,  -1.62609491E-01,  -1.59504507E-01, ]
force_length_stats: {min:   2.27788087E-01, max:   2.27788087E-01, mean:   2.27788087E-01, }
...

 Integrated electronic density in atomic spheres:
 ------------------------------------------------
 Atom  Sphere_radius  Integrated_density
    1        2.00000          6.59064848
    2        2.00000          6.59613180

---OUTPUT-----------------------------------------------------------------------

 Cartesian coordinates (xcart) [bohr]
 -1.34234582720389E+00 -1.18269588311306E-01  2.56192819051816E+00
  4.05234582720389E+00  3.09926958833299E+00  2.56471809501895E-01
 Reduced coordinates (xred)
 -2.47665281771935E-01 -2.18209572530085E-02  4.72680477955379E-01
  7.47665281771935E-01  5.71820957257009E-01  4.73195220483201E-02
 Cartesian forces (fcart) [Ha/bohr]; max,rms= 1.62609E-01 1.31514E-01 (free atoms)
  1.96941121439465E-03  1.62609490516673E-01  1.59504507168282E-01
 -1.96941121439465E-03 -1.62609490516673E-01 -1.59504507168282E-01
 Gradient of E wrt nuclear positions in reduced coordinates (gred)
 -1.06742087820190E-02 -8.81343438600369E-01 -8.64514428852088E-01
  1.06742087820190E-02  8.81343438600369E-01  8.64514428852088E-01
 Cartesian velocities (vel) [bohr*Ha/hbar]; max,rms= 1.08500E-02 7.59320E-03 (free atoms)
 -7.42402878325669E-03  3.63835948782304E-04  1.08499607395731E-02
  7.42402878325669E-03 -3.63835948782300E-04 -1.08499607395731E-02
 Kinetic energy of ions (ekin) [Ha]=  1.76088627280134E+01
 Total energy (etotal) [Ha]= -4.94825942182755E+01

 Difference of energy with previous step (new-old):
           Absolute (Ha)= 9.05702E-02
           Relative     = 1.82867E-03
================================================================================

 ----iterations are completed or convergence reached----

 Mean square residual over all n,k,spin=   76.531E-07; max=  10.965E-04
 reduced coordinates (array xred) for    2 atoms
      -0.247665281772     -0.021820957253      0.472680477955
       0.747665281772      0.571820957257      0.047319522048
 rms dE/dt=  7.1280E-01; max dE/dt=  8.8134E-01; dE/dt below (all hartree)
    1      -0.010673866923     -0.881342580057     -0.864516066807
    2       0.010674550641      0.881344297144      0.864512790897

 cartesian coordinates (angstrom) at end:
    1     -0.71033881780219    -0.06258557060367     1.35571400846643
    2      2.14440905308109     1.64006282942193     0.13571903623424

 cartesian forces (hartree/bohr) at end:
    1      0.00196941121439     0.16260949051667     0.15950450716828
    2     -0.00196941121439    -0.16260949051667    -0.15950450716828
 frms,max,avg= 1.3151351E-01 1.6260949E-01  -6.307E-08 -1.584E-07  3.022E-07 h/b

 cartesian forces (eV/Angstrom) at end:
    1      0.10127118791808     8.36171549700382     8.20205084705204
    2     -0.10127118791808    -8.36171549700382    -8.20205084705204
 frms,max,avg= 6.7626962E+00 8.3617155E+00  -3.243E-06 -8.145E-06  1.554E-05 e/A
 length scales=  5.420000000000  5.420000000000  5.420000000000 bohr
              =  2.868140470558  2.868140470558  2.868140470558 angstroms
 prteigrs : about to open file t34o_EIG
 Fermi (or HOMO) energy (hartree) =  -0.26139   Average Vxc (hartree)=  -0.50207
 Eigenvalues (hartree) for nkpt=   8  k points:
 kpt#   1, nband= 20, wtk=  0.12500, kpt=  0.0000  0.0000  0.0000 (reduced coord)
  -0.58557   -0.51229   -0.46419   -0.43391   -0.39238   -0.33341   -0.27393   -0.25618
  -0.22587   -0.21633   -0.13292    0.07406    0.10242    0.12200    0.31892    0.38772
   0.39577    0.69200    0.76480    0.79562
      occupation numbers for kpt#   1
   2.00000    2.00000    2.00000    2.00000    2.00000    1.99851    1.55607    0.74524
   0.05576    0.02184    0.00001    0.00000    0.00000    0.00000    0.00000    0.00000
   0.00000    0.00000    0.00000    0.00000
 prteigrs : prtvol=0 or 1, do not print more k-points.


--- !EnergyTerms
iteration_state     : {dtset: 1, itime: 4, icycle: 3, }
comment             : Components of total free energy in Hartree
kinetic             :  5.10769016345792E+01
hartree             :  7.97132214881544E+00
xc                  : -2.12775690569006E+01
Ewald energy        : -3.96256538619333E+01
psp_core            :  1.24673648645887E+01
local_psp           : -9.15647795789046E-01
non_local_psp       : -5.91477462055999E+01
internal            : -4.94510282722395E+01
'-kT*entropy'       : -3.15659460360531E-02
total_energy        : -4.94825942182755E+01
total_energy_eV     : -1.34648986566211E+03
band_energy         : -6.10675762287814E+00
...

 rms coord change=  3.0923E-01   atom, delta coord (reduced):
     1       -0.247665281772     -0.069120389927      0.469844815402
     2        0.247665281772      0.069120389927     -0.469844815402

 Cartesian components of stress tensor (hartree/bohr^3)
  sigma(1 1)=  1.17826714E-02  sigma(3 2)= -1.23005387E-03
  sigma(2 2)=  6.13978404E-03  sigma(3 1)= -1.32420246E-05
  sigma(3 3)=  5.52179664E-03  sigma(2 1)= -9.18029273E-06

-Cartesian components of stress tensor (GPa)         [Pressure= -2.2992E+02 GPa]
- sigma(1 1)=  3.46658102E+02  sigma(3 2)= -3.61894283E+01
- sigma(2 2)=  1.80638652E+02  sigma(3 1)= -3.89593749E-01
- sigma(3 3)=  1.62456839E+02  sigma(2 1)= -2.70093492E-01

== END DATASET(S) ==============================================================
================================================================================
  
 -outvars: echo values of variables after computation  --------
            acell      5.4200000000E+00  5.4200000000E+00  5.4200000000E+00 Bohr
              amu      5.58470000E+01
      chksymbreak           0
            dtion      2.50000000E+02
             ecut      2.00000000E+01 Hartree
           etotal     -4.9482594218E+01
            fcart      1.9694112144E-03  1.6260949052E-01  1.5950450717E-01
                      -1.9694112144E-03 -1.6260949052E-01 -1.5950450717E-01
-          fftalg         312
           hmcsst           0
            hmctt           3
           ionmov          25
           istwfk        2    3    6    7    4    5    8    9
              kpt      0.00000000E+00  0.00000000E+00  0.00000000E+00
                       5.00000000E-01  0.00000000E+00  0.00000000E+00
                       0.00000000E+00  5.00000000E-01  0.00000000E+00
                       5.00000000E-01  5.00000000E-01  0.00000000E+00
                       0.00000000E+00  0.00000000E+00  5.00000000E-01
                       5.00000000E-01  0.00000000E+00  5.00000000E-01
                       0.00000000E+00  5.00000000E-01  5.00000000E-01
                       5.00000000E-01  5.00000000E-01  5.00000000E-01
         kptrlatt        2    0    0      0    2    0      0    0    2
          kptrlen      1.08400000E+01
P           mkmem           8
            natom           2
            nband          20
            ngfft          24      24      24
             nkpt           8
             nnos           1
            nstep          10
             nsym           1
            ntime           4
           ntypat           1
              occ      2.000000  2.000000  2.000000  2.000000  1.999996  1.998512
                       1.556071  0.745242  0.055761  0.021844  0.000005  0.000000
                       0.000000  0.000000  0.000000  0.000000  0.000000  0.000000
                       0.000000  0.000000
                       2.000000  2.000000  2.000000  2.000000  1.999996  1.999934
                       0.950512  0.421725  0.100235  0.021186  0.016671  0.000003
                       0.000000  0.000000  0.000000  0.000000  0.000000  0.000000
                       0.000000  0.000000
                       2.000000  2.000000  1.999996  1.999988  1.999986  1.999740
                       1.998410  1.989791  1.919520  1.424889  0.546543  0.000623
                       0.000000  0.000000  0.000000  0.000000  0.000000  0.000000
                       0.000000  0.000000
                       2.000000  2.000000  1.999999  1.999999  1.999983  1.999642
                       1.972166  1.552012  1.028633  0.382101  0.000127  0.000002
                       0.000000  0.000000  0.000000  0.000000  0.000000  0.000000
                       0.000000  0.000000
                       2.000000  2.000000  1.999993  1.999989  1.999971  1.999817
                       1.999252  1.996450  1.769868  0.879809  0.595023  0.001391
                       0.000000  0.000000  0.000000  0.000000  0.000000  0.000000
                       0.000000  0.000000
                       2.000000  2.000000  2.000000  1.999999  1.999960  1.998551
                       1.991223  1.691442  0.560530  0.234339  0.000097  0.000001
                       0.000000  0.000000  0.000000  0.000000  0.000000  0.000000
                       0.000000  0.000000
                       2.000000  2.000000  1.999996  1.999994  1.999918  1.999440
                       1.998582  1.281251  0.487976  0.290443  0.034600  0.016701
                       0.000000  0.000000  0.000000  0.000000  0.000000  0.000000
                       0.000000  0.000000
                       2.000000  2.000000  2.000000  1.999993  1.999409  0.736232
                       0.483922  0.189952  0.050106  0.011934  0.000006  0.000000
                       0.000000  0.000000  0.000000  0.000000  0.000000  0.000000
                       0.000000  0.000000
           occopt           3
           prtden           0
          spgroup           1
           strten      1.1782671371E-02  6.1397840374E-03  5.5217966428E-03
                      -1.2300538721E-03 -1.3242024597E-05 -9.1802927323E-06
           toldfe      1.00000000E-10 Hartree
            typat      1  1
              vel     -7.4240287833E-03  3.6383594878E-04  1.0849960740E-02
                       7.4240287833E-03 -3.6383594878E-04 -1.0849960740E-02
              wtk        0.12500    0.12500    0.12500    0.12500    0.12500    0.12500
                         0.12500    0.12500
           xangst     -7.1033881780E-01 -6.2585570604E-02  1.3557140085E+00
                       2.1444090531E+00  1.6400628294E+00  1.3571903623E-01
            xcart     -1.3423458272E+00 -1.1826958831E-01  2.5619281905E+00
                       4.0523458272E+00  3.0992695883E+00  2.5647180950E-01
             xred     -2.4766528177E-01 -2.1820957253E-02  4.7268047796E-01
                       7.4766528177E-01  5.7182095726E-01  4.7319522048E-02
            znucl       26.00000

================================================================================


- Timing analysis has been suppressed with timopt=0



================================================================================

 Suggested references for the acknowledgment of ABINIT usage.

 The users of ABINIT have little formal obligations with respect to the ABINIT group
 (those specified in the GNU General Public License, http://www.gnu.org/copyleft/gpl.txt).
 However, it is common practice in the scientific literature,
 to acknowledge the efforts of people that have made the research possible.
 In this spirit, please find below suggested citations of work written by ABINIT developers,
 corresponding to implementations inside of ABINIT that you have used in the present run.
 Note also that it will be of great value to readers of publications presenting these results,
 to read papers enabling them to understand the theoretical formalism and details
 of the ABINIT implementation.
 For information on why they are suggested, see also https://docs.abinit.org/theory/acknowledgments.
-
- [1] The Abinit project: Impact, environment and recent developments.
- Computer Phys. Comm. 248, 107042 (2020).
- X.Gonze, B. Amadon, G. Antonius, F.Arnardi, L.Baguet, J.-M.Beuken,
- J.Bieder, F.Bottin, J.Bouchet, E.Bousquet, N.Brouwer, F.Bruneval,
- G.Brunin, T.Cavignac, J.-B. Charraud, Wei Chen, M.Cote, S.Cottenier,
- J.Denier, G.Geneste, Ph.Ghosez, M.Giantomassi, Y.Gillet, O.Gingras,
- D.R.Hamann, G.Hautier, Xu He, N.Helbig, N.Holzwarth, Y.Jia, F.Jollet,
- W.Lafargue-Dit-Hauret, K.Lejaeghere, M.A.L.Marques, A.Martin, C.Martins,
- H.P.C. Miranda, F.Naccarato, K. Persson, G.Petretto, V.Planes, Y.Pouillon,
- S.Prokhorenko, F.Ricci, G.-M.Rignanese, A.H.Romero, M.M.Schmitt, M.Torrent,
- M.J.van Setten, B.Van Troeye, M.J.Verstraete, G.Zerah and J.W.Zwanzig
- Comment: the fifth generic paper describing the ABINIT project.
- Note that a version of this paper, that is not formatted for Computer Phys. Comm. 
- is available at https://www.abinit.org/sites/default/files/ABINIT20.pdf .
- The licence allows the authors to put it on the Web.
- DOI and bibtex: see https://docs.abinit.org/theory/bibliography/#gonze2020
-
- [2] ABINIT: Overview, and focus on selected capabilities
- J. Chem. Phys. 152, 124102 (2020).
- A. Romero, D.C. Allan, B. Amadon, G. Antonius, T. Applencourt, L.Baguet,
- J.Bieder, F.Bottin, J.Bouchet, E.Bousquet, F.Bruneval,
- G.Brunin, D.Caliste, M.Cote,
- J.Denier, C. Dreyer, Ph.Ghosez, M.Giantomassi, Y.Gillet, O.Gingras,
- D.R.Hamann, G.Hautier, F.Jollet, G. Jomard,
- A.Martin, 
- H.P.C. Miranda, F.Naccarato, G.Petretto, N.A. Pike, V.Planes,
- S.Prokhorenko, T. Rangel, F.Ricci, G.-M.Rignanese, M.Royo, M.Stengel, M.Torrent,
- M.J.van Setten, B.Van Troeye, M.J.Verstraete, J.Wiktor, J.W.Zwanziger, and X.Gonze.
- Comment: a global overview of ABINIT, with focus on selected capabilities .
- Note that a version of this paper, that is not formatted for J. Chem. Phys 
- is available at https://www.abinit.org/sites/default/files/ABINIT20_JPC.pdf .
- The licence allows the authors to put it on the Web.
- DOI and bibtex: see https://docs.abinit.org/theory/bibliography/#romero2020
-
- [3] Recent developments in the ABINIT software package.
- Computer Phys. Comm. 205, 106 (2016).
- X.Gonze, F.Jollet, F.Abreu Araujo, D.Adams, B.Amadon, T.Applencourt,
- C.Audouze, J.-M.Beuken, J.Bieder, A.Bokhanchuk, E.Bousquet, F.Bruneval
- D.Caliste, M.Cote, F.Dahm, F.Da Pieve, M.Delaveau, M.Di Gennaro,
- B.Dorado, C.Espejo, G.Geneste, L.Genovese, A.Gerossier, M.Giantomassi,
- Y.Gillet, D.R.Hamann, L.He, G.Jomard, J.Laflamme Janssen, S.Le Roux,
- A.Levitt, A.Lherbier, F.Liu, I.Lukacevic, A.Martin, C.Martins,
- M.J.T.Oliveira, S.Ponce, Y.Pouillon, T.Rangel, G.-M.Rignanese,
- A.H.Romero, B.Rousseau, O.Rubel, A.A.Shukri, M.Stankovski, M.Torrent,
- M.J.Van Setten, B.Van Troeye, M.J.Verstraete, D.Waroquier, J.Wiktor,
- B.Xu, A.Zhou, J.W.Zwanziger.
- Comment: the fourth generic paper describing the ABINIT project.
- Note that a version of this paper, that is not formatted for Computer Phys. Comm. 
- is available at https://www.abinit.org/sites/default/files/ABINIT16.pdf .
- The licence allows the authors to put it on the Web.
- DOI and bibtex: see https://docs.abinit.org/theory/bibliography/#gonze2016
-
- And optionally:
-
- [4] ABINIT: First-principles approach of materials and nanosystem properties.
- Computer Phys. Comm. 180, 2582-2615 (2009).
- X. Gonze, B. Amadon, P.-M. Anglade, J.-M. Beuken, F. Bottin, P. Boulanger, F. Bruneval,
- D. Caliste, R. Caracas, M. Cote, T. Deutsch, L. Genovese, Ph. Ghosez, M. Giantomassi
- S. Goedecker, D.R. Hamann, P. Hermet, F. Jollet, G. Jomard, S. Leroux, M. Mancini, S. Mazevet,
- M.J.T. Oliveira, G. Onida, Y. Pouillon, T. Rangel, G.-M. Rignanese, D. Sangalli, R. Shaltaf,
- M. Torrent, M.J. Verstraete, G. Zerah, J.W. Zwanziger
- Comment: the third generic paper describing the ABINIT project.
- Note that a version of this paper, that is not formatted for Computer Phys. Comm. 
- is available at https://www.abinit.org/sites/default/files/ABINIT_CPC_v10.pdf .
- The licence allows the authors to put it on the Web.
- DOI and bibtex: see https://docs.abinit.org/theory/bibliography/#gonze2009
-
- Proc.   0 individual time (sec): cpu=        159.0  wall=        159.7

================================================================================

 Calculation completed.
.Delivered   6 WARNINGs and   3 COMMENTs to log file.
+Overall time at end (sec) : cpu=        159.0  wall=        159.7
