
.Version 8.11.14 of ABINIT 
.(MPI version, prepared for a x86_64_linux_gnu9.2 computer) 

.Copyright (C) 1998-2020 ABINIT group . 
 ABINIT comes with ABSOLUTELY NO WARRANTY.
 It is free software, and you are welcome to redistribute it
 under certain conditions (GNU General Public License,
 see ~abinit/COPYING or http://www.gnu.org/copyleft/gpl.txt).

 ABINIT is a project of the Universite Catholique de Louvain,
 Corning Inc. and other collaborators, see ~abinit/doc/developers/contributors.txt .
 Please read https://docs.abinit.org/theory/acknowledgments for suggested
 acknowledgments of the ABINIT effort.
 For more information, see https://www.abinit.org .

.Starting date : Wed 15 Jan 2020.
- ( at 21h36 )
  
- input  file    -> /home/buildbot/bb/ABINIT/abiref_gnu_9.2_openmpi/mverstra_develop/tests/Test_suite/v8_t41-t42-t43-t44/t44.in
- output file    -> t44.out
- root for input  files -> t44i
- root for output files -> t44o


 DATASET    1 : space group Fd -3 m (#227); Bravais cF (face-center cubic)
================================================================================
 Values of the parameters that define the memory need for DATASET  1.
     intxc =       0    ionmov =       0      iscf =       7    lmnmax =       1
     lnmax =       1     mgfft =      20  mpssoang =       2    mqgrid =    3001
     natom =       2  nloc_mem =       1    nspden =       1   nspinor =       1
    nsppol =       1      nsym =      48    n1xccc =    2501    ntypat =       1
    occopt =       1   xclevel =       1
-    mband =          54        mffmem =           1         mkmem =           8
       mpw =         328          nfft =        8000          nkpt =           8
================================================================================
P This job should need less than                       5.106 Mbytes of memory.
  Rough estimation (10% accuracy) of disk space for files :
_ WF disk file :      2.164 Mbytes ; DEN or POT disk file :      0.063 Mbytes.
================================================================================


 DATASET    2 : space group Fd -3 m (#227); Bravais cF (face-center cubic)
================================================================================
 Values of the parameters that define the memory need for DATASET  2.
     intxc =       0    ionmov =       0      iscf =       7    lmnmax =       1
     lnmax =       1     mgfft =      20  mpssoang =       2    mqgrid =    3001
     natom =       2  nloc_mem =       1    nspden =       1   nspinor =       1
    nsppol =       1      nsym =      48    n1xccc =    2501    ntypat =       1
    occopt =       1   xclevel =       1
-    mband =          54        mffmem =           1         mkmem =           8
       mpw =         328          nfft =        8000          nkpt =           8
================================================================================
P This job should need less than                       5.106 Mbytes of memory.
  Rough estimation (10% accuracy) of disk space for files :
_ WF disk file :      2.164 Mbytes ; DEN or POT disk file :      0.063 Mbytes.
================================================================================


 DATASET    3 : space group Fd -3 m (#227); Bravais cF (face-center cubic)
================================================================================
 Values of the parameters that define the memory need for DATASET  3.
     intxc =       0    ionmov =       0      iscf =       7    lmnmax =       1
     lnmax =       1     mgfft =      20  mpssoang =       2    mqgrid =    3001
     natom =       2  nloc_mem =       1    nspden =       1   nspinor =       1
    nsppol =       1      nsym =      48    n1xccc =    2501    ntypat =       1
    occopt =       1   xclevel =       1
-    mband =          54        mffmem =           1         mkmem =           8
       mpw =         328          nfft =        8000          nkpt =           8
================================================================================
P This job should need less than                       5.106 Mbytes of memory.
  Rough estimation (10% accuracy) of disk space for files :
_ WF disk file :      2.164 Mbytes ; DEN or POT disk file :      0.063 Mbytes.
================================================================================


 DATASET    4 : space group Fd -3 m (#227); Bravais cF (face-center cubic)
================================================================================
 Values of the parameters that define the memory need for DATASET  4.
     intxc =       0    ionmov =       0      iscf =       7    lmnmax =       1
     lnmax =       1     mgfft =      20  mpssoang =       2    mqgrid =    3001
     natom =       2  nloc_mem =       1    nspden =       1   nspinor =       1
    nsppol =       1      nsym =      48    n1xccc =    2501    ntypat =       1
    occopt =       1   xclevel =       1
-    mband =          54        mffmem =           1         mkmem =           8
       mpw =         328          nfft =        8000          nkpt =           8
================================================================================
P This job should need less than                       5.106 Mbytes of memory.
  Rough estimation (10% accuracy) of disk space for files :
_ WF disk file :      2.164 Mbytes ; DEN or POT disk file :      0.063 Mbytes.
================================================================================


 DATASET    5 : space group Fd -3 m (#227); Bravais cF (face-center cubic)
================================================================================
 Values of the parameters that define the memory need for DATASET  5.
     intxc =       0    ionmov =       0      iscf =       7    lmnmax =       1
     lnmax =       1     mgfft =      20  mpssoang =       2    mqgrid =    3001
     natom =       2  nloc_mem =       1    nspden =       1   nspinor =       1
    nsppol =       1      nsym =      48    n1xccc =    2501    ntypat =       1
    occopt =       1   xclevel =       1
-    mband =          54        mffmem =           1         mkmem =           8
       mpw =         328          nfft =        8000          nkpt =           8
================================================================================
P This job should need less than                       5.106 Mbytes of memory.
  Rough estimation (10% accuracy) of disk space for files :
_ WF disk file :      2.164 Mbytes ; DEN or POT disk file :      0.063 Mbytes.
================================================================================


 DATASET    6 : space group Fd -3 m (#227); Bravais cF (face-center cubic)
================================================================================
 Values of the parameters that define the memory need for DATASET  6.
     intxc =       0    ionmov =       0      iscf =       7    lmnmax =       1
     lnmax =       1     mgfft =      20  mpssoang =       2    mqgrid =    3001
     natom =       2  nloc_mem =       1    nspden =       1   nspinor =       1
    nsppol =       1      nsym =      48    n1xccc =    2501    ntypat =       1
    occopt =       1   xclevel =       1
-    mband =          54        mffmem =           1         mkmem =           8
       mpw =         328          nfft =        8000          nkpt =           8
================================================================================
P This job should need less than                       5.106 Mbytes of memory.
  Rough estimation (10% accuracy) of disk space for files :
_ WF disk file :      2.164 Mbytes ; DEN or POT disk file :      0.063 Mbytes.
================================================================================

--------------------------------------------------------------------------------
------------- Echo of variables that govern the present computation ------------
--------------------------------------------------------------------------------
-
- outvars: echo of selected default values                                      
-   iomode0 =  0 , fftalg0 =312 , wfoptalg0 =  0
-
- outvars: echo of global parameters not present in the input file              
-  max_nthreads =    0
-
 -outvars: echo values of preprocessed input variables --------
            acell      6.7034680500E+00  6.7034680500E+00  6.7034680500E+00 Bohr
              amu      1.20110000E+01
             bdgw           1       8       1       8
             ecut      2.00000000E+01 Hartree
           ecutsm      5.00000000E-01 Hartree
      eph_intmeth1          1
      eph_intmeth2          1
      eph_intmeth3          2
      eph_intmeth4          1
      eph_intmeth5          2
      eph_intmeth6          2
         eph_task1          4
         eph_task2          4
         eph_task3          5
         eph_task4          4
         eph_task5          4
         eph_task6          4
   eph_ngqpt_fine1       0    0    0
   eph_ngqpt_fine2       0    0    0
   eph_ngqpt_fine3       4    4    4
   eph_ngqpt_fine4       4    4    4
   eph_ngqpt_fine5       4    4    4
   eph_ngqpt_fine6       4    4    4
        eph_stern1          0
        eph_stern2          0
        eph_stern3          0
        eph_stern4          0
        eph_stern5          0
        eph_stern6          1
         ph_wstep      3.67493254E-06 Hartree
         ph_smear      3.67493254E-05 Hartree
        ddb_ngqpt        2    2    2
       dvdb_ngqpt        2    2    2
   dvdb_qcache_mb1    -1.00000000E+00
   dvdb_qcache_mb2     0.00000000E+00
   dvdb_qcache_mb3     1.02400000E+03
   dvdb_qcache_mb4     1.02400000E+03
   dvdb_qcache_mb5     1.02400000E+03
   dvdb_qcache_mb6     1.02400000E+03
        ph_nqpath           3
         ph_ngqpt       16   16   16
-          fftalg         312
        freqspmax      3.67493254E-02 Hartree
        freqspmin     -3.67493254E-02 Hartree
           getddb          20
          getdvdb1          0
          getdvdb2          0
          getdvdb3          0
          getdvdb4         -1
          getdvdb5          3
          getdvdb6          0
           getwfk          20
           istwfk        2    0    3    0    0    0    7    0
           jdtset        1    2    3    4    5    6
              kpt      0.00000000E+00  0.00000000E+00  0.00000000E+00
                       2.50000000E-01  0.00000000E+00  0.00000000E+00
                       5.00000000E-01  0.00000000E+00  0.00000000E+00
                       2.50000000E-01  2.50000000E-01  0.00000000E+00
                       5.00000000E-01  2.50000000E-01  0.00000000E+00
                      -2.50000000E-01  2.50000000E-01  0.00000000E+00
                       5.00000000E-01  5.00000000E-01  0.00000000E+00
                      -2.50000000E-01  5.00000000E-01  2.50000000E-01
            kptgw      0.00000000E+00  0.00000000E+00  0.00000000E+00
                       5.00000000E-01  0.00000000E+00  0.00000000E+00
         kptrlatt        4    0    0      0    4    0      0    0    4
          kptrlen      1.89602709E+01
          mixprec        1
P           mkmem           8
            natom           2
            nband          54
           ndtset           6
          nfreqsp1        100
          nfreqsp2        100
          nfreqsp3        100
          nfreqsp4        100
          nfreqsp5          0
          nfreqsp6          0
            ngfft          20      20      20
             nkpt           8
           nkptgw           2
             nsym          48
           ntypat           1
              occ      2.000000  2.000000  2.000000  2.000000  0.000000  0.000000
                       0.000000  0.000000  0.000000  0.000000  0.000000  0.000000
                       0.000000  0.000000  0.000000  0.000000  0.000000  0.000000
                       0.000000  0.000000  0.000000  0.000000  0.000000  0.000000
                       0.000000  0.000000  0.000000  0.000000  0.000000  0.000000
                       0.000000  0.000000  0.000000  0.000000  0.000000  0.000000
                       0.000000  0.000000  0.000000  0.000000  0.000000  0.000000
                       0.000000  0.000000  0.000000  0.000000  0.000000  0.000000
                       0.000000  0.000000  0.000000  0.000000  0.000000  0.000000
        optdriver           7
        prteliash           1
           prtvol           1
            rprim      0.0000000000E+00  5.0000000000E-01  5.0000000000E-01
                       5.0000000000E-01  0.0000000000E+00  5.0000000000E-01
                       5.0000000000E-01  5.0000000000E-01  0.0000000000E+00
          spgroup         227
           symrel      1  0  0   0  1  0   0  0  1      -1  0  0   0 -1  0   0  0 -1
                       0 -1  1   0 -1  0   1 -1  0       0  1 -1   0  1  0  -1  1  0
                      -1  0  0  -1  0  1  -1  1  0       1  0  0   1  0 -1   1 -1  0
                       0  1 -1   1  0 -1   0  0 -1       0 -1  1  -1  0  1   0  0  1
                      -1  0  0  -1  1  0  -1  0  1       1  0  0   1 -1  0   1  0 -1
                       0 -1  1   1 -1  0   0 -1  0       0  1 -1  -1  1  0   0  1  0
                       1  0  0   0  0  1   0  1  0      -1  0  0   0  0 -1   0 -1  0
                       0  1 -1   0  0 -1   1  0 -1       0 -1  1   0  0  1  -1  0  1
                      -1  0  1  -1  1  0  -1  0  0       1  0 -1   1 -1  0   1  0  0
                       0 -1  0   1 -1  0   0 -1  1       0  1  0  -1  1  0   0  1 -1
                       1  0 -1   0  0 -1   0  1 -1      -1  0  1   0  0  1   0 -1  1
                       0  1  0   0  0  1   1  0  0       0 -1  0   0  0 -1  -1  0  0
                       1  0 -1   0  1 -1   0  0 -1      -1  0  1   0 -1  1   0  0  1
                       0 -1  0   0 -1  1   1 -1  0       0  1  0   0  1 -1  -1  1  0
                      -1  0  1  -1  0  0  -1  1  0       1  0 -1   1  0  0   1 -1  0
                       0  1  0   1  0  0   0  0  1       0 -1  0  -1  0  0   0  0 -1
                       0  0 -1   0  1 -1   1  0 -1       0  0  1   0 -1  1  -1  0  1
                       1 -1  0   0 -1  1   0 -1  0      -1  1  0   0  1 -1   0  1  0
                       0  0  1   1  0  0   0  1  0       0  0 -1  -1  0  0   0 -1  0
                      -1  1  0  -1  0  0  -1  0  1       1 -1  0   1  0  0   1  0 -1
                       0  0  1   0  1  0   1  0  0       0  0 -1   0 -1  0  -1  0  0
                       1 -1  0   0 -1  0   0 -1  1      -1  1  0   0  1  0   0  1 -1
                       0  0 -1   1  0 -1   0  1 -1       0  0  1  -1  0  1   0 -1  1
                      -1  1  0  -1  0  1  -1  0  0       1 -1  0   1  0 -1   1  0  0
         symsigma1       0
         symsigma2       1
         symsigma3       1
         symsigma4       1
         symsigma5       1
         symsigma6       1
            tnons      0.0000000  0.0000000  0.0000000     0.2500000  0.2500000  0.2500000
                       0.0000000  0.0000000  0.0000000     0.2500000  0.2500000  0.2500000
                       0.0000000  0.0000000  0.0000000     0.2500000  0.2500000  0.2500000
                       0.0000000  0.0000000  0.0000000     0.2500000  0.2500000  0.2500000
                       0.0000000  0.0000000  0.0000000     0.2500000  0.2500000  0.2500000
                       0.0000000  0.0000000  0.0000000     0.2500000  0.2500000  0.2500000
                       0.0000000  0.0000000  0.0000000     0.2500000  0.2500000  0.2500000
                       0.0000000  0.0000000  0.0000000     0.2500000  0.2500000  0.2500000
                       0.0000000  0.0000000  0.0000000     0.2500000  0.2500000  0.2500000
                       0.0000000  0.0000000  0.0000000     0.2500000  0.2500000  0.2500000
                       0.0000000  0.0000000  0.0000000     0.2500000  0.2500000  0.2500000
                       0.0000000  0.0000000  0.0000000     0.2500000  0.2500000  0.2500000
                       0.0000000  0.0000000  0.0000000     0.2500000  0.2500000  0.2500000
                       0.0000000  0.0000000  0.0000000     0.2500000  0.2500000  0.2500000
                       0.0000000  0.0000000  0.0000000     0.2500000  0.2500000  0.2500000
                       0.0000000  0.0000000  0.0000000     0.2500000  0.2500000  0.2500000
                       0.0000000  0.0000000  0.0000000     0.2500000  0.2500000  0.2500000
                       0.0000000  0.0000000  0.0000000     0.2500000  0.2500000  0.2500000
                       0.0000000  0.0000000  0.0000000     0.2500000  0.2500000  0.2500000
                       0.0000000  0.0000000  0.0000000     0.2500000  0.2500000  0.2500000
                       0.0000000  0.0000000  0.0000000     0.2500000  0.2500000  0.2500000
                       0.0000000  0.0000000  0.0000000     0.2500000  0.2500000  0.2500000
                       0.0000000  0.0000000  0.0000000     0.2500000  0.2500000  0.2500000
                       0.0000000  0.0000000  0.0000000     0.2500000  0.2500000  0.2500000
           tolwfr      1.00000000E-16
            typat      1  1
              wtk        0.01563    0.12500    0.06250    0.09375    0.37500    0.18750
                         0.04688    0.09375
           xangst      0.0000000000E+00  0.0000000000E+00  0.0000000000E+00
                       8.8683062764E-01  8.8683062764E-01  8.8683062764E-01
            xcart      0.0000000000E+00  0.0000000000E+00  0.0000000000E+00
                       1.6758670125E+00  1.6758670125E+00  1.6758670125E+00
             xred      0.0000000000E+00  0.0000000000E+00  0.0000000000E+00
                       2.5000000000E-01  2.5000000000E-01  2.5000000000E-01
            znucl        6.00000

================================================================================

 chkinp: Checking input parameters for consistency, jdtset=   1.

 chkinp: Checking input parameters for consistency, jdtset=   2.

 chkinp: Checking input parameters for consistency, jdtset=   3.

 chkinp: Checking input parameters for consistency, jdtset=   4.

 chkinp: Checking input parameters for consistency, jdtset=   5.

 chkinp: Checking input parameters for consistency, jdtset=   6.

================================================================================
== DATASET  1 ==================================================================
-   nproc =    1

 mkfilename : getwfk/=0, take file _WFK from output of DATASET  20.

 mkfilename : getddb/=0, take file _DDB from output of DATASET  20.

 Exchange-correlation functional for the present dataset will be:
  LDA: new Teter (4/93) with spin-polarized option - ixc=1
 Citation for XC functional:
  S. Goedecker, M. Teter, J. Huetter, PRB 54, 1703 (1996)

- Reading GS states from WFK file: t44o_DS20_WFK
- Reading DDB from file: t44o_DS20_DDB
- Reading DVDB from file: t44o_DS20_DVDB



 Real(R)+Recip(G) space primitive vectors, cartesian coordinates (Bohr,Bohr^-1):
 R(1)=  0.0000000  3.3517340  3.3517340  G(1)= -0.1491765  0.1491765  0.1491765
 R(2)=  3.3517340  0.0000000  3.3517340  G(2)=  0.1491765 -0.1491765  0.1491765
 R(3)=  3.3517340  3.3517340  0.0000000  G(3)=  0.1491765  0.1491765 -0.1491765
 Unit cell volume ucvol=  7.5307571E+01 bohr^3
 Angles (23,13,12)=  6.00000000E+01  6.00000000E+01  6.00000000E+01 degrees
 Now the whole DDB is in central memory
- Cannot find dielectric tensor and Born effective charges in DDB file: t44o_DS20_DDB
Values initialized with zeros
- Cannot find quadrupole tensor in DDB file: t44o_DS20_DDB
Values initialized with zeros
       Homogeneous q point set in the B.Z.
 Grid q points  :        8
  1)   0.00000000E+00  0.00000000E+00  0.00000000E+00
  2)   5.00000000E-01  0.00000000E+00  0.00000000E+00
  3)   0.00000000E+00  5.00000000E-01  0.00000000E+00
  4)   5.00000000E-01  5.00000000E-01  0.00000000E+00
  5)   0.00000000E+00  0.00000000E+00  5.00000000E-01
  6)   5.00000000E-01  0.00000000E+00  5.00000000E-01
  7)   0.00000000E+00  5.00000000E-01  5.00000000E-01
  8)   5.00000000E-01  5.00000000E-01  5.00000000E-01

 The interatomic forces have been obtained
 Average speed of sound partial sums:     0.5483362867E-02 (at units)
-                                   =          11.9959 [km/s]

 Debye frequency from partial sums:     0.5061172088E-02 (Ha)
-                                 =     0.3330091260E+02 (THz)
-Debye temperature from partial sums:     0.1598189845E+04 (K)

- Writing phonon DOS to file: t44o_DS1_PHDOS
- Writing phonon DOS to netcdf file: t44o_DS1_PHDOS.nc
qpoint: [ 0.0000E+00,  0.0000E+00,  0.0000E+00] is present in the DVDB file
 The list of irreducible perturbations for this q vector is:
    1)  idir= 1, ipert=   1, type=independent, found=Yes
    2)  idir= 2, ipert=   1, type=symmetric, found=No
    3)  idir= 3, ipert=   1, type=symmetric, found=No
    4)  idir= 1, ipert=   2, type=symmetric, found=No
    5)  idir= 2, ipert=   2, type=symmetric, found=No
    6)  idir= 3, ipert=   2, type=symmetric, found=No

qpoint: [ 5.0000E-01,  0.0000E+00,  0.0000E+00] is present in the DVDB file
 The list of irreducible perturbations for this q vector is:
    1)  idir= 1, ipert=   1, type=independent, found=Yes
    2)  idir= 2, ipert=   1, type=independent, found=Yes
    3)  idir= 3, ipert=   1, type=symmetric, found=No
    4)  idir= 1, ipert=   2, type=symmetric, found=No
    5)  idir= 2, ipert=   2, type=symmetric, found=No
    6)  idir= 3, ipert=   2, type=symmetric, found=No

qpoint: [ 5.0000E-01,  5.0000E-01,  0.0000E+00] is present in the DVDB file
 The list of irreducible perturbations for this q vector is:
    1)  idir= 1, ipert=   1, type=independent, found=Yes
    2)  idir= 2, ipert=   1, type=symmetric, found=No
    3)  idir= 3, ipert=   1, type=symmetric, found=No
    4)  idir= 1, ipert=   2, type=symmetric, found=No
    5)  idir= 2, ipert=   2, type=symmetric, found=No
    6)  idir= 3, ipert=   2, type=symmetric, found=No

All the independent perturbations are available

--- Pseudopotential description ------------------------------------------------
- pspini: atom type   1  psp file is /home/buildbot/bb/ABINIT/abiref_gnu_9.2_openmpi/mverstra_develop/tests/Psps_for_tests/6c.pspnc
- pspatm: opening atomic psp file    /home/buildbot/bb/ABINIT/abiref_gnu_9.2_openmpi/mverstra_develop/tests/Psps_for_tests/6c.pspnc
-  Troullier-Martins psp for element  C         Thu Oct 27 17:29:33 EDT 1994
-  6.00000   4.00000    940714                znucl, zion, pspdat
    1    1    1    1      2001   0.00000      pspcod,pspxc,lmax,lloc,mmax,r2well
    0  10.372  24.987    1   1.4850707        l,e99.0,e99.9,nproj,rcpsp
   0.00000000   0.00000000   0.00000000   0.00000000     rms, ekb1, ekb2, epsatm
    1  15.431  21.987    0   1.4850707        l,e99.0,e99.9,nproj,rcpsp
   0.00000000   0.00000000   0.00000000   0.00000000     rms, ekb1, ekb2, epsatm
    0.83985002509544    0.99012430797080    0.51184907750884   rchrg,fchrg,qchrg
  pspatm : epsatm=    0.92590353
         --- l  ekb(1:nproj) -->
             0    4.921466
 pspatm: atomic psp has been read  and splines computed

   1.48144565E+01                                ecore*ucvol(ha*bohr**3)
--------------------------------------------------------------------------------

 Number of bands in e-ph self-energy sum: 54
 From bsum_start: 1 to bsum_stop: 54
 Symsigma: 0 Timrev: 1
 Imaginary shift in the denominator (zcut): 0.100 [eV]
 Method for q-space integration:  Standard quadrature
 Both Real and Imaginary part of Sigma will be computed.
 Number of frequencies along the real axis: 101 , Step: 0.010 [eV]
 Number of frequency in generalized Eliashberg functions: 1749
 Number of temperatures: 6 From: 5.000000E+00 to 3.000000E+02 [K]
 Ab-initio q-mesh from DDB file: [2,2,2]
 Ab-initio q-mesh from DVDB file: [2,2,2]
 Q-mesh used for self-energy integration [ngqpt]: [2,2,2]
 Number of q-points in the IBZ: 3
 asr: 1 dipdip: 1 symdynmat: 1
 No special treatment of Frohlich divergence in gkq for q --> 0
 Number of k-points for self-energy corrections: 2
 List of K-points for self-energy corrections:
   1     1  [ 0.0000E+00,  0.0000E+00,  0.0000E+00]   1    8
   2     1  [ 5.0000E-01,  0.0000E+00,  0.0000E+00]   1    8
 === MPI parallelism ===
P Allocating and summing bands from my_bsum_start: 1 up to my_bsum_stop: 54
P Number of CPUs for parallelism over perturbations: 1
P Number of perturbations treated by this CPU: 6
P Number of CPUs for parallelism over q-points: 1
P Number of q-points in the IBZ treated by this proc: 3 of 3
P Number of CPUs for parallelism over bands: 1
P Number of CPUs for parallelism over spins: 1
P Number of CPUs for parallelism over k-points: 1
P Number of k-point in Sigma_nk treated by this proc: 2 of 2
 DVDB file contains all q-points in the IBZ --> Reading DFPT potentials from file.
================================================================================
Final results in eV.
Notations:
   eKS: Kohn-Sham energy. eQP: quasi-particle energy.
   eQP - eKS: Difference between the QP and the KS energy.
   SE1(eKS): Real part of the self-energy computed at the KS energy, SE2 for imaginary part.
   Z(eKS): Renormalization factor.
   FAN: Real part of the Fan term at eKS. DW: Debye-Waller term.
   DeKS: KS energy difference between this band and band-1, DeQP same meaning but for eQP.
   OTMS: On-the-mass-shell approximation with eQP ~= eKS + Sigma(omega=eKS)
   TAU(eKS): Lifetime in femtoseconds computed at the KS energy.
 
 
K-point: [ 0.0000E+00,  0.0000E+00,  0.0000E+00], T=    5.0 [K]
   B    eKS     eQP    eQP-eKS   SE1(eKS)  SE2(eKS)  Z(eKS)  FAN(eKS)   DW      DeKS     DeQP
   1  -8.789   -8.840   -0.051   -0.052   -0.001    0.994   -0.088    0.036    0.000    0.000
   2  12.800   13.050    0.250    0.652   -0.333    0.383    0.053    0.599   21.589   21.890
   3  12.800   13.050    0.250    0.652   -0.333    0.383    0.053    0.599    0.000    0.000
   4  12.800   13.050    0.249    0.651   -0.333    0.383    0.054    0.597    0.000   -0.000
   5  18.426   18.322   -0.104   -0.287   -0.316    0.364   -0.802    0.515    5.626    5.272
   6  18.426   18.322   -0.104   -0.287   -0.316    0.364   -0.802    0.515    0.000   -0.000
   7  18.426   18.322   -0.104   -0.286   -0.316    0.364   -0.801    0.515    0.000    0.000
   8  26.686   26.368   -0.318   -0.343   -0.008    0.928   -0.371    0.028    8.260    8.047
 
 KS gap:    5.626 (assuming bval:4 ==> bcond:5)
 QP gap:    5.272 (OTMS:    4.688)
 QP_gap - KS_gap:   -0.354 (OTMS:   -0.938)
 
============================================================================================
No more than 1 temperatures are written to the main output file.
Please use SIGEPH.nc file and AbiPy to analyze the results.

omega and Eliashberg function gf_{nk}(omega) for testing purposes:
For band:1
   0.003     0.000    -0.000     0.000
   0.003     0.000    -0.000     0.000
For band:2
   0.003     0.000    -0.000     0.000
   0.003     0.000    -0.000     0.000
For band:3
   0.003     0.000    -0.000     0.000
   0.003     0.000    -0.000     0.000
For band:4
   0.003     0.000    -0.000     0.000
   0.003     0.000    -0.000     0.000
For band:5
   0.003     0.000    -0.000     0.000
   0.003     0.000    -0.000     0.000



omega and Sigma_nk(omega, T=1) in eV for testing purposes:
For band:1
  -8.799    -0.051    -0.001
  -8.789    -0.052    -0.001
For band:2
  12.790     0.668    -0.364
  12.800     0.652    -0.333
For band:3
  12.790     0.668    -0.364
  12.800     0.652    -0.333
For band:4
  12.790     0.667    -0.364
  12.800     0.651    -0.333
For band:5
  18.416    -0.269    -0.295
  18.426    -0.287    -0.316


K-point: [ 5.0000E-01,  0.0000E+00,  0.0000E+00], T=    5.0 [K]
   B    eKS     eQP    eQP-eKS   SE1(eKS)  SE2(eKS)  Z(eKS)  FAN(eKS)   DW      DeKS     DeQP
   1  -2.827   -2.782    0.045    0.066   -0.115    0.677   -0.011    0.077    0.000    0.000
   2  -0.746   -0.714    0.032    0.050   -0.102    0.651   -0.195    0.245    2.081    2.068
   3   9.967   10.199    0.231    0.662   -0.476    0.350    0.162    0.500   10.714   10.913
   4   9.967   10.199    0.232    0.662   -0.476    0.350    0.163    0.500    0.000    0.000
   5  21.328   21.031   -0.296   -1.537   -1.029    0.193   -2.078    0.541   11.360   10.832
   6  21.328   21.031   -0.296   -1.537   -1.029    0.193   -2.078    0.541    0.000    0.000
   7  22.066   22.209    0.143    0.238   -0.079    0.602    0.178    0.060    0.738    1.178
   8  28.462   28.232   -0.230   -0.504   -0.275    0.456   -0.973    0.469    6.396    6.023
 
 KS gap:   11.360 (assuming bval:4 ==> bcond:5)
 QP gap:   10.832 (OTMS:    9.161)
 QP_gap - KS_gap:   -0.528 (OTMS:   -2.199)
 
============================================================================================

================================================================================
== DATASET  2 ==================================================================
-   nproc =    1

 mkfilename : getwfk/=0, take file _WFK from output of DATASET  20.

 mkfilename : getddb/=0, take file _DDB from output of DATASET  20.

 Exchange-correlation functional for the present dataset will be:
  LDA: new Teter (4/93) with spin-polarized option - ixc=1
 Citation for XC functional:
  S. Goedecker, M. Teter, J. Huetter, PRB 54, 1703 (1996)

- Reading GS states from WFK file: t44o_DS20_WFK
- Reading DDB from file: t44o_DS20_DDB
- Reading DVDB from file: t44o_DS20_DVDB



 Real(R)+Recip(G) space primitive vectors, cartesian coordinates (Bohr,Bohr^-1):
 R(1)=  0.0000000  3.3517340  3.3517340  G(1)= -0.1491765  0.1491765  0.1491765
 R(2)=  3.3517340  0.0000000  3.3517340  G(2)=  0.1491765 -0.1491765  0.1491765
 R(3)=  3.3517340  3.3517340  0.0000000  G(3)=  0.1491765  0.1491765 -0.1491765
 Unit cell volume ucvol=  7.5307571E+01 bohr^3
 Angles (23,13,12)=  6.00000000E+01  6.00000000E+01  6.00000000E+01 degrees
 Now the whole DDB is in central memory
- Cannot find dielectric tensor and Born effective charges in DDB file: t44o_DS20_DDB
Values initialized with zeros
- Cannot find quadrupole tensor in DDB file: t44o_DS20_DDB
Values initialized with zeros
       Homogeneous q point set in the B.Z.
 Grid q points  :        8
  1)   0.00000000E+00  0.00000000E+00  0.00000000E+00
  2)   5.00000000E-01  0.00000000E+00  0.00000000E+00
  3)   0.00000000E+00  5.00000000E-01  0.00000000E+00
  4)   5.00000000E-01  5.00000000E-01  0.00000000E+00
  5)   0.00000000E+00  0.00000000E+00  5.00000000E-01
  6)   5.00000000E-01  0.00000000E+00  5.00000000E-01
  7)   0.00000000E+00  5.00000000E-01  5.00000000E-01
  8)   5.00000000E-01  5.00000000E-01  5.00000000E-01

 The interatomic forces have been obtained
 Average speed of sound partial sums:     0.5483362867E-02 (at units)
-                                   =          11.9959 [km/s]

 Debye frequency from partial sums:     0.5061172088E-02 (Ha)
-                                 =     0.3330091260E+02 (THz)
-Debye temperature from partial sums:     0.1598189845E+04 (K)

- Writing phonon DOS to file: t44o_DS2_PHDOS
- Writing phonon DOS to netcdf file: t44o_DS2_PHDOS.nc
qpoint: [ 0.0000E+00,  0.0000E+00,  0.0000E+00] is present in the DVDB file
 The list of irreducible perturbations for this q vector is:
    1)  idir= 1, ipert=   1, type=independent, found=Yes
    2)  idir= 2, ipert=   1, type=symmetric, found=No
    3)  idir= 3, ipert=   1, type=symmetric, found=No
    4)  idir= 1, ipert=   2, type=symmetric, found=No
    5)  idir= 2, ipert=   2, type=symmetric, found=No
    6)  idir= 3, ipert=   2, type=symmetric, found=No

qpoint: [ 5.0000E-01,  0.0000E+00,  0.0000E+00] is present in the DVDB file
 The list of irreducible perturbations for this q vector is:
    1)  idir= 1, ipert=   1, type=independent, found=Yes
    2)  idir= 2, ipert=   1, type=independent, found=Yes
    3)  idir= 3, ipert=   1, type=symmetric, found=No
    4)  idir= 1, ipert=   2, type=symmetric, found=No
    5)  idir= 2, ipert=   2, type=symmetric, found=No
    6)  idir= 3, ipert=   2, type=symmetric, found=No

qpoint: [ 5.0000E-01,  5.0000E-01,  0.0000E+00] is present in the DVDB file
 The list of irreducible perturbations for this q vector is:
    1)  idir= 1, ipert=   1, type=independent, found=Yes
    2)  idir= 2, ipert=   1, type=symmetric, found=No
    3)  idir= 3, ipert=   1, type=symmetric, found=No
    4)  idir= 1, ipert=   2, type=symmetric, found=No
    5)  idir= 2, ipert=   2, type=symmetric, found=No
    6)  idir= 3, ipert=   2, type=symmetric, found=No

All the independent perturbations are available
--------------------------------------------------------------------------------

 Number of bands in e-ph self-energy sum: 54
 From bsum_start: 1 to bsum_stop: 54
 Symsigma: 1 Timrev: 1
 Imaginary shift in the denominator (zcut): 0.100 [eV]
 Method for q-space integration:  Standard quadrature
 Both Real and Imaginary part of Sigma will be computed.
 Number of frequencies along the real axis: 101 , Step: 0.010 [eV]
 Number of frequency in generalized Eliashberg functions: 1749
 Number of temperatures: 6 From: 5.000000E+00 to 3.000000E+02 [K]
 Ab-initio q-mesh from DDB file: [2,2,2]
 Ab-initio q-mesh from DVDB file: [2,2,2]
 Q-mesh used for self-energy integration [ngqpt]: [2,2,2]
 Number of q-points in the IBZ: 3
 asr: 1 dipdip: 1 symdynmat: 1
 No special treatment of Frohlich divergence in gkq for q --> 0
 Number of k-points for self-energy corrections: 2
 List of K-points for self-energy corrections:
   1     1  [ 0.0000E+00,  0.0000E+00,  0.0000E+00]   1    8
   2     1  [ 5.0000E-01,  0.0000E+00,  0.0000E+00]   1    8
 === MPI parallelism ===
P Allocating and summing bands from my_bsum_start: 1 up to my_bsum_stop: 54
P Number of CPUs for parallelism over perturbations: 1
P Number of perturbations treated by this CPU: 6
P Number of CPUs for parallelism over q-points: 1
P Number of q-points in the IBZ treated by this proc: 3 of 3
P Number of CPUs for parallelism over bands: 1
P Number of CPUs for parallelism over spins: 1
P Number of CPUs for parallelism over k-points: 1
P Number of k-point in Sigma_nk treated by this proc: 2 of 2
 DVDB file contains all q-points in the IBZ --> Reading DFPT potentials from file.
================================================================================
Final results in eV.
Notations:
   eKS: Kohn-Sham energy. eQP: quasi-particle energy.
   eQP - eKS: Difference between the QP and the KS energy.
   SE1(eKS): Real part of the self-energy computed at the KS energy, SE2 for imaginary part.
   Z(eKS): Renormalization factor.
   FAN: Real part of the Fan term at eKS. DW: Debye-Waller term.
   DeKS: KS energy difference between this band and band-1, DeQP same meaning but for eQP.
   OTMS: On-the-mass-shell approximation with eQP ~= eKS + Sigma(omega=eKS)
   TAU(eKS): Lifetime in femtoseconds computed at the KS energy.
 
 
K-point: [ 0.0000E+00,  0.0000E+00,  0.0000E+00], T=    5.0 [K]
   B    eKS     eQP    eQP-eKS   SE1(eKS)  SE2(eKS)  Z(eKS)  FAN(eKS)   DW      DeKS     DeQP
   1  -8.789   -8.840   -0.051   -0.052   -0.001    0.994   -0.088    0.036    0.000    0.000
   2  12.800   13.050    0.250    0.652   -0.333    0.383    0.053    0.598   21.589   21.890
   3  12.800   13.050    0.250    0.652   -0.333    0.383    0.053    0.598    0.000    0.000
   4  12.800   13.050    0.250    0.652   -0.333    0.383    0.053    0.598    0.000    0.000
   5  18.426   18.322   -0.104   -0.286   -0.316    0.364   -0.802    0.515    5.626    5.272
   6  18.426   18.322   -0.104   -0.286   -0.316    0.364   -0.802    0.515    0.000    0.000
   7  18.426   18.322   -0.104   -0.286   -0.316    0.364   -0.802    0.515    0.000    0.000
   8  26.686   26.368   -0.318   -0.343   -0.008    0.928   -0.371    0.028    8.260    8.047
 
 KS gap:    5.626 (assuming bval:4 ==> bcond:5)
 QP gap:    5.272 (OTMS:    4.688)
 QP_gap - KS_gap:   -0.354 (OTMS:   -0.938)
 
============================================================================================
No more than 1 temperatures are written to the main output file.
Please use SIGEPH.nc file and AbiPy to analyze the results.

omega and Eliashberg function gf_{nk}(omega) for testing purposes:
For band:1
   0.003     0.000    -0.000     0.000
   0.003     0.000    -0.000     0.000
For band:2
   0.003     0.000    -0.000     0.000
   0.003     0.000    -0.000     0.000
For band:3
   0.003     0.000    -0.000     0.000
   0.003     0.000    -0.000     0.000
For band:4
   0.003     0.000    -0.000     0.000
   0.003     0.000    -0.000     0.000
For band:5
   0.003     0.000    -0.000     0.000
   0.003     0.000    -0.000     0.000



omega and Sigma_nk(omega, T=1) in eV for testing purposes:
For band:1
  -8.799    -0.051    -0.001
  -8.789    -0.052    -0.001
For band:2
  12.790     0.668    -0.364
  12.800     0.652    -0.333
For band:3
  12.790     0.668    -0.364
  12.800     0.652    -0.333
For band:4
  12.790     0.668    -0.364
  12.800     0.652    -0.333
For band:5
  18.416    -0.269    -0.295
  18.426    -0.286    -0.316


K-point: [ 5.0000E-01,  0.0000E+00,  0.0000E+00], T=    5.0 [K]
   B    eKS     eQP    eQP-eKS   SE1(eKS)  SE2(eKS)  Z(eKS)  FAN(eKS)   DW      DeKS     DeQP
   1  -2.827   -2.782    0.045    0.066   -0.115    0.677   -0.011    0.077    0.000    0.000
   2  -0.746   -0.714    0.032    0.050   -0.102    0.651   -0.195    0.245    2.081    2.069
   3   9.967   10.199    0.232    0.662   -0.476    0.350    0.163    0.500   10.714   10.913
   4   9.967   10.199    0.232    0.662   -0.476    0.350    0.163    0.500    0.000    0.000
   5  21.328   21.031   -0.296   -1.537   -1.029    0.193   -2.078    0.541   11.360   10.832
   6  21.328   21.031   -0.296   -1.537   -1.029    0.193   -2.078    0.541    0.000    0.000
   7  22.066   22.209    0.143    0.238   -0.079    0.602    0.178    0.059    0.738    1.177
   8  28.462   28.232   -0.230   -0.504   -0.275    0.456   -0.973    0.469    6.396    6.024
 
 KS gap:   11.360 (assuming bval:4 ==> bcond:5)
 QP gap:   10.832 (OTMS:    9.161)
 QP_gap - KS_gap:   -0.528 (OTMS:   -2.199)
 
============================================================================================

================================================================================
== DATASET  3 ==================================================================
-   nproc =    1

 mkfilename : getwfk/=0, take file _WFK from output of DATASET  20.

 mkfilename : getddb/=0, take file _DDB from output of DATASET  20.

 Exchange-correlation functional for the present dataset will be:
  LDA: new Teter (4/93) with spin-polarized option - ixc=1
 Citation for XC functional:
  S. Goedecker, M. Teter, J. Huetter, PRB 54, 1703 (1996)

- Reading DDB from file: t44o_DS20_DDB
- Reading DVDB from file: t44o_DS20_DVDB



 Real(R)+Recip(G) space primitive vectors, cartesian coordinates (Bohr,Bohr^-1):
 R(1)=  0.0000000  3.3517340  3.3517340  G(1)= -0.1491765  0.1491765  0.1491765
 R(2)=  3.3517340  0.0000000  3.3517340  G(2)=  0.1491765 -0.1491765  0.1491765
 R(3)=  3.3517340  3.3517340  0.0000000  G(3)=  0.1491765  0.1491765 -0.1491765
 Unit cell volume ucvol=  7.5307571E+01 bohr^3
 Angles (23,13,12)=  6.00000000E+01  6.00000000E+01  6.00000000E+01 degrees
 Now the whole DDB is in central memory
- Cannot find dielectric tensor and Born effective charges in DDB file: t44o_DS20_DDB
Values initialized with zeros
- Cannot find quadrupole tensor in DDB file: t44o_DS20_DDB
Values initialized with zeros
       Homogeneous q point set in the B.Z.
 Grid q points  :        8
  1)   0.00000000E+00  0.00000000E+00  0.00000000E+00
  2)   5.00000000E-01  0.00000000E+00  0.00000000E+00
  3)   0.00000000E+00  5.00000000E-01  0.00000000E+00
  4)   5.00000000E-01  5.00000000E-01  0.00000000E+00
  5)   0.00000000E+00  0.00000000E+00  5.00000000E-01
  6)   5.00000000E-01  0.00000000E+00  5.00000000E-01
  7)   0.00000000E+00  5.00000000E-01  5.00000000E-01
  8)   5.00000000E-01  5.00000000E-01  5.00000000E-01

 The interatomic forces have been obtained
 Average speed of sound partial sums:     0.5483362867E-02 (at units)
-                                   =          11.9959 [km/s]

 Debye frequency from partial sums:     0.5061172088E-02 (Ha)
-                                 =     0.3330091260E+02 (THz)
-Debye temperature from partial sums:     0.1598189845E+04 (K)

- Writing phonon DOS to file: t44o_DS3_PHDOS
- Writing phonon DOS to netcdf file: t44o_DS3_PHDOS.nc
qpoint: [ 0.0000E+00,  0.0000E+00,  0.0000E+00] is present in the DVDB file
 The list of irreducible perturbations for this q vector is:
    1)  idir= 1, ipert=   1, type=independent, found=Yes
    2)  idir= 2, ipert=   1, type=symmetric, found=No
    3)  idir= 3, ipert=   1, type=symmetric, found=No
    4)  idir= 1, ipert=   2, type=symmetric, found=No
    5)  idir= 2, ipert=   2, type=symmetric, found=No
    6)  idir= 3, ipert=   2, type=symmetric, found=No

qpoint: [ 5.0000E-01,  0.0000E+00,  0.0000E+00] is present in the DVDB file
 The list of irreducible perturbations for this q vector is:
    1)  idir= 1, ipert=   1, type=independent, found=Yes
    2)  idir= 2, ipert=   1, type=independent, found=Yes
    3)  idir= 3, ipert=   1, type=symmetric, found=No
    4)  idir= 1, ipert=   2, type=symmetric, found=No
    5)  idir= 2, ipert=   2, type=symmetric, found=No
    6)  idir= 3, ipert=   2, type=symmetric, found=No

qpoint: [ 5.0000E-01,  5.0000E-01,  0.0000E+00] is present in the DVDB file
 The list of irreducible perturbations for this q vector is:
    1)  idir= 1, ipert=   1, type=independent, found=Yes
    2)  idir= 2, ipert=   1, type=symmetric, found=No
    3)  idir= 3, ipert=   1, type=symmetric, found=No
    4)  idir= 1, ipert=   2, type=symmetric, found=No
    5)  idir= 2, ipert=   2, type=symmetric, found=No
    6)  idir= 3, ipert=   2, type=symmetric, found=No

All the independent perturbations are available
--------------------------------------------------------------------------------

 Interpolation of the electron-phonon coupling potential

 From coarse q-mesh: [2,2,2] to: [4,4,4]
 Number of q-points found in input DVDB: 3
 Number of q-points requiring Fourier interpolation 5
Interpolation of the electron-phonon coupling potential completed


================================================================================
== DATASET  4 ==================================================================
-   nproc =    1

 mkfilename : getwfk/=0, take file _WFK from output of DATASET  20.

 mkfilename : getddb/=0, take file _DDB from output of DATASET  20.

 mkfilename : getdvdb/=0, take file _DVDB from output of DATASET   3.

 Exchange-correlation functional for the present dataset will be:
  LDA: new Teter (4/93) with spin-polarized option - ixc=1
 Citation for XC functional:
  S. Goedecker, M. Teter, J. Huetter, PRB 54, 1703 (1996)

- Reading GS states from WFK file: t44o_DS20_WFK
- Reading DDB from file: t44o_DS20_DDB
- Reading DVDB from file: t44o_DS3_DVDB



 Real(R)+Recip(G) space primitive vectors, cartesian coordinates (Bohr,Bohr^-1):
 R(1)=  0.0000000  3.3517340  3.3517340  G(1)= -0.1491765  0.1491765  0.1491765
 R(2)=  3.3517340  0.0000000  3.3517340  G(2)=  0.1491765 -0.1491765  0.1491765
 R(3)=  3.3517340  3.3517340  0.0000000  G(3)=  0.1491765  0.1491765 -0.1491765
 Unit cell volume ucvol=  7.5307571E+01 bohr^3
 Angles (23,13,12)=  6.00000000E+01  6.00000000E+01  6.00000000E+01 degrees
 Now the whole DDB is in central memory
- Cannot find dielectric tensor and Born effective charges in DDB file: t44o_DS20_DDB
Values initialized with zeros
- Cannot find quadrupole tensor in DDB file: t44o_DS20_DDB
Values initialized with zeros
       Homogeneous q point set in the B.Z.
 Grid q points  :        8
  1)   0.00000000E+00  0.00000000E+00  0.00000000E+00
  2)   5.00000000E-01  0.00000000E+00  0.00000000E+00
  3)   0.00000000E+00  5.00000000E-01  0.00000000E+00
  4)   5.00000000E-01  5.00000000E-01  0.00000000E+00
  5)   0.00000000E+00  0.00000000E+00  5.00000000E-01
  6)   5.00000000E-01  0.00000000E+00  5.00000000E-01
  7)   0.00000000E+00  5.00000000E-01  5.00000000E-01
  8)   5.00000000E-01  5.00000000E-01  5.00000000E-01

 The interatomic forces have been obtained
 Average speed of sound partial sums:     0.5483362867E-02 (at units)
-                                   =          11.9959 [km/s]

 Debye frequency from partial sums:     0.5061172088E-02 (Ha)
-                                 =     0.3330091260E+02 (THz)
-Debye temperature from partial sums:     0.1598189845E+04 (K)

- Writing phonon DOS to file: t44o_DS4_PHDOS
- Writing phonon DOS to netcdf file: t44o_DS4_PHDOS.nc
qpoint: [ 0.0000E+00,  0.0000E+00,  0.0000E+00] is present in the DVDB file
 The list of irreducible perturbations for this q vector is:
    1)  idir= 1, ipert=   1, type=independent, found=Yes
    2)  idir= 2, ipert=   1, type=symmetric, found=No
    3)  idir= 3, ipert=   1, type=symmetric, found=No
    4)  idir= 1, ipert=   2, type=symmetric, found=No
    5)  idir= 2, ipert=   2, type=symmetric, found=No
    6)  idir= 3, ipert=   2, type=symmetric, found=No

qpoint: [ 5.0000E-01,  0.0000E+00,  0.0000E+00] is present in the DVDB file
 The list of irreducible perturbations for this q vector is:
    1)  idir= 1, ipert=   1, type=independent, found=Yes
    2)  idir= 2, ipert=   1, type=independent, found=Yes
    3)  idir= 3, ipert=   1, type=symmetric, found=No
    4)  idir= 1, ipert=   2, type=symmetric, found=No
    5)  idir= 2, ipert=   2, type=symmetric, found=No
    6)  idir= 3, ipert=   2, type=symmetric, found=No

qpoint: [ 5.0000E-01,  5.0000E-01,  0.0000E+00] is present in the DVDB file
 The list of irreducible perturbations for this q vector is:
    1)  idir= 1, ipert=   1, type=independent, found=Yes
    2)  idir= 2, ipert=   1, type=symmetric, found=No
    3)  idir= 3, ipert=   1, type=symmetric, found=No
    4)  idir= 1, ipert=   2, type=symmetric, found=No
    5)  idir= 2, ipert=   2, type=symmetric, found=No
    6)  idir= 3, ipert=   2, type=symmetric, found=No

qpoint: [ 2.5000E-01,  0.0000E+00,  0.0000E+00] is present in the DVDB file
 The list of irreducible perturbations for this q vector is:
    1)  idir= 1, ipert=   1, type=independent, found=Yes
    2)  idir= 2, ipert=   1, type=independent, found=Yes
    3)  idir= 3, ipert=   1, type=symmetric, found=No
    4)  idir= 1, ipert=   2, type=symmetric, found=No
    5)  idir= 2, ipert=   2, type=symmetric, found=No
    6)  idir= 3, ipert=   2, type=symmetric, found=No

 More than 20 q-points with prtvol == 0. Only important messages will be printed...
qpoint: [ 2.5000E-01,  2.5000E-01,  0.0000E+00] is present in the DVDB file
 The list of irreducible perturbations for this q vector is:
    1)  idir= 1, ipert=   1, type=independent, found=Yes
    2)  idir= 2, ipert=   1, type=symmetric, found=No
    3)  idir= 3, ipert=   1, type=symmetric, found=No
    4)  idir= 1, ipert=   2, type=symmetric, found=No
    5)  idir= 2, ipert=   2, type=symmetric, found=No
    6)  idir= 3, ipert=   2, type=symmetric, found=No

All the independent perturbations are available
--------------------------------------------------------------------------------

 Number of bands in e-ph self-energy sum: 54
 From bsum_start: 1 to bsum_stop: 54
 Symsigma: 1 Timrev: 1
 Imaginary shift in the denominator (zcut): 0.100 [eV]
 Method for q-space integration:  Standard quadrature
 Both Real and Imaginary part of Sigma will be computed.
 Number of frequencies along the real axis: 101 , Step: 0.010 [eV]
 Number of frequency in generalized Eliashberg functions: 1749
 Number of temperatures: 6 From: 5.000000E+00 to 3.000000E+02 [K]
 Ab-initio q-mesh from DDB file: [2,2,2]
 Ab-initio q-mesh from DVDB file: [2,2,2]
 Q-mesh used for self-energy integration [ngqpt]: [4,4,4]
 Number of q-points in the IBZ: 8
 asr: 1 dipdip: 1 symdynmat: 1
 No special treatment of Frohlich divergence in gkq for q --> 0
 Number of k-points for self-energy corrections: 2
 List of K-points for self-energy corrections:
   1     1  [ 0.0000E+00,  0.0000E+00,  0.0000E+00]   1    8
   2     1  [ 5.0000E-01,  0.0000E+00,  0.0000E+00]   1    8
 === MPI parallelism ===
P Allocating and summing bands from my_bsum_start: 1 up to my_bsum_stop: 54
P Number of CPUs for parallelism over perturbations: 1
P Number of perturbations treated by this CPU: 6
P Number of CPUs for parallelism over q-points: 1
P Number of q-points in the IBZ treated by this proc: 8 of 8
P Number of CPUs for parallelism over bands: 1
P Number of CPUs for parallelism over spins: 1
P Number of CPUs for parallelism over k-points: 1
P Number of k-point in Sigma_nk treated by this proc: 2 of 2
 DVDB file contains all q-points in the IBZ --> Reading DFPT potentials from file.
================================================================================
Final results in eV.
Notations:
   eKS: Kohn-Sham energy. eQP: quasi-particle energy.
   eQP - eKS: Difference between the QP and the KS energy.
   SE1(eKS): Real part of the self-energy computed at the KS energy, SE2 for imaginary part.
   Z(eKS): Renormalization factor.
   FAN: Real part of the Fan term at eKS. DW: Debye-Waller term.
   DeKS: KS energy difference between this band and band-1, DeQP same meaning but for eQP.
   OTMS: On-the-mass-shell approximation with eQP ~= eKS + Sigma(omega=eKS)
   TAU(eKS): Lifetime in femtoseconds computed at the KS energy.
 
 
K-point: [ 0.0000E+00,  0.0000E+00,  0.0000E+00], T=    5.0 [K]
   B    eKS     eQP    eQP-eKS   SE1(eKS)  SE2(eKS)  Z(eKS)  FAN(eKS)   DW      DeKS     DeQP
   1  -8.789   -8.851   -0.062   -0.063   -0.001    0.987   -0.104    0.041    0.000    0.000
   2  12.800   12.932    0.132    0.165   -0.047    0.798   -0.509    0.674   21.589   21.783
   3  12.800   12.932    0.132    0.165   -0.047    0.798   -0.509    0.674    0.000    0.000
   4  12.800   12.932    0.132    0.165   -0.047    0.798   -0.509    0.674    0.000    0.000
   5  18.426   18.211   -0.215   -0.334   -0.074    0.644   -0.915    0.580    5.626    5.279
   6  18.426   18.211   -0.215   -0.334   -0.074    0.644   -0.915    0.580    0.000    0.000
   7  18.426   18.211   -0.215   -0.334   -0.074    0.644   -0.915    0.580    0.000    0.000
   8  26.686   26.869    0.183    0.505   -0.363    0.363    0.473    0.032    8.260    8.659
 
 KS gap:    5.626 (assuming bval:4 ==> bcond:5)
 QP gap:    5.279 (OTMS:    5.127)
 QP_gap - KS_gap:   -0.347 (OTMS:   -0.499)
 
============================================================================================
No more than 1 temperatures are written to the main output file.
Please use SIGEPH.nc file and AbiPy to analyze the results.

omega and Eliashberg function gf_{nk}(omega) for testing purposes:
For band:1
   0.003     0.000    -2.652     0.328
   0.003     0.000    -2.854     0.351
For band:2
   0.003     0.000    -4.974     5.400
   0.003     0.000    -5.320     5.779
For band:3
   0.003     0.000    -4.974     5.400
   0.003     0.000    -5.320     5.779
For band:4
   0.003     0.000    -4.974     5.400
   0.003     0.000    -5.320     5.779
For band:5
   0.003     0.004    -5.161     4.655
   0.003     0.003    -5.515     4.982



omega and Sigma_nk(omega, T=1) in eV for testing purposes:
For band:1
  -8.799    -0.063    -0.001
  -8.789    -0.063    -0.001
For band:2
  12.790     0.167    -0.051
  12.800     0.165    -0.047
For band:3
  12.790     0.167    -0.051
  12.800     0.165    -0.047
For band:4
  12.790     0.167    -0.051
  12.800     0.165    -0.047
For band:5
  18.416    -0.329    -0.071
  18.426    -0.334    -0.074


K-point: [ 5.0000E-01,  0.0000E+00,  0.0000E+00], T=    5.0 [K]
   B    eKS     eQP    eQP-eKS   SE1(eKS)  SE2(eKS)  Z(eKS)  FAN(eKS)   DW      DeKS     DeQP
   1  -2.827   -2.647    0.180   -0.198   -0.378   -0.906   -0.285    0.087    0.000    0.000
   2  -0.746   -0.735    0.012    0.013   -0.016    0.907   -0.263    0.275    2.081    1.913
   3   9.967   10.062    0.095    0.146   -0.095    0.647   -0.417    0.563   10.714   10.797
   4   9.967   10.062    0.095    0.146   -0.095    0.647   -0.417    0.563    0.000    0.000
   5  21.328   20.459   -0.868   -0.060   -0.486   14.561   -0.669    0.610   11.360   10.397
   6  21.328   20.459   -0.868   -0.060   -0.486   14.561   -0.669    0.610    0.000    0.000
   7  22.066   21.940   -0.125   -0.164   -0.033    0.761   -0.232    0.067    0.738    1.481
   8  28.462   28.540    0.078    0.102   -0.050    0.766   -0.427    0.529    6.396    6.599
 
 KS gap:   11.360 (assuming bval:4 ==> bcond:5)
 QP gap:   10.397 (OTMS:   11.154)
 QP_gap - KS_gap:   -0.963 (OTMS:   -0.206)
 
============================================================================================

================================================================================
== DATASET  5 ==================================================================
-   nproc =    1

 mkfilename : getwfk/=0, take file _WFK from output of DATASET  20.

 mkfilename : getddb/=0, take file _DDB from output of DATASET  20.

 mkfilename : getdvdb/=0, take file _DVDB from output of DATASET   3.

 Exchange-correlation functional for the present dataset will be:
  LDA: new Teter (4/93) with spin-polarized option - ixc=1
 Citation for XC functional:
  S. Goedecker, M. Teter, J. Huetter, PRB 54, 1703 (1996)

- Reading GS states from WFK file: t44o_DS20_WFK
- Reading DDB from file: t44o_DS20_DDB
- Reading DVDB from file: t44o_DS3_DVDB



 Real(R)+Recip(G) space primitive vectors, cartesian coordinates (Bohr,Bohr^-1):
 R(1)=  0.0000000  3.3517340  3.3517340  G(1)= -0.1491765  0.1491765  0.1491765
 R(2)=  3.3517340  0.0000000  3.3517340  G(2)=  0.1491765 -0.1491765  0.1491765
 R(3)=  3.3517340  3.3517340  0.0000000  G(3)=  0.1491765  0.1491765 -0.1491765
 Unit cell volume ucvol=  7.5307571E+01 bohr^3
 Angles (23,13,12)=  6.00000000E+01  6.00000000E+01  6.00000000E+01 degrees
 Now the whole DDB is in central memory
- Cannot find dielectric tensor and Born effective charges in DDB file: t44o_DS20_DDB
Values initialized with zeros
- Cannot find quadrupole tensor in DDB file: t44o_DS20_DDB
Values initialized with zeros
       Homogeneous q point set in the B.Z.
 Grid q points  :        8
  1)   0.00000000E+00  0.00000000E+00  0.00000000E+00
  2)   5.00000000E-01  0.00000000E+00  0.00000000E+00
  3)   0.00000000E+00  5.00000000E-01  0.00000000E+00
  4)   5.00000000E-01  5.00000000E-01  0.00000000E+00
  5)   0.00000000E+00  0.00000000E+00  5.00000000E-01
  6)   5.00000000E-01  0.00000000E+00  5.00000000E-01
  7)   0.00000000E+00  5.00000000E-01  5.00000000E-01
  8)   5.00000000E-01  5.00000000E-01  5.00000000E-01

 The interatomic forces have been obtained
 Average speed of sound partial sums:     0.5483362867E-02 (at units)
-                                   =          11.9959 [km/s]

 Debye frequency from partial sums:     0.5061172088E-02 (Ha)
-                                 =     0.3330091260E+02 (THz)
-Debye temperature from partial sums:     0.1598189845E+04 (K)

- Writing phonon DOS to file: t44o_DS5_PHDOS
- Writing phonon DOS to netcdf file: t44o_DS5_PHDOS.nc
qpoint: [ 0.0000E+00,  0.0000E+00,  0.0000E+00] is present in the DVDB file
 The list of irreducible perturbations for this q vector is:
    1)  idir= 1, ipert=   1, type=independent, found=Yes
    2)  idir= 2, ipert=   1, type=symmetric, found=No
    3)  idir= 3, ipert=   1, type=symmetric, found=No
    4)  idir= 1, ipert=   2, type=symmetric, found=No
    5)  idir= 2, ipert=   2, type=symmetric, found=No
    6)  idir= 3, ipert=   2, type=symmetric, found=No

qpoint: [ 5.0000E-01,  0.0000E+00,  0.0000E+00] is present in the DVDB file
 The list of irreducible perturbations for this q vector is:
    1)  idir= 1, ipert=   1, type=independent, found=Yes
    2)  idir= 2, ipert=   1, type=independent, found=Yes
    3)  idir= 3, ipert=   1, type=symmetric, found=No
    4)  idir= 1, ipert=   2, type=symmetric, found=No
    5)  idir= 2, ipert=   2, type=symmetric, found=No
    6)  idir= 3, ipert=   2, type=symmetric, found=No

qpoint: [ 5.0000E-01,  5.0000E-01,  0.0000E+00] is present in the DVDB file
 The list of irreducible perturbations for this q vector is:
    1)  idir= 1, ipert=   1, type=independent, found=Yes
    2)  idir= 2, ipert=   1, type=symmetric, found=No
    3)  idir= 3, ipert=   1, type=symmetric, found=No
    4)  idir= 1, ipert=   2, type=symmetric, found=No
    5)  idir= 2, ipert=   2, type=symmetric, found=No
    6)  idir= 3, ipert=   2, type=symmetric, found=No

qpoint: [ 2.5000E-01,  0.0000E+00,  0.0000E+00] is present in the DVDB file
 The list of irreducible perturbations for this q vector is:
    1)  idir= 1, ipert=   1, type=independent, found=Yes
    2)  idir= 2, ipert=   1, type=independent, found=Yes
    3)  idir= 3, ipert=   1, type=symmetric, found=No
    4)  idir= 1, ipert=   2, type=symmetric, found=No
    5)  idir= 2, ipert=   2, type=symmetric, found=No
    6)  idir= 3, ipert=   2, type=symmetric, found=No

 More than 20 q-points with prtvol == 0. Only important messages will be printed...
qpoint: [ 2.5000E-01,  2.5000E-01,  0.0000E+00] is present in the DVDB file
 The list of irreducible perturbations for this q vector is:
    1)  idir= 1, ipert=   1, type=independent, found=Yes
    2)  idir= 2, ipert=   1, type=symmetric, found=No
    3)  idir= 3, ipert=   1, type=symmetric, found=No
    4)  idir= 1, ipert=   2, type=symmetric, found=No
    5)  idir= 2, ipert=   2, type=symmetric, found=No
    6)  idir= 3, ipert=   2, type=symmetric, found=No

All the independent perturbations are available
--------------------------------------------------------------------------------

 Number of bands in e-ph self-energy sum: 54
 From bsum_start: 1 to bsum_stop: 54
 Symsigma: 1 Timrev: 1
 Imaginary shift in the denominator (zcut): 0.100 [eV]
 Method for q-space integration:  Tetrahedron method
 Tolerance for integration weights <     1.000000E-12     1.000000E-12
 Both Real and Imaginary part of Sigma will be computed.
 Number of frequencies along the real axis: 0 , Step: 0.000 [eV]
 Number of frequency in generalized Eliashberg functions: 1749
 Number of temperatures: 6 From: 5.000000E+00 to 3.000000E+02 [K]
 Ab-initio q-mesh from DDB file: [2,2,2]
 Ab-initio q-mesh from DVDB file: [2,2,2]
 Q-mesh used for self-energy integration [ngqpt]: [4,4,4]
 Number of q-points in the IBZ: 8
 asr: 1 dipdip: 1 symdynmat: 1
 No special treatment of Frohlich divergence in gkq for q --> 0
 Number of k-points for self-energy corrections: 2
 List of K-points for self-energy corrections:
   1     1  [ 0.0000E+00,  0.0000E+00,  0.0000E+00]   1    8
   2     1  [ 5.0000E-01,  0.0000E+00,  0.0000E+00]   1    8
 === MPI parallelism ===
P Allocating and summing bands from my_bsum_start: 1 up to my_bsum_stop: 54
P Number of CPUs for parallelism over perturbations: 1
P Number of perturbations treated by this CPU: 6
P Number of CPUs for parallelism over q-points: 1
P Number of q-points in the IBZ treated by this proc: 8 of 8
P Number of CPUs for parallelism over bands: 1
P Number of CPUs for parallelism over spins: 1
P Number of CPUs for parallelism over k-points: 1
P Number of k-point in Sigma_nk treated by this proc: 2 of 2
 DVDB file contains all q-points in the IBZ --> Reading DFPT potentials from file.
================================================================================
Final results in eV.
Notations:
   eKS: Kohn-Sham energy. eQP: quasi-particle energy.
   eQP - eKS: Difference between the QP and the KS energy.
   SE1(eKS): Real part of the self-energy computed at the KS energy, SE2 for imaginary part.
   Z(eKS): Renormalization factor.
   FAN: Real part of the Fan term at eKS. DW: Debye-Waller term.
   DeKS: KS energy difference between this band and band-1, DeQP same meaning but for eQP.
   OTMS: On-the-mass-shell approximation with eQP ~= eKS + Sigma(omega=eKS)
   TAU(eKS): Lifetime in femtoseconds computed at the KS energy.
 
 
K-point: [ 0.0000E+00,  0.0000E+00,  0.0000E+00], T=    5.0 [K]
   B    eKS     eQP    eQP-eKS   SE1(eKS)  SE2(eKS)  Z(eKS)  FAN(eKS)   DW      DeKS     DeQP
   1  -8.789   -8.847   -0.058   -0.059   -0.001    0.987   -0.100    0.041    0.000    0.000
   2  12.800   12.873    0.072    0.091   -0.005    0.798   -0.583    0.674   21.589   21.720
   3  12.800   12.873    0.072    0.091   -0.005    0.798   -0.583    0.674    0.000    0.000
   4  12.800   12.873    0.072    0.091   -0.005    0.798   -0.583    0.674    0.000    0.000
   5  18.426   18.198   -0.228   -0.354   -0.123    0.644   -0.934    0.580    5.626    5.325
   6  18.426   18.198   -0.228   -0.354   -0.123    0.644   -0.934    0.580    0.000    0.000
   7  18.426   18.198   -0.228   -0.354   -0.123    0.644   -0.934    0.580    0.000    0.000
   8  26.686   26.661   -0.026   -0.070   -0.519    0.363   -0.102    0.032    8.260    8.463
 
 KS gap:    5.626 (assuming bval:4 ==> bcond:5)
 QP gap:    5.325 (OTMS:    5.181)
 QP_gap - KS_gap:   -0.300 (OTMS:   -0.445)
 
============================================================================================
No more than 1 temperatures are written to the main output file.
Please use SIGEPH.nc file and AbiPy to analyze the results.

omega and Eliashberg function gf_{nk}(omega) for testing purposes:
For band:1
   0.003     0.000    -0.411     0.378
   0.003     0.000    -0.410     0.377
For band:2
   0.003     0.000    -6.075     6.233
   0.003     0.000    -6.051     6.209
For band:3
   0.003     0.000    -6.075     6.233
   0.003     0.000    -6.051     6.209
For band:4
   0.003     0.000    -6.075     6.233
   0.003     0.000    -6.051     6.209
For band:5
   0.003     0.082    -6.229     5.364
   0.003     0.082    -6.201     5.344


K-point: [ 5.0000E-01,  0.0000E+00,  0.0000E+00], T=    5.0 [K]
   B    eKS     eQP    eQP-eKS   SE1(eKS)  SE2(eKS)  Z(eKS)  FAN(eKS)   DW      DeKS     DeQP
   1  -2.827   -2.809    0.019   -0.020   -0.087   -0.906   -0.107    0.087    0.000    0.000
   2  -0.746   -0.709    0.037    0.041   -0.036    0.907   -0.235    0.275    2.081    2.100
   3   9.967   10.027    0.060    0.092   -0.108    0.647   -0.471    0.563   10.714   10.736
   4   9.967   10.027    0.060    0.092   -0.108    0.647   -0.471    0.563    0.000    0.000
   5  21.328   21.263   -0.064   -0.004   -0.213   14.561   -0.614    0.610   11.360   11.236
   6  21.328   21.263   -0.064   -0.004   -0.213   14.561   -0.614    0.610    0.000    0.000
   7  22.066   21.882   -0.183   -0.241   -0.166    0.761   -0.308    0.067    0.738    0.619
   8  28.462   28.623    0.161    0.210   -0.056    0.766   -0.319    0.529    6.396    6.740
 
 KS gap:   11.360 (assuming bval:4 ==> bcond:5)
 QP gap:   11.236 (OTMS:   11.263)
 QP_gap - KS_gap:   -0.124 (OTMS:   -0.097)
 
============================================================================================

================================================================================
== DATASET  6 ==================================================================
-   nproc =    1

 mkfilename : getwfk/=0, take file _WFK from output of DATASET  20.

 mkfilename : getddb/=0, take file _DDB from output of DATASET  20.

 mkfilename: getpot from: t41o_DS1_POT

 mkfilename: getdvdb from: t44o_DS20_DVDB

 Exchange-correlation functional for the present dataset will be:
  LDA: new Teter (4/93) with spin-polarized option - ixc=1
 Citation for XC functional:
  S. Goedecker, M. Teter, J. Huetter, PRB 54, 1703 (1996)

- Reading GS states from WFK file: t44o_DS20_WFK
- Reading DDB from file: t44o_DS20_DDB
- Reading DVDB from file: t44o_DS20_DVDB



 Real(R)+Recip(G) space primitive vectors, cartesian coordinates (Bohr,Bohr^-1):
 R(1)=  0.0000000  3.3517340  3.3517340  G(1)= -0.1491765  0.1491765  0.1491765
 R(2)=  3.3517340  0.0000000  3.3517340  G(2)=  0.1491765 -0.1491765  0.1491765
 R(3)=  3.3517340  3.3517340  0.0000000  G(3)=  0.1491765  0.1491765 -0.1491765
 Unit cell volume ucvol=  7.5307571E+01 bohr^3
 Angles (23,13,12)=  6.00000000E+01  6.00000000E+01  6.00000000E+01 degrees
 Now the whole DDB is in central memory
- Cannot find dielectric tensor and Born effective charges in DDB file: t44o_DS20_DDB
Values initialized with zeros
- Cannot find quadrupole tensor in DDB file: t44o_DS20_DDB
Values initialized with zeros
       Homogeneous q point set in the B.Z.
 Grid q points  :        8
  1)   0.00000000E+00  0.00000000E+00  0.00000000E+00
  2)   5.00000000E-01  0.00000000E+00  0.00000000E+00
  3)   0.00000000E+00  5.00000000E-01  0.00000000E+00
  4)   5.00000000E-01  5.00000000E-01  0.00000000E+00
  5)   0.00000000E+00  0.00000000E+00  5.00000000E-01
  6)   5.00000000E-01  0.00000000E+00  5.00000000E-01
  7)   0.00000000E+00  5.00000000E-01  5.00000000E-01
  8)   5.00000000E-01  5.00000000E-01  5.00000000E-01

 The interatomic forces have been obtained
 Average speed of sound partial sums:     0.5483362867E-02 (at units)
-                                   =          11.9959 [km/s]

 Debye frequency from partial sums:     0.5061172088E-02 (Ha)
-                                 =     0.3330091260E+02 (THz)
-Debye temperature from partial sums:     0.1598189845E+04 (K)

- Writing phonon DOS to file: t44o_DS6_PHDOS
- Writing phonon DOS to netcdf file: t44o_DS6_PHDOS.nc
qpoint: [ 0.0000E+00,  0.0000E+00,  0.0000E+00] is present in the DVDB file
 The list of irreducible perturbations for this q vector is:
    1)  idir= 1, ipert=   1, type=independent, found=Yes
    2)  idir= 2, ipert=   1, type=symmetric, found=No
    3)  idir= 3, ipert=   1, type=symmetric, found=No
    4)  idir= 1, ipert=   2, type=symmetric, found=No
    5)  idir= 2, ipert=   2, type=symmetric, found=No
    6)  idir= 3, ipert=   2, type=symmetric, found=No

qpoint: [ 5.0000E-01,  0.0000E+00,  0.0000E+00] is present in the DVDB file
 The list of irreducible perturbations for this q vector is:
    1)  idir= 1, ipert=   1, type=independent, found=Yes
    2)  idir= 2, ipert=   1, type=independent, found=Yes
    3)  idir= 3, ipert=   1, type=symmetric, found=No
    4)  idir= 1, ipert=   2, type=symmetric, found=No
    5)  idir= 2, ipert=   2, type=symmetric, found=No
    6)  idir= 3, ipert=   2, type=symmetric, found=No

qpoint: [ 5.0000E-01,  5.0000E-01,  0.0000E+00] is present in the DVDB file
 The list of irreducible perturbations for this q vector is:
    1)  idir= 1, ipert=   1, type=independent, found=Yes
    2)  idir= 2, ipert=   1, type=symmetric, found=No
    3)  idir= 3, ipert=   1, type=symmetric, found=No
    4)  idir= 1, ipert=   2, type=symmetric, found=No
    5)  idir= 2, ipert=   2, type=symmetric, found=No
    6)  idir= 3, ipert=   2, type=symmetric, found=No

All the independent perturbations are available
--------------------------------------------------------------------------------

 Number of bands in e-ph self-energy sum: 54
 From bsum_start: 1 to bsum_stop: 54
 Treating high-energy bands with Sternheimer and static self-energy.
 Tolwfr:    1.000000E-16, nline: 4
 Symsigma: 1 Timrev: 1
 Imaginary shift in the denominator (zcut): 0.100 [eV]
 Method for q-space integration:  Tetrahedron method
 Tolerance for integration weights <     1.000000E-12     1.000000E-12
 Both Real and Imaginary part of Sigma will be computed.
 Number of frequencies along the real axis: 0 , Step: 0.000 [eV]
 Number of frequency in generalized Eliashberg functions: 1749
 Number of temperatures: 6 From: 5.000000E+00 to 3.000000E+02 [K]
 Ab-initio q-mesh from DDB file: [2,2,2]
 Ab-initio q-mesh from DVDB file: [2,2,2]
 Q-mesh used for self-energy integration [ngqpt]: [4,4,4]
 Number of q-points in the IBZ: 8
 asr: 1 dipdip: 1 symdynmat: 1
 No special treatment of Frohlich divergence in gkq for q --> 0
 Number of k-points for self-energy corrections: 2
 List of K-points for self-energy corrections:
   1     1  [ 0.0000E+00,  0.0000E+00,  0.0000E+00]   1    8
   2     1  [ 5.0000E-01,  0.0000E+00,  0.0000E+00]   1    8
 === MPI parallelism ===
P Allocating and summing bands from my_bsum_start: 1 up to my_bsum_stop: 54
P Number of CPUs for parallelism over perturbations: 1
P Number of perturbations treated by this CPU: 6
P Number of CPUs for parallelism over q-points: 1
P Number of q-points in the IBZ treated by this proc: 8 of 8
P Number of CPUs for parallelism over bands: 1
P Number of CPUs for parallelism over spins: 1
P Number of CPUs for parallelism over k-points: 1
P Number of k-point in Sigma_nk treated by this proc: 2 of 2
 Reading GS KS potential for Sternheimer from: t41o_DS1_POT
 Cannot find eph_ngqpt_fine q-points in DVDB --> Activating Fourier interpolation.
================================================================================
Final results in eV.
Notations:
   eKS: Kohn-Sham energy. eQP: quasi-particle energy.
   eQP - eKS: Difference between the QP and the KS energy.
   SE1(eKS): Real part of the self-energy computed at the KS energy, SE2 for imaginary part.
   Z(eKS): Renormalization factor.
   FAN: Real part of the Fan term at eKS. DW: Debye-Waller term.
   DeKS: KS energy difference between this band and band-1, DeQP same meaning but for eQP.
   OTMS: On-the-mass-shell approximation with eQP ~= eKS + Sigma(omega=eKS)
   TAU(eKS): Lifetime in femtoseconds computed at the KS energy.
 
 
K-point: [ 0.0000E+00,  0.0000E+00,  0.0000E+00], T=    5.0 [K]
   B    eKS     eQP    eQP-eKS   SE1(eKS)  SE2(eKS)  Z(eKS)  FAN(eKS)   DW      DeKS     DeQP
   1  -8.789   -8.843   -0.054   -0.055   -0.001    0.988   -0.115    0.060    0.000    0.000
   2  12.800   12.889    0.089    0.111   -0.005    0.798   -0.959    1.070   21.589   21.732
   3  12.800   12.889    0.089    0.111   -0.005    0.798   -0.959    1.070    0.000    0.000
   4  12.800   12.889    0.089    0.111   -0.005    0.798   -0.959    1.070    0.000    0.000
   5  18.426   18.223   -0.203   -0.316   -0.123    0.643   -1.263    0.947    5.626    5.334
   6  18.426   18.223   -0.203   -0.316   -0.123    0.643   -1.263    0.947    0.000    0.000
   7  18.426   18.223   -0.203   -0.316   -0.123    0.643   -1.263    0.947    0.000    0.000
   8  26.686   26.657   -0.030   -0.084   -0.537    0.355   -0.177    0.093    8.260    8.434
 
 KS gap:    5.626 (assuming bval:4 ==> bcond:5)
 QP gap:    5.334 (OTMS:    5.198)
 QP_gap - KS_gap:   -0.292 (OTMS:   -0.427)
 
============================================================================================
No more than 1 temperatures are written to the main output file.
Please use SIGEPH.nc file and AbiPy to analyze the results.

omega and Eliashberg function gf_{nk}(omega) for testing purposes:
For band:1
   0.003     0.000    -0.405     0.378
   0.003     0.000    -0.405     0.377
For band:2
   0.003     0.000    -6.085     6.233
   0.003     0.000    -6.060     6.209
For band:3
   0.003     0.000    -6.085     6.233
   0.003     0.000    -6.060     6.209
For band:4
   0.003     0.000    -6.085     6.233
   0.003     0.000    -6.060     6.209
For band:5
   0.003     0.082    -6.223     5.364
   0.003     0.081    -6.195     5.344


K-point: [ 5.0000E-01,  0.0000E+00,  0.0000E+00], T=    5.0 [K]
   B    eKS     eQP    eQP-eKS   SE1(eKS)  SE2(eKS)  Z(eKS)  FAN(eKS)   DW      DeKS     DeQP
   1  -2.827   -2.813    0.014   -0.015   -0.084   -0.933   -0.154    0.138    0.000    0.000
   2  -0.746   -0.736    0.010    0.011   -0.035    0.907   -0.375    0.385    2.081    2.077
   3   9.967   10.066    0.099    0.153   -0.107    0.646   -0.808    0.961   10.714   10.803
   4   9.967   10.066    0.099    0.153   -0.107    0.646   -0.808    0.961    0.000    0.000
   5  21.328   20.649   -0.678   -0.049   -0.213   13.862   -0.923    0.874   11.360   10.583
   6  21.328   20.649   -0.678   -0.049   -0.213   13.862   -0.923    0.874    0.000    0.000
   7  22.066   21.869   -0.196   -0.257   -0.165    0.763   -0.367    0.110    0.738    1.220
   8  28.462   28.683    0.222    0.289   -0.057    0.765   -0.645    0.934    6.396    6.814
 
 KS gap:   11.360 (assuming bval:4 ==> bcond:5)
 QP gap:   10.583 (OTMS:   11.158)
 QP_gap - KS_gap:   -0.777 (OTMS:   -0.202)
 
============================================================================================

== END DATASET(S) ==============================================================
================================================================================
  
 -outvars: echo values of variables after computation  --------
            acell      6.7034680500E+00  6.7034680500E+00  6.7034680500E+00 Bohr
              amu      1.20110000E+01
             bdgw           1       8       1       8
             ecut      2.00000000E+01 Hartree
           ecutsm      5.00000000E-01 Hartree
      eph_intmeth1          1
      eph_intmeth2          1
      eph_intmeth3          2
      eph_intmeth4          1
      eph_intmeth5          2
      eph_intmeth6          2
         eph_task1          4
         eph_task2          4
         eph_task3          5
         eph_task4          4
         eph_task5          4
         eph_task6          4
   eph_ngqpt_fine1       0    0    0
   eph_ngqpt_fine2       0    0    0
   eph_ngqpt_fine3       4    4    4
   eph_ngqpt_fine4       4    4    4
   eph_ngqpt_fine5       4    4    4
   eph_ngqpt_fine6       4    4    4
        eph_stern1          0
        eph_stern2          0
        eph_stern3          0
        eph_stern4          0
        eph_stern5          0
        eph_stern6          1
         ph_wstep      3.67493254E-06 Hartree
         ph_smear      3.67493254E-05 Hartree
        ddb_ngqpt        2    2    2
       dvdb_ngqpt        2    2    2
   dvdb_qcache_mb1    -1.00000000E+00
   dvdb_qcache_mb2     0.00000000E+00
   dvdb_qcache_mb3     1.02400000E+03
   dvdb_qcache_mb4     1.02400000E+03
   dvdb_qcache_mb5     1.02400000E+03
   dvdb_qcache_mb6     1.02400000E+03
        ph_nqpath           3
         ph_ngqpt       16   16   16
           etotal1     0.0000000000E+00
           etotal2     0.0000000000E+00
           etotal3     0.0000000000E+00
           etotal4     0.0000000000E+00
           etotal5     0.0000000000E+00
           etotal6     0.0000000000E+00
            fcart1     0.0000000000E+00  0.0000000000E+00  0.0000000000E+00
                       0.0000000000E+00  0.0000000000E+00  0.0000000000E+00
            fcart2     0.0000000000E+00  0.0000000000E+00  0.0000000000E+00
                       0.0000000000E+00  0.0000000000E+00  0.0000000000E+00
            fcart3     0.0000000000E+00  0.0000000000E+00  0.0000000000E+00
                       0.0000000000E+00  0.0000000000E+00  0.0000000000E+00
            fcart4     0.0000000000E+00  0.0000000000E+00  0.0000000000E+00
                       0.0000000000E+00  0.0000000000E+00  0.0000000000E+00
            fcart5     0.0000000000E+00  0.0000000000E+00  0.0000000000E+00
                       0.0000000000E+00  0.0000000000E+00  0.0000000000E+00
            fcart6     0.0000000000E+00  0.0000000000E+00  0.0000000000E+00
                       0.0000000000E+00  0.0000000000E+00  0.0000000000E+00
-          fftalg         312
        freqspmax      3.67493254E-02 Hartree
        freqspmin     -3.67493254E-02 Hartree
           getddb          20
          getdvdb1          0
          getdvdb2          0
          getdvdb3          0
          getdvdb4         -1
          getdvdb5          3
          getdvdb6          0
           getwfk          20
           jdtset        1    2    3    4    5    6
            kptgw      0.00000000E+00  0.00000000E+00  0.00000000E+00
                       5.00000000E-01  0.00000000E+00  0.00000000E+00
         kptrlatt        4    0    0      0    4    0      0    0    4
          kptrlen      1.89602709E+01
          mixprec        1
P           mkmem           8
            natom           2
            nband          54
           ndtset           6
          nfreqsp1        100
          nfreqsp2        100
          nfreqsp3        100
          nfreqsp4        100
          nfreqsp5          0
          nfreqsp6          0
            ngfft          20      20      20
             nkpt           8
           nkptgw           2
             nsym          48
           ntypat           1
              occ      2.000000  2.000000  2.000000  2.000000  0.000000  0.000000
                       0.000000  0.000000  0.000000  0.000000  0.000000  0.000000
                       0.000000  0.000000  0.000000  0.000000  0.000000  0.000000
                       0.000000  0.000000  0.000000  0.000000  0.000000  0.000000
                       0.000000  0.000000  0.000000  0.000000  0.000000  0.000000
                       0.000000  0.000000  0.000000  0.000000  0.000000  0.000000
                       0.000000  0.000000  0.000000  0.000000  0.000000  0.000000
                       0.000000  0.000000  0.000000  0.000000  0.000000  0.000000
                       0.000000  0.000000  0.000000  0.000000  0.000000  0.000000
        optdriver           7
        prteliash           1
           prtvol           1
            rprim      0.0000000000E+00  5.0000000000E-01  5.0000000000E-01
                       5.0000000000E-01  0.0000000000E+00  5.0000000000E-01
                       5.0000000000E-01  5.0000000000E-01  0.0000000000E+00
          spgroup         227
           strten1     0.0000000000E+00  0.0000000000E+00  0.0000000000E+00
                       0.0000000000E+00  0.0000000000E+00  0.0000000000E+00
           strten2     0.0000000000E+00  0.0000000000E+00  0.0000000000E+00
                       0.0000000000E+00  0.0000000000E+00  0.0000000000E+00
           strten3     0.0000000000E+00  0.0000000000E+00  0.0000000000E+00
                       0.0000000000E+00  0.0000000000E+00  0.0000000000E+00
           strten4     0.0000000000E+00  0.0000000000E+00  0.0000000000E+00
                       0.0000000000E+00  0.0000000000E+00  0.0000000000E+00
           strten5     0.0000000000E+00  0.0000000000E+00  0.0000000000E+00
                       0.0000000000E+00  0.0000000000E+00  0.0000000000E+00
           strten6     0.0000000000E+00  0.0000000000E+00  0.0000000000E+00
                       0.0000000000E+00  0.0000000000E+00  0.0000000000E+00
           symrel      1  0  0   0  1  0   0  0  1      -1  0  0   0 -1  0   0  0 -1
                       0 -1  1   0 -1  0   1 -1  0       0  1 -1   0  1  0  -1  1  0
                      -1  0  0  -1  0  1  -1  1  0       1  0  0   1  0 -1   1 -1  0
                       0  1 -1   1  0 -1   0  0 -1       0 -1  1  -1  0  1   0  0  1
                      -1  0  0  -1  1  0  -1  0  1       1  0  0   1 -1  0   1  0 -1
                       0 -1  1   1 -1  0   0 -1  0       0  1 -1  -1  1  0   0  1  0
                       1  0  0   0  0  1   0  1  0      -1  0  0   0  0 -1   0 -1  0
                       0  1 -1   0  0 -1   1  0 -1       0 -1  1   0  0  1  -1  0  1
                      -1  0  1  -1  1  0  -1  0  0       1  0 -1   1 -1  0   1  0  0
                       0 -1  0   1 -1  0   0 -1  1       0  1  0  -1  1  0   0  1 -1
                       1  0 -1   0  0 -1   0  1 -1      -1  0  1   0  0  1   0 -1  1
                       0  1  0   0  0  1   1  0  0       0 -1  0   0  0 -1  -1  0  0
                       1  0 -1   0  1 -1   0  0 -1      -1  0  1   0 -1  1   0  0  1
                       0 -1  0   0 -1  1   1 -1  0       0  1  0   0  1 -1  -1  1  0
                      -1  0  1  -1  0  0  -1  1  0       1  0 -1   1  0  0   1 -1  0
                       0  1  0   1  0  0   0  0  1       0 -1  0  -1  0  0   0  0 -1
                       0  0 -1   0  1 -1   1  0 -1       0  0  1   0 -1  1  -1  0  1
                       1 -1  0   0 -1  1   0 -1  0      -1  1  0   0  1 -1   0  1  0
                       0  0  1   1  0  0   0  1  0       0  0 -1  -1  0  0   0 -1  0
                      -1  1  0  -1  0  0  -1  0  1       1 -1  0   1  0  0   1  0 -1
                       0  0  1   0  1  0   1  0  0       0  0 -1   0 -1  0  -1  0  0
                       1 -1  0   0 -1  0   0 -1  1      -1  1  0   0  1  0   0  1 -1
                       0  0 -1   1  0 -1   0  1 -1       0  0  1  -1  0  1   0 -1  1
                      -1  1  0  -1  0  1  -1  0  0       1 -1  0   1  0 -1   1  0  0
         symsigma1       0
         symsigma2       1
         symsigma3       1
         symsigma4       1
         symsigma5       1
         symsigma6       1
            tnons      0.0000000  0.0000000  0.0000000     0.2500000  0.2500000  0.2500000
                       0.0000000  0.0000000  0.0000000     0.2500000  0.2500000  0.2500000
                       0.0000000  0.0000000  0.0000000     0.2500000  0.2500000  0.2500000
                       0.0000000  0.0000000  0.0000000     0.2500000  0.2500000  0.2500000
                       0.0000000  0.0000000  0.0000000     0.2500000  0.2500000  0.2500000
                       0.0000000  0.0000000  0.0000000     0.2500000  0.2500000  0.2500000
                       0.0000000  0.0000000  0.0000000     0.2500000  0.2500000  0.2500000
                       0.0000000  0.0000000  0.0000000     0.2500000  0.2500000  0.2500000
                       0.0000000  0.0000000  0.0000000     0.2500000  0.2500000  0.2500000
                       0.0000000  0.0000000  0.0000000     0.2500000  0.2500000  0.2500000
                       0.0000000  0.0000000  0.0000000     0.2500000  0.2500000  0.2500000
                       0.0000000  0.0000000  0.0000000     0.2500000  0.2500000  0.2500000
                       0.0000000  0.0000000  0.0000000     0.2500000  0.2500000  0.2500000
                       0.0000000  0.0000000  0.0000000     0.2500000  0.2500000  0.2500000
                       0.0000000  0.0000000  0.0000000     0.2500000  0.2500000  0.2500000
                       0.0000000  0.0000000  0.0000000     0.2500000  0.2500000  0.2500000
                       0.0000000  0.0000000  0.0000000     0.2500000  0.2500000  0.2500000
                       0.0000000  0.0000000  0.0000000     0.2500000  0.2500000  0.2500000
                       0.0000000  0.0000000  0.0000000     0.2500000  0.2500000  0.2500000
                       0.0000000  0.0000000  0.0000000     0.2500000  0.2500000  0.2500000
                       0.0000000  0.0000000  0.0000000     0.2500000  0.2500000  0.2500000
                       0.0000000  0.0000000  0.0000000     0.2500000  0.2500000  0.2500000
                       0.0000000  0.0000000  0.0000000     0.2500000  0.2500000  0.2500000
                       0.0000000  0.0000000  0.0000000     0.2500000  0.2500000  0.2500000
           tolwfr      1.00000000E-16
            typat      1  1
           xangst      0.0000000000E+00  0.0000000000E+00  0.0000000000E+00
                       8.8683062764E-01  8.8683062764E-01  8.8683062764E-01
            xcart      0.0000000000E+00  0.0000000000E+00  0.0000000000E+00
                       1.6758670125E+00  1.6758670125E+00  1.6758670125E+00
             xred      0.0000000000E+00  0.0000000000E+00  0.0000000000E+00
                       2.5000000000E-01  2.5000000000E-01  2.5000000000E-01
            znucl        6.00000

================================================================================


- Timing analysis has been suppressed with timopt=0



================================================================================

 Suggested references for the acknowledgment of ABINIT usage.

 The users of ABINIT have little formal obligations with respect to the ABINIT group
 (those specified in the GNU General Public License, http://www.gnu.org/copyleft/gpl.txt).
 However, it is common practice in the scientific literature,
 to acknowledge the efforts of people that have made the research possible.
 In this spirit, please find below suggested citations of work written by ABINIT developers,
 corresponding to implementations inside of ABINIT that you have used in the present run.
 Note also that it will be of great value to readers of publications presenting these results,
 to read papers enabling them to understand the theoretical formalism and details
 of the ABINIT implementation.
 For information on why they are suggested, see also https://docs.abinit.org/theory/acknowledgments.
-
- [1] The Abinit project: Impact, environment and recent developments.
- Computer Phys. Comm. 248, 107042 (2020).
- X.Gonze, B. Amadon, G. Antonius, F.Arnardi, L.Baguet, J.-M.Beuken,
- J.Bieder, F.Bottin, J.Bouchet, E.Bousquet, N.Brouwer, F.Bruneval,
- G.Brunin, T.Cavignac, J.-B. Charraud, Wei Chen, M.Cote, S.Cottenier,
- J.Denier, G.Geneste, Ph.Ghosez, M.Giantomassi, Y.Gillet, O.Gingras,
- D.R.Hamann, G.Hautier, Xu He, N.Helbig, N.Holzwarth, Y.Jia, F.Jollet,
- W.Lafargue-Dit-Hauret, K.Lejaeghere, M.A.L.Marques, A.Martin, C.Martins,
- H.P.C. Miranda, F.Naccarato, K. Persson, G.Petretto, V.Planes, Y.Pouillon,
- S.Prokhorenko, F.Ricci, G.-M.Rignanese, A.H.Romero, M.M.Schmitt, M.Torrent,
- M.J.van Setten, B.Van Troeye, M.J.Verstraete, G.Zerah and J.W.Zwanzig
- Comment: the fifth generic paper describing the ABINIT project.
- Note that a version of this paper, that is not formatted for Computer Phys. Comm. 
- is available at https://www.abinit.org/sites/default/files/ABINIT20.pdf .
- The licence allows the authors to put it on the Web.
- DOI and bibtex: see https://docs.abinit.org/theory/bibliography/#gonze2020
-
- [2] Recent developments in the ABINIT software package.
- Computer Phys. Comm. 205, 106 (2016).
- X.Gonze, F.Jollet, F.Abreu Araujo, D.Adams, B.Amadon, T.Applencourt,
- C.Audouze, J.-M.Beuken, J.Bieder, A.Bokhanchuk, E.Bousquet, F.Bruneval
- D.Caliste, M.Cote, F.Dahm, F.Da Pieve, M.Delaveau, M.Di Gennaro,
- B.Dorado, C.Espejo, G.Geneste, L.Genovese, A.Gerossier, M.Giantomassi,
- Y.Gillet, D.R.Hamann, L.He, G.Jomard, J.Laflamme Janssen, S.Le Roux,
- A.Levitt, A.Lherbier, F.Liu, I.Lukacevic, A.Martin, C.Martins,
- M.J.T.Oliveira, S.Ponce, Y.Pouillon, T.Rangel, G.-M.Rignanese,
- A.H.Romero, B.Rousseau, O.Rubel, A.A.Shukri, M.Stankovski, M.Torrent,
- M.J.Van Setten, B.Van Troeye, M.J.Verstraete, D.Waroquier, J.Wiktor,
- B.Xu, A.Zhou, J.W.Zwanziger.
- Comment: the fourth generic paper describing the ABINIT project.
- Note that a version of this paper, that is not formatted for Computer Phys. Comm. 
- is available at https://www.abinit.org/sites/default/files/ABINIT16.pdf .
- The licence allows the authors to put it on the Web.
- DOI and bibtex: see https://docs.abinit.org/theory/bibliography/#gonze2016
-
- [3] ABINIT: First-principles approach of materials and nanosystem properties.
- Computer Phys. Comm. 180, 2582-2615 (2009).
- X. Gonze, B. Amadon, P.-M. Anglade, J.-M. Beuken, F. Bottin, P. Boulanger, F. Bruneval,
- D. Caliste, R. Caracas, M. Cote, T. Deutsch, L. Genovese, Ph. Ghosez, M. Giantomassi
- S. Goedecker, D.R. Hamann, P. Hermet, F. Jollet, G. Jomard, S. Leroux, M. Mancini, S. Mazevet,
- M.J.T. Oliveira, G. Onida, Y. Pouillon, T. Rangel, G.-M. Rignanese, D. Sangalli, R. Shaltaf,
- M. Torrent, M.J. Verstraete, G. Zerah, J.W. Zwanziger
- Comment: the third generic paper describing the ABINIT project.
- Note that a version of this paper, that is not formatted for Computer Phys. Comm. 
- is available at https://www.abinit.org/sites/default/files/ABINIT_CPC_v10.pdf .
- The licence allows the authors to put it on the Web.
- DOI and bibtex: see https://docs.abinit.org/theory/bibliography/#gonze2009
-
- And optionally:
-
- [4] A brief introduction to the ABINIT software package.
- Z. Kristallogr. 220, 558-562 (2005).
- X. Gonze, G.-M. Rignanese, M. Verstraete, J.-M. Beuken, Y. Pouillon, R. Caracas, F. Jollet,
- M. Torrent, G. Zerah, M. Mikami, Ph. Ghosez, M. Veithen, J.-Y. Raty, V. Olevano, F. Bruneval,
- L. Reining, R. Godby, G. Onida, D.R. Hamann, and D.C. Allan.
- Comment: the second generic paper describing the ABINIT project. Note that this paper
- should be cited especially if you are using the GW part of ABINIT, as several authors
- of this part are not in the list of authors of the first or third paper.
- The .pdf of the latter paper is available at https://www.abinit.org/sites/default/files/zfk_0505-06_558-562.pdf.
- Note that it should not redistributed (Copyright by Oldenburg Wissenschaftverlag,
- the licence allows the authors to put it on the Web).
- DOI and bibtex: see https://docs.abinit.org/theory/bibliography/#gonze2005
-
- Proc.   0 individual time (sec): cpu=         31.4  wall=         34.4

================================================================================

 Calculation completed.
.Delivered   8 WARNINGs and   6 COMMENTs to log file.
+Overall time at end (sec) : cpu=         28.7  wall=         28.7
