
 **** DERIVATIVE DATABASE ****    
+DDB, Version number    100401

 DDB for AlAs, Non-linear optical susceptibilities and first-order change of the dielectric tensor induced by an atomic displacement

    usepaw         0
     natom         2
      nkpt        16
    nsppol         1
      nsym        24
    ntypat         2
    occopt         1
     nband         4
     acell  0.10616530850000D+02  0.10616530850000D+02  0.10616530850000D+02
       amu  0.26981539000000D+02  0.74921590000000D+02
   dilatmx  0.10000000000000D+01
      ecut  0.30000000000000D+01
    ecutsm  0.00000000000000D+00
     intxc         0
      iscf         7
       ixc         3
       kpt -0.25000000000000D+00  0.50000000000000D+00  0.00000000000000D+00
            0.50000000000000D+00 -0.25000000000000D+00  0.00000000000000D+00
           -0.25000000000000D+00 -0.25000000000000D+00  0.25000000000000D+00
           -0.25000000000000D+00  0.00000000000000D+00  0.00000000000000D+00
           -0.25000000000000D+00  0.25000000000000D+00  0.25000000000000D+00
            0.50000000000000D+00  0.50000000000000D+00  0.25000000000000D+00
           -0.25000000000000D+00  0.50000000000000D+00  0.50000000000000D+00
            0.00000000000000D+00 -0.25000000000000D+00  0.00000000000000D+00
            0.25000000000000D+00 -0.25000000000000D+00  0.25000000000000D+00
            0.50000000000000D+00 -0.25000000000000D+00  0.50000000000000D+00
           -0.25000000000000D+00 -0.25000000000000D+00 -0.25000000000000D+00
            0.50000000000000D+00  0.00000000000000D+00  0.25000000000000D+00
           -0.25000000000000D+00  0.00000000000000D+00  0.50000000000000D+00
            0.00000000000000D+00  0.50000000000000D+00  0.25000000000000D+00
            0.00000000000000D+00 -0.25000000000000D+00  0.50000000000000D+00
            0.00000000000000D+00  0.00000000000000D+00  0.25000000000000D+00
    kptnrm  0.10000000000000D+01
     ngfft        12   12   12
    nspden         1
   nspinor         1
       occ  0.20000000000000D+01  0.20000000000000D+01  0.20000000000000D+01
            0.20000000000000D+01
     rprim  0.00000000000000D+00  0.50000000000000D+00  0.50000000000000D+00
            0.50000000000000D+00  0.00000000000000D+00  0.50000000000000D+00
            0.50000000000000D+00  0.50000000000000D+00  0.00000000000000D+00
  dfpt_sciss  0.00000000000000D+00
    spinat  0.00000000000000D+00  0.00000000000000D+00  0.00000000000000D+00
            0.00000000000000D+00  0.00000000000000D+00  0.00000000000000D+00
    symafm         1    1    1    1    1    1    1    1    1    1    1    1
                   1    1    1    1    1    1    1    1    1    1    1    1
    symrel         1    0    0    0    1    0    0    0    1
                   0   -1    1    0   -1    0    1   -1    0
                  -1    0    0   -1    0    1   -1    1    0
                   0    1   -1    1    0   -1    0    0   -1
                  -1    0    0   -1    1    0   -1    0    1
                   0   -1    1    1   -1    0    0   -1    0
                   1    0    0    0    0    1    0    1    0
                   0    1   -1    0    0   -1    1    0   -1
                  -1    0    1   -1    1    0   -1    0    0
                   0   -1    0    1   -1    0    0   -1    1
                   1    0   -1    0    0   -1    0    1   -1
                   0    1    0    0    0    1    1    0    0
                   1    0   -1    0    1   -1    0    0   -1
                   0   -1    0    0   -1    1    1   -1    0
                  -1    0    1   -1    0    0   -1    1    0
                   0    1    0    1    0    0    0    0    1
                   0    0   -1    0    1   -1    1    0   -1
                   1   -1    0    0   -1    1    0   -1    0
                   0    0    1    1    0    0    0    1    0
                  -1    1    0   -1    0    0   -1    0    1
                   0    0    1    0    1    0    1    0    0
                   1   -1    0    0   -1    0    0   -1    1
                   0    0   -1    1    0   -1    0    1   -1
                  -1    1    0   -1    0    1   -1    0    0
     tnons  0.00000000000000D+00  0.00000000000000D+00  0.00000000000000D+00
            0.00000000000000D+00  0.00000000000000D+00  0.00000000000000D+00
            0.00000000000000D+00  0.00000000000000D+00  0.00000000000000D+00
            0.00000000000000D+00  0.00000000000000D+00  0.00000000000000D+00
            0.00000000000000D+00  0.00000000000000D+00  0.00000000000000D+00
            0.00000000000000D+00  0.00000000000000D+00  0.00000000000000D+00
            0.00000000000000D+00  0.00000000000000D+00  0.00000000000000D+00
            0.00000000000000D+00  0.00000000000000D+00  0.00000000000000D+00
            0.00000000000000D+00  0.00000000000000D+00  0.00000000000000D+00
            0.00000000000000D+00  0.00000000000000D+00  0.00000000000000D+00
            0.00000000000000D+00  0.00000000000000D+00  0.00000000000000D+00
            0.00000000000000D+00  0.00000000000000D+00  0.00000000000000D+00
            0.00000000000000D+00  0.00000000000000D+00  0.00000000000000D+00
            0.00000000000000D+00  0.00000000000000D+00  0.00000000000000D+00
            0.00000000000000D+00  0.00000000000000D+00  0.00000000000000D+00
            0.00000000000000D+00  0.00000000000000D+00  0.00000000000000D+00
            0.00000000000000D+00  0.00000000000000D+00  0.00000000000000D+00
            0.00000000000000D+00  0.00000000000000D+00  0.00000000000000D+00
            0.00000000000000D+00  0.00000000000000D+00  0.00000000000000D+00
            0.00000000000000D+00  0.00000000000000D+00  0.00000000000000D+00
            0.00000000000000D+00  0.00000000000000D+00  0.00000000000000D+00
            0.00000000000000D+00  0.00000000000000D+00  0.00000000000000D+00
            0.00000000000000D+00  0.00000000000000D+00  0.00000000000000D+00
            0.00000000000000D+00  0.00000000000000D+00  0.00000000000000D+00
    tolwfr  0.10000000000000D+01
   tphysel  0.00000000000000D+00
    tsmear  0.10000000000000D-01
     typat         1    2
       wtk  0.62500000000000D-01  0.62500000000000D-01  0.62500000000000D-01
            0.62500000000000D-01  0.62500000000000D-01  0.62500000000000D-01
            0.62500000000000D-01  0.62500000000000D-01  0.62500000000000D-01
            0.62500000000000D-01  0.62500000000000D-01  0.62500000000000D-01
            0.62500000000000D-01  0.62500000000000D-01  0.62500000000000D-01
            0.62500000000000D-01
      xred  0.00000000000000D+00  0.00000000000000D+00  0.00000000000000D+00
            0.25000000000000D+00  0.25000000000000D+00  0.25000000000000D+00
     znucl  0.13000000000000D+02  0.33000000000000D+02
      zion  0.30000000000000D+01  0.50000000000000D+01
 
  Description of the potentials (KB energies)
  vrsio8 (for pseudopotentials)=100401
  usepaw =  0
  dimekb =  2       lmnmax=  2
  Atom type=    1   pspso=  0   nekb=   2
  iln lpsang iproj  ekb(:)
     1     0     1     2.5406576E+00  0.0000000E+00
     2     1     1     0.0000000E+00  1.3538152E+00
  Atom type=    2   pspso=  0   nekb=   1
  iln lpsang iproj  ekb(:)
     1     0     1     8.3875106E-01
 
 **** Database of total energy derivatives ****
 Number of data blocks=    2
  
 2nd derivatives (non-stat.)  - # elements :      81
 qpt  0.00000000E+00  0.00000000E+00  0.00000000E+00   1.0
   1   1   1   1  0.53511071493447D+01  0.00000000000000D+00
   2   1   1   1  0.26755535746723D+01  0.00000000000000D+00
   3   1   1   1  0.26755535746723D+01  0.00000000000000D+00
   1   2   1   1 -0.53510681572350D+01 -0.17080156918315D-16
   2   2   1   1 -0.26755340786175D+01 -0.19780784009090D-17
   3   2   1   1 -0.26755340786175D+01 -0.78453927778537D-17
   1   4   1   1 -0.74641516205641D+01  0.00000000000000D+00
   2   4   1   1  0.82325941585048D-17  0.00000000000000D+00
   3   4   1   1 -0.12669309580659D-16  0.00000000000000D+00
   1   1   2   1  0.26755535746723D+01  0.00000000000000D+00
   2   1   2   1  0.53511071493447D+01  0.00000000000000D+00
   3   1   2   1  0.26755535746723D+01  0.00000000000000D+00
   1   2   2   1 -0.26755340786175D+01 -0.19780784009090D-17
   2   2   2   1 -0.53510681572350D+01 -0.80990597890582D-17
   3   2   2   1 -0.26755340786175D+01 -0.33550507748332D-17
   1   4   2   1 -0.37007434154172D-16  0.00000000000000D+00
   2   4   2   1 -0.74641516205641D+01  0.00000000000000D+00
   3   4   2   1  0.13590970538750D-16  0.00000000000000D+00
   1   1   3   1  0.26755535746723D+01  0.00000000000000D+00
   2   1   3   1  0.26755535746723D+01  0.00000000000000D+00
   3   1   3   1  0.53511071493447D+01  0.00000000000000D+00
   1   2   3   1 -0.26755340786175D+01 -0.78453927778537D-17
   2   2   3   1 -0.26755340786175D+01 -0.33550507748332D-17
   3   2   3   1 -0.53510681572350D+01  0.77539622032582D-18
   1   4   3   1  0.00000000000000D+00  0.00000000000000D+00
   2   4   3   1  0.22794997720264D-17  0.00000000000000D+00
   3   4   3   1 -0.74641516205641D+01  0.00000000000000D+00
   1   1   1   2 -0.53510688788901D+01  0.17080156918315D-16
   2   1   1   2 -0.26755344394450D+01  0.19780784009090D-17
   3   1   1   2 -0.26755344394450D+01  0.78453927778537D-17
   1   2   1   2  0.53511363685033D+01  0.00000000000000D+00
   2   2   1   2  0.26755681842516D+01  0.00000000000000D+00
   3   2   1   2  0.26755681842517D+01  0.00000000000000D+00
   1   4   1   2 -0.51781486702911D+02  0.00000000000000D+00
   2   4   1   2  0.12282653600340D-15  0.00000000000000D+00
   3   4   1   2 -0.34342042181630D-15  0.00000000000000D+00
   1   1   2   2 -0.26755344394450D+01  0.19780784009090D-17
   2   1   2   2 -0.53510688788901D+01  0.80990597890582D-17
   3   1   2   2 -0.26755344394450D+01  0.33550507748332D-17
   1   2   2   2  0.26755681842516D+01  0.00000000000000D+00
   2   2   2   2  0.53511363685032D+01  0.00000000000000D+00
   3   2   2   2  0.26755681842516D+01  0.00000000000000D+00
   1   4   2   2 -0.29605947323338D-15  0.00000000000000D+00
   2   4   2   2 -0.51781486702911D+02  0.00000000000000D+00
   3   4   2   2 -0.11831972201757D-15  0.00000000000000D+00
   1   1   3   2 -0.26755344394450D+01  0.78453927778537D-17
   2   1   3   2 -0.26755344394450D+01  0.33550507748332D-17
   3   1   3   2 -0.53510688788901D+01 -0.77539622032582D-18
   1   2   3   2  0.26755681842517D+01  0.00000000000000D+00
   2   2   3   2  0.26755681842516D+01  0.00000000000000D+00
   3   2   3   2  0.53511363685032D+01  0.00000000000000D+00
   1   4   3   2  0.29605947323338D-15  0.00000000000000D+00
   2   4   3   2  0.94552513358323D-16  0.00000000000000D+00
   3   4   3   2 -0.51781486702911D+02  0.00000000000000D+00
   1   1   1   4 -0.74641518390657D+01  0.00000000000000D+00
   2   1   1   4  0.37007434154172D-16  0.00000000000000D+00
   3   1   1   4  0.00000000000000D+00  0.00000000000000D+00
   1   2   1   4 -0.51781486742371D+02  0.00000000000000D+00
   2   2   1   4  0.00000000000000D+00  0.00000000000000D+00
   3   2   1   4  0.29605947323338D-15  0.00000000000000D+00
   1   4   1   4 -0.34789720976266D+03  0.00000000000000D+00
   2   4   1   4  0.11596573658755D+03  0.00000000000000D+00
   3   4   1   4  0.11596573658755D+03  0.00000000000000D+00
   1   1   2   4 -0.62042143961730D-17  0.00000000000000D+00
   2   1   2   4 -0.74641518390657D+01  0.00000000000000D+00
   3   1   2   4 -0.24204662251626D-16  0.00000000000000D+00
   1   2   2   4 -0.92081310864730D-16  0.00000000000000D+00
   2   2   2   4 -0.51781486742371D+02  0.00000000000000D+00
   3   2   2   4  0.85163656442946D-16  0.00000000000000D+00
   1   4   2   4  0.11596573658755D+03  0.00000000000000D+00
   2   4   2   4 -0.34789720976266D+03  0.00000000000000D+00
   3   4   2   4  0.11596573658755D+03  0.00000000000000D+00
   1   1   3   4  0.12290771104538D-16  0.00000000000000D+00
   2   1   3   4  0.27954547604726D-16  0.00000000000000D+00
   3   1   3   4 -0.74641518390657D+01  0.00000000000000D+00
   1   2   3   4 -0.43396090506245D-15  0.00000000000000D+00
   2   2   3   4  0.22646409341913D-15  0.00000000000000D+00
   3   2   3   4 -0.51781486742371D+02  0.00000000000000D+00
   1   4   3   4  0.11596573658755D+03  0.00000000000000D+00
   2   4   3   4  0.11596573658755D+03  0.00000000000000D+00
   3   4   3   4 -0.34789720976266D+03  0.00000000000000D+00
  
 3rd derivatives              - # elements :     189
 qpt  0.00000000E+00  0.00000000E+00  0.00000000E+00   1.0
      0.00000000E+00  0.00000000E+00  0.00000000E+00   1.0
      0.00000000E+00  0.00000000E+00  0.00000000E+00   1.0
   1   4   1   4   1   1 -0.33977071834011D+02  0.00000000000000D+00
   2   4   1   4   1   1  0.16988536177037D+02  0.00000000000000D+00
   3   4   1   4   1   1  0.16988536177037D+02  0.00000000000000D+00
   1   4   2   4   1   1  0.16988536198609D+02  0.00000000000000D+00
   2   4   2   4   1   1  0.00000000000000D+00  0.00000000000000D+00
   3   4   2   4   1   1  0.00000000000000D+00  0.00000000000000D+00
   1   4   3   4   1   1  0.16988536198609D+02  0.00000000000000D+00
   2   4   3   4   1   1  0.00000000000000D+00  0.00000000000000D+00
   3   4   3   4   1   1  0.00000000000000D+00  0.00000000000000D+00
   1   4   1   4   2   1  0.00000000000000D+00  0.00000000000000D+00
   2   4   1   4   2   1  0.16988535613831D+02  0.00000000000000D+00
   3   4   1   4   2   1  0.00000000000000D+00  0.00000000000000D+00
   1   4   2   4   2   1  0.16988536177037D+02  0.00000000000000D+00
   2   4   2   4   2   1 -0.33977071834011D+02  0.00000000000000D+00
   3   4   2   4   2   1  0.16988536177037D+02  0.00000000000000D+00
   1   4   3   4   2   1  0.00000000000000D+00  0.00000000000000D+00
   2   4   3   4   2   1  0.16988536198609D+02  0.00000000000000D+00
   3   4   3   4   2   1  0.00000000000000D+00  0.00000000000000D+00
   1   4   1   4   3   1  0.00000000000000D+00  0.00000000000000D+00
   2   4   1   4   3   1  0.00000000000000D+00  0.00000000000000D+00
   3   4   1   4   3   1  0.16988536198609D+02  0.00000000000000D+00
   1   4   2   4   3   1  0.00000000000000D+00  0.00000000000000D+00
   2   4   2   4   3   1  0.00000000000000D+00  0.00000000000000D+00
   3   4   2   4   3   1  0.16988535613831D+02  0.00000000000000D+00
   1   4   3   4   3   1  0.16988536177037D+02  0.00000000000000D+00
   2   4   3   4   3   1  0.16988536177037D+02  0.00000000000000D+00
   3   4   3   4   3   1 -0.33977071834011D+02  0.00000000000000D+00
   1   4   1   4   1   2  0.23206577619337D+02  0.00000000000000D+00
   2   4   1   4   1   2 -0.11603288773558D+02  0.00000000000000D+00
   3   4   1   4   1   2 -0.11603288773558D+02  0.00000000000000D+00
   1   4   2   4   1   2 -0.11603288745345D+02  0.00000000000000D+00
   2   4   2   4   1   2  0.00000000000000D+00  0.00000000000000D+00
   3   4   2   4   1   2  0.00000000000000D+00  0.00000000000000D+00
   1   4   3   4   1   2 -0.11603288745345D+02  0.00000000000000D+00
   2   4   3   4   1   2  0.00000000000000D+00  0.00000000000000D+00
   3   4   3   4   1   2  0.00000000000000D+00  0.00000000000000D+00
   1   4   1   4   2   2  0.00000000000000D+00  0.00000000000000D+00
   2   4   1   4   2   2 -0.11603288902206D+02  0.00000000000000D+00
   3   4   1   4   2   2  0.00000000000000D+00  0.00000000000000D+00
   1   4   2   4   2   2 -0.11603288773558D+02  0.00000000000000D+00
   2   4   2   4   2   2  0.23206577619337D+02  0.00000000000000D+00
   3   4   2   4   2   2 -0.11603288773558D+02  0.00000000000000D+00
   1   4   3   4   2   2  0.00000000000000D+00  0.00000000000000D+00
   2   4   3   4   2   2 -0.11603288745345D+02  0.00000000000000D+00
   3   4   3   4   2   2  0.00000000000000D+00  0.00000000000000D+00
   1   4   1   4   3   2  0.00000000000000D+00  0.00000000000000D+00
   2   4   1   4   3   2  0.00000000000000D+00  0.00000000000000D+00
   3   4   1   4   3   2 -0.11603288745345D+02  0.00000000000000D+00
   1   4   2   4   3   2  0.00000000000000D+00  0.00000000000000D+00
   2   4   2   4   3   2  0.00000000000000D+00  0.00000000000000D+00
   3   4   2   4   3   2 -0.11603288902206D+02  0.00000000000000D+00
   1   4   3   4   3   2 -0.11603288773558D+02  0.00000000000000D+00
   2   4   3   4   3   2 -0.11603288773558D+02  0.00000000000000D+00
   3   4   3   4   3   2  0.23206577619337D+02  0.00000000000000D+00
   1   4   1   1   1   4 -0.14893133446348D+03  0.00000000000000D+00
   2   4   1   1   1   4  0.74465666196362D+02  0.00000000000000D+00
   3   4   1   1   1   4  0.74465666196362D+02  0.00000000000000D+00
   1   4   2   1   1   4  0.00000000000000D+00  0.00000000000000D+00
   2   4   2   1   1   4  0.74465668267117D+02  0.00000000000000D+00
   3   4   2   1   1   4  0.00000000000000D+00  0.00000000000000D+00
   1   4   3   1   1   4  0.00000000000000D+00  0.00000000000000D+00
   2   4   3   1   1   4  0.00000000000000D+00  0.00000000000000D+00
   3   4   3   1   1   4  0.74465666196362D+02  0.00000000000000D+00
   1   4   1   2   1   4  0.16490575808366D+03  0.00000000000000D+00
   2   4   1   2   1   4 -0.82452879100805D+02  0.00000000000000D+00
   3   4   1   2   1   4 -0.82452879100805D+02  0.00000000000000D+00
   1   4   2   2   1   4  0.00000000000000D+00  0.00000000000000D+00
   2   4   2   2   1   4 -0.82452878982856D+02  0.00000000000000D+00
   3   4   2   2   1   4  0.00000000000000D+00  0.00000000000000D+00
   1   4   3   2   1   4  0.00000000000000D+00  0.00000000000000D+00
   2   4   3   2   1   4  0.00000000000000D+00  0.00000000000000D+00
   3   4   3   2   1   4 -0.82452879100805D+02  0.00000000000000D+00
   1   1   1   4   1   4 -0.33977071834011D+02  0.00000000000000D+00
   2   1   1   4   1   4  0.00000000000000D+00  0.00000000000000D+00
   3   1   1   4   1   4  0.00000000000000D+00  0.00000000000000D+00
   1   2   1   4   1   4  0.23206577619337D+02  0.00000000000000D+00
   2   2   1   4   1   4  0.00000000000000D+00  0.00000000000000D+00
   3   2   1   4   1   4  0.00000000000000D+00  0.00000000000000D+00
   1   4   1   4   1   4  0.33215286192373D+03  0.00000000000000D+00
   2   4   1   4   1   4 -0.11071762066354D+03  0.00000000000000D+00
   3   4   1   4   1   4 -0.11071762068802D+03  0.00000000000000D+00
   1   1   2   4   1   4  0.16988536198609D+02  0.00000000000000D+00
   2   1   2   4   1   4  0.16988535678545D+02  0.00000000000000D+00
   3   1   2   4   1   4  0.00000000000000D+00  0.00000000000000D+00
   1   2   2   4   1   4 -0.11603288745345D+02  0.00000000000000D+00
   2   2   2   4   1   4 -0.11603288817565D+02  0.00000000000000D+00
   3   2   2   4   1   4  0.00000000000000D+00  0.00000000000000D+00
   1   4   2   4   1   4 -0.11071762060185D+03  0.00000000000000D+00
   2   4   2   4   1   4 -0.11071762062633D+03  0.00000000000000D+00
   3   4   2   4   1   4  0.11071762062702D+03  0.00000000000000D+00
   1   1   3   4   1   4  0.16988536198609D+02  0.00000000000000D+00
   2   1   3   4   1   4  0.00000000000000D+00  0.00000000000000D+00
   3   1   3   4   1   4  0.16988536177037D+02  0.00000000000000D+00
   1   2   3   4   1   4 -0.11603288745345D+02  0.00000000000000D+00
   2   2   3   4   1   4  0.00000000000000D+00  0.00000000000000D+00
   3   2   3   4   1   4 -0.11603288773558D+02  0.00000000000000D+00
   1   4   3   4   1   4 -0.11071762060185D+03  0.00000000000000D+00
   2   4   3   4   1   4  0.11071762060116D+03  0.00000000000000D+00
   3   4   3   4   1   4 -0.11071762063385D+03  0.00000000000000D+00
   1   4   1   1   2   4  0.74465666196362D+02  0.00000000000000D+00
   2   4   1   1   2   4  0.00000000000000D+00  0.00000000000000D+00
   3   4   1   1   2   4  0.00000000000000D+00  0.00000000000000D+00
   1   4   2   1   2   4  0.74465666196362D+02  0.00000000000000D+00
   2   4   2   1   2   4 -0.14893133446348D+03  0.00000000000000D+00
   3   4   2   1   2   4  0.74465666196362D+02  0.00000000000000D+00
   1   4   3   1   2   4  0.00000000000000D+00  0.00000000000000D+00
   2   4   3   1   2   4  0.00000000000000D+00  0.00000000000000D+00
   3   4   3   1   2   4  0.74465668267117D+02  0.00000000000000D+00
   1   4   1   2   2   4 -0.82452879100805D+02  0.00000000000000D+00
   2   4   1   2   2   4  0.00000000000000D+00  0.00000000000000D+00
   3   4   1   2   2   4  0.00000000000000D+00  0.00000000000000D+00
   1   4   2   2   2   4 -0.82452879100805D+02  0.00000000000000D+00
   2   4   2   2   2   4  0.16490575808366D+03  0.00000000000000D+00
   3   4   2   2   2   4 -0.82452879100805D+02  0.00000000000000D+00
   1   4   3   2   2   4  0.00000000000000D+00  0.00000000000000D+00
   2   4   3   2   2   4  0.00000000000000D+00  0.00000000000000D+00
   3   4   3   2   2   4 -0.82452878982856D+02  0.00000000000000D+00
   1   1   1   4   2   4  0.16988536177037D+02  0.00000000000000D+00
   2   1   1   4   2   4  0.16988536198609D+02  0.00000000000000D+00
   3   1   1   4   2   4  0.00000000000000D+00  0.00000000000000D+00
   1   2   1   4   2   4 -0.11603288773558D+02  0.00000000000000D+00
   2   2   1   4   2   4 -0.11603288745345D+02  0.00000000000000D+00
   3   2   1   4   2   4  0.00000000000000D+00  0.00000000000000D+00
   1   4   1   4   2   4 -0.11071762066354D+03  0.00000000000000D+00
   2   4   1   4   2   4 -0.11071762072002D+03  0.00000000000000D+00
   3   4   1   4   2   4  0.11071762068871D+03  0.00000000000000D+00
   1   1   2   4   2   4  0.00000000000000D+00  0.00000000000000D+00
   2   1   2   4   2   4 -0.33977071834011D+02  0.00000000000000D+00
   3   1   2   4   2   4  0.00000000000000D+00  0.00000000000000D+00
   1   2   2   4   2   4  0.00000000000000D+00  0.00000000000000D+00
   2   2   2   4   2   4  0.23206577619337D+02  0.00000000000000D+00
   3   2   2   4   2   4  0.00000000000000D+00  0.00000000000000D+00
   1   4   2   4   2   4 -0.11071762062633D+03  0.00000000000000D+00
   2   4   2   4   2   4  0.33215286192373D+03  0.00000000000000D+00
   3   4   2   4   2   4 -0.11071762066354D+03  0.00000000000000D+00
   1   1   3   4   2   4  0.00000000000000D+00  0.00000000000000D+00
   2   1   3   4   2   4  0.16988536198609D+02  0.00000000000000D+00
   3   1   3   4   2   4  0.16988535678545D+02  0.00000000000000D+00
   1   2   3   4   2   4  0.00000000000000D+00  0.00000000000000D+00
   2   2   3   4   2   4 -0.11603288745345D+02  0.00000000000000D+00
   3   2   3   4   2   4 -0.11603288817565D+02  0.00000000000000D+00
   1   4   3   4   2   4  0.11071762060116D+03  0.00000000000000D+00
   2   4   3   4   2   4 -0.11071762060185D+03  0.00000000000000D+00
   3   4   3   4   2   4 -0.11071762062633D+03  0.00000000000000D+00
   1   4   1   1   3   4  0.74465666196362D+02  0.00000000000000D+00
   2   4   1   1   3   4  0.00000000000000D+00  0.00000000000000D+00
   3   4   1   1   3   4  0.00000000000000D+00  0.00000000000000D+00
   1   4   2   1   3   4  0.00000000000000D+00  0.00000000000000D+00
   2   4   2   1   3   4  0.74465666196362D+02  0.00000000000000D+00
   3   4   2   1   3   4  0.00000000000000D+00  0.00000000000000D+00
   1   4   3   1   3   4  0.74465666196362D+02  0.00000000000000D+00
   2   4   3   1   3   4  0.74465666196362D+02  0.00000000000000D+00
   3   4   3   1   3   4 -0.14893133446348D+03  0.00000000000000D+00
   1   4   1   2   3   4 -0.82452879100805D+02  0.00000000000000D+00
   2   4   1   2   3   4  0.00000000000000D+00  0.00000000000000D+00
   3   4   1   2   3   4  0.00000000000000D+00  0.00000000000000D+00
   1   4   2   2   3   4  0.00000000000000D+00  0.00000000000000D+00
   2   4   2   2   3   4 -0.82452879100805D+02  0.00000000000000D+00
   3   4   2   2   3   4  0.00000000000000D+00  0.00000000000000D+00
   1   4   3   2   3   4 -0.82452879100805D+02  0.00000000000000D+00
   2   4   3   2   3   4 -0.82452879100805D+02  0.00000000000000D+00
   3   4   3   2   3   4  0.16490575808366D+03  0.00000000000000D+00
   1   1   1   4   3   4  0.16988536177037D+02  0.00000000000000D+00
   2   1   1   4   3   4  0.00000000000000D+00  0.00000000000000D+00
   3   1   1   4   3   4  0.16988536198609D+02  0.00000000000000D+00
   1   2   1   4   3   4 -0.11603288773558D+02  0.00000000000000D+00
   2   2   1   4   3   4  0.00000000000000D+00  0.00000000000000D+00
   3   2   1   4   3   4 -0.11603288745345D+02  0.00000000000000D+00
   1   4   1   4   3   4 -0.11071762062633D+03  0.00000000000000D+00
   2   4   1   4   3   4  0.11071762068871D+03  0.00000000000000D+00
   3   4   1   4   3   4 -0.11071762060185D+03  0.00000000000000D+00
   1   1   2   4   3   4  0.00000000000000D+00  0.00000000000000D+00
   2   1   2   4   3   4  0.16988536177037D+02  0.00000000000000D+00
   3   1   2   4   3   4  0.16988536198609D+02  0.00000000000000D+00
   1   2   2   4   3   4  0.00000000000000D+00  0.00000000000000D+00
   2   2   2   4   3   4 -0.11603288773558D+02  0.00000000000000D+00
   3   2   2   4   3   4 -0.11603288745345D+02  0.00000000000000D+00
   1   4   2   4   3   4  0.11071762062702D+03  0.00000000000000D+00
   2   4   2   4   3   4 -0.11071762066354D+03  0.00000000000000D+00
   3   4   2   4   3   4 -0.11071762072002D+03  0.00000000000000D+00
   1   1   3   4   3   4  0.00000000000000D+00  0.00000000000000D+00
   2   1   3   4   3   4  0.00000000000000D+00  0.00000000000000D+00
   3   1   3   4   3   4 -0.33977071834011D+02  0.00000000000000D+00
   1   2   3   4   3   4  0.00000000000000D+00  0.00000000000000D+00
   2   2   3   4   3   4  0.00000000000000D+00  0.00000000000000D+00
   3   2   3   4   3   4  0.23206577619337D+02  0.00000000000000D+00
   1   4   3   4   3   4 -0.11071762066354D+03  0.00000000000000D+00
   2   4   3   4   3   4 -0.11071762062633D+03  0.00000000000000D+00
   3   4   3   4   3   4  0.33215286192373D+03  0.00000000000000D+00

 List of bloks and their characteristics 
  
 2nd derivatives (non-stat.)  - # elements :      81
 qpt  0.00000000E+00  0.00000000E+00  0.00000000E+00   1.0
  
 3rd derivatives              - # elements :     189
 qpt  0.00000000E+00  0.00000000E+00  0.00000000E+00   1.0
      0.00000000E+00  0.00000000E+00  0.00000000E+00   1.0
      0.00000000E+00  0.00000000E+00  0.00000000E+00   1.0
