
 **** DERIVATIVE DATABASE ****    
+DDB, Version number    100401

 DDB for AlAs, Non-linear optical susceptibilities and first-order change of the dielectric tensor induced by an atomic displacement

    usepaw         0
     natom         2
      nkpt        16
    nsppol         1
      nsym        24
    ntypat         2
    occopt         1
     nband         4
     acell  0.10616530850000D+02  0.10616530850000D+02  0.10616530850000D+02
       amu  0.26981539000000D+02  0.74921590000000D+02
   dilatmx  0.10000000000000D+01
      ecut  0.30000000000000D+01
    ecutsm  0.00000000000000D+00
     intxc         0
      iscf         7
       ixc         3
       kpt -0.25000000000000D+00  0.50000000000000D+00  0.00000000000000D+00
            0.50000000000000D+00 -0.25000000000000D+00  0.00000000000000D+00
           -0.25000000000000D+00 -0.25000000000000D+00  0.25000000000000D+00
           -0.25000000000000D+00  0.00000000000000D+00  0.00000000000000D+00
           -0.25000000000000D+00  0.25000000000000D+00  0.25000000000000D+00
            0.50000000000000D+00  0.50000000000000D+00  0.25000000000000D+00
           -0.25000000000000D+00  0.50000000000000D+00  0.50000000000000D+00
            0.00000000000000D+00 -0.25000000000000D+00  0.00000000000000D+00
            0.25000000000000D+00 -0.25000000000000D+00  0.25000000000000D+00
            0.50000000000000D+00 -0.25000000000000D+00  0.50000000000000D+00
           -0.25000000000000D+00 -0.25000000000000D+00 -0.25000000000000D+00
            0.50000000000000D+00  0.00000000000000D+00  0.25000000000000D+00
           -0.25000000000000D+00  0.00000000000000D+00  0.50000000000000D+00
            0.00000000000000D+00  0.50000000000000D+00  0.25000000000000D+00
            0.00000000000000D+00 -0.25000000000000D+00  0.50000000000000D+00
            0.00000000000000D+00  0.00000000000000D+00  0.25000000000000D+00
    kptnrm  0.10000000000000D+01
     ngfft        12   12   12
    nspden         1
   nspinor         1
       occ  0.20000000000000D+01  0.20000000000000D+01  0.20000000000000D+01
            0.20000000000000D+01
     rprim  0.00000000000000D+00  0.50000000000000D+00  0.50000000000000D+00
            0.50000000000000D+00  0.00000000000000D+00  0.50000000000000D+00
            0.50000000000000D+00  0.50000000000000D+00  0.00000000000000D+00
  dfpt_sciss  0.00000000000000D+00
    spinat  0.00000000000000D+00  0.00000000000000D+00  0.00000000000000D+00
            0.00000000000000D+00  0.00000000000000D+00  0.00000000000000D+00
    symafm         1    1    1    1    1    1    1    1    1    1    1    1
                   1    1    1    1    1    1    1    1    1    1    1    1
    symrel         1    0    0    0    1    0    0    0    1
                   0   -1    1    0   -1    0    1   -1    0
                  -1    0    0   -1    0    1   -1    1    0
                   0    1   -1    1    0   -1    0    0   -1
                  -1    0    0   -1    1    0   -1    0    1
                   0   -1    1    1   -1    0    0   -1    0
                   1    0    0    0    0    1    0    1    0
                   0    1   -1    0    0   -1    1    0   -1
                  -1    0    1   -1    1    0   -1    0    0
                   0   -1    0    1   -1    0    0   -1    1
                   1    0   -1    0    0   -1    0    1   -1
                   0    1    0    0    0    1    1    0    0
                   1    0   -1    0    1   -1    0    0   -1
                   0   -1    0    0   -1    1    1   -1    0
                  -1    0    1   -1    0    0   -1    1    0
                   0    1    0    1    0    0    0    0    1
                   0    0   -1    0    1   -1    1    0   -1
                   1   -1    0    0   -1    1    0   -1    0
                   0    0    1    1    0    0    0    1    0
                  -1    1    0   -1    0    0   -1    0    1
                   0    0    1    0    1    0    1    0    0
                   1   -1    0    0   -1    0    0   -1    1
                   0    0   -1    1    0   -1    0    1   -1
                  -1    1    0   -1    0    1   -1    0    0
     tnons  0.00000000000000D+00  0.00000000000000D+00  0.00000000000000D+00
            0.00000000000000D+00  0.00000000000000D+00  0.00000000000000D+00
            0.00000000000000D+00  0.00000000000000D+00  0.00000000000000D+00
            0.00000000000000D+00  0.00000000000000D+00  0.00000000000000D+00
            0.00000000000000D+00  0.00000000000000D+00  0.00000000000000D+00
            0.00000000000000D+00  0.00000000000000D+00  0.00000000000000D+00
            0.00000000000000D+00  0.00000000000000D+00  0.00000000000000D+00
            0.00000000000000D+00  0.00000000000000D+00  0.00000000000000D+00
            0.00000000000000D+00  0.00000000000000D+00  0.00000000000000D+00
            0.00000000000000D+00  0.00000000000000D+00  0.00000000000000D+00
            0.00000000000000D+00  0.00000000000000D+00  0.00000000000000D+00
            0.00000000000000D+00  0.00000000000000D+00  0.00000000000000D+00
            0.00000000000000D+00  0.00000000000000D+00  0.00000000000000D+00
            0.00000000000000D+00  0.00000000000000D+00  0.00000000000000D+00
            0.00000000000000D+00  0.00000000000000D+00  0.00000000000000D+00
            0.00000000000000D+00  0.00000000000000D+00  0.00000000000000D+00
            0.00000000000000D+00  0.00000000000000D+00  0.00000000000000D+00
            0.00000000000000D+00  0.00000000000000D+00  0.00000000000000D+00
            0.00000000000000D+00  0.00000000000000D+00  0.00000000000000D+00
            0.00000000000000D+00  0.00000000000000D+00  0.00000000000000D+00
            0.00000000000000D+00  0.00000000000000D+00  0.00000000000000D+00
            0.00000000000000D+00  0.00000000000000D+00  0.00000000000000D+00
            0.00000000000000D+00  0.00000000000000D+00  0.00000000000000D+00
            0.00000000000000D+00  0.00000000000000D+00  0.00000000000000D+00
    tolwfr  0.10000000000000D+01
   tphysel  0.00000000000000D+00
    tsmear  0.10000000000000D-01
     typat         1    2
       wtk  0.62500000000000D-01  0.62500000000000D-01  0.62500000000000D-01
            0.62500000000000D-01  0.62500000000000D-01  0.62500000000000D-01
            0.62500000000000D-01  0.62500000000000D-01  0.62500000000000D-01
            0.62500000000000D-01  0.62500000000000D-01  0.62500000000000D-01
            0.62500000000000D-01  0.62500000000000D-01  0.62500000000000D-01
            0.62500000000000D-01
      xred  0.00000000000000D+00  0.00000000000000D+00  0.00000000000000D+00
            0.25000000000000D+00  0.25000000000000D+00  0.25000000000000D+00
     znucl  0.13000000000000D+02  0.33000000000000D+02
      zion  0.30000000000000D+01  0.50000000000000D+01
 
  Description of the potentials (KB energies)
  vrsio8 (for pseudopotentials)=100401
  usepaw =  0
  dimekb =  2       lmnmax=  2
  Atom type=    1   pspso=  0   nekb=   2
  iln lpsang iproj  ekb(:)
     1     0     1     2.5406576E+00  0.0000000E+00
     2     1     1     0.0000000E+00  1.3538152E+00
  Atom type=    2   pspso=  0   nekb=   1
  iln lpsang iproj  ekb(:)
     1     0     1     8.3875106E-01
 
 **** Database of total energy derivatives ****
 Number of data blocks=    2
  
 2nd derivatives (non-stat.)  - # elements :      81
 qpt  0.00000000E+00  0.00000000E+00  0.00000000E+00   1.0
   1   1   1   1  0.53511071496470D+01  0.00000000000000D+00
   2   1   1   1  0.26755535748235D+01  0.00000000000000D+00
   3   1   1   1  0.26755535748235D+01  0.00000000000000D+00
   1   2   1   1 -0.53510681572613D+01 -0.16647943671676D-16
   2   2   1   1 -0.26755340786307D+01 -0.16163162084600D-17
   3   2   1   1 -0.26755340786307D+01 -0.74852317537542D-17
   1   4   1   1 -0.74641516209692D+01  0.00000000000000D+00
   2   4   1   1  0.23418680407765D-16  0.00000000000000D+00
   3   4   1   1  0.15104343119446D-16  0.00000000000000D+00
   1   1   2   1  0.26755535748235D+01  0.00000000000000D+00
   2   1   2   1  0.53511071496470D+01  0.00000000000000D+00
   3   1   2   1  0.26755535748235D+01  0.00000000000000D+00
   1   2   2   1 -0.26755340786307D+01 -0.16163162084600D-17
   2   2   2   1 -0.53510681572613D+01 -0.76657791205894D-17
   3   2   2   1 -0.26755340786307D+01 -0.29954234789542D-17
   1   4   2   1 -0.37007434154172D-16  0.00000000000000D+00
   2   4   2   1 -0.74641516209692D+01  0.00000000000000D+00
   3   4   2   1 -0.20949049591802D-16  0.00000000000000D+00
   1   1   3   1  0.26755535748235D+01  0.00000000000000D+00
   2   1   3   1  0.26755535748235D+01  0.00000000000000D+00
   3   1   3   1  0.53511071496470D+01  0.00000000000000D+00
   1   2   3   1 -0.26755340786307D+01 -0.74852317537542D-17
   2   2   3   1 -0.26755340786307D+01 -0.29954234789542D-17
   3   2   3   1 -0.53510681572613D+01  0.12076094425740D-17
   1   4   3   1 -0.37007434154172D-16  0.00000000000000D+00
   2   4   3   1 -0.46461438703070D-17  0.00000000000000D+00
   3   4   3   1 -0.74641516209692D+01  0.00000000000000D+00
   1   1   1   2 -0.53510688789458D+01  0.16647943671676D-16
   2   1   1   2 -0.26755344394729D+01  0.16163162084600D-17
   3   1   1   2 -0.26755344394729D+01  0.74852317537542D-17
   1   2   1   2  0.53511363675337D+01  0.00000000000000D+00
   2   2   1   2  0.26755681837669D+01  0.00000000000000D+00
   3   2   1   2  0.26755681837669D+01  0.00000000000000D+00
   1   4   1   2 -0.51781486703442D+02  0.00000000000000D+00
   2   4   1   2 -0.20069716914945D-15  0.00000000000000D+00
   3   4   1   2 -0.84064680824720D-16  0.00000000000000D+00
   1   1   2   2 -0.26755344394729D+01  0.16163162084600D-17
   2   1   2   2 -0.53510688789458D+01  0.76657791205894D-17
   3   1   2   2 -0.26755344394729D+01  0.29954234789542D-17
   1   2   2   2  0.26755681837669D+01  0.00000000000000D+00
   2   2   2   2  0.53511363675337D+01  0.00000000000000D+00
   3   2   2   2  0.26755681837669D+01  0.00000000000000D+00
   1   4   2   2  0.00000000000000D+00  0.00000000000000D+00
   2   4   2   2 -0.51781486703442D+02  0.00000000000000D+00
   3   4   2   2  0.32164207805346D-15  0.00000000000000D+00
   1   1   3   2 -0.26755344394729D+01  0.74852317537542D-17
   2   1   3   2 -0.26755344394729D+01  0.29954234789542D-17
   3   1   3   2 -0.53510688789458D+01 -0.12076094425740D-17
   1   2   3   2  0.26755681837669D+01  0.00000000000000D+00
   2   2   3   2  0.26755681837669D+01  0.00000000000000D+00
   3   2   3   2  0.53511363675337D+01  0.00000000000000D+00
   1   4   3   2  0.00000000000000D+00  0.00000000000000D+00
   2   4   3   2 -0.96750311635292D-16  0.00000000000000D+00
   3   4   3   2 -0.51781486703442D+02  0.00000000000000D+00
   1   1   1   4 -0.74641518394770D+01  0.00000000000000D+00
   2   1   1   4 -0.37007434154172D-16  0.00000000000000D+00
   3   1   1   4  0.00000000000000D+00  0.00000000000000D+00
   1   2   1   4 -0.51781486742901D+02  0.00000000000000D+00
   2   2   1   4  0.29605947323338D-15  0.00000000000000D+00
   3   2   1   4  0.00000000000000D+00  0.00000000000000D+00
   1   4   1   4 -0.34789720977613D+03  0.00000000000000D+00
   2   4   1   4  0.11596573659204D+03  0.00000000000000D+00
   3   4   1   4  0.11596573659204D+03  0.00000000000000D+00
   1   1   2   4 -0.79860076155549D-17  0.00000000000000D+00
   2   1   2   4 -0.74641518394770D+01  0.00000000000000D+00
   3   1   2   4  0.30730616939488D-16  0.00000000000000D+00
   1   2   2   4  0.26168407546917D-16  0.00000000000000D+00
   2   2   2   4 -0.51781486742901D+02  0.00000000000000D+00
   3   2   2   4 -0.19599074993330D-15  0.00000000000000D+00
   1   4   2   4  0.11596573659204D+03  0.00000000000000D+00
   2   4   2   4 -0.34789720977613D+03  0.00000000000000D+00
   3   4   2   4  0.11596573659204D+03  0.00000000000000D+00
   1   1   3   4  0.78709236485245D-17  0.00000000000000D+00
   2   1   3   4 -0.17896992471022D-16  0.00000000000000D+00
   3   1   3   4 -0.74641518394770D+01  0.00000000000000D+00
   1   2   3   4 -0.11411122262018D-15  0.00000000000000D+00
   2   2   3   4 -0.24852551782632D-15  0.00000000000000D+00
   3   2   3   4 -0.51781486742901D+02  0.00000000000000D+00
   1   4   3   4  0.11596573659204D+03  0.00000000000000D+00
   2   4   3   4  0.11596573659204D+03  0.00000000000000D+00
   3   4   3   4 -0.34789720977613D+03  0.00000000000000D+00
  
 3rd derivatives              - # elements :     189
 qpt  0.00000000E+00  0.00000000E+00  0.00000000E+00   1.0
      0.00000000E+00  0.00000000E+00  0.00000000E+00   1.0
      0.00000000E+00  0.00000000E+00  0.00000000E+00   1.0
   1   4   1   4   1   1 -0.33977071836683D+02  0.00000000000000D+00
   2   4   1   4   1   1  0.16988536178398D+02  0.00000000000000D+00
   3   4   1   4   1   1  0.16988536178398D+02  0.00000000000000D+00
   1   4   2   4   1   1  0.16988536199968D+02  0.00000000000000D+00
   2   4   2   4   1   1  0.00000000000000D+00  0.00000000000000D+00
   3   4   2   4   1   1  0.00000000000000D+00  0.00000000000000D+00
   1   4   3   4   1   1  0.16988536199968D+02  0.00000000000000D+00
   2   4   3   4   1   1  0.00000000000000D+00  0.00000000000000D+00
   3   4   3   4   1   1  0.00000000000000D+00  0.00000000000000D+00
   1   4   1   4   2   1  0.00000000000000D+00  0.00000000000000D+00
   2   4   1   4   2   1  0.16988535615144D+02  0.00000000000000D+00
   3   4   1   4   2   1  0.00000000000000D+00  0.00000000000000D+00
   1   4   2   4   2   1  0.16988536178398D+02  0.00000000000000D+00
   2   4   2   4   2   1 -0.33977071836683D+02  0.00000000000000D+00
   3   4   2   4   2   1  0.16988536178398D+02  0.00000000000000D+00
   1   4   3   4   2   1  0.00000000000000D+00  0.00000000000000D+00
   2   4   3   4   2   1  0.16988536199968D+02  0.00000000000000D+00
   3   4   3   4   2   1  0.00000000000000D+00  0.00000000000000D+00
   1   4   1   4   3   1  0.00000000000000D+00  0.00000000000000D+00
   2   4   1   4   3   1  0.00000000000000D+00  0.00000000000000D+00
   3   4   1   4   3   1  0.16988536199968D+02  0.00000000000000D+00
   1   4   2   4   3   1  0.00000000000000D+00  0.00000000000000D+00
   2   4   2   4   3   1  0.00000000000000D+00  0.00000000000000D+00
   3   4   2   4   3   1  0.16988535615144D+02  0.00000000000000D+00
   1   4   3   4   3   1  0.16988536178398D+02  0.00000000000000D+00
   2   4   3   4   3   1  0.16988536178398D+02  0.00000000000000D+00
   3   4   3   4   3   1 -0.33977071836683D+02  0.00000000000000D+00
   1   4   1   4   1   2  0.23206577623431D+02  0.00000000000000D+00
   2   4   1   4   1   2 -0.11603288775614D+02  0.00000000000000D+00
   3   4   1   4   1   2 -0.11603288775614D+02  0.00000000000000D+00
   1   4   2   4   1   2 -0.11603288747406D+02  0.00000000000000D+00
   2   4   2   4   1   2  0.00000000000000D+00  0.00000000000000D+00
   3   4   2   4   1   2  0.00000000000000D+00  0.00000000000000D+00
   1   4   3   4   1   2 -0.11603288747406D+02  0.00000000000000D+00
   2   4   3   4   1   2  0.00000000000000D+00  0.00000000000000D+00
   3   4   3   4   1   2  0.00000000000000D+00  0.00000000000000D+00
   1   4   1   4   2   2  0.00000000000000D+00  0.00000000000000D+00
   2   4   1   4   2   2 -0.11603288904234D+02  0.00000000000000D+00
   3   4   1   4   2   2  0.00000000000000D+00  0.00000000000000D+00
   1   4   2   4   2   2 -0.11603288775614D+02  0.00000000000000D+00
   2   4   2   4   2   2  0.23206577623431D+02  0.00000000000000D+00
   3   4   2   4   2   2 -0.11603288775614D+02  0.00000000000000D+00
   1   4   3   4   2   2  0.00000000000000D+00  0.00000000000000D+00
   2   4   3   4   2   2 -0.11603288747406D+02  0.00000000000000D+00
   3   4   3   4   2   2  0.00000000000000D+00  0.00000000000000D+00
   1   4   1   4   3   2  0.00000000000000D+00  0.00000000000000D+00
   2   4   1   4   3   2  0.00000000000000D+00  0.00000000000000D+00
   3   4   1   4   3   2 -0.11603288747406D+02  0.00000000000000D+00
   1   4   2   4   3   2  0.00000000000000D+00  0.00000000000000D+00
   2   4   2   4   3   2  0.00000000000000D+00  0.00000000000000D+00
   3   4   2   4   3   2 -0.11603288904234D+02  0.00000000000000D+00
   1   4   3   4   3   2 -0.11603288775614D+02  0.00000000000000D+00
   2   4   3   4   3   2 -0.11603288775614D+02  0.00000000000000D+00
   3   4   3   4   3   2  0.23206577623431D+02  0.00000000000000D+00
   1   4   1   1   1   4 -0.14893133447378D+03  0.00000000000000D+00
   2   4   1   1   1   4  0.74465666201418D+02  0.00000000000000D+00
   3   4   1   1   1   4  0.74465666201418D+02  0.00000000000000D+00
   1   4   2   1   1   4  0.00000000000000D+00  0.00000000000000D+00
   2   4   2   1   1   4  0.74465668272367D+02  0.00000000000000D+00
   3   4   2   1   1   4  0.00000000000000D+00  0.00000000000000D+00
   1   4   3   1   1   4  0.00000000000000D+00  0.00000000000000D+00
   2   4   3   1   1   4  0.00000000000000D+00  0.00000000000000D+00
   3   4   3   1   1   4  0.74465666201418D+02  0.00000000000000D+00
   1   4   1   2   1   4  0.16490575810297D+03  0.00000000000000D+00
   2   4   1   2   1   4 -0.82452879110429D+02  0.00000000000000D+00
   3   4   1   2   1   4 -0.82452879110429D+02  0.00000000000000D+00
   1   4   2   2   1   4  0.00000000000000D+00  0.00000000000000D+00
   2   4   2   2   1   4 -0.82452878992538D+02  0.00000000000000D+00
   3   4   2   2   1   4  0.00000000000000D+00  0.00000000000000D+00
   1   4   3   2   1   4  0.00000000000000D+00  0.00000000000000D+00
   2   4   3   2   1   4  0.00000000000000D+00  0.00000000000000D+00
   3   4   3   2   1   4 -0.82452879110429D+02  0.00000000000000D+00
   1   1   1   4   1   4 -0.33977071836683D+02  0.00000000000000D+00
   2   1   1   4   1   4  0.00000000000000D+00  0.00000000000000D+00
   3   1   1   4   1   4  0.00000000000000D+00  0.00000000000000D+00
   1   2   1   4   1   4  0.23206577623431D+02  0.00000000000000D+00
   2   2   1   4   1   4  0.00000000000000D+00  0.00000000000000D+00
   3   2   1   4   1   4  0.00000000000000D+00  0.00000000000000D+00
   1   4   1   4   1   4  0.33215286191634D+03  0.00000000000000D+00
   2   4   1   4   1   4 -0.11071762066108D+03  0.00000000000000D+00
   3   4   1   4   1   4 -0.11071762068553D+03  0.00000000000000D+00
   1   1   2   4   1   4  0.16988536199968D+02  0.00000000000000D+00
   2   1   2   4   1   4  0.16988535679855D+02  0.00000000000000D+00
   3   1   2   4   1   4  0.00000000000000D+00  0.00000000000000D+00
   1   2   2   4   1   4 -0.11603288747406D+02  0.00000000000000D+00
   2   2   2   4   1   4 -0.11603288819608D+02  0.00000000000000D+00
   3   2   2   4   1   4  0.00000000000000D+00  0.00000000000000D+00
   1   4   2   4   1   4 -0.11071762059940D+03  0.00000000000000D+00
   2   4   2   4   1   4 -0.11071762062386D+03  0.00000000000000D+00
   3   4   2   4   1   4  0.11071762062456D+03  0.00000000000000D+00
   1   1   3   4   1   4  0.16988536199968D+02  0.00000000000000D+00
   2   1   3   4   1   4  0.00000000000000D+00  0.00000000000000D+00
   3   1   3   4   1   4  0.16988536178398D+02  0.00000000000000D+00
   1   2   3   4   1   4 -0.11603288747406D+02  0.00000000000000D+00
   2   2   3   4   1   4  0.00000000000000D+00  0.00000000000000D+00
   3   2   3   4   1   4 -0.11603288775614D+02  0.00000000000000D+00
   1   4   3   4   1   4 -0.11071762059940D+03  0.00000000000000D+00
   2   4   3   4   1   4  0.11071762059870D+03  0.00000000000000D+00
   3   4   3   4   1   4 -0.11071762063140D+03  0.00000000000000D+00
   1   4   1   1   2   4  0.74465666201418D+02  0.00000000000000D+00
   2   4   1   1   2   4  0.00000000000000D+00  0.00000000000000D+00
   3   4   1   1   2   4  0.00000000000000D+00  0.00000000000000D+00
   1   4   2   1   2   4  0.74465666201418D+02  0.00000000000000D+00
   2   4   2   1   2   4 -0.14893133447378D+03  0.00000000000000D+00
   3   4   2   1   2   4  0.74465666201418D+02  0.00000000000000D+00
   1   4   3   1   2   4  0.00000000000000D+00  0.00000000000000D+00
   2   4   3   1   2   4  0.00000000000000D+00  0.00000000000000D+00
   3   4   3   1   2   4  0.74465668272367D+02  0.00000000000000D+00
   1   4   1   2   2   4 -0.82452879110429D+02  0.00000000000000D+00
   2   4   1   2   2   4  0.00000000000000D+00  0.00000000000000D+00
   3   4   1   2   2   4  0.00000000000000D+00  0.00000000000000D+00
   1   4   2   2   2   4 -0.82452879110429D+02  0.00000000000000D+00
   2   4   2   2   2   4  0.16490575810297D+03  0.00000000000000D+00
   3   4   2   2   2   4 -0.82452879110429D+02  0.00000000000000D+00
   1   4   3   2   2   4  0.00000000000000D+00  0.00000000000000D+00
   2   4   3   2   2   4  0.00000000000000D+00  0.00000000000000D+00
   3   4   3   2   2   4 -0.82452878992538D+02  0.00000000000000D+00
   1   1   1   4   2   4  0.16988536178398D+02  0.00000000000000D+00
   2   1   1   4   2   4  0.16988536199968D+02  0.00000000000000D+00
   3   1   1   4   2   4  0.00000000000000D+00  0.00000000000000D+00
   1   2   1   4   2   4 -0.11603288775614D+02  0.00000000000000D+00
   2   2   1   4   2   4 -0.11603288747406D+02  0.00000000000000D+00
   3   2   1   4   2   4  0.00000000000000D+00  0.00000000000000D+00
   1   4   1   4   2   4 -0.11071762066108D+03  0.00000000000000D+00
   2   4   1   4   2   4 -0.11071762071753D+03  0.00000000000000D+00
   3   4   1   4   2   4  0.11071762068623D+03  0.00000000000000D+00
   1   1   2   4   2   4  0.00000000000000D+00  0.00000000000000D+00
   2   1   2   4   2   4 -0.33977071836683D+02  0.00000000000000D+00
   3   1   2   4   2   4  0.00000000000000D+00  0.00000000000000D+00
   1   2   2   4   2   4  0.00000000000000D+00  0.00000000000000D+00
   2   2   2   4   2   4  0.23206577623431D+02  0.00000000000000D+00
   3   2   2   4   2   4  0.00000000000000D+00  0.00000000000000D+00
   1   4   2   4   2   4 -0.11071762062386D+03  0.00000000000000D+00
   2   4   2   4   2   4  0.33215286191634D+03  0.00000000000000D+00
   3   4   2   4   2   4 -0.11071762066108D+03  0.00000000000000D+00
   1   1   3   4   2   4  0.00000000000000D+00  0.00000000000000D+00
   2   1   3   4   2   4  0.16988536199968D+02  0.00000000000000D+00
   3   1   3   4   2   4  0.16988535679855D+02  0.00000000000000D+00
   1   2   3   4   2   4  0.00000000000000D+00  0.00000000000000D+00
   2   2   3   4   2   4 -0.11603288747406D+02  0.00000000000000D+00
   3   2   3   4   2   4 -0.11603288819608D+02  0.00000000000000D+00
   1   4   3   4   2   4  0.11071762059870D+03  0.00000000000000D+00
   2   4   3   4   2   4 -0.11071762059940D+03  0.00000000000000D+00
   3   4   3   4   2   4 -0.11071762062386D+03  0.00000000000000D+00
   1   4   1   1   3   4  0.74465666201418D+02  0.00000000000000D+00
   2   4   1   1   3   4  0.00000000000000D+00  0.00000000000000D+00
   3   4   1   1   3   4  0.00000000000000D+00  0.00000000000000D+00
   1   4   2   1   3   4  0.00000000000000D+00  0.00000000000000D+00
   2   4   2   1   3   4  0.74465666201418D+02  0.00000000000000D+00
   3   4   2   1   3   4  0.00000000000000D+00  0.00000000000000D+00
   1   4   3   1   3   4  0.74465666201418D+02  0.00000000000000D+00
   2   4   3   1   3   4  0.74465666201418D+02  0.00000000000000D+00
   3   4   3   1   3   4 -0.14893133447378D+03  0.00000000000000D+00
   1   4   1   2   3   4 -0.82452879110429D+02  0.00000000000000D+00
   2   4   1   2   3   4  0.00000000000000D+00  0.00000000000000D+00
   3   4   1   2   3   4  0.00000000000000D+00  0.00000000000000D+00
   1   4   2   2   3   4  0.00000000000000D+00  0.00000000000000D+00
   2   4   2   2   3   4 -0.82452879110429D+02  0.00000000000000D+00
   3   4   2   2   3   4  0.00000000000000D+00  0.00000000000000D+00
   1   4   3   2   3   4 -0.82452879110429D+02  0.00000000000000D+00
   2   4   3   2   3   4 -0.82452879110429D+02  0.00000000000000D+00
   3   4   3   2   3   4  0.16490575810297D+03  0.00000000000000D+00
   1   1   1   4   3   4  0.16988536178398D+02  0.00000000000000D+00
   2   1   1   4   3   4  0.00000000000000D+00  0.00000000000000D+00
   3   1   1   4   3   4  0.16988536199968D+02  0.00000000000000D+00
   1   2   1   4   3   4 -0.11603288775614D+02  0.00000000000000D+00
   2   2   1   4   3   4  0.00000000000000D+00  0.00000000000000D+00
   3   2   1   4   3   4 -0.11603288747406D+02  0.00000000000000D+00
   1   4   1   4   3   4 -0.11071762062386D+03  0.00000000000000D+00
   2   4   1   4   3   4  0.11071762068623D+03  0.00000000000000D+00
   3   4   1   4   3   4 -0.11071762059940D+03  0.00000000000000D+00
   1   1   2   4   3   4  0.00000000000000D+00  0.00000000000000D+00
   2   1   2   4   3   4  0.16988536178398D+02  0.00000000000000D+00
   3   1   2   4   3   4  0.16988536199968D+02  0.00000000000000D+00
   1   2   2   4   3   4  0.00000000000000D+00  0.00000000000000D+00
   2   2   2   4   3   4 -0.11603288775614D+02  0.00000000000000D+00
   3   2   2   4   3   4 -0.11603288747406D+02  0.00000000000000D+00
   1   4   2   4   3   4  0.11071762062456D+03  0.00000000000000D+00
   2   4   2   4   3   4 -0.11071762066108D+03  0.00000000000000D+00
   3   4   2   4   3   4 -0.11071762071753D+03  0.00000000000000D+00
   1   1   3   4   3   4  0.00000000000000D+00  0.00000000000000D+00
   2   1   3   4   3   4  0.00000000000000D+00  0.00000000000000D+00
   3   1   3   4   3   4 -0.33977071836683D+02  0.00000000000000D+00
   1   2   3   4   3   4  0.00000000000000D+00  0.00000000000000D+00
   2   2   3   4   3   4  0.00000000000000D+00  0.00000000000000D+00
   3   2   3   4   3   4  0.23206577623431D+02  0.00000000000000D+00
   1   4   3   4   3   4 -0.11071762066108D+03  0.00000000000000D+00
   2   4   3   4   3   4 -0.11071762062386D+03  0.00000000000000D+00
   3   4   3   4   3   4  0.33215286191634D+03  0.00000000000000D+00

 List of bloks and their characteristics 
  
 2nd derivatives (non-stat.)  - # elements :      81
 qpt  0.00000000E+00  0.00000000E+00  0.00000000E+00   1.0
  
 3rd derivatives              - # elements :     189
 qpt  0.00000000E+00  0.00000000E+00  0.00000000E+00   1.0
      0.00000000E+00  0.00000000E+00  0.00000000E+00   1.0
      0.00000000E+00  0.00000000E+00  0.00000000E+00   1.0
