
.Version 10.1.4.5 of ABINIT, released Sep 2024.
.(MPI version, prepared for a x86_64_linux_gnu13.2 computer) 

.Copyright (C) 1998-2025 ABINIT group . 
 ABINIT comes with ABSOLUTELY NO WARRANTY.
 It is free software, and you are welcome to redistribute it
 under certain conditions (GNU General Public License,
 see ~abinit/COPYING or http://www.gnu.org/copyleft/gpl.txt).

 ABINIT is a project of the Universite Catholique de Louvain,
 Corning Inc. and other collaborators, see ~abinit/doc/developers/contributors.txt .
 Please read https://docs.abinit.org/theory/acknowledgments for suggested
 acknowledgments of the ABINIT effort.
 For more information, see https://www.abinit.org .

.Starting date : Fri 13 Sep 2024.
- ( at 19h14 )
  
- input  file    -> /home/buildbot/ABINIT3/eos_gnu_13.2_mpich/trunk_merge-10.0/tests/TestBot_MPI1/v8_t60/t60.abi
- output file    -> t60.abo
- root for input  files -> t60i
- root for output files -> t60o

 DATASET    1 : space group P-3 m 1 (#164); Bravais hP (primitive hexag.)
================================================================================
 Values of the parameters that define the memory need for DATASET  1.
     intxc =       0    ionmov =       0      iscf =       7    lmnmax =       6
     lnmax =       6     mgfft =      30  mpssoang =       3    mqgrid =    3001
     natom =       3  nloc_mem =       1    nspden =       1   nspinor =       1
    nsppol =       1      nsym =      12    n1xccc =    2501    ntypat =       2
    occopt =       1   xclevel =       2
-    mband =          12        mffmem =           1         mkmem =           2
       mpw =         185          nfft =        7680          nkpt =           2
================================================================================
P This job should need less than                       3.717 Mbytes of memory.
  Rough estimation (10% accuracy) of disk space for files :
_ WF disk file :      0.070 Mbytes ; DEN or POT disk file :      0.061 Mbytes.
================================================================================

 DATASET    2 : space group P-3 m 1 (#164); Bravais hP (primitive hexag.)
================================================================================
 Values of the parameters that define the memory need for DATASET  2 (RF).
     intxc =       0      iscf =      -3    lmnmax =       6     lnmax =       6
     mgfft =      30  mpssoang =       3    mqgrid =    3001     natom =       3
  nloc_mem =       1    nspden =       1   nspinor =       1    nsppol =       1
      nsym =      12    n1xccc =    2501    ntypat =       2    occopt =       1
   xclevel =       2
-    mband =          12        mffmem =           1         mkmem =           4
-   mkqmem =           4        mk1mem =           4           mpw =         370
      nfft =        7680          nkpt =           4
================================================================================
P This job should need less than                       3.771 Mbytes of memory.
  Rough estimation (10% accuracy) of disk space for files :
_ WF disk file :      0.273 Mbytes ; DEN or POT disk file :      0.061 Mbytes.
================================================================================

 DATASET    3 : space group P-3 m 1 (#164); Bravais hP (primitive hexag.)
================================================================================
 Values of the parameters that define the memory need for DATASET  3 (RF).
     intxc =       0      iscf =       7    lmnmax =       6     lnmax =       6
     mgfft =      30  mpssoang =       3    mqgrid =    3001     natom =       3
  nloc_mem =       1    nspden =       1   nspinor =       1    nsppol =       1
      nsym =      12    n1xccc =    2501    ntypat =       2    occopt =       1
   xclevel =       2
-    mband =          12        mffmem =           1         mkmem =           4
-   mkqmem =           4        mk1mem =           4           mpw =         370
      nfft =        7680          nkpt =           4
================================================================================
P This job should need less than                       3.829 Mbytes of memory.
  Rough estimation (10% accuracy) of disk space for files :
_ WF disk file :      0.273 Mbytes ; DEN or POT disk file :      0.061 Mbytes.
================================================================================

 DATASET    4 : space group P-3 m 1 (#164); Bravais hP (primitive hexag.)
================================================================================
 Values of the parameters that define the memory need for DATASET  4.
     intxc =       0    ionmov =       0      iscf =      -2    lmnmax =       6
     lnmax =       6     mgfft =      30  mpssoang =       3    mqgrid =    3001
     natom =       3  nloc_mem =       1    nspden =       1   nspinor =       1
    nsppol =       1      nsym =      12    n1xccc =    2501    ntypat =       2
    occopt =       1   xclevel =       2
-    mband =          12        mffmem =           1         mkmem =           2
       mpw =         186          nfft =        7680          nkpt =           2
================================================================================
P This job should need less than                       2.741 Mbytes of memory.
  Rough estimation (10% accuracy) of disk space for files :
_ WF disk file :      0.070 Mbytes ; DEN or POT disk file :      0.061 Mbytes.
================================================================================

 DATASET    5 : space group P-3 m 1 (#164); Bravais hP (primitive hexag.)
================================================================================
 Values of the parameters that define the memory need for DATASET  5 (RF).
     intxc =       0      iscf =      -2    lmnmax =      18     lnmax =       6
     mgfft =      30  mpssoang =       3    mqgrid =    3001     natom =       3
  nloc_mem =       1    nspden =       1   nspinor =       1    nsppol =       1
      nsym =      12    n1xccc =    2501    ntypat =       2    occopt =       1
   xclevel =       2
-    mband =          12        mffmem =           1         mkmem =           2
-   mkqmem =           2        mk1mem =           2           mpw =         372
      nfft =        7680          nkpt =           2
================================================================================
P This job should need less than                       4.424 Mbytes of memory.
  Rough estimation (10% accuracy) of disk space for files :
_ WF disk file :      0.138 Mbytes ; DEN or POT disk file :      0.061 Mbytes.
================================================================================

 DATASET    6 : space group P-3 m 1 (#164); Bravais hP (primitive hexag.)
================================================================================
 Values of the parameters that define the memory need for DATASET  6.
     intxc =       0    ionmov =       0      iscf =      -2    lmnmax =       6
     lnmax =       6     mgfft =      30  mpssoang =       3    mqgrid =    3001
     natom =       3  nloc_mem =       1    nspden =       1   nspinor =       1
    nsppol =       1      nsym =      12    n1xccc =    2501    ntypat =       2
    occopt =       1   xclevel =       2
-    mband =          12        mffmem =           1         mkmem =           2
       mpw =         186          nfft =        7680          nkpt =           2
================================================================================
P This job should need less than                       2.741 Mbytes of memory.
  Rough estimation (10% accuracy) of disk space for files :
_ WF disk file :      0.070 Mbytes ; DEN or POT disk file :      0.061 Mbytes.
================================================================================

--------------------------------------------------------------------------------
------------- Echo of variables that govern the present computation ------------
--------------------------------------------------------------------------------
-
- outvars: echo of selected default values
-   iomode0 =  0 , fftalg0 =512 , wfoptalg0 =  0
-
- outvars: echo of global parameters not present in the input file
-  max_nthreads =    0
-
 -outvars: echo values of preprocessed input variables --------
            acell      6.9749786238E+00  6.9749786238E+00  1.2492978510E+01 Bohr
              amu      9.12240000E+01  3.20660000E+01
           chneut1          1
           chneut2          1
           chneut3          1
           chneut4          1
           chneut5          1
           chneut6          0
        ddb_ngqpt1       0    0    0
        ddb_ngqpt2       0    0    0
        ddb_ngqpt3       0    0    0
        ddb_ngqpt4       0    0    0
        ddb_ngqpt5       0    0    0
        ddb_ngqpt6       1    1    1
           diemac      6.00000000E+00
             ecut      6.00000000E+00 Hartree
    eph_frohlichm1          0
    eph_frohlichm2          0
    eph_frohlichm3          0
    eph_frohlichm4          0
    eph_frohlichm5          0
    eph_frohlichm6          1
         eph_task1          1
         eph_task2          1
         eph_task3          1
         eph_task4          1
         eph_task5          1
         eph_task6          6
-          fftalg         512
           getddb1          0
           getddb2          0
           getddb3          0
           getddb4          0
           getddb5          0
           getddb6          3
           getddk1          0
           getddk2          0
           getddk3          2
           getddk4          0
           getddk5          0
           getddk6          0
           getden1          0
           getden2          0
           getden3          0
           getden4          1
           getden5          1
           getden6          0
         getefmas1          0
         getefmas2          0
         getefmas3          0
         getefmas4          0
         getefmas5          0
         getefmas6          5
           getwfk1          0
           getwfk2         -1
           getwfk3          1
           getwfk4          0
           getwfk5          4
           getwfk6          4
           get1wf1          0
           get1wf2          0
           get1wf3          0
           get1wf4          0
           get1wf5          2
           get1wf6          0
             iscf1          7
             iscf2         -3
             iscf3          7
             iscf4         -2
             iscf5         -2
             iscf6         -2
           istwfk1       2    3
           istwfk2       1    1    1    1
           istwfk3       1    1    1    1
           istwfk4       2    5
           istwfk5       1    1
           istwfk6       2    5
              ixc          11
           jdtset        1    2    3    4    5    6
              kpt1     0.00000000E+00  0.00000000E+00  0.00000000E+00
                       5.00000000E-01  0.00000000E+00  0.00000000E+00
              kpt2     0.00000000E+00  0.00000000E+00  0.00000000E+00
                       5.00000000E-01  0.00000000E+00  0.00000000E+00
                       0.00000000E+00  5.00000000E-01  0.00000000E+00
                       5.00000000E-01  5.00000000E-01  0.00000000E+00
              kpt3     0.00000000E+00  0.00000000E+00  0.00000000E+00
                       5.00000000E-01  0.00000000E+00  0.00000000E+00
                       0.00000000E+00  5.00000000E-01  0.00000000E+00
                       5.00000000E-01  5.00000000E-01  0.00000000E+00
              kpt4     0.00000000E+00  0.00000000E+00  0.00000000E+00
                       5.00000000E-01  0.00000000E+00  5.00000000E-01
              kpt5     0.00000000E+00  0.00000000E+00  0.00000000E+00
                       5.00000000E-01  5.00000000E-01  5.00000000E-01
              kpt6     0.00000000E+00  0.00000000E+00  0.00000000E+00
                       5.00000000E-01  0.00000000E+00  5.00000000E-01
           kptopt1          1
           kptopt2          2
           kptopt3          2
           kptopt4          0
           kptopt5          0
           kptopt6          0
         kptrlatt        2    0    0      0    2    0      0    0    1
          kptrlen1     1.24929785E+01
          kptrlen2     1.24929785E+01
          kptrlen3     1.24929785E+01
          kptrlen4     3.00000000E+01
          kptrlen5     3.00000000E+01
          kptrlen6     3.00000000E+01
P           mkmem1          2
P           mkmem2          4
P           mkmem3          4
P           mkmem4          2
P           mkmem5          2
P           mkmem6          2
P          mkqmem1          2
P          mkqmem2          4
P          mkqmem3          4
P          mkqmem4          2
P          mkqmem5          2
P          mkqmem6          2
P          mk1mem1          2
P          mk1mem2          4
P          mk1mem3          4
P          mk1mem4          2
P          mk1mem5          2
P          mk1mem6          2
            natom           3
            nband1         12
            nband2         12
            nband3         12
            nband4         12
            nband5         12
            nband6         12
           nbdbuf1          0
           nbdbuf2          0
           nbdbuf3          0
           nbdbuf4          2
           nbdbuf5          0
           nbdbuf6          2
           ndtset           6
            ngfft          16      16      30
             nkpt1          2
             nkpt2          4
             nkpt3          4
             nkpt4          2
             nkpt5          2
             nkpt6          2
             nqpt1          0
             nqpt2          1
             nqpt3          1
             nqpt4          0
             nqpt5          1
             nqpt6          1
            nstep1         20
            nstep2         20
            nstep3         20
            nstep4         20
            nstep5         10
            nstep6         20
             nsym          12
           ntypat           2
              occ1     2.000000  2.000000  2.000000  2.000000  2.000000  2.000000
                       2.000000  2.000000  2.000000  2.000000  2.000000  2.000000
              occ2     2.000000  2.000000  2.000000  2.000000  2.000000  2.000000
                       2.000000  2.000000  2.000000  2.000000  2.000000  2.000000
              occ3     2.000000  2.000000  2.000000  2.000000  2.000000  2.000000
                       2.000000  2.000000  2.000000  2.000000  2.000000  2.000000
        optdriver1          0
        optdriver2          1
        optdriver3          1
        optdriver4          0
        optdriver5          1
        optdriver6          7
         prtphdos1          1
         prtphdos2          1
         prtphdos3          1
         prtphdos4          1
         prtphdos5          1
         prtphdos6          0
           prtpot1          0
           prtpot2          1
           prtpot3          1
           prtpot4          0
           prtpot5          1
           prtpot6          0
          rfatpol1          1       3
          rfatpol2          1       3
          rfatpol3          1       2
          rfatpol4          1       3
          rfatpol5          1       3
          rfatpol6          1       3
           rfelfd1          0
           rfelfd2          2
           rfelfd3          3
           rfelfd4          0
           rfelfd5          2
           rfelfd6          0
           rfphon1          0
           rfphon2          0
           rfphon3          1
           rfphon4          0
           rfphon5          0
           rfphon6          0
            rprim      1.0000000000E+00  0.0000000000E+00  0.0000000000E+00
                      -5.0000000000E-01  8.6602540378E-01  0.0000000000E+00
                       6.1232339957E-17  1.0605752387E-16  1.0000000000E+00
           shiftk1     0.00000000E+00  0.00000000E+00  0.00000000E+00
           shiftk2     0.00000000E+00  0.00000000E+00  0.00000000E+00
           shiftk3     0.00000000E+00  0.00000000E+00  0.00000000E+00
           shiftk4     5.00000000E-01  5.00000000E-01  5.00000000E-01
           shiftk5     5.00000000E-01  5.00000000E-01  5.00000000E-01
           shiftk6     5.00000000E-01  5.00000000E-01  5.00000000E-01
          spgroup         164
           symrel      1  0  0   0  1  0   0  0  1      -1  0  0   0 -1  0   0  0 -1
                      -1  0  0   1  1  0   0  0  1       1  0  0  -1 -1  0   0  0 -1
                       0  1  0  -1 -1  0   0  0  1       0 -1  0   1  1  0   0  0 -1
                       0 -1  0  -1  0  0   0  0  1       0  1  0   1  0  0   0  0 -1
                      -1 -1  0   1  0  0   0  0  1       1  1  0  -1  0  0   0  0 -1
                       1  1  0   0 -1  0   0  0  1      -1 -1  0   0  1  0   0  0 -1
           tolvrs1     1.00000000E-10
           tolvrs2     0.00000000E+00
           tolvrs3     1.00000000E-10
           tolvrs4     0.00000000E+00
           tolvrs5     0.00000000E+00
           tolvrs6     1.00000000E-10
           tolwfr1     0.00000000E+00
           tolwfr2     1.00000000E-08
           tolwfr3     0.00000000E+00
           tolwfr4     1.00000000E-08
           tolwfr5     1.00000000E-08
           tolwfr6     0.00000000E+00
            typat      1  2  2
           useylm1          0
           useylm2          0
           useylm3          0
           useylm4          0
           useylm5          1
           useylm6          0
              wtk1       0.25000    0.75000
              wtk2       0.25000    0.25000    0.25000    0.25000
              wtk3       0.25000    0.25000    0.25000    0.25000
              wtk4       1.00000    1.00000
              wtk5       0.50000    0.50000
              wtk6       1.00000    1.00000
           xangst      0.0000000000E+00  0.0000000000E+00  0.0000000000E+00
                       1.8454998591E+00  1.0654998404E+00  5.1539880942E+00
                       5.9936698746E-16  2.1309996808E+00  1.4570114007E+00
            xcart      0.0000000000E+00  0.0000000000E+00  0.0000000000E+00
                       3.4874893119E+00  2.0135028930E+00  9.7396259902E+00
                       1.1326394594E-15  4.0270057860E+00  2.7533525198E+00
             xred      0.0000000000E+00  0.0000000000E+00  0.0000000000E+00
                       6.6666666667E-01  3.3333333333E-01  7.7960800000E-01
                       3.3333333333E-01  6.6666666667E-01  2.2039200000E-01
            znucl       40.00000   16.00000

================================================================================

 chkinp: Checking input parameters for consistency, jdtset=   1.

 chkinp: Checking input parameters for consistency, jdtset=   2.

 chkinp: Checking input parameters for consistency, jdtset=   3.

 chkinp: Checking input parameters for consistency, jdtset=   4.

 chkinp: Checking input parameters for consistency, jdtset=   5.

 chkinp: Checking input parameters for consistency, jdtset=   6.

================================================================================
== DATASET  1 ==================================================================
-   mpi_nproc: 1, omp_nthreads: -1 (-1 if OMP is not activated)


--- !DatasetInfo
iteration_state: {dtset: 1, }
dimensions: {natom: 3, nkpt: 2, mband: 12, nsppol: 1, nspinor: 1, nspden: 1, mpw: 185, }
cutoff_energies: {ecut:   6.0, pawecutdg:  -1.0, }
electrons: {nelect:   2.40000000E+01, charge:   0.00000000E+00, occopt:   1.00000000E+00, tsmear:   1.00000000E-02, }
meta: {optdriver: 0, ionmov: 0, optcell: 0, iscf: 7, paral_kgb: 0, }
...

 Exchange-correlation functional for the present dataset will be:
  GGA: Perdew-Burke-Ernzerhof functional - ixc=11
 Citation for XC functional:
  J.P.Perdew, K.Burke, M.Ernzerhof, PRL 77, 3865 (1996)

 Real(R)+Recip(G) space primitive vectors, cartesian coordinates (Bohr,Bohr^-1):
 R(1)=  6.9749786  0.0000000  0.0000000  G(1)=  0.1433696  0.0827745  0.0000000
 R(2)= -3.4874893  6.0405087  0.0000000  G(2)=  0.0000000  0.1655490  0.0000000
 R(3)=  0.0000000  0.0000000 12.4929785  G(3)=  0.0000000  0.0000000  0.0800450
 Unit cell volume ucvol=  5.2635940E+02 bohr^3
 Angles (23,13,12)=  9.00000000E+01  9.00000000E+01  1.20000000E+02 degrees

 getcut: wavevector=  0.0000  0.0000  0.0000  ngfft=  16  16  30
         ecut(hartree)=      6.000   => boxcut(ratio)=   2.08035

--- Pseudopotential description ------------------------------------------------
- pspini: atom type   1  psp file is /home/buildbot/ABINIT3/eos_gnu_13.2_mpich/trunk_merge-10.0/tests/Pspdir/Psdj_nc_sr_04_pbe_std_psp8/Zr.psp8
- pspatm: opening atomic psp file    /home/buildbot/ABINIT3/eos_gnu_13.2_mpich/trunk_merge-10.0/tests/Pspdir/Psdj_nc_sr_04_pbe_std_psp8/Zr.psp8
- Zr    ONCVPSP-3.2.3.1  r_core=   1.56507   1.56507   1.51006
- 40.00000  12.00000    170510                znucl, zion, pspdat
    8   11    2    4       600   0.00000      pspcod,pspxc,lmax,lloc,mmax,r2well
    5.99000000000000    5.00000000000000    0.00000000000000   rchrg,fchrg,qchrg
     nproj     2     2     2
     extension_switch     1
  pspatm : epsatm=   18.79873988
         --- l  ekb(1:nproj) -->
             0   10.621766    0.898805
             1    5.849837    0.750341
             2    1.531478    0.503023
 pspatm: atomic psp has been read  and splines computed

- pspini: atom type   2  psp file is /home/buildbot/ABINIT3/eos_gnu_13.2_mpich/trunk_merge-10.0/tests/Pspdir/Psdj_nc_sr_04_pbe_std_psp8/S.psp8
- pspatm: opening atomic psp file    /home/buildbot/ABINIT3/eos_gnu_13.2_mpich/trunk_merge-10.0/tests/Pspdir/Psdj_nc_sr_04_pbe_std_psp8/S.psp8
- S     ONCVPSP-3.2.3.1  r_core=   1.45376   1.45376   1.61851
- 16.00000   6.00000    170504                znucl, zion, pspdat
    8   11    2    4       600   0.00000      pspcod,pspxc,lmax,lloc,mmax,r2well
    5.99000000000000    6.00000000000000    0.00000000000000   rchrg,fchrg,qchrg
     nproj     2     2     2
     extension_switch     1
  pspatm : epsatm=    9.01821879
         --- l  ekb(1:nproj) -->
             0    6.763951    0.574108
             1    3.227080    0.887329
             2   -3.547662   -0.986524
 pspatm: atomic psp has been read  and splines computed

   8.84044259E+02                                ecore*ucvol(ha*bohr**3)
--------------------------------------------------------------------------------

_setup2: Arith. and geom. avg. npw (full set) are     367.750     367.729

================================================================================

--- !BeginCycle
iteration_state: {dtset: 1, }
solver: {iscf: 7, nstep: 20, nline: 4, wfoptalg: 0, }
tolerances: {tolvrs: 1.00E-10, }
...

     iter   Etot(hartree)      deltaE(h)  residm     vres2
 ETOT  1  -71.595672415706    -7.160E+01 1.491E-02 8.362E+01
 ETOT  2  -71.698318537427    -1.026E-01 5.852E-05 3.290E+01
 ETOT  3  -71.736398058828    -3.808E-02 2.549E-04 8.537E+00
 ETOT  4  -71.744180094160    -7.782E-03 5.442E-05 4.881E-02
 ETOT  5  -71.744272229225    -9.214E-05 1.001E-06 5.891E-03
 ETOT  6  -71.744276303431    -4.074E-06 5.826E-08 1.896E-04
 ETOT  7  -71.744276570706    -2.673E-07 1.013E-08 3.929E-06
 ETOT  8  -71.744276579398    -8.692E-09 3.966E-10 7.441E-08
 ETOT  9  -71.744276579899    -5.010E-10 8.867E-11 1.345E-07
 ETOT 10  -71.744276579981    -8.204E-11 4.825E-12 5.823E-09
 ETOT 11  -71.744276580018    -3.735E-11 1.153E-12 5.922E-11

 At SCF step   11       vres2   =  5.92E-11 < tolvrs=  1.00E-10 =>converged.

 Cartesian components of stress tensor (hartree/bohr^3)
  sigma(1 1)=  2.79288832E-03  sigma(3 2)=  0.00000000E+00
  sigma(2 2)=  2.79288832E-03  sigma(3 1)=  0.00000000E+00
  sigma(3 3)=  3.25199806E-03  sigma(2 1)=  0.00000000E+00


--- !ResultsGS
iteration_state: {dtset: 1, }
comment   : Summary of ground state results
lattice_vectors:
- [  6.9749786,   0.0000000,   0.0000000, ]
- [ -3.4874893,   6.0405087,   0.0000000, ]
- [  0.0000000,   0.0000000,  12.4929785, ]
lattice_lengths: [   6.97498,    6.97498,   12.49298, ]
lattice_angles: [ 90.000,  90.000, 120.000, ] # degrees, (23, 13, 12)
lattice_volume:   5.2635940E+02
convergence: {deltae: -3.735E-11, res2:  5.922E-11, residm:  1.153E-12, diffor: null, }
etotal    :  -7.17442766E+01
entropy   :   0.00000000E+00
fermie    :   1.28714959E-01
cartesian_stress_tensor: # hartree/bohr^3
- [  2.79288832E-03,   0.00000000E+00,   0.00000000E+00, ]
- [  0.00000000E+00,   2.79288832E-03,   0.00000000E+00, ]
- [  0.00000000E+00,   0.00000000E+00,   3.25199806E-03, ]
pressure_GPa:  -8.6672E+01
xred      :
- [  0.0000E+00,   0.0000E+00,   0.0000E+00, Zr]
- [  6.6667E-01,   3.3333E-01,   7.7961E-01,  S]
- [  3.3333E-01,   6.6667E-01,   2.2039E-01,  S]
cartesian_forces: # hartree/bohr
- [ -0.00000000E+00,  -0.00000000E+00,  -0.00000000E+00, ]
- [ -0.00000000E+00,   4.67418111E-23,   1.24702073E-02, ]
- [ -0.00000000E+00,  -4.67418111E-23,  -1.24702073E-02, ]
force_length_stats: {min:   0.00000000E+00, max:   1.24702073E-02, mean:   8.31347153E-03, }
...

 Integrated electronic density in atomic spheres:
 ------------------------------------------------
 Atom  Sphere_radius  Integrated_density
    1        2.00000          8.07883718
    2        2.00000          3.93691024
    3        2.00000          3.93691024
================================================================================

 ----iterations are completed or convergence reached----

 Mean square residual over all n,k,spin=   10.821E-14; max=  11.532E-13
 reduced coordinates (array xred) for    3 atoms
       0.000000000000      0.000000000000      0.000000000000
       0.666666666667      0.333333333333      0.779608000000
       0.333333333333      0.666666666667      0.220392000000
 rms dE/dt=  7.3440E-02; max dE/dt=  1.5579E-01; dE/dt below (all hartree)
    1       0.000000000000      0.000000000000      0.000000000000
    2       0.000000000000     -0.000000000000     -0.155790031766
    3       0.000000000000      0.000000000000      0.155790031766

 cartesian coordinates (angstrom) at end:
    1      0.00000000000000     0.00000000000000     0.00000000000000
    2      1.84549985905870     1.06549984041696     5.15398809421739
    3      0.00000000000000     2.13099968083392     1.45701140067926

 cartesian forces (hartree/bohr) at end:
    1     -0.00000000000000    -0.00000000000000    -0.00000000000000
    2     -0.00000000000000     0.00000000000000     0.01247020729614
    3     -0.00000000000000    -0.00000000000000    -0.01247020729614
 frms,max,avg= 5.8785121E-03 1.2470207E-02   0.000E+00  0.000E+00  0.000E+00 h/b

 cartesian forces (eV/Angstrom) at end:
    1     -0.00000000000000    -0.00000000000000    -0.00000000000000
    2     -0.00000000000000     0.00000000000000     0.64124378760203
    3     -0.00000000000000    -0.00000000000000    -0.64124378760203
 frms,max,avg= 3.0228522E-01 6.4124379E-01   0.000E+00  0.000E+00  0.000E+00 e/A
 length scales=  6.974978623800  6.974978623800 12.492978510000 bohr
              =  3.690999718117  3.690999718117  6.610999494897 angstroms
 prteigrs : about to open file t60o_DS1_EIG
 Fermi (or HOMO) energy (hartree) =   0.12871   Average Vxc (hartree)=  -0.32814
 Eigenvalues (hartree) for nkpt=   2  k points:
 kpt#   1, nband= 12, wtk=  0.25000, kpt=  0.0000  0.0000  0.0000 (reduced coord)
  -1.55133   -0.95738   -0.95330   -0.95328   -0.28291   -0.23881   -0.00461    0.03379
   0.03383    0.11764    0.12871    0.12871
 prteigrs : prtvol=0 or 1, do not print more k-points.


--- !EnergyTerms
iteration_state     : {dtset: 1, }
comment             : Components of total free energy in Hartree
kinetic             :  2.06887163182403E+01
hartree             :  2.05179773900860E+01
xc                  : -1.61338571672110E+01
Ewald energy        : -4.16520731799292E+01
psp_core            :  1.67954491252523E+00
local_psp           : -6.57107751228079E+01
non_local_psp       :  8.86619026907852E+00
total_energy        : -7.17442765800181E+01
total_energy_eV     : -1.95226104977688E+03
band_energy         : -9.19736386719511E+00
...


 Cartesian components of stress tensor (hartree/bohr^3)
  sigma(1 1)=  2.79288832E-03  sigma(3 2)=  0.00000000E+00
  sigma(2 2)=  2.79288832E-03  sigma(3 1)=  0.00000000E+00
  sigma(3 3)=  3.25199806E-03  sigma(2 1)=  0.00000000E+00

-Cartesian components of stress tensor (GPa)         [Pressure= -8.6672E+01 GPa]
- sigma(1 1)=  8.21695974E+01  sigma(3 2)=  0.00000000E+00
- sigma(2 2)=  8.21695974E+01  sigma(3 1)=  0.00000000E+00
- sigma(3 3)=  9.56770701E+01  sigma(2 1)=  0.00000000E+00

================================================================================
== DATASET  2 ==================================================================
-   mpi_nproc: 1, omp_nthreads: -1 (-1 if OMP is not activated)


--- !DatasetInfo
iteration_state: {dtset: 2, }
dimensions: {natom: 3, nkpt: 4, mband: 12, nsppol: 1, nspinor: 1, nspden: 1, mpw: 370, }
cutoff_energies: {ecut:   6.0, pawecutdg:  -1.0, }
electrons: {nelect:   2.40000000E+01, charge:   0.00000000E+00, occopt:   1.00000000E+00, tsmear:   1.00000000E-02, }
meta: {optdriver: 1, rfelfd: 2, }
...

 mkfilename : getwfk/=0, take file _WFK from output of DATASET   1.

 Exchange-correlation functional for the present dataset will be:
  GGA: Perdew-Burke-Ernzerhof functional - ixc=11
 Citation for XC functional:
  J.P.Perdew, K.Burke, M.Ernzerhof, PRL 77, 3865 (1996)

 Real(R)+Recip(G) space primitive vectors, cartesian coordinates (Bohr,Bohr^-1):
 R(1)=  6.9749786  0.0000000  0.0000000  G(1)=  0.1433696  0.0827745  0.0000000
 R(2)= -3.4874893  6.0405087  0.0000000  G(2)=  0.0000000  0.1655490  0.0000000
 R(3)=  0.0000000  0.0000000 12.4929785  G(3)=  0.0000000  0.0000000  0.0800450
 Unit cell volume ucvol=  5.2635940E+02 bohr^3
 Angles (23,13,12)=  9.00000000E+01  9.00000000E+01  1.20000000E+02 degrees
 setup1 : take into account q-point for computing boxcut.

 getcut: wavevector=  0.0000  0.0000  0.0000  ngfft=  16  16  30
         ecut(hartree)=      6.000   => boxcut(ratio)=   2.08035
--------------------------------------------------------------------------------


 ==>  initialize data related to q vector <== 

 The list of irreducible perturbations for this q vector is:
    1)    idir= 1    ipert=   4
    2)    idir= 2    ipert=   4
    3)    idir= 3    ipert=   4

================================================================================

--------------------------------------------------------------------------------
 Perturbation wavevector (in red.coord.)   0.000000  0.000000  0.000000
 Perturbation : derivative vs k along direction   1
 The set of symmetries contains only one element for this perturbation.
 symkpt : not enough symmetry to change the number of k points.

--------------------------------------------------------------------------------

--------------------------------------------------------------------------------

 Initialisation of the first-order wave-functions :
  ireadwf=   0

--- !BeginCycle
iteration_state: {dtset: 2, }
solver: {iscf: -3, nstep: 20, nline: 4, wfoptalg: 0, }
tolerances: {tolwfr: 1.00E-08, }
...

     iter   2DEtotal(Ha)        deltaE(Ha) residm    vres2
-ETOT  1  -27.269009802338     -2.727E+01 2.468E-01 0.000E+00
 ETOT  2  -27.840761330540     -5.718E-01 3.070E-02 0.000E+00
 ETOT  3  -27.881644910182     -4.088E-02 1.389E-03 0.000E+00
 ETOT  4  -27.885659753668     -4.015E-03 3.457E-04 0.000E+00
 ETOT  5  -27.886094472465     -4.347E-04 1.648E-05 0.000E+00
 ETOT  6  -27.886144777884     -5.031E-05 4.272E-06 0.000E+00
 ETOT  7  -27.886150742806     -5.965E-06 2.396E-07 0.000E+00
 ETOT  8  -27.886151467911     -7.251E-07 5.985E-08 0.000E+00
 ETOT  9  -27.886151541866     -7.396E-08 9.890E-09 0.000E+00

 At SCF step    9   max residual=  9.89E-09 < tolwfr=  1.00E-08 =>converged.
================================================================================

 ----iterations are completed or convergence reached----

 Mean square residual over all n,k,spin=   52.496E-10; max=  98.896E-10
 dfpt_looppert : ek2=    5.1934260112E+01
          f-sum rule ratio=    1.1177531701E+00
 prteigrs : about to open file t60t_1WF1_EIG
 Expectation of eigenvalue derivatives (hartree) for nkpt=   4  k points:
  (in case of degenerate eigenvalues, averaged derivative)
 kpt#   1, nband= 12, wtk=  0.25000, kpt=  0.0000  0.0000  0.0000 (reduced coord)
   0.00000    0.00000   -0.00000    0.00000   -0.00000    0.00000   -0.00000   -0.00000
  -0.00000   -0.00000   -0.00000   -0.00000
 prteigrs : prtvol=0 or 1, do not print more k-points.


 Eight components of 2nd-order total energy (hartree) are
 1,2,3: 0th-order hamiltonian combined with 1st-order wavefunctions
     kin0=   1.14565471E+02 eigvalue=  -5.57028553E+00  local=  -9.37171503E+01
 4,5,6: 1st-order hamiltonian combined with 1st and 0th-order wfs
     kin1=  -5.80496839E+01  Hartree=   0.00000000E+00     xc=   0.00000000E+00
 7,8,9: eventually, occupation + non-local contributions
    edocc=   0.00000000E+00     enl0=   1.26063072E+01   enl1=   2.27919011E+00
 1-9 gives the relaxation energy (to be shifted if some occ is /=2.0)
   erelax=  -2.78861515E+01
  No Ewald or frozen-wf contrib.: the relaxation energy is the total one
 2DEtotal=   -0.2788615154E+02 Ha. Also 2DEtotal=   -0.758820773984E+03 eV
    (  non-var. 2DEtotal :   -2.7885246880E+01 Ha)

--------------------------------------------------------------------------------
 Perturbation wavevector (in red.coord.)   0.000000  0.000000  0.000000
 Perturbation : derivative vs k along direction   2
 The set of symmetries contains only one element for this perturbation.
 symkpt : not enough symmetry to change the number of k points.

--------------------------------------------------------------------------------

--------------------------------------------------------------------------------

 Initialisation of the first-order wave-functions :
  ireadwf=   0

--- !BeginCycle
iteration_state: {dtset: 2, }
solver: {iscf: -3, nstep: 20, nline: 4, wfoptalg: 0, }
tolerances: {tolwfr: 1.00E-08, }
...

     iter   2DEtotal(Ha)        deltaE(Ha) residm    vres2
-ETOT  1  -27.271013158338     -2.727E+01 2.468E-01 0.000E+00
 ETOT  2  -27.842838249918     -5.718E-01 3.070E-02 0.000E+00
 ETOT  3  -27.883723392746     -4.089E-02 1.389E-03 0.000E+00
 ETOT  4  -27.887738414977     -4.015E-03 3.457E-04 0.000E+00
 ETOT  5  -27.888173152202     -4.347E-04 1.648E-05 0.000E+00
 ETOT  6  -27.888223459296     -5.031E-05 4.272E-06 0.000E+00
 ETOT  7  -27.888229424297     -5.965E-06 2.396E-07 0.000E+00
 ETOT  8  -27.888230149401     -7.251E-07 5.985E-08 0.000E+00
 ETOT  9  -27.888230223357     -7.396E-08 9.890E-09 0.000E+00

 At SCF step    9   max residual=  9.89E-09 < tolwfr=  1.00E-08 =>converged.
================================================================================

 ----iterations are completed or convergence reached----

 Mean square residual over all n,k,spin=   52.541E-10; max=  98.896E-10
 dfpt_looppert : ek2=    5.1934260112E+01
          f-sum rule ratio=    1.1178346125E+00
 prteigrs : about to open file t60t_1WF1_EIG
 Expectation of eigenvalue derivatives (hartree) for nkpt=   4  k points:
  (in case of degenerate eigenvalues, averaged derivative)
 kpt#   1, nband= 12, wtk=  0.25000, kpt=  0.0000  0.0000  0.0000 (reduced coord)
   0.00000    0.00000    0.00000    0.00000    0.00000   -0.00000    0.00000   -0.00000
   0.00000    0.00000   -0.00000   -0.00000
 prteigrs : prtvol=0 or 1, do not print more k-points.


 Eight components of 2nd-order total energy (hartree) are
 1,2,3: 0th-order hamiltonian combined with 1st-order wavefunctions
     kin0=   1.14580406E+02 eigvalue=  -5.57121310E+00  local=  -9.37302627E+01
 4,5,6: 1st-order hamiltonian combined with 1st and 0th-order wfs
     kin1=  -5.80539135E+01  Hartree=   0.00000000E+00     xc=   0.00000000E+00
 7,8,9: eventually, occupation + non-local contributions
    edocc=   0.00000000E+00     enl0=   1.26074898E+01   enl1=   2.27926324E+00
 1-9 gives the relaxation energy (to be shifted if some occ is /=2.0)
   erelax=  -2.78882302E+01
  No Ewald or frozen-wf contrib.: the relaxation energy is the total one
 2DEtotal=   -0.2788823022E+02 Ha. Also 2DEtotal=   -0.758877337784E+03 eV
    (  non-var. 2DEtotal :   -2.7887325142E+01 Ha)

--------------------------------------------------------------------------------
 Perturbation wavevector (in red.coord.)   0.000000  0.000000  0.000000
 Perturbation : derivative vs k along direction   3
 The set of symmetries contains only one element for this perturbation.
 symkpt : not enough symmetry to change the number of k points.

--------------------------------------------------------------------------------

--------------------------------------------------------------------------------

 Initialisation of the first-order wave-functions :
  ireadwf=   0

--- !BeginCycle
iteration_state: {dtset: 2, }
solver: {iscf: -3, nstep: 20, nline: 4, wfoptalg: 0, }
tolerances: {tolwfr: 1.00E-08, }
...

     iter   2DEtotal(Ha)        deltaE(Ha) residm    vres2
-ETOT  1  -5.5630727103315     -5.563E+00 2.121E-02 0.000E+00
 ETOT  2  -5.5918814764199     -2.881E-02 1.063E-03 0.000E+00
 ETOT  3  -5.5927465947425     -8.651E-04 1.608E-05 0.000E+00
 ETOT  4  -5.5927836580255     -3.706E-05 1.442E-06 0.000E+00
 ETOT  5  -5.5927854270773     -1.769E-06 6.315E-08 0.000E+00
 ETOT  6  -5.5927854903918     -6.331E-08 8.964E-09 0.000E+00

 At SCF step    6   max residual=  8.96E-09 < tolwfr=  1.00E-08 =>converged.
================================================================================

 ----iterations are completed or convergence reached----

 Mean square residual over all n,k,spin=   40.956E-10; max=  89.639E-10
 dfpt_looppert : ek2=    1.2141406179E+01
          f-sum rule ratio=    9.5758876290E-01
 prteigrs : about to open file t60t_1WF1_EIG
 Expectation of eigenvalue derivatives (hartree) for nkpt=   4  k points:
  (in case of degenerate eigenvalues, averaged derivative)
 kpt#   1, nband= 12, wtk=  0.25000, kpt=  0.0000  0.0000  0.0000 (reduced coord)
  -0.00000    0.00000   -0.00000   -0.00000   -0.00000    0.00000   -0.00000   -0.00000
  -0.00000   -0.00000    0.00000   -0.00000
 prteigrs : prtvol=0 or 1, do not print more k-points.


 Eight components of 2nd-order total energy (hartree) are
 1,2,3: 0th-order hamiltonian combined with 1st-order wavefunctions
     kin0=   1.42466554E+01 eigvalue=   1.01745170E-01  local=  -1.04789040E+01
 4,5,6: 1st-order hamiltonian combined with 1st and 0th-order wfs
     kin1=  -1.16264741E+01  Hartree=   0.00000000E+00     xc=   0.00000000E+00
 7,8,9: eventually, occupation + non-local contributions
    edocc=   0.00000000E+00     enl0=   1.72274971E+00   enl1=   4.41442322E-01
 1-9 gives the relaxation energy (to be shifted if some occ is /=2.0)
   erelax=  -5.59278549E+00
  No Ewald or frozen-wf contrib.: the relaxation energy is the total one
 2DEtotal=   -0.5592785490E+01 Ha. Also 2DEtotal=   -0.152187432826E+03 eV
    (  non-var. 2DEtotal :   -5.5925159002E+00 Ha)
================================================================================

 ---- first-order wavefunction calculations are completed ----


 Total localisation tensor (bohr^2) in cartesian coordinates
  WARNING : still subject to testing - especially symmetries.
      direction              matrix element
   alpha     beta       real part   imaginary part
     1        1       3.4921820092    0.0000000000
     1        2      -1.2098479064    0.0000000000
     1        3       0.0000000000    0.0000000000
     2        1      -1.2098479064    0.0000000000
     2        2       2.0955180433    0.0000000000
     2        3       0.0000000000    0.0000000000
     3        1       0.0000000000    0.0000000000
     3        2       0.0000000000    0.0000000000
     3        3       1.1129261866    0.0000000000

 respfn : d/dk was computed, but no 2DTE, so no DDB output.

================================================================================
== DATASET  3 ==================================================================
-   mpi_nproc: 1, omp_nthreads: -1 (-1 if OMP is not activated)


--- !DatasetInfo
iteration_state: {dtset: 3, }
dimensions: {natom: 3, nkpt: 4, mband: 12, nsppol: 1, nspinor: 1, nspden: 1, mpw: 370, }
cutoff_energies: {ecut:   6.0, pawecutdg:  -1.0, }
electrons: {nelect:   2.40000000E+01, charge:   0.00000000E+00, occopt:   1.00000000E+00, tsmear:   1.00000000E-02, }
meta: {optdriver: 1, rfelfd: 3, rfphon: 1, }
...

 mkfilename : getwfk/=0, take file _WFK from output of DATASET   1.

 mkfilename : getddk/=0, take file _1WF from output of DATASET   2.

 Exchange-correlation functional for the present dataset will be:
  GGA: Perdew-Burke-Ernzerhof functional - ixc=11
 Citation for XC functional:
  J.P.Perdew, K.Burke, M.Ernzerhof, PRL 77, 3865 (1996)

 Real(R)+Recip(G) space primitive vectors, cartesian coordinates (Bohr,Bohr^-1):
 R(1)=  6.9749786  0.0000000  0.0000000  G(1)=  0.1433696  0.0827745  0.0000000
 R(2)= -3.4874893  6.0405087  0.0000000  G(2)=  0.0000000  0.1655490  0.0000000
 R(3)=  0.0000000  0.0000000 12.4929785  G(3)=  0.0000000  0.0000000  0.0800450
 Unit cell volume ucvol=  5.2635940E+02 bohr^3
 Angles (23,13,12)=  9.00000000E+01  9.00000000E+01  1.20000000E+02 degrees
 setup1 : take into account q-point for computing boxcut.

 getcut: wavevector=  0.0000  0.0000  0.0000  ngfft=  16  16  30
         ecut(hartree)=      6.000   => boxcut(ratio)=   2.08035
--------------------------------------------------------------------------------


 ==>  initialize data related to q vector <== 

 The list of irreducible perturbations for this q vector is:
    1)    idir= 1    ipert=   1
    2)    idir= 3    ipert=   1
    3)    idir= 1    ipert=   2
    4)    idir= 3    ipert=   2
    5)    idir= 1    ipert=   5
    6)    idir= 3    ipert=   5

================================================================================

 The perturbation idir=   2  ipert=   1 is
 symmetric of a previously calculated perturbation.
 So, its SCF calculation is not needed.


 The perturbation idir=   2  ipert=   2 is
 symmetric of a previously calculated perturbation.
 So, its SCF calculation is not needed.


 The perturbation idir=   2  ipert=   5 is
 symmetric of a previously calculated perturbation.
 So, its SCF calculation is not needed.


--------------------------------------------------------------------------------
 Perturbation wavevector (in red.coord.)   0.000000  0.000000  0.000000
 Perturbation : displacement of atom   1   along direction   1
 Found     2 symmetries that leave the perturbation invariant.
 symkpt : the number of k-points, thanks to the symmetries,
 is reduced to     3 .

--------------------------------------------------------------------------------

--------------------------------------------------------------------------------

 Initialisation of the first-order wave-functions :
  ireadwf=   0

--- !BeginCycle
iteration_state: {dtset: 3, }
solver: {iscf: 7, nstep: 20, nline: 4, wfoptalg: 0, }
tolerances: {tolvrs: 1.00E-10, }
...

     iter   2DEtotal(Ha)        deltaE(Ha) residm    vres2
-ETOT  1   2.2154874493235     -1.470E+03 1.369E+00 1.543E+04
 ETOT  2  -1.3309274587650     -3.546E+00 1.271E-02 4.182E+01
 ETOT  3  -1.5249979156995     -1.941E-01 1.121E-03 2.019E+00
 ETOT  4  -1.5389507842135     -1.395E-02 8.861E-05 5.220E-02
 ETOT  5  -1.5392914346842     -3.407E-04 1.225E-05 1.707E-03
 ETOT  6  -1.5393148744522     -2.344E-05 7.720E-07 1.255E-04
 ETOT  7  -1.5393173226944     -2.448E-06 2.199E-07 1.179E-05
 ETOT  8  -1.5393174509066     -1.282E-07 9.203E-09 2.920E-07
 ETOT  9  -1.5393174594638     -8.557E-09 2.432E-09 7.276E-08
 ETOT 10  -1.5393174539516      5.512E-09 7.717E-11 9.022E-10
 ETOT 11  -1.5393174528881      1.063E-09 1.856E-11 5.820E-10
 ETOT 12  -1.5393174525173      3.708E-10 4.560E-13 6.491E-12

 At SCF step   12       vres2   =  6.49E-12 < tolvrs=  1.00E-10 =>converged.
-open ddk wf file :t60o_DS2_1WF10
-open ddk wf file :t60o_DS2_1WF11
-open ddk wf file :t60o_DS2_1WF12
================================================================================

 ----iterations are completed or convergence reached----

 Mean square residual over all n,k,spin=   13.605E-15; max=  45.595E-14

 Thirteen components of 2nd-order total energy (hartree) are
 1,2,3: 0th-order hamiltonian combined with 1st-order wavefunctions
     kin0=   1.57160977E+03 eigvalue=   4.38007102E+02  local=  -1.54111141E+03
 4,5,6: 1st-order hamiltonian combined with 1st and 0th-order wfs
 loc psp =  -1.90488310E+03  Hartree=   4.57421342E+02     xc=  -1.10447124E+02
 note that "loc psp" includes a xc core correction that could be resolved
 7,8,9: eventually, occupation + non-local contributions
    edocc=   0.00000000E+00     enl0=   6.58625534E+02   enl1=  -1.04333231E+03
 1-9 gives the relaxation energy (to be shifted if some occ is /=2.0)
   erelax=  -1.47411019E+03
 10,11,12 Non-relaxation  contributions : frozen-wavefunctions and Ewald
 fr.local=   8.85337410E+02 fr.nonlo=   5.29234852E+02  Ewald=   6.65757838E+01
 13,14 Frozen wf xc core corrections (1) and (2)
 frxc 1  =  -1.83436097E+02  frxc 2 =   1.74858928E+02
 Resulting in :
 2DEtotal=   -0.1539317453E+01 Ha. Also 2DEtotal=   -0.418869580828E+02 eV
    (2DErelax=   -1.4741101941E+03 Ha. 2DEnonrelax=    1.4725708766E+03 Ha)
    (  non-var. 2DEtotal :   -1.5368309824E+00 Ha)


--------------------------------------------------------------------------------
 Perturbation wavevector (in red.coord.)   0.000000  0.000000  0.000000
 Perturbation : displacement of atom   1   along direction   3
 Found     6 symmetries that leave the perturbation invariant.
 symkpt : the number of k-points, thanks to the symmetries,
 is reduced to     2 .

--------------------------------------------------------------------------------

--------------------------------------------------------------------------------

 Initialisation of the first-order wave-functions :
  ireadwf=   0

--- !BeginCycle
iteration_state: {dtset: 3, }
solver: {iscf: 7, nstep: 20, nline: 4, wfoptalg: 0, }
tolerances: {tolvrs: 1.00E-10, }
...

     iter   2DEtotal(Ha)        deltaE(Ha) residm    vres2
-ETOT  1   62.446585940581     -5.173E+03 6.162E+00 1.233E+05
 ETOT  2   35.770549891954     -2.668E+01 8.898E-02 3.823E+03
 ETOT  3   34.655537401448     -1.115E+00 6.735E-02 3.351E+03
 ETOT  4   29.242905546285     -5.413E+00 1.499E-02 3.242E+00
 ETOT  5   29.220632447974     -2.227E-02 2.691E-04 2.155E-01
 ETOT  6   29.220277594179     -3.549E-04 1.427E-05 2.651E-01
 ETOT  7   29.219861430302     -4.162E-04 1.708E-06 2.316E-03
 ETOT  8   29.219855670637     -5.760E-06 1.104E-07 4.118E-04
 ETOT  9   29.219855041734     -6.289E-07 6.070E-09 1.458E-05
 ETOT 10   29.219855034890     -6.844E-09 3.316E-10 1.249E-06
 ETOT 11   29.219855018318     -1.657E-08 3.882E-11 1.194E-08
 ETOT 12   29.219855019040      7.221E-10 8.009E-12 7.284E-10
 ETOT 13   29.219855018487     -5.530E-10 2.861E-13 4.980E-10
 ETOT 14   29.219855018644      1.573E-10 9.456E-14 4.169E-12

 At SCF step   14       vres2   =  4.17E-12 < tolvrs=  1.00E-10 =>converged.
-open ddk wf file :t60o_DS2_1WF10
-open ddk wf file :t60o_DS2_1WF11
-open ddk wf file :t60o_DS2_1WF12
================================================================================

 ----iterations are completed or convergence reached----

 Mean square residual over all n,k,spin=   55.989E-16; max=  94.559E-15

 Thirteen components of 2nd-order total energy (hartree) are
 1,2,3: 0th-order hamiltonian combined with 1st-order wavefunctions
     kin0=   4.71746295E+03 eigvalue=   1.51740088E+03  local=  -4.64642264E+03
 4,5,6: 1st-order hamiltonian combined with 1st and 0th-order wfs
 loc psp =  -7.17421103E+03  Hartree=   1.90287338E+03     xc=  -3.64580908E+02
 note that "loc psp" includes a xc core correction that could be resolved
 7,8,9: eventually, occupation + non-local contributions
    edocc=   0.00000000E+00     enl0=   2.07950326E+03   enl1=  -3.23826552E+03
 1-9 gives the relaxation energy (to be shifted if some occ is /=2.0)
   erelax=  -5.20623963E+03
 10,11,12 Non-relaxation  contributions : frozen-wavefunctions and Ewald
 fr.local=   3.52666300E+03 fr.nonlo=   1.62620050E+03  Ewald=   1.09402626E+02
 13,14 Frozen wf xc core corrections (1) and (2)
 frxc 1  =  -5.90567465E+02  frxc 2 =   5.63760824E+02
 Resulting in :
 2DEtotal=    0.2921985502E+02 Ha. Also 2DEtotal=    0.795112691246E+03 eV
    (2DErelax=   -5.2062396303E+03 Ha. 2DEnonrelax=    5.2354594853E+03 Ha)
    (  non-var. 2DEtotal :    2.9221207732E+01 Ha)


--------------------------------------------------------------------------------
 Perturbation wavevector (in red.coord.)   0.000000  0.000000  0.000000
 Perturbation : displacement of atom   2   along direction   1
 The set of symmetries contains only one element for this perturbation.
 symkpt : not enough symmetry to change the number of k points.

--------------------------------------------------------------------------------

--------------------------------------------------------------------------------

 Initialisation of the first-order wave-functions :
  ireadwf=   0

--- !BeginCycle
iteration_state: {dtset: 3, }
solver: {iscf: 7, nstep: 20, nline: 4, wfoptalg: 0, }
tolerances: {tolvrs: 1.00E-10, }
...

     iter   2DEtotal(Ha)        deltaE(Ha) residm    vres2
-ETOT  1   3.6625982504170     -2.852E+02 2.358E-01 3.033E+03
 ETOT  2   1.8915216973208     -1.771E+00 5.227E-02 1.115E+01
 ETOT  3   1.7466449469835     -1.449E-01 6.060E-03 5.008E+00
 ETOT  4   1.7108810503556     -3.576E-02 5.038E-04 1.491E-01
 ETOT  5   1.7092798501341     -1.601E-03 8.914E-05 7.068E-03
 ETOT  6   1.7091299193568     -1.499E-04 5.906E-06 1.622E-03
 ETOT  7   1.7091117972177     -1.812E-05 9.665E-07 2.268E-04
 ETOT  8   1.7091096746648     -2.123E-06 6.527E-08 4.918E-05
 ETOT  9   1.7091093722186     -3.024E-07 1.750E-08 3.453E-06
 ETOT 10   1.7091093386841     -3.353E-08 1.080E-09 5.739E-07
 ETOT 11   1.7091093341830     -4.501E-09 2.457E-10 4.735E-08
 ETOT 12   1.7091093336585     -5.245E-10 1.795E-11 4.351E-09
 ETOT 13   1.7091093335955     -6.304E-11 3.934E-12 1.647E-10
 ETOT 14   1.7091093335870     -8.470E-12 3.163E-13 1.697E-11

 At SCF step   14       vres2   =  1.70E-11 < tolvrs=  1.00E-10 =>converged.
-open ddk wf file :t60o_DS2_1WF10
-open ddk wf file :t60o_DS2_1WF11
-open ddk wf file :t60o_DS2_1WF12
================================================================================

 ----iterations are completed or convergence reached----

 Mean square residual over all n,k,spin=   11.921E-15; max=  31.631E-14

 Thirteen components of 2nd-order total energy (hartree) are
 1,2,3: 0th-order hamiltonian combined with 1st-order wavefunctions
     kin0=   3.72029458E+02 eigvalue=  -1.55297670E+01  local=  -2.94679329E+02
 4,5,6: 1st-order hamiltonian combined with 1st and 0th-order wfs
 loc psp =  -2.26986298E+02  Hartree=   8.38540967E+01     xc=  -2.88167855E+01
 note that "loc psp" includes a xc core correction that could be resolved
 7,8,9: eventually, occupation + non-local contributions
    edocc=   0.00000000E+00     enl0=   1.70262329E+02   enl1=  -3.47253708E+02
 1-9 gives the relaxation energy (to be shifted if some occ is /=2.0)
   erelax=  -2.87120005E+02
 10,11,12 Non-relaxation  contributions : frozen-wavefunctions and Ewald
 fr.local=   8.33152647E+01 fr.nonlo=   1.78475280E+02  Ewald=   3.48337617E+01
 13,14 Frozen wf xc core corrections (1) and (2)
 frxc 1  =  -4.62661430E+01  frxc 2 =   3.84709504E+01
 Resulting in :
 2DEtotal=    0.1709109334E+01 Ha. Also 2DEtotal=    0.465072301349E+02 eV
    (2DErelax=   -2.8712000487E+02 Ha. 2DEnonrelax=    2.8882911420E+02 Ha)
    (  non-var. 2DEtotal :    1.7091111348E+00 Ha)


--------------------------------------------------------------------------------
 Perturbation wavevector (in red.coord.)   0.000000  0.000000  0.000000
 Perturbation : displacement of atom   2   along direction   3
 Found     6 symmetries that leave the perturbation invariant.
 symkpt : the number of k-points, thanks to the symmetries,
 is reduced to     2 .

--------------------------------------------------------------------------------

--------------------------------------------------------------------------------

 Initialisation of the first-order wave-functions :
  ireadwf=   0

--- !BeginCycle
iteration_state: {dtset: 3, }
solver: {iscf: 7, nstep: 20, nline: 4, wfoptalg: 0, }
tolerances: {tolvrs: 1.00E-10, }
...

     iter   2DEtotal(Ha)        deltaE(Ha) residm    vres2
-ETOT  1   26.532942071546     -1.007E+03 3.475E-01 1.650E+04
 ETOT  2   20.207561498665     -6.325E+00 2.489E-02 5.617E+02
 ETOT  3   20.173054725729     -3.451E-02 1.569E-02 9.631E+02
 ETOT  4   18.692314503806     -1.481E+00 2.928E-03 2.435E+01
 ETOT  5   18.661442634418     -3.087E-02 2.803E-04 4.328E-01
 ETOT  6   18.660510947147     -9.317E-04 4.301E-06 4.604E-02
 ETOT  7   18.660402860079     -1.081E-04 6.496E-07 1.480E-02
 ETOT  8   18.660378253211     -2.461E-05 7.290E-08 1.299E-03
 ETOT  9   18.660376176833     -2.076E-06 9.528E-09 8.365E-05
 ETOT 10   18.660376039678     -1.372E-07 7.962E-10 2.304E-06
 ETOT 11   18.660376042370      2.691E-09 1.533E-10 5.158E-07
 ETOT 12   18.660376045418      3.049E-09 8.705E-12 4.852E-08
 ETOT 13   18.660376045055     -3.627E-10 8.167E-13 1.506E-09
 ETOT 14   18.660376044897     -1.586E-10 1.062E-13 7.004E-11

 At SCF step   14       vres2   =  7.00E-11 < tolvrs=  1.00E-10 =>converged.
-open ddk wf file :t60o_DS2_1WF10
-open ddk wf file :t60o_DS2_1WF11
-open ddk wf file :t60o_DS2_1WF12
================================================================================

 ----iterations are completed or convergence reached----

 Mean square residual over all n,k,spin=   92.193E-16; max=  10.624E-14

 Thirteen components of 2nd-order total energy (hartree) are
 1,2,3: 0th-order hamiltonian combined with 1st-order wavefunctions
     kin0=   9.41015170E+02 eigvalue=  -2.39347458E+01  local=  -6.66871990E+02
 4,5,6: 1st-order hamiltonian combined with 1st and 0th-order wfs
 loc psp =  -1.04097820E+03  Hartree=   3.93529059E+02     xc=  -8.51305228E+01
 note that "loc psp" includes a xc core correction that could be resolved
 7,8,9: eventually, occupation + non-local contributions
    edocc=   0.00000000E+00     enl0=   4.55853126E+02   enl1=  -9.87942251E+02
 1-9 gives the relaxation energy (to be shifted if some occ is /=2.0)
   erelax=  -1.01446035E+03
 10,11,12 Non-relaxation  contributions : frozen-wavefunctions and Ewald
 fr.local=   3.52409731E+02 fr.nonlo=   5.23709482E+02  Ewald=   1.78923872E+02
 13,14 Frozen wf xc core corrections (1) and (2)
 frxc 1  =  -1.48443848E+02  frxc 2 =   1.26521493E+02
 Resulting in :
 2DEtotal=    0.1866037604E+02 Ha. Also 2DEtotal=    0.507774655530E+03 eV
    (2DErelax=   -1.0144603544E+03 Ha. 2DEnonrelax=    1.0331207304E+03 Ha)
    (  non-var. 2DEtotal :    1.8660505199E+01 Ha)


--------------------------------------------------------------------------------
 Perturbation wavevector (in red.coord.)   0.000000  0.000000  0.000000
 Perturbation : homogeneous electric field along direction   1
 The set of symmetries contains only one element for this perturbation.
 symkpt : not enough symmetry to change the number of k points.

--------------------------------------------------------------------------------

--------------------------------------------------------------------------------

 Initialisation of the first-order wave-functions :
  ireadwf=   0
- dfpt_looppert: read the DDK wavefunctions from file: t60o_DS2_1WF10

--- !BeginCycle
iteration_state: {dtset: 3, }
solver: {iscf: 7, nstep: 20, nline: 4, wfoptalg: 0, }
tolerances: {tolvrs: 1.00E-10, }
...

     iter   2DEtotal(Ha)        deltaE(Ha) residm    vres2
-ETOT  1  -701.52421784355     -7.015E+02 3.097E+01 1.650E+04
 ETOT  2  -787.89985949213     -8.638E+01 8.265E-01 1.999E+03
 ETOT  3  -798.73566719641     -1.084E+01 3.610E-02 4.397E+00
 ETOT  4  -798.81155980638     -7.589E-02 4.190E-03 2.469E-01
 ETOT  5  -798.81642499149     -4.865E-03 4.223E-04 1.392E-01
 ETOT  6  -798.81732961019     -9.046E-04 2.391E-05 1.820E-02
 ETOT  7  -798.81740308531     -7.348E-05 4.929E-06 5.077E-04
 ETOT  8  -798.81740849918     -5.414E-06 1.959E-07 1.569E-04
 ETOT  9  -798.81740927749     -7.783E-07 7.611E-08 7.547E-07
 ETOT 10  -798.81740933199     -5.449E-08 2.674E-09 4.245E-07
 ETOT 11  -798.81740933938     -7.391E-09 9.412E-10 1.129E-08
 ETOT 12  -798.81740934014     -7.652E-10 3.241E-11 5.108E-10
 ETOT 13  -798.81740934021     -6.185E-11 1.084E-11 1.648E-10
 ETOT 14  -798.81740934024     -3.456E-11 3.201E-13 6.033E-12

 At SCF step   14       vres2   =  6.03E-12 < tolvrs=  1.00E-10 =>converged.
-open ddk wf file :t60o_DS2_1WF10
-open ddk wf file :t60o_DS2_1WF11
-open ddk wf file :t60o_DS2_1WF12
================================================================================

 ----iterations are completed or convergence reached----

 Mean square residual over all n,k,spin=   71.638E-16; max=  32.012E-14

 Seven components of 2nd-order total energy (hartree) are
 1,2,3: 0th-order hamiltonian combined with 1st-order wavefunctions
     kin0=   9.29936495E+03 eigvalue=  -9.21900647E+02  local=  -8.15203751E+03
 4,5,6: 1st-order hamiltonian combined with 1st and 0th-order wfs
    dotwf=  -1.59763480E+03  Hartree=   1.07792859E+02     xc=  -7.23986913E+01
 7,8,9: eventually, occupation + non-local contributions
    edocc=   0.00000000E+00     enl0=   5.37996432E+02   enl1=   0.00000000E+00
 1-9 gives the relaxation energy (to be shifted if some occ is /=2.0)
   erelax=  -7.98817409E+02
  No Ewald or frozen-wf contrib.: the relaxation energy is the total one
 2DEtotal=   -0.7988174093E+03 Ha. Also 2DEtotal=   -0.217369271596E+05 eV
    (  non-var. 2DEtotal :   -7.9881740053E+02 Ha)

--------------------------------------------------------------------------------
 Perturbation wavevector (in red.coord.)   0.000000  0.000000  0.000000
 Perturbation : homogeneous electric field along direction   3
 The set of symmetries contains only one element for this perturbation.
 symkpt : not enough symmetry to change the number of k points.

--------------------------------------------------------------------------------

--------------------------------------------------------------------------------

 Initialisation of the first-order wave-functions :
  ireadwf=   0
- dfpt_looppert: read the DDK wavefunctions from file: t60o_DS2_1WF12

--- !BeginCycle
iteration_state: {dtset: 3, }
solver: {iscf: 7, nstep: 20, nline: 4, wfoptalg: 0, }
tolerances: {tolvrs: 1.00E-10, }
...

     iter   2DEtotal(Ha)        deltaE(Ha) residm    vres2
-ETOT  1   54.737401786977      5.474E+01 1.357E+00 5.989E+04
 ETOT  2   32.800783852007     -2.194E+01 1.006E+00 3.280E+04
 ETOT  3  -27.348491327876     -6.015E+01 2.469E-01 4.488E+02
 ETOT  4  -27.949720857689     -6.012E-01 2.019E-03 6.187E+01
 ETOT  5  -28.020930395274     -7.121E-02 2.435E-04 1.829E+00
 ETOT  6  -28.022886125714     -1.956E-03 1.771E-05 1.811E-01
 ETOT  7  -28.023152705478     -2.666E-04 6.355E-07 1.874E-03
 ETOT  8  -28.023156962265     -4.257E-06 1.061E-07 1.058E-03
 ETOT  9  -28.023158630176     -1.668E-06 5.833E-09 1.612E-05
 ETOT 10  -28.023158658576     -2.840E-08 2.106E-10 3.236E-07
 ETOT 11  -28.023158658772     -1.962E-10 9.553E-12 2.823E-07
 ETOT 12  -28.023158659179     -4.073E-10 1.679E-12 1.645E-09
 ETOT 13  -28.023158659185     -5.940E-12 2.524E-13 3.110E-10
 ETOT 14  -28.023158659185     -1.528E-13 9.073E-15 7.961E-11

 At SCF step   14       vres2   =  7.96E-11 < tolvrs=  1.00E-10 =>converged.
-open ddk wf file :t60o_DS2_1WF10
-open ddk wf file :t60o_DS2_1WF11
-open ddk wf file :t60o_DS2_1WF12
================================================================================

 ----iterations are completed or convergence reached----

 Mean square residual over all n,k,spin=   31.776E-17; max=  90.730E-16

 Seven components of 2nd-order total energy (hartree) are
 1,2,3: 0th-order hamiltonian combined with 1st-order wavefunctions
     kin0=   8.87649752E+01 eigvalue=  -1.12952538E+01  local=  -6.32407463E+01
 4,5,6: 1st-order hamiltonian combined with 1st and 0th-order wfs
    dotwf=  -5.60463191E+01  Hartree=   9.77659848E+00     xc=  -2.87463099E+00
 7,8,9: eventually, occupation + non-local contributions
    edocc=   0.00000000E+00     enl0=   6.89221781E+00   enl1=   0.00000000E+00
 1-9 gives the relaxation energy (to be shifted if some occ is /=2.0)
   erelax=  -2.80231587E+01
  No Ewald or frozen-wf contrib.: the relaxation energy is the total one
 2DEtotal=   -0.2802315866E+02 Ha. Also 2DEtotal=   -0.762548927245E+03 eV
    (  non-var. 2DEtotal :   -2.8023159559E+01 Ha)
================================================================================

 ---- first-order wavefunction calculations are completed ----


 ==> Compute Derivative Database <==
 The violation of the charge neutrality conditions
 by the effective charges is as follows :
    atom        electric field
 displacement     direction
       1               1       -2.816314        0.000000
       1               2        0.000000        0.000000
       1               3        0.000000        0.000000
       2               1        0.000000        0.000000
       2               2       -2.816314        0.000000
       2               3        0.000000        0.000000
       3               1        0.000000        0.000000
       3               2        0.000000        0.000000
       3               3        1.028436        0.000000

 Effective charge tensors after 
 imposition of the charge neutrality (if requested by user),
 and eventual restriction to some part :
   atom    displacement
         1         1    1.584111E+01    0.000000E+00    0.000000E+00
         1         2   -1.418748E-15    1.584111E+01   -5.948009E-21
         1         3    0.000000E+00    0.000000E+00    2.409480E+00
         2         1   -7.920553E+00    0.000000E+00    5.151127E-21
         2         2    7.093740E-16   -7.920553E+00    5.948009E-21
         2         3    0.000000E+00    0.000000E+00   -1.204740E+00
         3         1   -7.920553E+00    0.000000E+00   -5.151127E-21
         3         2    7.093740E-16   -7.920553E+00   -1.772645E-28
         3         3    0.000000E+00    0.000000E+00   -1.204740E+00
 Now, the imaginary part of the dynamical matrix is zeroed
  
  2nd-order matrix (non-cartesian coordinates, masses not included,
   asr not included )
     j1       j2             matrix element
  dir pert dir pert     real part     imaginary part
  
   1    1   1    1        -1.4671217831         0.0000000000
   1    1   2    1         0.7335608915         0.0000000000
   1    1   3    1        -0.0000000000         0.0000000000
   1    1   1    2         0.8483727977        -0.0000000000
   1    1   2    2        -0.4241863989        -0.0000000000
   1    1   3    2         0.0000000000         0.0000000000
   1    1   1    3         0.8483727977         0.0000000000
   1    1   2    3        -0.4241863989        -0.0000000000
   1    1   3    3        -0.0000000000        -0.0000000000
   1    1   1    5        18.2359087023         0.0000000000
   1    1   2    5         0.0000000000         0.0000000000
   1    1   3    5         0.0000000000         0.0000000000
  
   2    1   1    1         0.7335608915         0.0000000000
   2    1   2    1        -1.4671217831         0.0000000000
   2    1   3    1         0.0000000000         0.0000000000
   2    1   1    2        -0.4241863989        -0.0000000000
   2    1   2    2         0.8483727977        -0.0000000000
   2    1   3    2        -0.0000000000         0.0000000000
   2    1   1    3        -0.4241863989        -0.0000000000
   2    1   2    3         0.8483727977         0.0000000000
   2    1   3    3        -0.0000000000        -0.0000000000
   2    1   1    5         0.0000000000         0.0000000000
   2    1   2    5        18.2359087023         0.0000000000
   2    1   3    5         0.0000000000         0.0000000000
  
   3    1   1    1        -0.0000000000         0.0000000000
   3    1   2    1         0.0000000000         0.0000000000
   3    1   3    1        29.2212077318         0.0000000000
   3    1   1    2         0.0000000000         0.0000000000
   3    1   2    2        -0.0000000000         0.0000000000
   3    1   3    2       -15.5755461001         0.0000000000
   3    1   1    3        -0.0000000000        -0.0000000000
   3    1   2    3        -0.0000000000        -0.0000000000
   3    1   3    3       -15.5755461001         0.0000000000
   3    1   1    5         0.0000000000         0.0000000000
   3    1   2    5         0.0000000000         0.0000000000
   3    1   3    5       -58.1050619754         0.0000000000
  
   1    2   1    1         0.8482023678         0.0000000000
   1    2   2    1        -0.4241011839         0.0000000000
   1    2   3    1         0.0000000000        -0.0000000000
   1    2   1    2         1.7299089991         0.0000000000
   1    2   2    2        -0.8649544996         0.0000000000
   1    2   3    2        -0.0000000000         0.0000000000
   1    2   1    3        -2.5757652186         0.0000000000
   1    2   2    3         1.2878826093        -0.0000000000
   1    2   3    3         0.0000000000         0.0000000000
   1    2   1    5       -93.3638893168         0.0000000000
   1    2   2    5         0.0000000000         0.0000000000
   1    2   3    5         0.0000000000         0.0000000000
  
   2    2   1    1        -0.4241011839         0.0000000000
   2    2   2    1         0.8482023678         0.0000000000
   2    2   3    1        -0.0000000000        -0.0000000000
   2    2   1    2        -0.8649544996         0.0000000000
   2    2   2    2         1.7299089991         0.0000000000
   2    2   3    2         0.0000000000         0.0000000000
   2    2   1    3         1.2878826093        -0.0000000000
   2    2   2    3        -2.5757652186        -0.0000000000
   2    2   3    3        -0.0000000000         0.0000000000
   2    2   1    5         0.0000000000         0.0000000000
   2    2   2    5       -93.3638893168         0.0000000000
   2    2   3    5         0.0000000000         0.0000000000
  
   3    2   1    1         0.0000000000        -0.0000000000
   3    2   2    1        -0.0000000000        -0.0000000000
   3    2   3    1       -15.5761233924        -0.0000000000
   3    2   1    2        -0.0000000000         0.0000000000
   3    2   2    2         0.0000000000         0.0000000000
   3    2   3    2        18.6605051993         0.0000000000
   3    2   1    3         0.0000000000         0.0000000000
   3    2   2    3        -0.0000000000         0.0000000000
   3    2   3    3        -2.3740667892         0.0000000000
   3    2   1    5         0.0000000000         0.0000000000
   3    2   2    5         0.0000000000         0.0000000000
   3    2   3    5       -43.1147663619         0.0000000000
  
   1    3   1    1         0.8482023678        -0.0000000000
   1    3   2    1        -0.4241011839         0.0000000000
   1    3   3    1        -0.0000000000         0.0000000000
   1    3   1    2        -2.5757652186        -0.0000000000
   1    3   2    2         1.2878826093         0.0000000000
   1    3   3    2         0.0000000000        -0.0000000000
   1    3   1    3         1.7299089991         0.0000000000
   1    3   2    3        -0.8649544996         0.0000000000
   1    3   3    3         0.0000000000         0.0000000000
   1    3   1    5       -93.3638893168         0.0000000000
   1    3   2    5         0.0000000000         0.0000000000
   1    3   3    5        -0.0000000000         0.0000000000
  
   2    3   1    1        -0.4241011839         0.0000000000
   2    3   2    1         0.8482023678        -0.0000000000
   2    3   3    1        -0.0000000000         0.0000000000
   2    3   1    2         1.2878826093         0.0000000000
   2    3   2    2        -2.5757652186         0.0000000000
   2    3   3    2        -0.0000000000        -0.0000000000
   2    3   1    3        -0.8649544996         0.0000000000
   2    3   2    3         1.7299089991         0.0000000000
   2    3   3    3         0.0000000000         0.0000000000
   2    3   1    5         0.0000000000         0.0000000000
   2    3   2    5       -93.3638893168         0.0000000000
   2    3   3    5         0.0000000000         0.0000000000
  
   3    3   1    1        -0.0000000000         0.0000000000
   3    3   2    1        -0.0000000000         0.0000000000
   3    3   3    1       -15.5761233924        -0.0000000000
   3    3   1    2         0.0000000000        -0.0000000000
   3    3   2    2        -0.0000000000        -0.0000000000
   3    3   3    2        -2.3740667892        -0.0000000000
   3    3   1    3         0.0000000000         0.0000000000
   3    3   2    3         0.0000000000         0.0000000000
   3    3   3    3        18.6605051993         0.0000000000
   3    3   1    5         0.0000000000         0.0000000000
   3    3   2    5         0.0000000000         0.0000000000
   3    3   3    5       -43.1147663619         0.0000000000
  
   1    5   1    1        18.2399410045         0.0000000000
   1    5   2    1         0.0000000000         0.0000000000
   1    5   3    1         0.0000000000         0.0000000000
   1    5   1    2       -93.3638804466         0.0000000000
   1    5   2    2         0.0000000000         0.0000000000
   1    5   3    2         0.0000000000         0.0000000000
   1    5   1    3       -93.3638804466         0.0000000000
   1    5   2    3         0.0000000000         0.0000000000
   1    5   3    3         0.0000000000         0.0000000000
   1    5   1    5      -798.9125374866         0.0000000000
   1    5   2    5      -399.4562687433         0.0000000000
   1    5   3    5         0.0000000000         0.0000000000
  
   2    5   1    1         0.0000000000         0.0000000000
   2    5   2    1        18.2399410045         0.0000000000
   2    5   3    1         0.0000000000         0.0000000000
   2    5   1    2         0.0000000000         0.0000000000
   2    5   2    2       -93.3638804466         0.0000000000
   2    5   3    2         0.0000000000         0.0000000000
   2    5   1    3         0.0000000000         0.0000000000
   2    5   2    3       -93.3638804466         0.0000000000
   2    5   3    3         0.0000000000         0.0000000000
   2    5   1    5      -399.4562687433         0.0000000000
   2    5   2    5      -798.9125374866         0.0000000000
   2    5   3    5         0.0000000000         0.0000000000
  
   3    5   1    1         0.0000000000         0.0000000000
   3    5   2    1        -0.0000000000         0.0000000000
   3    5   3    1       -58.1062660277         0.0000000000
   3    5   1    2         0.0000000000         0.0000000000
   3    5   2    2         0.0000000000         0.0000000000
   3    5   3    2       -43.1146782173         0.0000000000
   3    5   1    3         0.0000000000         0.0000000000
   3    5   2    3        -0.0000000000         0.0000000000
   3    5   3    3       -43.1146782173         0.0000000000
   3    5   1    5         0.0000000000         0.0000000000
   3    5   2    5         0.0000000000         0.0000000000
   3    5   3    5       -28.0231595594         0.0000000000
  
  
  Dynamical matrix, in cartesian coordinates,
   if specified in the inputs, asr has been imposed
     j1       j2             matrix element
  dir pert dir pert     real part    imaginary part
  
   1    1   1    1        -0.0348763453         0.0000000000
   1    1   2    1         0.0000000000         0.0000000000
   1    1   3    1        -0.0000000000         0.0000000000
   1    1   1    2         0.0174381726         0.0000000000
   1    1   2    2        -0.0000000000         0.0000000000
   1    1   3    2         0.0000000000         0.0000000000
   1    1   1    3         0.0174381726         0.0000000000
   1    1   2    3        -0.0000000000         0.0000000000
   1    1   3    3        -0.0000000000         0.0000000000
  
   2    1   1    1         0.0000000000         0.0000000000
   2    1   2    1        -0.0348763453         0.0000000000
   2    1   3    1         0.0000000000         0.0000000000
   2    1   1    2        -0.0000000000         0.0000000000
   2    1   2    2         0.0174381726         0.0000000000
   2    1   3    2         0.0000000000         0.0000000000
   2    1   1    3        -0.0000000000         0.0000000000
   2    1   2    3         0.0174381726         0.0000000000
   2    1   3    3        -0.0000000000         0.0000000000
  
   3    1   1    1        -0.0000000000         0.0000000000
   3    1   2    1         0.0000000000         0.0000000000
   3    1   3    1         0.1995911555         0.0000000000
   3    1   1    2         0.0000000000         0.0000000000
   3    1   2    2         0.0000000000         0.0000000000
   3    1   3    2        -0.0997955777         0.0000000000
   3    1   1    3        -0.0000000000         0.0000000000
   3    1   2    3        -0.0000000000         0.0000000000
   3    1   3    3        -0.0997955777         0.0000000000
  
   1    2   1    1         0.0174346695         0.0000000000
   1    2   2    1        -0.0000000000         0.0000000000
   1    2   3    1         0.0000000000         0.0000000000
   1    2   1    2         0.0355097892         0.0000000000
   1    2   2    2         0.0000000000         0.0000000000
   1    2   3    2        -0.0000000000         0.0000000000
   1    2   1    3        -0.0529444587         0.0000000000
   1    2   2    3         0.0000000000         0.0000000000
   1    2   3    3         0.0000000000         0.0000000000
  
   2    2   1    1        -0.0000000000         0.0000000000
   2    2   2    1         0.0174346695         0.0000000000
   2    2   3    1         0.0000000000         0.0000000000
   2    2   1    2         0.0000000000         0.0000000000
   2    2   2    2         0.0355097892         0.0000000000
   2    2   3    2        -0.0000000000         0.0000000000
   2    2   1    3         0.0000000000         0.0000000000
   2    2   2    3        -0.0529444587         0.0000000000
   2    2   3    3        -0.0000000000         0.0000000000
  
   3    2   1    1         0.0000000000         0.0000000000
   3    2   2    1         0.0000000000         0.0000000000
   3    2   3    1        -0.0997992766         0.0000000000
   3    2   1    2        -0.0000000000         0.0000000000
   3    2   2    2        -0.0000000000         0.0000000000
   3    2   3    2         0.1150103880         0.0000000000
   3    2   1    3         0.0000000000         0.0000000000
   3    2   2    3        -0.0000000000         0.0000000000
   3    2   3    3        -0.0152111114         0.0000000000
  
   1    3   1    1         0.0174346695         0.0000000000
   1    3   2    1        -0.0000000000         0.0000000000
   1    3   3    1        -0.0000000000         0.0000000000
   1    3   1    2        -0.0529444587         0.0000000000
   1    3   2    2         0.0000000000         0.0000000000
   1    3   3    2         0.0000000000         0.0000000000
   1    3   1    3         0.0355097892         0.0000000000
   1    3   2    3         0.0000000000         0.0000000000
   1    3   3    3         0.0000000000         0.0000000000
  
   2    3   1    1        -0.0000000000         0.0000000000
   2    3   2    1         0.0174346695         0.0000000000
   2    3   3    1        -0.0000000000         0.0000000000
   2    3   1    2         0.0000000000         0.0000000000
   2    3   2    2        -0.0529444587         0.0000000000
   2    3   3    2        -0.0000000000         0.0000000000
   2    3   1    3         0.0000000000         0.0000000000
   2    3   2    3         0.0355097892         0.0000000000
   2    3   3    3         0.0000000000         0.0000000000
  
   3    3   1    1        -0.0000000000         0.0000000000
   3    3   2    1        -0.0000000000         0.0000000000
   3    3   3    1        -0.0997992766         0.0000000000
   3    3   1    2         0.0000000000         0.0000000000
   3    3   2    2        -0.0000000000         0.0000000000
   3    3   3    2        -0.0152111114         0.0000000000
   3    3   1    3         0.0000000000         0.0000000000
   3    3   2    3         0.0000000000         0.0000000000
   3    3   3    3         0.1150103880         0.0000000000
  
  Dielectric tensor, in cartesian coordinates,
     j1       j2             matrix element
  dir pert dir pert     real part    imaginary part
  
   1    5   1    5        18.6284449092        -0.0000000000
   1    5   2    5         0.0000000000        -0.0000000000
   1    5   3    5        -0.0000000000        -0.0000000000
  
   2    5   1    5         0.0000000000        -0.0000000000
   2    5   2    5        18.6284449092        -0.0000000000
   2    5   3    5        -0.0000000000        -0.0000000000
  
   3    5   1    5        -0.0000000000        -0.0000000000
   3    5   2    5        -0.0000000000        -0.0000000000
   3    5   3    5         3.6449461000        -0.0000000000
  
  Effective charges, in cartesian coordinates,
  (from electric field response) 
   if specified in the inputs, charge neutrality has been imposed
     j1       j2             matrix element
  dir pert dir pert     real part    imaginary part
  
   1    1   1    5        15.8411063632         0.0000000000
   2    1   1    5        -0.0000000000         0.0000000000
   3    1   1    5         0.0000000000         0.0000000000
   1    2   1    5        -7.9205531396         0.0000000000
   2    2   1    5         0.0000000000         0.0000000000
   3    2   1    5         0.0000000000         0.0000000000
   1    3   1    5        -7.9205531396         0.0000000000
   2    3   1    5         0.0000000000         0.0000000000
   3    3   1    5         0.0000000000         0.0000000000
  
   1    1   2    5         0.0000000000         0.0000000000
   2    1   2    5        15.8411063632         0.0000000000
   3    1   2    5         0.0000000000         0.0000000000
   1    2   2    5         0.0000000000         0.0000000000
   2    2   2    5        -7.9205531396         0.0000000000
   3    2   2    5         0.0000000000         0.0000000000
   1    3   2    5         0.0000000000         0.0000000000
   2    3   2    5        -7.9205531396         0.0000000000
   3    3   2    5         0.0000000000         0.0000000000
  
   1    1   3    5         0.0000000000         0.0000000000
   2    1   3    5        -0.0000000000         0.0000000000
   3    1   3    5         2.4094802263         0.0000000000
   1    2   3    5         0.0000000000         0.0000000000
   2    2   3    5         0.0000000000         0.0000000000
   3    2   3    5        -1.2047401285         0.0000000000
   1    3   3    5        -0.0000000000         0.0000000000
   2    3   3    5        -0.0000000000         0.0000000000
   3    3   3    5        -1.2047401285         0.0000000000
  
  Effective charges, in cartesian coordinates,
  (from phonon response) 
   if specified in the inputs, charge neutrality has been imposed
     j1       j2             matrix element
  dir pert dir pert     real part    imaginary part
  
   1    5   1    1        15.8415332626         0.0000000000
   2    5   1    1         0.0000000000         0.0000000000
   3    5   1    1         0.0000000000         0.0000000000
  
   1    5   2    1         0.0000000000         0.0000000000
   2    5   2    1        15.8415332626         0.0000000000
   3    5   2    1        -0.0000000000         0.0000000000
  
[...]
    8   11    2    4       600   0.00000      pspcod,pspxc,lmax,lloc,mmax,r2well
    5.99000000000000    6.00000000000000    0.00000000000000   rchrg,fchrg,qchrg
     nproj     2     2     2
     extension_switch     1
  pspatm : epsatm=    9.01821879
         --- l  ekb(1:nproj) -->
             0    6.763951    0.574108
             1    3.227080    0.887329
             2   -3.547662   -0.986524
 pspatm: atomic psp has been read  and splines computed

--------------------------------------------------------------------------------

--------------------------------------------------------------------------------
 Dielectric average (EQ. 25 Melo2022)
--------------------------------------------------------------------------------
 Mode    <1/epsilon*SQRT(w_LO/2)>              Cumulative sum
    4              0.000000000000              0.000000000000
    5              0.000424637614              0.000424637614
    6              0.000000000000              0.000424637614
    7              0.000182344428              0.000606982043
    8              0.000217934240              0.000824916282
    9              0.002221733529              0.003046649811
--------------------------------------------------------------------------------

 Rough correction to the ZPR, to take into account the missing q=0 piece using Frohlich model:
 (+ for occupied states, - for unoccupied states) * zpr_q0_fact / (Nqpt_full_bz)**(1/3) 
 where Nqpt_full_bz=number of q wavevectors in full BZ, and zpr_q0_fact=      0.016517 Ha=      0.449457 eV

 - At k-point ( 0.000, 0.000, 0.000), band     6
 Band     6 Angular average effective mass for Frohlich model (<m**0.5>)**2=  -6.4025131155
 Angular and band average effective mass and ZPR for Frohlich model.
 Value of     (<<m**0.5>>)**2 =     6.402513E+00
 Absolute Value of <<m**0.5>> =     2.530319E+00
 ZPR from Frohlich model      =     7.142752E-03 Ha=    1.943642E-01 eV

 - At k-point ( 0.000, 0.000, 0.000), band     7
 Band     7 Angular average effective mass for Frohlich model (<m**0.5>)**2=   1.0466131493
 Angular and band average effective mass and ZPR for Frohlich model.
 Value of     (<<m**0.5>>)**2 =     1.046613E+00
 Absolute Value of <<m**0.5>> =     1.023041E+00
 ZPR from Frohlich model      =    -3.055569E-03 Ha=   -8.314627E-02 eV

 - At k-point ( 0.000, 0.000, 0.000), band     8
 Band     8 SADDLE POINT - Frohlich effective mass and ZPR cannot be defined. 
 Angular and band average effective mass for Frohlich model cannot be defined because of a sign problem.

 - At k-point ( 0.000, 0.000, 0.000), band     9
 Band     9 SADDLE POINT - Frohlich effective mass and ZPR cannot be defined. 
 Angular and band average effective mass for Frohlich model cannot be defined because of a sign problem.

 - At k-point ( 0.500, 0.000, 0.500), band     7
 Band     7 Angular average effective mass for Frohlich model (<m**0.5>)**2=   1.3172725406
 Angular and band average effective mass and ZPR for Frohlich model.
 Value of     (<<m**0.5>>)**2 =     1.317273E+00
 Absolute Value of <<m**0.5>> =     1.147725E+00
 ZPR from Frohlich model      =    -3.999702E-03 Ha=   -1.088374E-01 eV

 - At k-point ( 0.500, 0.000, 0.500), band     8
 Band     8 SADDLE POINT - Frohlich effective mass and ZPR cannot be defined. 
 Angular and band average effective mass for Frohlich model cannot be defined because of a sign problem.

 - At k-point ( 0.500, 0.000, 0.500), band     9
 Band     9 Angular average effective mass for Frohlich model (<m**0.5>)**2=   2.2108061775
 Angular and band average effective mass and ZPR for Frohlich model.
 Value of     (<<m**0.5>>)**2 =     2.210806E+00
 Absolute Value of <<m**0.5>> =     1.486878E+00
 ZPR from Frohlich model      =    -5.080749E-03 Ha=   -1.382542E-01 eV

== END DATASET(S) ==============================================================
================================================================================
  
 -outvars: echo values of variables after computation  --------
            acell      6.9749786238E+00  6.9749786238E+00  1.2492978510E+01 Bohr
              amu      9.12240000E+01  3.20660000E+01
           chneut1          1
           chneut2          1
           chneut3          1
           chneut4          1
           chneut5          1
           chneut6          0
        ddb_ngqpt1       0    0    0
        ddb_ngqpt2       0    0    0
        ddb_ngqpt3       0    0    0
        ddb_ngqpt4       0    0    0
        ddb_ngqpt5       0    0    0
        ddb_ngqpt6       1    1    1
           diemac      6.00000000E+00
             ecut      6.00000000E+00 Hartree
    eph_frohlichm1          0
    eph_frohlichm2          0
    eph_frohlichm3          0
    eph_frohlichm4          0
    eph_frohlichm5          0
    eph_frohlichm6          1
         eph_task1          1
         eph_task2          1
         eph_task3          1
         eph_task4          1
         eph_task5          1
         eph_task6          6
           etotal1    -7.1744276580E+01
           etotal2    -5.5927854904E+00
           etotal3    -2.8023158659E+01
            fcart1    -0.0000000000E+00 -0.0000000000E+00 -0.0000000000E+00
                      -0.0000000000E+00  4.6741811121E-23  1.2470207296E-02
                      -0.0000000000E+00 -4.6741811121E-23 -1.2470207296E-02
            fcart3     0.0000000000E+00  0.0000000000E+00  0.0000000000E+00
                       0.0000000000E+00  0.0000000000E+00  0.0000000000E+00
                       0.0000000000E+00  0.0000000000E+00  0.0000000000E+00
-          fftalg         512
           getddb1          0
           getddb2          0
           getddb3          0
           getddb4          0
           getddb5          0
           getddb6          3
           getddk1          0
           getddk2          0
           getddk3          2
           getddk4          0
           getddk5          0
           getddk6          0
           getden1          0
           getden2          0
           getden3          0
           getden4          1
           getden5          1
           getden6          0
         getefmas1          0
         getefmas2          0
         getefmas3          0
         getefmas4          0
         getefmas5          0
         getefmas6          5
           getwfk1          0
           getwfk2         -1
           getwfk3          1
           getwfk4          0
           getwfk5          4
           getwfk6          4
           get1wf1          0
           get1wf2          0
           get1wf3          0
           get1wf4          0
           get1wf5          2
           get1wf6          0
             iscf1          7
             iscf2         -3
             iscf3          7
             iscf4         -2
             iscf5         -2
             iscf6         -2
              ixc          11
           jdtset        1    2    3    4    5    6
           kptopt1          1
           kptopt2          2
           kptopt3          2
           kptopt4          0
           kptopt5          0
           kptopt6          0
         kptrlatt        2    0    0      0    2    0      0    0    1
          kptrlen1     1.24929785E+01
          kptrlen2     1.24929785E+01
          kptrlen3     1.24929785E+01
          kptrlen4     3.00000000E+01
          kptrlen5     3.00000000E+01
          kptrlen6     3.00000000E+01
P           mkmem1          2
P           mkmem2          4
P           mkmem3          4
P           mkmem4          2
P           mkmem5          2
P           mkmem6          2
P          mkqmem1          2
P          mkqmem2          4
P          mkqmem3          4
P          mkqmem4          2
P          mkqmem5          2
P          mkqmem6          2
P          mk1mem1          2
P          mk1mem2          4
P          mk1mem3          4
P          mk1mem4          2
P          mk1mem5          2
P          mk1mem6          2
            natom           3
            nband1         12
            nband2         12
            nband3         12
            nband4         12
            nband5         12
            nband6         12
           nbdbuf1          0
           nbdbuf2          0
           nbdbuf3          0
           nbdbuf4          2
           nbdbuf5          0
           nbdbuf6          2
           ndtset           6
            ngfft          16      16      30
             nkpt1          2
             nkpt2          4
             nkpt3          4
             nkpt4          2
             nkpt5          2
             nkpt6          2
             nqpt1          0
             nqpt2          1
             nqpt3          1
             nqpt4          0
             nqpt5          1
             nqpt6          1
            nstep1         20
            nstep2         20
            nstep3         20
            nstep4         20
            nstep5         10
            nstep6         20
             nsym          12
           ntypat           2
              occ1     2.000000  2.000000  2.000000  2.000000  2.000000  2.000000
                       2.000000  2.000000  2.000000  2.000000  2.000000  2.000000
              occ2     2.000000  2.000000  2.000000  2.000000  2.000000  2.000000
                       2.000000  2.000000  2.000000  2.000000  2.000000  2.000000
              occ3     2.000000  2.000000  2.000000  2.000000  2.000000  2.000000
                       2.000000  2.000000  2.000000  2.000000  2.000000  2.000000
        optdriver1          0
        optdriver2          1
        optdriver3          1
        optdriver4          0
        optdriver5          1
        optdriver6          7
         prtphdos1          1
         prtphdos2          1
         prtphdos3          1
         prtphdos4          1
         prtphdos5          1
         prtphdos6          0
           prtpot1          0
           prtpot2          1
           prtpot3          1
           prtpot4          0
           prtpot5          1
           prtpot6          0
          rfatpol1          1       3
          rfatpol2          1       3
          rfatpol3          1       2
          rfatpol4          1       3
          rfatpol5          1       3
          rfatpol6          1       3
           rfelfd1          0
           rfelfd2          2
           rfelfd3          3
           rfelfd4          0
           rfelfd5          2
           rfelfd6          0
           rfphon1          0
           rfphon2          0
           rfphon3          1
           rfphon4          0
           rfphon5          0
           rfphon6          0
            rprim      1.0000000000E+00  0.0000000000E+00  0.0000000000E+00
                      -5.0000000000E-01  8.6602540378E-01  0.0000000000E+00
                       6.1232339957E-17  1.0605752387E-16  1.0000000000E+00
           shiftk1     0.00000000E+00  0.00000000E+00  0.00000000E+00
           shiftk2     0.00000000E+00  0.00000000E+00  0.00000000E+00
           shiftk3     0.00000000E+00  0.00000000E+00  0.00000000E+00
           shiftk4     5.00000000E-01  5.00000000E-01  5.00000000E-01
           shiftk5     5.00000000E-01  5.00000000E-01  5.00000000E-01
           shiftk6     5.00000000E-01  5.00000000E-01  5.00000000E-01
          spgroup         164
           strten1     2.7928883180E-03  2.7928883180E-03  3.2519980603E-03
                       0.0000000000E+00  0.0000000000E+00  0.0000000000E+00
           strten3     0.0000000000E+00  0.0000000000E+00  0.0000000000E+00
                       0.0000000000E+00  0.0000000000E+00  0.0000000000E+00
           symrel      1  0  0   0  1  0   0  0  1      -1  0  0   0 -1  0   0  0 -1
                      -1  0  0   1  1  0   0  0  1       1  0  0  -1 -1  0   0  0 -1
                       0  1  0  -1 -1  0   0  0  1       0 -1  0   1  1  0   0  0 -1
                       0 -1  0  -1  0  0   0  0  1       0  1  0   1  0  0   0  0 -1
                      -1 -1  0   1  0  0   0  0  1       1  1  0  -1  0  0   0  0 -1
                       1  1  0   0 -1  0   0  0  1      -1 -1  0   0  1  0   0  0 -1
           tolvrs1     1.00000000E-10
           tolvrs2     0.00000000E+00
           tolvrs3     1.00000000E-10
           tolvrs4     0.00000000E+00
           tolvrs5     0.00000000E+00
           tolvrs6     1.00000000E-10
           tolwfr1     0.00000000E+00
           tolwfr2     1.00000000E-08
           tolwfr3     0.00000000E+00
           tolwfr4     1.00000000E-08
           tolwfr5     1.00000000E-08
           tolwfr6     0.00000000E+00
            typat      1  2  2
           useylm1          0
           useylm2          0
           useylm3          0
           useylm4          0
           useylm5          1
           useylm6          0
           xangst      0.0000000000E+00  0.0000000000E+00  0.0000000000E+00
                       1.8454998591E+00  1.0654998404E+00  5.1539880942E+00
                       5.9936698746E-16  2.1309996808E+00  1.4570114007E+00
            xcart      0.0000000000E+00  0.0000000000E+00  0.0000000000E+00
                       3.4874893119E+00  2.0135028930E+00  9.7396259902E+00
                       1.1326394594E-15  4.0270057860E+00  2.7533525198E+00
             xred      0.0000000000E+00  0.0000000000E+00  0.0000000000E+00
                       6.6666666667E-01  3.3333333333E-01  7.7960800000E-01
                       3.3333333333E-01  6.6666666667E-01  2.2039200000E-01
            znucl       40.00000   16.00000

================================================================================


- Timing analysis has been suppressed with timopt=0



================================================================================

 Suggested references for the acknowledgment of ABINIT usage.

 The users of ABINIT have little formal obligations with respect to the ABINIT group
 (those specified in the GNU General Public License, http://www.gnu.org/copyleft/gpl.txt).
 However, it is common practice in the scientific literature,
 to acknowledge the efforts of people that have made the research possible.
 In this spirit, please find below suggested citations of work written by ABINIT developers,
 corresponding to implementations inside of ABINIT that you have used in the present run.
 Note also that it will be of great value to readers of publications presenting these results,
 to read papers enabling them to understand the theoretical formalism and details
 of the ABINIT implementation.
 For information on why they are suggested, see also https://docs.abinit.org/theory/acknowledgments.
-
- [1] Precise effective masses from density functional perturbation theory
- J. Laflamme Janssen, Y. Gillet, S. Ponce, A. Martin, M. Torrent, and X. Gonze. Phys. Rev. B 93, 205147 (2016)
- Comment: in case the DFPT prediction of effective masses is used.
- Strong suggestion to cite this paper in your publications.
- DOI and bibtex: see https://docs.abinit.org/theory/bibliography/#laflamme2016
-
- [2] Predominance of non-adiabatic effects in zero-point renormalization of the electronic band gap,  
- A. Miglio, V. Brousseau-Couture, E. Godbout, G. Antonius, Y.-H. Chan, S.G. Louie,  M. Cote, M. Giantomassi
- and X. Gonze, npj Computational Materials 6, 167 (2020).
- Comment : Generalized Frohlich model calculations using eph_task=6.
- DOI and bibtex: see https://docs.abinit.org/theory/bibliography/#miglio2020
-
- [3] The Abinit project: Impact, environment and recent developments.
- Computer Phys. Comm. 248, 107042 (2020).
- X.Gonze, B. Amadon, G. Antonius, F.Arnardi, L.Baguet, J.-M.Beuken,
- J.Bieder, F.Bottin, J.Bouchet, E.Bousquet, N.Brouwer, F.Bruneval,
- G.Brunin, T.Cavignac, J.-B. Charraud, Wei Chen, M.Cote, S.Cottenier,
- J.Denier, G.Geneste, Ph.Ghosez, M.Giantomassi, Y.Gillet, O.Gingras,
- D.R.Hamann, G.Hautier, Xu He, N.Helbig, N.Holzwarth, Y.Jia, F.Jollet,
- W.Lafargue-Dit-Hauret, K.Lejaeghere, M.A.L.Marques, A.Martin, C.Martins,
- H.P.C. Miranda, F.Naccarato, K. Persson, G.Petretto, V.Planes, Y.Pouillon,
- S.Prokhorenko, F.Ricci, G.-M.Rignanese, A.H.Romero, M.M.Schmitt, M.Torrent,
- M.J.van Setten, B.Van Troeye, M.J.Verstraete, G.Zerah and J.W.Zwanzig
- Comment: the fifth generic paper describing the ABINIT project.
- Note that a version of this paper, that is not formatted for Computer Phys. Comm. 
- is available at https://www.abinit.org/sites/default/files/ABINIT20.pdf .
- The licence allows the authors to put it on the Web.
- DOI and bibtex: see https://docs.abinit.org/theory/bibliography/#gonze2020
-
- [4] First-principles responses of solids to atomic displacements and homogeneous electric fields:,
- implementation of a conjugate-gradient algorithm. X. Gonze, Phys. Rev. B55, 10337 (1997).
- Comment: Non-vanishing rfphon and/or rfelfd, in the norm-conserving case.
- DOI and bibtex: see https://docs.abinit.org/theory/bibliography/#gonze1997
-
- [5] Dynamical matrices, Born effective charges, dielectric permittivity tensors, and ,
- interatomic force constants from density-functional perturbation theory,
- X. Gonze and C. Lee, Phys. Rev. B55, 10355 (1997).
- Comment: Non-vanishing rfphon and/or rfelfd, in the norm-conserving case.
- DOI and bibtex: see https://docs.abinit.org/theory/bibliography/#gonze1997a
-
- [6] Optimized norm-conserving Vanderbilt pseudopotentials.
- D.R. Hamann, Phys. Rev. B 88, 085117 (2013).
- Comment: Some pseudopotential generated using the ONCVPSP code were used.
- DOI and bibtex: see https://docs.abinit.org/theory/bibliography/#hamann2013
-
- [7] ABINIT: Overview, and focus on selected capabilities
- J. Chem. Phys. 152, 124102 (2020).
- A. Romero, D.C. Allan, B. Amadon, G. Antonius, T. Applencourt, L.Baguet,
- J.Bieder, F.Bottin, J.Bouchet, E.Bousquet, F.Bruneval,
- G.Brunin, D.Caliste, M.Cote,
- J.Denier, C. Dreyer, Ph.Ghosez, M.Giantomassi, Y.Gillet, O.Gingras,
- D.R.Hamann, G.Hautier, F.Jollet, G. Jomard,
- A.Martin, 
- H.P.C. Miranda, F.Naccarato, G.Petretto, N.A. Pike, V.Planes,
- S.Prokhorenko, T. Rangel, F.Ricci, G.-M.Rignanese, M.Royo, M.Stengel, M.Torrent,
- M.J.van Setten, B.Van Troeye, M.J.Verstraete, J.Wiktor, J.W.Zwanziger, and X.Gonze.
- Comment: a global overview of ABINIT, with focus on selected capabilities .
- Note that a version of this paper, that is not formatted for J. Chem. Phys 
- is available at https://www.abinit.org/sites/default/files/ABINIT20_JPC.pdf .
- The licence allows the authors to put it on the Web.
- DOI and bibtex: see https://docs.abinit.org/theory/bibliography/#romero2020
-
- [8] Recent developments in the ABINIT software package.
- Computer Phys. Comm. 205, 106 (2016).
- X.Gonze, F.Jollet, F.Abreu Araujo, D.Adams, B.Amadon, T.Applencourt,
- C.Audouze, J.-M.Beuken, J.Bieder, A.Bokhanchuk, E.Bousquet, F.Bruneval
- D.Caliste, M.Cote, F.Dahm, F.Da Pieve, M.Delaveau, M.Di Gennaro,
- B.Dorado, C.Espejo, G.Geneste, L.Genovese, A.Gerossier, M.Giantomassi,
- Y.Gillet, D.R.Hamann, L.He, G.Jomard, J.Laflamme Janssen, S.Le Roux,
- A.Levitt, A.Lherbier, F.Liu, I.Lukacevic, A.Martin, C.Martins,
- M.J.T.Oliveira, S.Ponce, Y.Pouillon, T.Rangel, G.-M.Rignanese,
- A.H.Romero, B.Rousseau, O.Rubel, A.A.Shukri, M.Stankovski, M.Torrent,
- M.J.Van Setten, B.Van Troeye, M.J.Verstraete, D.Waroquier, J.Wiktor,
- B.Xu, A.Zhou, J.W.Zwanziger.
- Comment: the fourth generic paper describing the ABINIT project.
- Note that a version of this paper, that is not formatted for Computer Phys. Comm. 
- is available at https://www.abinit.org/sites/default/files/ABINIT16.pdf .
- The licence allows the authors to put it on the Web.
- DOI and bibtex: see https://docs.abinit.org/theory/bibliography/#gonze2016
-
- Proc.   0 individual time (sec): cpu=          7.5  wall=          7.5

================================================================================

 Calculation completed.
.Delivered  26 WARNINGs and  16 COMMENTs to log file.
+Overall time at end (sec) : cpu=          7.5  wall=          7.5
