
.Version 8.9.1 of ABINIT 
.(MPI version, prepared for a x86_64_linux_gnu5.4 computer) 

.Copyright (C) 1998-2019 ABINIT group . 
 ABINIT comes with ABSOLUTELY NO WARRANTY.
 It is free software, and you are welcome to redistribute it
 under certain conditions (GNU General Public License,
 see ~abinit/COPYING or http://www.gnu.org/copyleft/gpl.txt).

 ABINIT is a project of the Universite Catholique de Louvain,
 Corning Inc. and other collaborators, see ~abinit/doc/developers/contributors.txt .
 Please read https://docs.abinit.org/theory/acknowledgments for suggested
 acknowledgments of the ABINIT effort.
 For more information, see https://www.abinit.org .

.Starting date : Sat 19 May 2018.
- ( at 16h03 )
  
- input  file    -> t87.in
- output file    -> t87.out
- root for input  files -> t87i
- root for output files -> t87o

- inpspheads : Reading pseudopotential header in XML form from /home/lucas/PROGRAM/abinit/nonlinear-pol/tests/Psps_for_tests/Al.LDA_PW-JTH.xml
- inpspheads : Reading pseudopotential header in XML form from /home/lucas/PROGRAM/abinit/nonlinear-pol/tests/Psps_for_tests/As.LDA_PW-JTH_sp.xml

 DATASET    1 : space group P1 (#  1); Bravais aP (primitive triclinic)
================================================================================
 Values of the parameters that define the memory need for DATASET  1.
     intxc =       0    ionmov =       0      iscf =      17    lmnmax =       8
     lnmax =       4     mgfft =      15  mpssoang =       2    mqgrid =    3001
     natom =       2  nloc_mem =       2    nspden =       2   nspinor =       1
    nsppol =       2      nsym =       1    n1xccc =       1    ntypat =       2
    occopt =       1   xclevel =       1
-    mband =          12        mffmem =           1         mkmem =           4
       mpw =          95          nfft =        3375          nkpt =           4
 PAW method is used; the additional fine FFT grid is defined by:
   mgfftf=        18    nfftf =      5832
================================================================================
P This job should need less than                       4.240 Mbytes of memory.
  Rough estimation (10% accuracy) of disk space for files :
_ WF disk file :      0.141 Mbytes ; DEN or POT disk file :      0.091 Mbytes.
================================================================================


 DATASET    2 : space group P1 (#  1); Bravais aP (primitive triclinic)
================================================================================
 Values of the parameters that define the memory need for DATASET  2.
     intxc =       0    ionmov =       0      iscf =      17    lmnmax =       8
     lnmax =       4     mgfft =      15  mpssoang =       2    mqgrid =    3001
     natom =       2  nloc_mem =       2    nspden =       2   nspinor =       1
    nsppol =       2      nsym =       1    n1xccc =       1    ntypat =       2
    occopt =       1   xclevel =       1
-    mband =          12        mffmem =           1         mkmem =           8
       mpw =          95          nfft =        3375          nkpt =           8
 PAW method is used; the additional fine FFT grid is defined by:
   mgfftf=        18    nfftf =      5832
================================================================================
P This job should need less than                       4.433 Mbytes of memory.
  Rough estimation (10% accuracy) of disk space for files :
_ WF disk file :      0.280 Mbytes ; DEN or POT disk file :      0.091 Mbytes.
================================================================================


 DATASET    3 : space group P1 (#  1); Bravais aP (primitive triclinic)
================================================================================
 Values of the parameters that define the memory need for DATASET  3 (RF).
     intxc =       0      iscf =       7    lmnmax =       8     lnmax =       4
     mgfft =      15  mpssoang =       2    mqgrid =    3001     natom =       2
  nloc_mem =       2    nspden =       2   nspinor =       1    nsppol =       2
      nsym =       1    n1xccc =       1    ntypat =       2    occopt =       1
   xclevel =       1
-    mband =          12        mffmem =           1         mkmem =           8
-   mkqmem =           8        mk1mem =           8           mpw =          95
      nfft =        3375          nkpt =           8
================================================================================
P This job should need less than                       2.589 Mbytes of memory.
  Rough estimation (10% accuracy) of disk space for files :
_ WF disk file :      0.280 Mbytes ; DEN or POT disk file :      0.053 Mbytes.
================================================================================


 DATASET    4 : space group P1 (#  1); Bravais aP (primitive triclinic)
================================================================================
 Values of the parameters that define the memory need for DATASET  4 (RF).
     intxc =       0      iscf =       7    lmnmax =       8     lnmax =       4
     mgfft =      15  mpssoang =       2    mqgrid =    3001     natom =       2
  nloc_mem =       2    nspden =       2   nspinor =       1    nsppol =       2
      nsym =       1    n1xccc =       1    ntypat =       2    occopt =       1
   xclevel =       1
-    mband =          12        mffmem =           1         mkmem =           8
-   mkqmem =           8        mk1mem =           8           mpw =          95
      nfft =        3375          nkpt =           8
================================================================================
P This job should need less than                       2.678 Mbytes of memory.
  Rough estimation (10% accuracy) of disk space for files :
_ WF disk file :      0.280 Mbytes ; DEN or POT disk file :      0.053 Mbytes.
================================================================================

--------------------------------------------------------------------------------
------------- Echo of variables that govern the present computation ------------
--------------------------------------------------------------------------------
-
- outvars: echo of selected default values                                      
-   iomode0 =  0 , fftalg0 =312 , wfoptalg0 = 10
-
- outvars: echo of global parameters not present in the input file              
-  max_nthreads =    0
-
 -outvars: echo values of preprocessed input variables --------
            acell      1.0640000000E+01  1.0640000000E+01  1.0640000000E+01 Bohr
              amu      2.69815390E+01  7.49215900E+01
             ecut      3.50000000E+00 Hartree
-          fftalg         312
           getddk1          0
           getddk2          0
           getddk3          0
           getddk4          3
           getden1          0
           getden2          1
           getden3          2
           getden4          2
           getwfk1          0
           getwfk2          1
           getwfk3          2
           getwfk4          2
             iscf1         17
             iscf2         17
             iscf3          7
             iscf4          7
              ixc           7
           jdtset        1    2    3    4
              kpt1     2.50000000E-01  2.50000000E-01  2.50000000E-01
                      -2.50000000E-01  2.50000000E-01  2.50000000E-01
                       2.50000000E-01 -2.50000000E-01  2.50000000E-01
                      -2.50000000E-01 -2.50000000E-01  2.50000000E-01
              kpt2     2.50000000E-01  2.50000000E-01  2.50000000E-01
                      -2.50000000E-01  2.50000000E-01  2.50000000E-01
                       2.50000000E-01 -2.50000000E-01  2.50000000E-01
                      -2.50000000E-01 -2.50000000E-01  2.50000000E-01
                       2.50000000E-01  2.50000000E-01 -2.50000000E-01
                      -2.50000000E-01  2.50000000E-01 -2.50000000E-01
                       2.50000000E-01 -2.50000000E-01 -2.50000000E-01
                      -2.50000000E-01 -2.50000000E-01 -2.50000000E-01
              kpt3     2.50000000E-01  2.50000000E-01  2.50000000E-01
                      -2.50000000E-01  2.50000000E-01  2.50000000E-01
                       2.50000000E-01 -2.50000000E-01  2.50000000E-01
                      -2.50000000E-01 -2.50000000E-01  2.50000000E-01
                       2.50000000E-01  2.50000000E-01 -2.50000000E-01
                      -2.50000000E-01  2.50000000E-01 -2.50000000E-01
                       2.50000000E-01 -2.50000000E-01 -2.50000000E-01
                      -2.50000000E-01 -2.50000000E-01 -2.50000000E-01
              kpt4     2.50000000E-01  2.50000000E-01  2.50000000E-01
                      -2.50000000E-01  2.50000000E-01  2.50000000E-01
                       2.50000000E-01 -2.50000000E-01  2.50000000E-01
                      -2.50000000E-01 -2.50000000E-01  2.50000000E-01
                       2.50000000E-01  2.50000000E-01 -2.50000000E-01
                      -2.50000000E-01  2.50000000E-01 -2.50000000E-01
                       2.50000000E-01 -2.50000000E-01 -2.50000000E-01
                      -2.50000000E-01 -2.50000000E-01 -2.50000000E-01
           kptopt1          1
           kptopt2          3
           kptopt3          3
           kptopt4          3
         kptrlatt        2    0    0      0    2    0      0    0    2
          kptrlen      1.50472323E+01
P           mkmem1          4
P           mkmem2          8
P           mkmem3          8
P           mkmem4          8
P          mkqmem1          4
P          mkqmem2          8
P          mkqmem3          8
P          mkqmem4          8
P          mk1mem1          4
P          mk1mem2          8
P          mk1mem3          8
P          mk1mem4          8
            natom           2
            nband1         12
            nband2         12
            nband3         12
            nband4         12
           ndtset           4
            ngfft          15      15      15
          ngfftdg          18      18      18
             nkpt1          4
             nkpt2          8
             nkpt3          8
             nkpt4          8
            nline1          4
            nline2          4
            nline3        100
            nline4          4
           nspden           2
           nsppol           2
            nstep1        100
            nstep2        100
            nstep3          1
            nstep4        100
             nsym           1
           ntypat           2
              occ1     1.000000  1.000000  1.000000  1.000000  0.000000  0.000000
                       0.000000  0.000000  0.000000  0.000000  0.000000  0.000000
                       1.000000  1.000000  1.000000  1.000000  0.000000  0.000000
                       0.000000  0.000000  0.000000  0.000000  0.000000  0.000000
              occ2     1.000000  1.000000  1.000000  1.000000  0.000000  0.000000
                       0.000000  0.000000  0.000000  0.000000  0.000000  0.000000
                       1.000000  1.000000  1.000000  1.000000  0.000000  0.000000
                       0.000000  0.000000  0.000000  0.000000  0.000000  0.000000
              occ3     1.000000  1.000000  1.000000  1.000000  0.000000  0.000000
                       0.000000  0.000000  0.000000  0.000000  0.000000  0.000000
                       1.000000  1.000000  1.000000  1.000000  0.000000  0.000000
                       0.000000  0.000000  0.000000  0.000000  0.000000  0.000000
              occ4     1.000000  1.000000  1.000000  1.000000  0.000000  0.000000
                       0.000000  0.000000  0.000000  0.000000  0.000000  0.000000
                       1.000000  1.000000  1.000000  1.000000  0.000000  0.000000
                       0.000000  0.000000  0.000000  0.000000  0.000000  0.000000
        optdriver1          0
        optdriver2          0
        optdriver3          1
        optdriver4          1
        pawecutdg      7.00000000E+00 Hartree
         pawxcdev           0
          prepanl1          0
          prepanl2          0
          prepanl3          0
          prepanl4          1
          rfatpol1          1       1
          rfatpol2          1       1
          rfatpol3          1       1
          rfatpol4          1       2
            rfddk1          0
            rfddk2          0
            rfddk3          1
            rfddk4          0
            rfdir1          0       0       0
            rfdir2          0       0       0
            rfdir3          1       1       1
            rfdir4          1       1       1
           rfelfd1          0
           rfelfd2          0
           rfelfd3          0
           rfelfd4          3
           rfphon1          0
           rfphon2          0
           rfphon3          0
           rfphon4          1
            rprim      0.0000000000E+00  5.0000000000E-01  5.0000000000E-01
                       5.0000000000E-01  0.0000000000E+00  5.0000000000E-01
                       5.0000000000E-01  5.0000000000E-01  0.0000000000E+00
           shiftk      5.00000000E-01  5.00000000E-01  5.00000000E-01
          spgroup           1
   spinmagntarget      0.00000000E+00
           tolrde1     5.00000000E-03
           tolrde2     5.00000000E-03
           tolrde3     1.00000000E-30
           tolrde4     5.00000000E-03
           tolvrs1     1.00000000E-08
           tolvrs2     0.00000000E+00
           tolvrs3     0.00000000E+00
           tolvrs4     0.00000000E+00
           tolwfr1     0.00000000E+00
           tolwfr2     1.00000000E-22
           tolwfr3     1.00000000E-20
           tolwfr4     1.00000000E-20
            typat      1  2
           useylm           1
              wtk1       0.25000    0.25000    0.25000    0.25000
              wtk2       0.12500    0.12500    0.12500    0.12500    0.12500    0.12500
                         0.12500    0.12500
              wtk3       0.12500    0.12500    0.12500    0.12500    0.12500    0.12500
                         0.12500    0.12500
              wtk4       0.12500    0.12500    0.12500    0.12500    0.12500    0.12500
                         0.12500    0.12500
           xangst      0.0000000000E+00  0.0000000000E+00  0.0000000000E+00
                       1.4076113748E+00  1.4076113748E+00  1.4076113748E+00
            xcart      0.0000000000E+00  0.0000000000E+00  0.0000000000E+00
                       2.6600000000E+00  2.6600000000E+00  2.6600000000E+00
             xred      0.0000000000E+00  0.0000000000E+00  0.0000000000E+00
                       2.5000000000E-01  2.5000000000E-01  2.5000000000E-01
            znucl       13.00000   33.00000

================================================================================

 chkinp: Checking input parameters for consistency, jdtset=   1.
 This is a calculation with spin-up and spin-down wavefunctions,         ... nsppol=  2
 in which the target spin-polarization is zero.                  ... spinmagntarget=   0.00
 Tip ... It might be possible that the ground state is either non-spin-polarized, or antiferromagnetic.
 In the former case, it is advantageous to use nsppol=1 and nspden=1,
 while in the latter  case, it is advantageous to use nsppol=1 and nspden=2.

 chkinp: Checking input parameters for consistency, jdtset=   2.
 This is a calculation with spin-up and spin-down wavefunctions,         ... nsppol=  2
 in which the target spin-polarization is zero.                  ... spinmagntarget=   0.00
 Tip ... It might be possible that the ground state is either non-spin-polarized, or antiferromagnetic.
 In the former case, it is advantageous to use nsppol=1 and nspden=1,
 while in the latter  case, it is advantageous to use nsppol=1 and nspden=2.

 chkinp: Checking input parameters for consistency, jdtset=   3.
 This is a calculation with spin-up and spin-down wavefunctions,         ... nsppol=  2
 in which the target spin-polarization is zero.                  ... spinmagntarget=   0.00
 Tip ... It might be possible that the ground state is either non-spin-polarized, or antiferromagnetic.
 In the former case, it is advantageous to use nsppol=1 and nspden=1,
 while in the latter  case, it is advantageous to use nsppol=1 and nspden=2.

 chkinp: Checking input parameters for consistency, jdtset=   4.
 This is a calculation with spin-up and spin-down wavefunctions,         ... nsppol=  2
 in which the target spin-polarization is zero.                  ... spinmagntarget=   0.00
 Tip ... It might be possible that the ground state is either non-spin-polarized, or antiferromagnetic.
 In the former case, it is advantageous to use nsppol=1 and nspden=1,
 while in the latter  case, it is advantageous to use nsppol=1 and nspden=2.

================================================================================
== DATASET  1 ==================================================================
-   nproc =    1

 Exchange-correlation functional for the present dataset will be:
  LDA: Perdew-Wang 92 LSD fit to Ceperley-Alder data - ixc=7
 Citation for XC functional:
  J.P.Perdew and Y.Wang, PRB 45, 13244 (1992)

 Real(R)+Recip(G) space primitive vectors, cartesian coordinates (Bohr,Bohr^-1):
 R(1)=  0.0000000  5.3200000  5.3200000  G(1)= -0.0939850  0.0939850  0.0939850
 R(2)=  5.3200000  0.0000000  5.3200000  G(2)=  0.0939850 -0.0939850  0.0939850
 R(3)=  5.3200000  5.3200000  0.0000000  G(3)=  0.0939850  0.0939850 -0.0939850
 Unit cell volume ucvol=  3.0113754E+02 bohr^3
 Angles (23,13,12)=  6.00000000E+01  6.00000000E+01  6.00000000E+01 degrees

 Coarse grid specifications (used for wave-functions):

 getcut: wavevector=  0.0000  0.0000  0.0000  ngfft=  15  15  15
         ecut(hartree)=      3.500   => boxcut(ratio)=   2.22079

 getcut : COMMENT -
  Note that boxcut > 2.2 ; recall that boxcut=Gcut(box)/Gcut(sphere) = 2
  is sufficient for exact treatment of convolution.
  Such a large boxcut is a waste : you could raise ecut
  e.g. ecut=    4.315406 Hartrees makes boxcut=2


 Fine grid specifications (used for densities):

 getcut: wavevector=  0.0000  0.0000  0.0000  ngfft=  18  18  18
         ecut(hartree)=      7.000   => boxcut(ratio)=   2.01497

--- Pseudopotential description ------------------------------------------------
- pspini: atom type   1  psp file is /home/lucas/PROGRAM/abinit/nonlinear-pol/tests/Psps_for_tests/Al.LDA_PW-JTH.xml
- pspatm: opening atomic psp file    /home/lucas/PROGRAM/abinit/nonlinear-pol/tests/Psps_for_tests/Al.LDA_PW-JTH.xml
- pspatm : Reading pseudopotential header in XML form from /home/lucas/PROGRAM/abinit/nonlinear-pol/tests/Psps_for_tests/Al.LDA_PW-JTH.xml
 Pseudopotential format is: paw10
 basis_size (lnmax)=  4 (lmn_size=  8), orbitals=   0   0   1   1
 Spheres core radius: rc_sph= 1.90363307
 1 radial meshes are used:
  - mesh 1: r(i)=AA*[exp(BB*(i-1))-1], size=2001 , AA= 0.46377E-03 BB= 0.60291E-02
 Shapefunction is SIN type: shapef(r)=[sin(pi*r/rshp)/(pi*r/rshp)]**2
 Radius for shape functions =  1.60786206
 mmax= 2001
 Radial grid used for partial waves is grid 1
 Radial grid used for projectors is grid 1
 Radial grid used for (t)core density is grid 1
 Radial grid used for Vloc is grid 1
 Radial grid used for pseudo valence density is grid 1
 Mesh size for Vloc has been set to 1771 to avoid numerical noise.
 Compensation charge density is not taken into account in XC energy/potential
 pspatm: atomic psp has been read  and splines computed

- pspini: atom type   2  psp file is /home/lucas/PROGRAM/abinit/nonlinear-pol/tests/Psps_for_tests/As.LDA_PW-JTH_sp.xml
- pspatm: opening atomic psp file    /home/lucas/PROGRAM/abinit/nonlinear-pol/tests/Psps_for_tests/As.LDA_PW-JTH_sp.xml
- pspatm : Reading pseudopotential header in XML form from /home/lucas/PROGRAM/abinit/nonlinear-pol/tests/Psps_for_tests/As.LDA_PW-JTH_sp.xml
 Pseudopotential format is: paw10
 basis_size (lnmax)=  4 (lmn_size=  8), orbitals=   0   0   1   1
 Spheres core radius: rc_sph= 2.10391912
 1 radial meshes are used:
  - mesh 1: r(i)=AA*[exp(BB*(i-1))-1], size=1500 , AA= 0.25579E-03 BB= 0.84411E-02
 Shapefunction is BESSEL type: shapef(r,l)=aa(1,l)*jl(q(1,l)*r)+aa(2,l)*jl(q(2,l)*r)
 Radius for shape functions =  1.80731519
 mmax= 1500
 Radial grid used for partial waves is grid 1
 Radial grid used for projectors is grid 1
 Radial grid used for (t)core density is grid 1
 Radial grid used for Vloc is grid 1
 Radial grid used for pseudo valence density is grid 1
 Mesh size for Vloc has been set to 1335 to avoid numerical noise.
 Compensation charge density is not taken into account in XC energy/potential
 pspatm: atomic psp has been read  and splines computed

   2.52339172E+02                                ecore*ucvol(ha*bohr**3)
--------------------------------------------------------------------------------

_setup2: Arith. and geom. avg. npw (full set) are      94.250      94.249

================================================================================

     iter   Etot(hartree)      deltaE(h)  residm     nres2
 ETOT  1  -8.5943032932049    -8.594E+00 1.815E-01 3.014E-01
 ETOT  2  -8.6593234636308    -6.502E-02 5.822E-04 4.870E-02
 ETOT  3  -8.6574437353867     1.880E-03 6.278E-05 2.439E-03
 ETOT  4  -8.6574178072067     2.593E-05 7.590E-05 3.124E-04
 ETOT  5  -8.6574234175909    -5.610E-06 2.079E-06 1.777E-05
 ETOT  6  -8.6574235021139    -8.452E-08 3.987E-06 2.407E-06
 ETOT  7  -8.6574235863220    -8.421E-08 8.994E-08 6.738E-08
 ETOT  8  -8.6574235863335    -1.156E-11 1.989E-07 2.942E-09

 At SCF step    8       nres2   =  2.94E-09 < tolvrs=  1.00E-08 =>converged.

 Cartesian components of stress tensor (hartree/bohr^3)
  sigma(1 1)=  6.91434864E-05  sigma(3 2)=  1.99640453E-04
  sigma(2 2)=  6.91443066E-05  sigma(3 1)=  1.99638784E-04
  sigma(3 3)=  6.91450352E-05  sigma(2 1)=  1.99636418E-04

 Integrated electronic and magnetization densities in atomic spheres:
 ---------------------------------------------------------------------
 Radius=ratsph(iatom), smearing ratsm=  0.0000. Diff(up-dn)=approximate z local magnetic moment.
 Atom    Radius    up_density   dn_density  Total(up+dn)  Diff(up-dn)
    1   1.90363     0.369558     0.369558      0.739116    -0.000000
    2   2.10392     1.382550     1.382550      2.765100     0.000000
 ---------------------------------------------------------------------
  Sum:              1.752108     1.752108      3.504215     0.000000
 Total magnetization (from the atomic spheres):             0.000000
 Total magnetization (exact up - dn):                       0.000000

 PAW TEST:
 ==== Compensation charge inside spheres ============
 The following values must be close to each other ...
 Compensation charge over spherical meshes =     -0.439289174781735
 Compensation charge over fine fft grid    =     -0.439244564381779

 ==== Results concerning PAW augmentation regions ====

 Total pseudopotential strength Dij (hartree):
 Atom #  1 - Spin component 1
   0.36252   0.00116   0.00003   0.00003   0.00003  -0.00210  -0.00210  -0.00210
   0.00116  49.62763  -0.00068  -0.00068  -0.00068   0.05791   0.05791   0.05792
   0.00003  -0.00068   0.07835  -0.00001  -0.00001  -0.08251   0.00021   0.00021
   0.00003  -0.00068  -0.00001   0.07835  -0.00001   0.00021  -0.08251   0.00021
   0.00003  -0.00068  -0.00001  -0.00001   0.07835   0.00021   0.00021  -0.08251
  -0.00210   0.05791  -0.08251   0.00021   0.00021  34.84211  -0.02189  -0.02189
  -0.00210   0.05791   0.00021  -0.08251   0.00021  -0.02189  34.84211  -0.02189
  -0.00210   0.05792   0.00021   0.00021  -0.08251  -0.02189  -0.02189  34.84211
 Atom #  1 - Spin component 2
   0.36252   0.00116   0.00003   0.00003   0.00003  -0.00210  -0.00210  -0.00210
   0.00116  49.62763  -0.00068  -0.00068  -0.00068   0.05791   0.05791   0.05792
   0.00003  -0.00068   0.07835  -0.00001  -0.00001  -0.08251   0.00021   0.00021
   0.00003  -0.00068  -0.00001   0.07835  -0.00001   0.00021  -0.08251   0.00021
   0.00003  -0.00068  -0.00001  -0.00001   0.07835   0.00021   0.00021  -0.08251
  -0.00210   0.05791  -0.08251   0.00021   0.00021  34.84211  -0.02189  -0.02189
  -0.00210   0.05791   0.00021  -0.08251   0.00021  -0.02189  34.84211  -0.02189
  -0.00210   0.05792   0.00021   0.00021  -0.08251  -0.02189  -0.02189  34.84211
 Atom #  2 - Spin component 1
  -0.00916   0.07429   0.00009   0.00009   0.00009   0.00035   0.00035   0.00035
   0.07429  -0.39378   0.00097   0.00097   0.00097   0.00396   0.00396   0.00396
   0.00009   0.00097  -0.07990   0.00004   0.00004  -0.26458   0.00015   0.00015
   0.00009   0.00097   0.00004  -0.07990   0.00004   0.00015  -0.26458   0.00015
   0.00009   0.00097   0.00004   0.00004  -0.07990   0.00015   0.00015  -0.26458
   0.00035   0.00396  -0.26458   0.00015   0.00015  -0.96374   0.00062   0.00062
   0.00035   0.00396   0.00015  -0.26458   0.00015   0.00062  -0.96374   0.00062
   0.00035   0.00396   0.00015   0.00015  -0.26458   0.00062   0.00062  -0.96374
 Atom #  2 - Spin component 2
  -0.00916   0.07429   0.00009   0.00009   0.00009   0.00035   0.00035   0.00035
   0.07429  -0.39378   0.00097   0.00097   0.00097   0.00396   0.00396   0.00396
   0.00009   0.00097  -0.07990   0.00004   0.00004  -0.26458   0.00015   0.00015
   0.00009   0.00097   0.00004  -0.07990   0.00004   0.00015  -0.26458   0.00015
   0.00009   0.00097   0.00004   0.00004  -0.07990   0.00015   0.00015  -0.26458
   0.00035   0.00396  -0.26458   0.00015   0.00015  -0.96374   0.00062   0.00062
   0.00035   0.00396   0.00015  -0.26458   0.00015   0.00062  -0.96374   0.00062
   0.00035   0.00396   0.00015   0.00015  -0.26458   0.00062   0.00062  -0.96374


 Augmentation waves occupancies Rhoij:
 Atom #  1 - Spin component 1
   0.64113   0.00084   0.03868   0.03868   0.03868  -0.00002  -0.00002  -0.00002
   0.00084   0.00000   0.00014   0.00014   0.00014  -0.00000  -0.00000  -0.00000
   0.03868   0.00014   0.42454  -0.04396  -0.04396  -0.00023  -0.00002  -0.00002
   0.03868   0.00014  -0.04396   0.42454  -0.04396  -0.00002  -0.00023  -0.00002
   0.03868   0.00014  -0.04396  -0.04396   0.42454  -0.00002  -0.00002  -0.00023
  -0.00002  -0.00000  -0.00023  -0.00002  -0.00002   0.00000   0.00000   0.00000
  -0.00002  -0.00000  -0.00002  -0.00023  -0.00002   0.00000   0.00000   0.00000
  -0.00002  -0.00000  -0.00002  -0.00002  -0.00023   0.00000   0.00000   0.00000
 Atom #  1 - Spin component 2
   0.64113   0.00084   0.03868   0.03868   0.03868  -0.00002  -0.00002  -0.00002
   0.00084   0.00000   0.00014   0.00014   0.00014  -0.00000  -0.00000  -0.00000
   0.03868   0.00014   0.42454  -0.04396  -0.04396  -0.00023  -0.00002  -0.00002
   0.03868   0.00014  -0.04396   0.42454  -0.04396  -0.00002  -0.00023  -0.00002
   0.03868   0.00014  -0.04396  -0.04396   0.42454  -0.00002  -0.00002  -0.00023
  -0.00002  -0.00000  -0.00023  -0.00002  -0.00002   0.00000   0.00000   0.00000
  -0.00002  -0.00000  -0.00002  -0.00023  -0.00002   0.00000   0.00000   0.00000
  -0.00002  -0.00000  -0.00002  -0.00002  -0.00023   0.00000   0.00000   0.00000
 Atom #  2 - Spin component 1
   0.72359   0.00841  -0.00681  -0.00680  -0.00681   0.00054   0.00054   0.00054
   0.00841   0.00020  -0.00073  -0.00073  -0.00073   0.00003   0.00003   0.00003
  -0.00681  -0.00073   0.92586  -0.04624  -0.04624  -0.04716  -0.00066  -0.00066
  -0.00680  -0.00073  -0.04624   0.92586  -0.04624  -0.00066  -0.04716  -0.00066
  -0.00681  -0.00073  -0.04624  -0.04624   0.92586  -0.00066  -0.00066  -0.04716
   0.00054   0.00003  -0.04716  -0.00066  -0.00066   0.00263   0.00012   0.00012
   0.00054   0.00003  -0.00066  -0.04716  -0.00066   0.00012   0.00263   0.00012
   0.00054   0.00003  -0.00066  -0.00066  -0.04716   0.00012   0.00012   0.00263
 Atom #  2 - Spin component 2
   0.72359   0.00841  -0.00681  -0.00680  -0.00681   0.00054   0.00054   0.00054
   0.00841   0.00020  -0.00073  -0.00073  -0.00073   0.00003   0.00003   0.00003
  -0.00681  -0.00073   0.92586  -0.04624  -0.04624  -0.04716  -0.00066  -0.00066
  -0.00680  -0.00073  -0.04624   0.92586  -0.04624  -0.00066  -0.04716  -0.00066
  -0.00681  -0.00073  -0.04624  -0.04624   0.92586  -0.00066  -0.00066  -0.04716
   0.00054   0.00003  -0.04716  -0.00066  -0.00066   0.00263   0.00012   0.00012
   0.00054   0.00003  -0.00066  -0.04716  -0.00066   0.00012   0.00263   0.00012
   0.00054   0.00003  -0.00066  -0.00066  -0.04716   0.00012   0.00012   0.00263


================================================================================

 ----iterations are completed or convergence reached----

 Mean square residual over all n,k,spin=   9.3464E-09; max=  1.9891E-07
 reduced coordinates (array xred) for    2 atoms
       0.000000000000      0.000000000000      0.000000000000
       0.250000000000      0.250000000000      0.250000000000
 rms dE/dt=  1.3300E-02; max dE/dt=  1.3377E-02; dE/dt below (all hartree)
    1      -0.013235909699     -0.013238831287     -0.013241859036
    2       0.013377153564      0.013361353837      0.013344946526

 cartesian coordinates (angstrom) at end:
    1      0.00000000000000     0.00000000000000     0.00000000000000
    2      1.40761137484940     1.40761137484940     1.40761137484940

 cartesian forces (hartree/bohr) at end:
    1      0.00124877478493     0.00124998513630     0.00125124261395
    2     -0.00124877478493    -0.00124998513630    -0.00125124261395
 frms,max,avg= 1.2500013E-03 1.2512426E-03  -3.965E-06 -5.724E-06 -7.551E-06 h/b

 cartesian forces (eV/Angstrom) at end:
    1      0.06421457590334     0.06427681466809     0.06434147676327
    2     -0.06421457590334    -0.06427681466809    -0.06434147676327
 frms,max,avg= 6.4277643E-02 6.4341477E-02  -2.039E-04 -2.943E-04 -3.883E-04 e/A
 length scales= 10.640000000000 10.640000000000 10.640000000000 bohr
              =  5.630445499398  5.630445499398  5.630445499398 angstroms
 prteigrs : about to open file t87o_DS1_EIG
 Fermi (or HOMO) energy (hartree) =   0.05720   Average Vxc (hartree)=  -0.34494
 Eigenvalues (hartree) for nkpt=   4  k points, SPIN UP:
 kpt#   1, nband= 12, wtk=  0.25000, kpt=  0.2500  0.2500  0.2500 (reduced coord)
  -0.34554   -0.05065    0.05720    0.05720    0.16590    0.25474    0.25474    0.31368
   0.39055    0.39055    0.41797    0.53367
 prteigrs : prtvol=0 or 1, do not print more k-points.

 Eigenvalues (hartree) for nkpt=   4  k points, SPIN DOWN:
 kpt#   1, nband= 12, wtk=  0.25000, kpt=  0.2500  0.2500  0.2500 (reduced coord)
  -0.34554   -0.05065    0.05720    0.05720    0.16590    0.25474    0.25474    0.31368
   0.39055    0.39055    0.41797    0.53367
 prteigrs : prtvol=0 or 1, do not print more k-points.


--------------------------------------------------------------------------------
 Components of total free energy (in Hartree) :

    Kinetic energy  =  3.13569172978846E+00
    Hartree energy  =  8.04214927599603E-01
    XC energy       = -7.46513522737313E+00
    Ewald energy    = -8.45598635435666E+00
    PspCore energy  =  8.37953233227450E-01
    Loc. psp. energy= -1.94468757455461E+00
    Spherical terms =  4.43057902634098E+00
    >>>>>>>>> Etotal= -8.65737023932791E+00

 "Double-counting" decomposition of free energy:
    Band energy     = -7.91635705725245E-01
    Ewald energy    = -8.45598635435666E+00
    PspCore energy  =  8.37953233227450E-01
    Dble-C XC-energy= -4.38554514453294E+00
    Spherical terms =  4.13779038505389E+00
    >>>> Etotal (DC)= -8.65742358633351E+00

  >Total energy in eV           = -2.35579024800492E+02
  >Total DC energy in eV        = -2.35580476446339E+02
--------------------------------------------------------------------------------

 Cartesian components of stress tensor (hartree/bohr^3)
  sigma(1 1)=  6.91434864E-05  sigma(3 2)=  1.99640453E-04
  sigma(2 2)=  6.91443066E-05  sigma(3 1)=  1.99638784E-04
  sigma(3 3)=  6.91450352E-05  sigma(2 1)=  1.99636418E-04

-Cartesian components of stress tensor (GPa)         [Pressure= -2.0343E+00 GPa]
- sigma(1 1)=  2.03427126E+00  sigma(3 2)=  5.87362392E+00
- sigma(2 2)=  2.03429539E+00  sigma(3 1)=  5.87357483E+00
- sigma(3 3)=  2.03431683E+00  sigma(2 1)=  5.87350520E+00

================================================================================
== DATASET  2 ==================================================================
-   nproc =    1

 mkfilename : getwfk/=0, take file _WFK from output of DATASET   1.

 mkfilename : getden/=0, take file _DEN from output of DATASET   1.

 Exchange-correlation functional for the present dataset will be:
  LDA: Perdew-Wang 92 LSD fit to Ceperley-Alder data - ixc=7
 Citation for XC functional:
  J.P.Perdew and Y.Wang, PRB 45, 13244 (1992)

 Real(R)+Recip(G) space primitive vectors, cartesian coordinates (Bohr,Bohr^-1):
 R(1)=  0.0000000  5.3200000  5.3200000  G(1)= -0.0939850  0.0939850  0.0939850
 R(2)=  5.3200000  0.0000000  5.3200000  G(2)=  0.0939850 -0.0939850  0.0939850
 R(3)=  5.3200000  5.3200000  0.0000000  G(3)=  0.0939850  0.0939850 -0.0939850
 Unit cell volume ucvol=  3.0113754E+02 bohr^3
 Angles (23,13,12)=  6.00000000E+01  6.00000000E+01  6.00000000E+01 degrees

 Coarse grid specifications (used for wave-functions):

 getcut: wavevector=  0.0000  0.0000  0.0000  ngfft=  15  15  15
         ecut(hartree)=      3.500   => boxcut(ratio)=   2.22079

 getcut : COMMENT -
  Note that boxcut > 2.2 ; recall that boxcut=Gcut(box)/Gcut(sphere) = 2
  is sufficient for exact treatment of convolution.
  Such a large boxcut is a waste : you could raise ecut
  e.g. ecut=    4.315406 Hartrees makes boxcut=2


 Fine grid specifications (used for densities):

 getcut: wavevector=  0.0000  0.0000  0.0000  ngfft=  18  18  18
         ecut(hartree)=      7.000   => boxcut(ratio)=   2.01497
--------------------------------------------------------------------------------

-inwffil : will read wavefunctions from disk file t87o_DS1_WFK
_setup2: Arith. and geom. avg. npw (full set) are      94.250      94.249

================================================================================

     iter   Etot(hartree)      deltaE(h)  residm     nres2
 ETOT  1  -8.6574235863664    -8.657E+00 1.680E-08 3.734E-10
 ETOT  2  -8.6574235863394     2.693E-11 1.714E-09 1.660E-11
 ETOT  3  -8.6574235863383     1.132E-12 8.586E-11 2.079E-12
 ETOT  4  -8.6574235863382     7.816E-14 1.752E-10 1.152E-13
 ETOT  5  -8.6574235863381     7.283E-14 8.824E-12 6.845E-15
 ETOT  6  -8.6574235863381     3.020E-14 1.804E-11 3.179E-16
 ETOT  7  -8.6574235863382    -1.030E-13 9.081E-13 2.535E-17
 ETOT  8  -8.6574235863381     1.119E-13 1.859E-12 1.635E-18
 ETOT  9  -8.6574235863382    -1.279E-13 9.358E-14 1.365E-19
 ETOT 10  -8.6574235863382     6.395E-14 1.919E-13 2.556E-20
 ETOT 11  -8.6574235863382    -5.329E-15 9.656E-15 3.448E-21
 ETOT 12  -8.6574235863381     9.948E-14 1.983E-14 1.026E-22
 ETOT 13  -8.6574235863382    -9.592E-14 9.972E-16 1.534E-23
 ETOT 14  -8.6574235863382    -2.309E-14 2.050E-15 4.479E-25
 ETOT 15  -8.6574235863382     1.243E-14 1.031E-16 3.948E-26
 ETOT 16  -8.6574235863382     1.776E-15 2.121E-16 3.371E-27
 ETOT 17  -8.6574235863382     3.553E-15 1.066E-17 1.811E-28
 ETOT 18  -8.6574235863382    -1.599E-14 2.195E-17 1.578E-29
 ETOT 19  -8.6574235863382    -2.132E-14 1.104E-18 5.075E-30
 ETOT 20  -8.6574235863382     0.000E+00 2.274E-18 3.168E-30
 ETOT 21  -8.6574235863382     3.553E-15 1.143E-19 4.529E-30
 ETOT 22  -8.6574235863382     0.000E+00 2.355E-19 2.913E-30
 ETOT 23  -8.6574235863382     0.000E+00 1.184E-20 2.876E-30
 ETOT 24  -8.6574235863382    -3.553E-15 2.441E-20 2.513E-30
 ETOT 25  -8.6574235863382     7.105E-15 1.227E-21 2.473E-30
 ETOT 26  -8.6574235863382     8.882E-15 2.530E-21 2.558E-30
 ETOT 27  -8.6574235863382    -1.243E-14 1.271E-22 2.660E-30
 ETOT 28  -8.6574235863382    -5.329E-15 2.623E-22 2.037E-30
 ETOT 29  -8.6574235863382     1.954E-14 9.831E-23 4.951E-30

 At SCF step   29   max residual=  9.83E-23 < tolwfr=  1.00E-22 =>converged.

 Cartesian components of stress tensor (hartree/bohr^3)
  sigma(1 1)=  6.91461793E-05  sigma(3 2)=  1.99638379E-04
  sigma(2 2)=  6.91461794E-05  sigma(3 1)=  1.99638379E-04
  sigma(3 3)=  6.91461794E-05  sigma(2 1)=  1.99638379E-04

 Integrated electronic and magnetization densities in atomic spheres:
 ---------------------------------------------------------------------
 Radius=ratsph(iatom), smearing ratsm=  0.0000. Diff(up-dn)=approximate z local magnetic moment.
 Atom    Radius    up_density   dn_density  Total(up+dn)  Diff(up-dn)
    1   1.90363     0.369560     0.369560      0.739121    -0.000000
    2   2.10392     1.382547     1.382547      2.765093     0.000000
 ---------------------------------------------------------------------
  Sum:              1.752107     1.752107      3.504214     0.000000
 Total magnetization (from the atomic spheres):             0.000000
 Total magnetization (exact up - dn):                       0.000000

 PAW TEST:
 ==== Compensation charge inside spheres ============
 The following values must be close to each other ...
 Compensation charge over spherical meshes =     -0.439282884984332
 Compensation charge over fine fft grid    =     -0.439243476844277

 ==== Results concerning PAW augmentation regions ====

 Total pseudopotential strength Dij (hartree):
 Atom #  1 - Spin component 1
   0.36252   0.00116   0.00003   0.00003   0.00003  -0.00210  -0.00210  -0.00210
   0.00116  49.62755  -0.00068  -0.00068  -0.00068   0.05791   0.05791   0.05791
   0.00003  -0.00068   0.07835  -0.00001  -0.00001  -0.08251   0.00021   0.00021
   0.00003  -0.00068  -0.00001   0.07835  -0.00001   0.00021  -0.08251   0.00021
   0.00003  -0.00068  -0.00001  -0.00001   0.07835   0.00021   0.00021  -0.08251
  -0.00210   0.05791  -0.08251   0.00021   0.00021  34.84200  -0.02189  -0.02189
  -0.00210   0.05791   0.00021  -0.08251   0.00021  -0.02189  34.84200  -0.02189
  -0.00210   0.05791   0.00021   0.00021  -0.08251  -0.02189  -0.02189  34.84200
 Atom #  1 - Spin component 2
   0.36252   0.00116   0.00003   0.00003   0.00003  -0.00210  -0.00210  -0.00210
   0.00116  49.62755  -0.00068  -0.00068  -0.00068   0.05791   0.05791   0.05791
   0.00003  -0.00068   0.07835  -0.00001  -0.00001  -0.08251   0.00021   0.00021
   0.00003  -0.00068  -0.00001   0.07835  -0.00001   0.00021  -0.08251   0.00021
   0.00003  -0.00068  -0.00001  -0.00001   0.07835   0.00021   0.00021  -0.08251
  -0.00210   0.05791  -0.08251   0.00021   0.00021  34.84200  -0.02189  -0.02189
  -0.00210   0.05791   0.00021  -0.08251   0.00021  -0.02189  34.84200  -0.02189
  -0.00210   0.05791   0.00021   0.00021  -0.08251  -0.02189  -0.02189  34.84200
 Atom #  2 - Spin component 1
  -0.00916   0.07429   0.00009   0.00009   0.00009   0.00035   0.00035   0.00035
   0.07429  -0.39380   0.00097   0.00097   0.00097   0.00396   0.00396   0.00396
   0.00009   0.00097  -0.07990   0.00004   0.00004  -0.26458   0.00015   0.00015
   0.00009   0.00097   0.00004  -0.07990   0.00004   0.00015  -0.26458   0.00015
   0.00009   0.00097   0.00004   0.00004  -0.07990   0.00015   0.00015  -0.26458
   0.00035   0.00396  -0.26458   0.00015   0.00015  -0.96374   0.00062   0.00062
   0.00035   0.00396   0.00015  -0.26458   0.00015   0.00062  -0.96374   0.00062
   0.00035   0.00396   0.00015   0.00015  -0.26458   0.00062   0.00062  -0.96374
 Atom #  2 - Spin component 2
  -0.00916   0.07429   0.00009   0.00009   0.00009   0.00035   0.00035   0.00035
   0.07429  -0.39380   0.00097   0.00097   0.00097   0.00396   0.00396   0.00396
   0.00009   0.00097  -0.07990   0.00004   0.00004  -0.26458   0.00015   0.00015
   0.00009   0.00097   0.00004  -0.07990   0.00004   0.00015  -0.26458   0.00015
   0.00009   0.00097   0.00004   0.00004  -0.07990   0.00015   0.00015  -0.26458
   0.00035   0.00396  -0.26458   0.00015   0.00015  -0.96374   0.00062   0.00062
   0.00035   0.00396   0.00015  -0.26458   0.00015   0.00062  -0.96374   0.00062
   0.00035   0.00396   0.00015   0.00015  -0.26458   0.00062   0.00062  -0.96374


 Augmentation waves occupancies Rhoij:
 Atom #  1 - Spin component 1
   0.64114   0.00084   0.03868   0.03868   0.03868  -0.00002  -0.00002  -0.00002
   0.00084   0.00000   0.00014   0.00014   0.00014  -0.00000  -0.00000  -0.00000
   0.03868   0.00014   0.42454  -0.04396  -0.04396  -0.00023  -0.00002  -0.00002
   0.03868   0.00014  -0.04396   0.42454  -0.04396  -0.00002  -0.00023  -0.00002
   0.03868   0.00014  -0.04396  -0.04396   0.42454  -0.00002  -0.00002  -0.00023
  -0.00002  -0.00000  -0.00023  -0.00002  -0.00002   0.00000   0.00000   0.00000
  -0.00002  -0.00000  -0.00002  -0.00023  -0.00002   0.00000   0.00000   0.00000
  -0.00002  -0.00000  -0.00002  -0.00002  -0.00023   0.00000   0.00000   0.00000
 Atom #  1 - Spin component 2
   0.64114   0.00084   0.03868   0.03868   0.03868  -0.00002  -0.00002  -0.00002
   0.00084   0.00000   0.00014   0.00014   0.00014  -0.00000  -0.00000  -0.00000
   0.03868   0.00014   0.42454  -0.04396  -0.04396  -0.00023  -0.00002  -0.00002
   0.03868   0.00014  -0.04396   0.42454  -0.04396  -0.00002  -0.00023  -0.00002
   0.03868   0.00014  -0.04396  -0.04396   0.42454  -0.00002  -0.00002  -0.00023
  -0.00002  -0.00000  -0.00023  -0.00002  -0.00002   0.00000   0.00000   0.00000
  -0.00002  -0.00000  -0.00002  -0.00023  -0.00002   0.00000   0.00000   0.00000
  -0.00002  -0.00000  -0.00002  -0.00002  -0.00023   0.00000   0.00000   0.00000
 Atom #  2 - Spin component 1
   0.72359   0.00841  -0.00681  -0.00681  -0.00681   0.00054   0.00054   0.00054
   0.00841   0.00020  -0.00073  -0.00073  -0.00073   0.00003   0.00003   0.00003
  -0.00681  -0.00073   0.92586  -0.04624  -0.04624  -0.04716  -0.00066  -0.00066
  -0.00681  -0.00073  -0.04624   0.92586  -0.04624  -0.00066  -0.04716  -0.00066
  -0.00681  -0.00073  -0.04624  -0.04624   0.92586  -0.00066  -0.00066  -0.04716
   0.00054   0.00003  -0.04716  -0.00066  -0.00066   0.00263   0.00012   0.00012
   0.00054   0.00003  -0.00066  -0.04716  -0.00066   0.00012   0.00263   0.00012
   0.00054   0.00003  -0.00066  -0.00066  -0.04716   0.00012   0.00012   0.00263
 Atom #  2 - Spin component 2
   0.72359   0.00841  -0.00681  -0.00681  -0.00681   0.00054   0.00054   0.00054
   0.00841   0.00020  -0.00073  -0.00073  -0.00073   0.00003   0.00003   0.00003
  -0.00681  -0.00073   0.92586  -0.04624  -0.04624  -0.04716  -0.00066  -0.00066
  -0.00681  -0.00073  -0.04624   0.92586  -0.04624  -0.00066  -0.04716  -0.00066
  -0.00681  -0.00073  -0.04624  -0.04624   0.92586  -0.00066  -0.00066  -0.04716
   0.00054   0.00003  -0.04716  -0.00066  -0.00066   0.00263   0.00012   0.00012
   0.00054   0.00003  -0.00066  -0.04716  -0.00066   0.00012   0.00263   0.00012
   0.00054   0.00003  -0.00066  -0.00066  -0.04716   0.00012   0.00012   0.00263


================================================================================

 ----iterations are completed or convergence reached----

 Mean square residual over all n,k,spin=   4.3401E-23; max=  9.8312E-23
 reduced coordinates (array xred) for    2 atoms
       0.000000000000      0.000000000000      0.000000000000
       0.250000000000      0.250000000000      0.250000000000
 rms dE/dt=  1.3289E-02; max dE/dt=  1.3341E-02; dE/dt below (all hartree)
    1      -0.013236032285     -0.013236032289     -0.013236032294
    2       0.013340878455      0.013340878446      0.013340878447

 cartesian coordinates (angstrom) at end:
    1      0.00000000000000     0.00000000000000     0.00000000000000
    2      1.40761137484940     1.40761137484940     1.40761137484940

 cartesian forces (hartree/bohr) at end:
    1      0.00124891497824     0.00124891497867     0.00124891497804
    2     -0.00124891497824    -0.00124891497867    -0.00124891497804
 frms,max,avg= 1.2489150E-03 1.2489150E-03  -4.927E-06 -4.927E-06 -4.927E-06 h/b

 cartesian forces (eV/Angstrom) at end:
    1      0.06422178493265     0.06422178495508     0.06422178492234
    2     -0.06422178493265    -0.06422178495508    -0.06422178492234
 frms,max,avg= 6.4221785E-02 6.4221785E-02  -2.534E-04 -2.534E-04 -2.534E-04 e/A
 length scales= 10.640000000000 10.640000000000 10.640000000000 bohr
              =  5.630445499398  5.630445499398  5.630445499398 angstroms
 prteigrs : about to open file t87o_DS2_EIG
 Fermi (or HOMO) energy (hartree) =   0.05720   Average Vxc (hartree)=  -0.34494
 Eigenvalues (hartree) for nkpt=   8  k points, SPIN UP:
 kpt#   1, nband= 12, wtk=  0.12500, kpt=  0.2500  0.2500  0.2500 (reduced coord)
  -0.34554   -0.05065    0.05720    0.05720    0.16590    0.25474    0.25474    0.31368
   0.39055    0.39055    0.41797    0.53367
 prteigrs : prtvol=0 or 1, do not print more k-points.

 Eigenvalues (hartree) for nkpt=   8  k points, SPIN DOWN:
 kpt#   1, nband= 12, wtk=  0.12500, kpt=  0.2500  0.2500  0.2500 (reduced coord)
  -0.34554   -0.05065    0.05720    0.05720    0.16590    0.25474    0.25474    0.31368
   0.39055    0.39055    0.41797    0.53367
 prteigrs : prtvol=0 or 1, do not print more k-points.


--------------------------------------------------------------------------------
 Components of total free energy (in Hartree) :

    Kinetic energy  =  3.13568906125291E+00
    Hartree energy  =  8.04215839140192E-01
    XC energy       = -7.46513142727133E+00
    Ewald energy    = -8.45598635435666E+00
    PspCore energy  =  8.37953233227450E-01
    Loc. psp. energy= -1.94470914672958E+00
    Spherical terms =  4.43054520839882E+00
    >>>>>>>>> Etotal= -8.65742358633819E+00

 "Double-counting" decomposition of free energy:
    Band energy     = -7.91635709321222E-01
    Ewald energy    = -8.45598635435666E+00
    PspCore energy  =  8.37953233227450E-01
    Dble-C XC-energy= -4.38554690033911E+00
    Spherical terms =  4.13779214445136E+00
    >>>> Etotal (DC)= -8.65742358633819E+00

  >Total energy in eV           = -2.35580476446466E+02
  >Total DC energy in eV        = -2.35580476446466E+02
--------------------------------------------------------------------------------

 Cartesian components of stress tensor (hartree/bohr^3)
  sigma(1 1)=  6.91461793E-05  sigma(3 2)=  1.99638379E-04
  sigma(2 2)=  6.91461794E-05  sigma(3 1)=  1.99638379E-04
  sigma(3 3)=  6.91461794E-05  sigma(2 1)=  1.99638379E-04

-Cartesian components of stress tensor (GPa)         [Pressure= -2.0344E+00 GPa]
- sigma(1 1)=  2.03435049E+00  sigma(3 2)=  5.87356291E+00
- sigma(2 2)=  2.03435049E+00  sigma(3 1)=  5.87356291E+00
- sigma(3 3)=  2.03435049E+00  sigma(2 1)=  5.87356290E+00

================================================================================
== DATASET  3 ==================================================================
-   nproc =    1

 mkfilename : getwfk/=0, take file _WFK from output of DATASET   2.

 mkfilename : getden/=0, take file _DEN from output of DATASET   2.

 Exchange-correlation functional for the present dataset will be:
  LDA: Perdew-Wang 92 LSD fit to Ceperley-Alder data - ixc=7
 Citation for XC functional:
  J.P.Perdew and Y.Wang, PRB 45, 13244 (1992)

 Real(R)+Recip(G) space primitive vectors, cartesian coordinates (Bohr,Bohr^-1):
 R(1)=  0.0000000  5.3200000  5.3200000  G(1)= -0.0939850  0.0939850  0.0939850
 R(2)=  5.3200000  0.0000000  5.3200000  G(2)=  0.0939850 -0.0939850  0.0939850
 R(3)=  5.3200000  5.3200000  0.0000000  G(3)=  0.0939850  0.0939850 -0.0939850
 Unit cell volume ucvol=  3.0113754E+02 bohr^3
 Angles (23,13,12)=  6.00000000E+01  6.00000000E+01  6.00000000E+01 degrees

 Coarse grid specifications (used for wave-functions):

 getcut: wavevector=  0.0000  0.0000  0.0000  ngfft=  15  15  15
         ecut(hartree)=      3.500   => boxcut(ratio)=   2.22079

 getcut : COMMENT -
  Note that boxcut > 2.2 ; recall that boxcut=Gcut(box)/Gcut(sphere) = 2
  is sufficient for exact treatment of convolution.
  Such a large boxcut is a waste : you could raise ecut
  e.g. ecut=    4.315406 Hartrees makes boxcut=2


 Fine grid specifications (used for densities):

 getcut: wavevector=  0.0000  0.0000  0.0000  ngfft=  18  18  18
         ecut(hartree)=      7.000   => boxcut(ratio)=   2.01497
--------------------------------------------------------------------------------

-inwffil : will read wavefunctions from disk file t87o_DS2_WFK

 ==>  initialize data related to q vector <== 

 The list of irreducible perturbations for this q vector is:
    1)    idir= 1    ipert=   3
    2)    idir= 2    ipert=   3
    3)    idir= 3    ipert=   3

================================================================================

--------------------------------------------------------------------------------
 Perturbation wavevector (in red.coord.)   0.000000  0.000000  0.000000
 Perturbation : derivative vs k along direction   1

 dfpt_looppert : COMMENT -
  In a d/dk calculation, iscf is set to -3 automatically.
 The set of symmetries contains only one element for this perturbation.
 symkpt : not enough symmetry to change the number of k points.

--------------------------------------------------------------------------------

-inwffil : will read wavefunctions from disk file t87o_DS2_WFK
--------------------------------------------------------------------------------

 Initialisation of the first-order wave-functions :
  ireadwf=   0

     iter   2DEtotal(Ha)        deltaE(Ha) residm    vres2
-ETOT  1  -12.103113432697     -1.210E+01 9.517E-21 0.000E+00

 At SCF step    1   max residual=  9.52E-21 < tolwfr=  1.00E-20 =>converged.
================================================================================

 ----iterations are completed or convergence reached----

 Mean square residual over all n,k,spin=   2.8677E-21; max=  9.5173E-21
 dfpt_looppert : ek2=    1.6738545539E+01
          f-sum rule ratio=    1.5030811728E+00
 prteigrs : about to open file t87_1WF1_EIG
 Expectation of eigenvalue derivatives (hartree) for nkpt=   8  k points, SPIN UP:
  (in case of degenerate eigenvalues, averaged derivative)
 kpt#   1, nband= 12, wtk=  0.12500, kpt=  0.2500  0.2500  0.2500 (reduced coord)
   0.05238   -0.18310   -0.03182   -0.03182   -0.03750    0.00777    0.00777    0.18331
   0.06424    0.06424   -0.05001    0.24412
 prteigrs : prtvol=0 or 1, do not print more k-points.

 Expectation of eigenvalue derivatives (hartree) for nkpt=   8  k points, SPIN DOWN:
  (in case of degenerate eigenvalues, averaged derivative)
 kpt#   1, nband= 12, wtk=  0.12500, kpt=  0.2500  0.2500  0.2500 (reduced coord)
   0.05238   -0.18310   -0.03182   -0.03182   -0.03750    0.00777    0.00777    0.18331
   0.06424    0.06424   -0.05001    0.24412
 prteigrs : prtvol=0 or 1, do not print more k-points.


 Nine components of 2nd-order total energy (hartree) are
 1,2,3: 0th-order hamiltonian combined with 1st-order wavefunctions
     kin0=   1.15368526E+00 eigvalue=   1.54062047E-02  local=  -4.37962250E-01
 4,5,6: 1st-order hamiltonian combined with 1st and 0th-order wfs
     kin1=  -2.51593927E+01  Hartree=   0.00000000E+00     xc=   0.00000000E+00
 7,8,9: eventually, occupation + non-local contributions
    edocc=   1.12930810E+01     enl0=   4.23508343E-02   enl1=   9.89718170E-01
 10: eventually, PAW "on-site" Hxc contribution: epaw1=   0.00000000E+00
 1-10 gives the relaxation energy (to be shifted if some occ is /=2.0)
   erelax=  -1.21031134E+01
 11 Contribution from 1st-order change of wavefunctions overlap
 eovl1 =  -1.82761878E-02
  No Ewald or frozen-wf contrib.: the relaxation energy is the total one
 2DEtotal=   -0.1210311343E+02 Ha. Also 2DEtotal=   -0.329342465518E+03 eV
    (  non-var. 2DEtotal :   -1.2103113433E+01 Ha)

--------------------------------------------------------------------------------
 Perturbation wavevector (in red.coord.)   0.000000  0.000000  0.000000
 Perturbation : derivative vs k along direction   2
 The set of symmetries contains only one element for this perturbation.
 symkpt : not enough symmetry to change the number of k points.

--------------------------------------------------------------------------------

-inwffil : will read wavefunctions from disk file t87o_DS2_WFK
--------------------------------------------------------------------------------

 Initialisation of the first-order wave-functions :
  ireadwf=   0

     iter   2DEtotal(Ha)        deltaE(Ha) residm    vres2
-ETOT  1  -12.103113432650     -1.210E+01 9.517E-21 0.000E+00

 At SCF step    1   max residual=  9.52E-21 < tolwfr=  1.00E-20 =>converged.
================================================================================

 ----iterations are completed or convergence reached----

 Mean square residual over all n,k,spin=   2.6627E-21; max=  9.5173E-21
 dfpt_looppert : ek2=    1.6738545539E+01
          f-sum rule ratio=    1.5030811728E+00
 prteigrs : about to open file t87_1WF1_EIG
 Expectation of eigenvalue derivatives (hartree) for nkpt=   8  k points, SPIN UP:
  (in case of degenerate eigenvalues, averaged derivative)
 kpt#   1, nband= 12, wtk=  0.12500, kpt=  0.2500  0.2500  0.2500 (reduced coord)
   0.05238   -0.18310   -0.03182   -0.03182   -0.03750    0.00777    0.00777    0.18331
   0.06424    0.06424   -0.05001    0.24412
 prteigrs : prtvol=0 or 1, do not print more k-points.

 Expectation of eigenvalue derivatives (hartree) for nkpt=   8  k points, SPIN DOWN:
  (in case of degenerate eigenvalues, averaged derivative)
 kpt#   1, nband= 12, wtk=  0.12500, kpt=  0.2500  0.2500  0.2500 (reduced coord)
   0.05238   -0.18310   -0.03182   -0.03182   -0.03750    0.00777    0.00777    0.18331
   0.06424    0.06424   -0.05001    0.24412
 prteigrs : prtvol=0 or 1, do not print more k-points.


 Nine components of 2nd-order total energy (hartree) are
 1,2,3: 0th-order hamiltonian combined with 1st-order wavefunctions
     kin0=   1.15368526E+00 eigvalue=   1.54062047E-02  local=  -4.37962250E-01
 4,5,6: 1st-order hamiltonian combined with 1st and 0th-order wfs
     kin1=  -2.51593927E+01  Hartree=   0.00000000E+00     xc=   0.00000000E+00
 7,8,9: eventually, occupation + non-local contributions
    edocc=   1.12930810E+01     enl0=   4.23508343E-02   enl1=   9.89718170E-01
 10: eventually, PAW "on-site" Hxc contribution: epaw1=   0.00000000E+00
 1-10 gives the relaxation energy (to be shifted if some occ is /=2.0)
   erelax=  -1.21031134E+01
 11 Contribution from 1st-order change of wavefunctions overlap
 eovl1 =  -1.82761878E-02
  No Ewald or frozen-wf contrib.: the relaxation energy is the total one
 2DEtotal=   -0.1210311343E+02 Ha. Also 2DEtotal=   -0.329342465517E+03 eV
    (  non-var. 2DEtotal :   -1.2103113433E+01 Ha)

--------------------------------------------------------------------------------
 Perturbation wavevector (in red.coord.)   0.000000  0.000000  0.000000
 Perturbation : derivative vs k along direction   3
 The set of symmetries contains only one element for this perturbation.
 symkpt : not enough symmetry to change the number of k points.

--------------------------------------------------------------------------------

-inwffil : will read wavefunctions from disk file t87o_DS2_WFK
--------------------------------------------------------------------------------

 Initialisation of the first-order wave-functions :
  ireadwf=   0

     iter   2DEtotal(Ha)        deltaE(Ha) residm    vres2
-ETOT  1  -12.103113432599     -1.210E+01 9.517E-21 0.000E+00

 At SCF step    1   max residual=  9.52E-21 < tolwfr=  1.00E-20 =>converged.
================================================================================

 ----iterations are completed or convergence reached----

 Mean square residual over all n,k,spin=   2.8794E-21; max=  9.5173E-21
 dfpt_looppert : ek2=    1.6738545539E+01
          f-sum rule ratio=    1.5030811728E+00
 prteigrs : about to open file t87_1WF1_EIG
 Expectation of eigenvalue derivatives (hartree) for nkpt=   8  k points, SPIN UP:
  (in case of degenerate eigenvalues, averaged derivative)
 kpt#   1, nband= 12, wtk=  0.12500, kpt=  0.2500  0.2500  0.2500 (reduced coord)
   0.05238   -0.18310   -0.03182   -0.03182   -0.03750    0.00777    0.00777    0.18331
   0.06424    0.06424   -0.05001    0.24412
 prteigrs : prtvol=0 or 1, do not print more k-points.

 Expectation of eigenvalue derivatives (hartree) for nkpt=   8  k points, SPIN DOWN:
  (in case of degenerate eigenvalues, averaged derivative)
 kpt#   1, nband= 12, wtk=  0.12500, kpt=  0.2500  0.2500  0.2500 (reduced coord)
   0.05238   -0.18310   -0.03182   -0.03182   -0.03750    0.00777    0.00777    0.18331
   0.06424    0.06424   -0.05001    0.24412
 prteigrs : prtvol=0 or 1, do not print more k-points.


 Nine components of 2nd-order total energy (hartree) are
 1,2,3: 0th-order hamiltonian combined with 1st-order wavefunctions
     kin0=   1.15368526E+00 eigvalue=   1.54062047E-02  local=  -4.37962250E-01
 4,5,6: 1st-order hamiltonian combined with 1st and 0th-order wfs
     kin1=  -2.51593927E+01  Hartree=   0.00000000E+00     xc=   0.00000000E+00
 7,8,9: eventually, occupation + non-local contributions
    edocc=   1.12930810E+01     enl0=   4.23508343E-02   enl1=   9.89718170E-01
 10: eventually, PAW "on-site" Hxc contribution: epaw1=   0.00000000E+00
 1-10 gives the relaxation energy (to be shifted if some occ is /=2.0)
   erelax=  -1.21031134E+01
 11 Contribution from 1st-order change of wavefunctions overlap
 eovl1 =  -1.82761878E-02
  No Ewald or frozen-wf contrib.: the relaxation energy is the total one
 2DEtotal=   -0.1210311343E+02 Ha. Also 2DEtotal=   -0.329342465516E+03 eV
    (  non-var. 2DEtotal :   -1.2103113433E+01 Ha)
================================================================================

 ---- first-order wavefunction calculations are completed ----


 respfn : d/dk was computed, but no 2DTE, so no DDB output.

================================================================================
== DATASET  4 ==================================================================
-   nproc =    1

 mkfilename : getwfk/=0, take file _WFK from output of DATASET   2.

 mkfilename : getddk/=0, take file _1WF from output of DATASET   3.

 mkfilename : getden/=0, take file _DEN from output of DATASET   2.

 Exchange-correlation functional for the present dataset will be:
  LDA: Perdew-Wang 92 LSD fit to Ceperley-Alder data - ixc=7
 Citation for XC functional:
  J.P.Perdew and Y.Wang, PRB 45, 13244 (1992)

 Real(R)+Recip(G) space primitive vectors, cartesian coordinates (Bohr,Bohr^-1):
 R(1)=  0.0000000  5.3200000  5.3200000  G(1)= -0.0939850  0.0939850  0.0939850
 R(2)=  5.3200000  0.0000000  5.3200000  G(2)=  0.0939850 -0.0939850  0.0939850
 R(3)=  5.3200000  5.3200000  0.0000000  G(3)=  0.0939850  0.0939850 -0.0939850
 Unit cell volume ucvol=  3.0113754E+02 bohr^3
 Angles (23,13,12)=  6.00000000E+01  6.00000000E+01  6.00000000E+01 degrees

 Coarse grid specifications (used for wave-functions):

 getcut: wavevector=  0.0000  0.0000  0.0000  ngfft=  15  15  15
         ecut(hartree)=      3.500   => boxcut(ratio)=   2.22079

 getcut : COMMENT -
  Note that boxcut > 2.2 ; recall that boxcut=Gcut(box)/Gcut(sphere) = 2
  is sufficient for exact treatment of convolution.
  Such a large boxcut is a waste : you could raise ecut
  e.g. ecut=    4.315406 Hartrees makes boxcut=2


 Fine grid specifications (used for densities):

 getcut: wavevector=  0.0000  0.0000  0.0000  ngfft=  18  18  18
         ecut(hartree)=      7.000   => boxcut(ratio)=   2.01497
--------------------------------------------------------------------------------

-inwffil : will read wavefunctions from disk file t87o_DS2_WFK
-open ddk wf file :t87o_DS3_1WF7
-open ddk wf file :t87o_DS3_1WF8
-open ddk wf file :t87o_DS3_1WF9

 ==>  initialize data related to q vector <== 

 The list of irreducible perturbations for this q vector is:
    1)    idir= 1    ipert=   1
    2)    idir= 2    ipert=   1
    3)    idir= 3    ipert=   1
    4)    idir= 1    ipert=   2
    5)    idir= 2    ipert=   2
    6)    idir= 3    ipert=   2
    7)    idir= 1    ipert=   4
    8)    idir= 2    ipert=   4
    9)    idir= 3    ipert=   4

================================================================================

--------------------------------------------------------------------------------
 Perturbation wavevector (in red.coord.)   0.000000  0.000000  0.000000
 Perturbation : displacement of atom   1   along direction   1
 symkpt : not enough symmetry to change the number of k points.

--------------------------------------------------------------------------------

-inwffil : will read wavefunctions from disk file t87o_DS2_WFK
--------------------------------------------------------------------------------

 Initialisation of the first-order wave-functions :
  ireadwf=   0

     iter   2DEtotal(Ha)        deltaE(Ha) residm    vres2
-ETOT  1   6.4759655989547     -1.192E+01 7.716E-02 1.204E+03
 ETOT  2   5.2516459277183     -1.224E+00 1.127E-02 1.867E+02
 ETOT  3   5.0530221003833     -1.986E-01 6.748E-03 2.417E+00
 ETOT  4   5.0510561435659     -1.966E-03 5.415E-04 4.046E-02
 ETOT  5   5.0510264468261     -2.970E-05 6.275E-04 1.823E-03
 ETOT  6   5.0510253074242     -1.139E-06 5.169E-05 1.498E-04
 ETOT  7   5.0510252030713     -1.044E-07 6.028E-05 8.989E-06
 ETOT  8   5.0510251977852     -5.286E-09 5.087E-06 6.159E-07
 ETOT  9   5.0510251974204     -3.648E-10 5.959E-06 7.897E-09
 ETOT 10   5.0510251974158     -4.560E-12 5.065E-07 1.535E-10
 ETOT 11   5.0510251974158     -1.421E-14 5.960E-07 1.052E-11
 ETOT 12   5.0510251974158     -4.796E-14 5.067E-08 1.018E-12
 ETOT 13   5.0510251974158     -1.243E-14 5.978E-08 1.027E-13
 ETOT 14   5.0510251974158     -1.776E-15 5.077E-09 4.650E-15
 ETOT 15   5.0510251974158      2.487E-14 6.002E-09 4.461E-16
 ETOT 16   5.0510251974158      1.599E-14 5.090E-10 4.716E-17
 ETOT 17   5.0510251974158      0.000E+00 6.030E-10 8.071E-18
 ETOT 18   5.0510251974158     -2.665E-14 5.104E-11 9.673E-19
 ETOT 19   5.0510251974158      3.553E-15 6.059E-11 2.673E-20
 ETOT 20   5.0510251974158      1.776E-15 5.119E-12 2.367E-21
 ETOT 21   5.0510251974158      3.197E-14 6.090E-12 1.355E-22
 ETOT 22   5.0510251974158     -5.329E-15 5.135E-13 1.437E-23
 ETOT 23   5.0510251974158      5.329E-15 6.122E-13 1.395E-24
 ETOT 24   5.0510251974158      0.000E+00 5.152E-14 2.390E-25
 ETOT 25   5.0510251974158      5.329E-15 6.155E-14 8.306E-26
 ETOT 26   5.0510251974158     -3.553E-15 5.170E-15 8.579E-26
 ETOT 27   5.0510251974158      1.776E-15 6.189E-15 7.149E-26
 ETOT 28   5.0510251974158     -3.553E-15 5.190E-16 4.140E-26
 ETOT 29   5.0510251974158      1.776E-15 6.224E-16 4.138E-26
 ETOT 30   5.0510251974158     -5.329E-15 5.211E-17 4.218E-26
 ETOT 31   5.0510251974158      3.553E-15 6.260E-17 6.652E-26
 ETOT 32   5.0510251974158     -1.776E-15 5.233E-18 4.639E-26
 ETOT 33   5.0510251974158     -1.599E-14 6.297E-18 4.264E-26
 ETOT 34   5.0510251974158      1.421E-14 5.257E-19 3.572E-26
 ETOT 35   5.0510251974158     -3.553E-15 6.334E-19 3.819E-26
 ETOT 36   5.0510251974158      1.776E-15 5.282E-20 3.922E-26
 ETOT 37   5.0510251974158      0.000E+00 6.373E-20 4.298E-26
 ETOT 38   5.0510251974158      7.105E-15 7.614E-21 1.994E-25

 At SCF step   38   max residual=  7.61E-21 < tolwfr=  1.00E-20 =>converged.
-open ddk wf file :t87o_DS3_1WF7
-open ddk wf file :t87o_DS3_1WF8
-open ddk wf file :t87o_DS3_1WF9
================================================================================

 ----iterations are completed or convergence reached----

 Mean square residual over all n,k,spin=   2.4205E-21; max=  7.6144E-21

 Fourteen components of 2nd-order total energy (hartree) are
 1,2,3: 0th-order hamiltonian combined with 1st-order wavefunctions
     kin0=   9.87170997E+00 eigvalue=   2.66630399E-01  local=  -6.50051283E+00
 4,5,6: 1st-order hamiltonian combined with 1st and 0th-order wfs
 loc psp =  -5.38431652E+00  Hartree=   3.81404679E+00     xc=  -1.59021059E+00
 note that "loc psp" includes a xc core correction that could be resolved
 7,8,9: eventually, occupation + non-local contributions
    edocc=   3.11378498E+00     enl0=   4.02760690E+00   enl1=  -2.09789899E+01
 10: eventually, PAW "on-site" Hxc contribution: epaw1=   1.08862771E-02
 1-10 gives the relaxation energy (to be shifted if some occ is /=2.0)
   erelax=  -1.33493645E+01
 11,12,13 Non-relaxation  contributions : frozen-wavefunctions and Ewald
 fr.local=  -2.54051066E+01 fr.nonlo=   3.24862803E+01  Ewald=   1.18104987E+01
 14,15 Frozen wf xc core corrections (1) and (2)
 frxc 1  =  -3.64892253E+00  frxc 2 =   3.15763990E+00
 16 Contribution from 1st-order change of wavefunctions overlap
 eovl1 =  -1.67711309E-01
 Resulting in :
 2DEtotal=    0.5051025197E+01 Ha. Also 2DEtotal=    0.137445385533E+03 eV
    (2DErelax=   -1.3349364528E+01 Ha. 2DEnonrelax=    1.8400389725E+01 Ha)
    (  non-var. 2DEtotal :    5.0510251974E+00 Ha)


--------------------------------------------------------------------------------
 Perturbation wavevector (in red.coord.)   0.000000  0.000000  0.000000
 Perturbation : displacement of atom   1   along direction   2
 symkpt : not enough symmetry to change the number of k points.

--------------------------------------------------------------------------------

-inwffil : will read wavefunctions from disk file t87o_DS2_WFK
--------------------------------------------------------------------------------

 Initialisation of the first-order wave-functions :
  ireadwf=   0

     iter   2DEtotal(Ha)        deltaE(Ha) residm    vres2
-ETOT  1   6.4759337656245     -1.192E+01 7.716E-02 1.204E+03
 ETOT  2   5.2516492547519     -1.224E+00 1.127E-02 1.867E+02
 ETOT  3   5.0530220886186     -1.986E-01 6.748E-03 2.417E+00
 ETOT  4   5.0510561403436     -1.966E-03 5.415E-04 4.046E-02
 ETOT  5   5.0510264449104     -2.970E-05 6.275E-04 1.821E-03
 ETOT  6   5.0510253072564     -1.138E-06 5.169E-05 1.497E-04
 ETOT  7   5.0510252029831     -1.043E-07 6.028E-05 8.985E-06
 ETOT  8   5.0510251977004     -5.283E-09 5.088E-06 6.150E-07
 ETOT  9   5.0510251973360     -3.644E-10 5.959E-06 7.898E-09
 ETOT 10   5.0510251973314     -4.544E-12 5.065E-07 1.512E-10
 ETOT 11   5.0510251973314     -4.619E-14 5.960E-07 1.047E-11
 ETOT 12   5.0510251973314      1.599E-14 5.068E-08 1.016E-12
 ETOT 13   5.0510251973313     -3.375E-14 5.978E-08 1.022E-13
 ETOT 14   5.0510251973314      4.086E-14 5.078E-09 4.622E-15
 ETOT 15   5.0510251973314     -1.066E-14 6.003E-09 4.433E-16
 ETOT 16   5.0510251973314     -5.329E-15 5.091E-10 4.716E-17
 ETOT 17   5.0510251973314     -1.776E-14 6.031E-10 6.327E-18
 ETOT 18   5.0510251973314      8.882E-15 5.105E-11 7.159E-19
 ETOT 19   5.0510251973314      8.882E-15 6.060E-11 1.991E-20
 ETOT 20   5.0510251973314      1.243E-14 5.120E-12 1.503E-21
 ETOT 21   5.0510251973314      5.329E-15 6.091E-12 1.251E-22
 ETOT 22   5.0510251973314      7.105E-15 5.136E-13 7.630E-24
 ETOT 23   5.0510251973314      1.421E-14 6.124E-13 8.557E-25
 ETOT 24   5.0510251973314     -7.105E-15 5.153E-14 1.514E-25
 ETOT 25   5.0510251973314     -5.329E-15 6.157E-14 7.940E-26
 ETOT 26   5.0510251973314     -5.329E-15 5.172E-15 6.812E-26
 ETOT 27   5.0510251973314      3.553E-15 6.191E-15 4.325E-26
 ETOT 28   5.0510251973314     -1.776E-15 5.192E-16 5.299E-26
 ETOT 29   5.0510251973314      3.553E-15 6.226E-16 1.062E-25
 ETOT 30   5.0510251973314     -3.553E-15 5.213E-17 6.664E-26
 ETOT 31   5.0510251973314     -1.776E-15 6.262E-17 3.622E-26
 ETOT 32   5.0510251973314      5.329E-15 5.236E-18 5.706E-26
 ETOT 33   5.0510251973314      3.553E-15 6.299E-18 9.311E-26
 ETOT 34   5.0510251973314     -1.776E-15 5.260E-19 4.639E-26
 ETOT 35   5.0510251973314     -1.066E-14 6.337E-19 3.156E-26
 ETOT 36   5.0510251973314      3.553E-15 5.285E-20 1.254E-25
 ETOT 37   5.0510251973314     -7.105E-15 6.376E-20 3.149E-26
 ETOT 38   5.0510251973314      1.066E-14 9.473E-21 3.079E-26

 At SCF step   38   max residual=  9.47E-21 < tolwfr=  1.00E-20 =>converged.
-open ddk wf file :t87o_DS3_1WF8
-open ddk wf file :t87o_DS3_1WF7
-open ddk wf file :t87o_DS3_1WF9
================================================================================

 ----iterations are completed or convergence reached----

 Mean square residual over all n,k,spin=   3.0668E-21; max=  9.4734E-21

 Fourteen components of 2nd-order total energy (hartree) are
 1,2,3: 0th-order hamiltonian combined with 1st-order wavefunctions
     kin0=   9.87170998E+00 eigvalue=   2.66630399E-01  local=  -6.50051283E+00
 4,5,6: 1st-order hamiltonian combined with 1st and 0th-order wfs
 loc psp =  -5.38431651E+00  Hartree=   3.81404679E+00     xc=  -1.59021059E+00
 note that "loc psp" includes a xc core correction that could be resolved
 7,8,9: eventually, occupation + non-local contributions
    edocc=   3.11378498E+00     enl0=   4.02760690E+00   enl1=  -2.09789899E+01
 10: eventually, PAW "on-site" Hxc contribution: epaw1=   1.08862771E-02
 1-10 gives the relaxation energy (to be shifted if some occ is /=2.0)
   erelax=  -1.33493645E+01
 11,12,13 Non-relaxation  contributions : frozen-wavefunctions and Ewald
 fr.local=  -2.54051066E+01 fr.nonlo=   3.24862803E+01  Ewald=   1.18104987E+01
 14,15 Frozen wf xc core corrections (1) and (2)
 frxc 1  =  -3.64892253E+00  frxc 2 =   3.15763990E+00
 16 Contribution from 1st-order change of wavefunctions overlap
 eovl1 =  -1.67711309E-01
 Resulting in :
 2DEtotal=    0.5051025197E+01 Ha. Also 2DEtotal=    0.137445385531E+03 eV
    (2DErelax=   -1.3349364528E+01 Ha. 2DEnonrelax=    1.8400389725E+01 Ha)
    (  non-var. 2DEtotal :    5.0510251973E+00 Ha)


--------------------------------------------------------------------------------
 Perturbation wavevector (in red.coord.)   0.000000  0.000000  0.000000
 Perturbation : displacement of atom   1   along direction   3
 symkpt : not enough symmetry to change the number of k points.

--------------------------------------------------------------------------------

-inwffil : will read wavefunctions from disk file t87o_DS2_WFK
--------------------------------------------------------------------------------

 Initialisation of the first-order wave-functions :
  ireadwf=   0

     iter   2DEtotal(Ha)        deltaE(Ha) residm    vres2
-ETOT  1   6.4759677059854     -1.192E+01 7.716E-02 1.204E+03
 ETOT  2   5.2516457202152     -1.224E+00 1.127E-02 1.867E+02
 ETOT  3   5.0530221018336     -1.986E-01 6.748E-03 2.417E+00
 ETOT  4   5.0510561436224     -1.966E-03 5.415E-04 4.046E-02
 ETOT  5   5.0510264468013     -2.970E-05 6.275E-04 1.823E-03
 ETOT  6   5.0510253072832     -1.140E-06 5.169E-05 1.498E-04
 ETOT  7   5.0510252029251     -1.044E-07 6.028E-05 8.990E-06
 ETOT  8   5.0510251976384     -5.287E-09 5.087E-06 6.159E-07
 ETOT  9   5.0510251972735     -3.649E-10 5.959E-06 7.897E-09
 ETOT 10   5.0510251972690     -4.510E-12 5.065E-07 1.536E-10
 ETOT 11   5.0510251972690     -4.441E-14 5.960E-07 1.052E-11
 ETOT 12   5.0510251972690      5.329E-15 5.067E-08 1.019E-12
 ETOT 13   5.0510251972690     -2.487E-14 5.977E-08 1.027E-13
 ETOT 14   5.0510251972690      0.000E+00 5.077E-09 4.651E-15
 ETOT 15   5.0510251972690      7.105E-15 6.002E-09 4.463E-16
 ETOT 16   5.0510251972690     -8.882E-15 5.090E-10 4.716E-17
 ETOT 17   5.0510251972689     -2.842E-14 6.030E-10 8.076E-18
 ETOT 18   5.0510251972690      3.375E-14 5.104E-11 9.679E-19
 ETOT 19   5.0510251972690     -3.553E-15 6.059E-11 2.675E-20
 ETOT 20   5.0510251972690     -7.105E-15 5.119E-12 2.368E-21
 ETOT 21   5.0510251972690      1.243E-14 6.090E-12 1.359E-22
 ETOT 22   5.0510251972690      5.329E-15 5.135E-13 1.445E-23
 ETOT 23   5.0510251972690     -8.882E-15 6.122E-13 1.195E-24
 ETOT 24   5.0510251972690      1.599E-14 5.152E-14 2.474E-25
 ETOT 25   5.0510251972690      1.776E-15 6.155E-14 7.544E-26
 ETOT 26   5.0510251972690     -5.329E-15 5.170E-15 6.297E-26
 ETOT 27   5.0510251972690      5.329E-15 6.189E-15 6.464E-26
 ETOT 28   5.0510251972690     -7.105E-15 5.190E-16 2.142E-25
 ETOT 29   5.0510251972690      1.066E-14 6.224E-16 4.239E-26
 ETOT 30   5.0510251972690      1.776E-15 5.211E-17 6.934E-26
 ETOT 31   5.0510251972690     -5.329E-15 6.260E-17 1.070E-25
 ETOT 32   5.0510251972690      1.243E-14 5.233E-18 1.782E-25
 ETOT 33   5.0510251972690     -8.882E-15 6.296E-18 3.823E-26
 ETOT 34   5.0510251972690      0.000E+00 5.257E-19 7.498E-26
 ETOT 35   5.0510251972690     -1.776E-15 6.334E-19 8.065E-26
 ETOT 36   5.0510251972690      1.776E-15 5.282E-20 3.369E-26
 ETOT 37   5.0510251972690     -1.776E-15 6.373E-20 7.747E-26
 ETOT 38   5.0510251972690      5.329E-15 7.618E-21 8.455E-26

 At SCF step   38   max residual=  7.62E-21 < tolwfr=  1.00E-20 =>converged.
-open ddk wf file :t87o_DS3_1WF9
-open ddk wf file :t87o_DS3_1WF8
-open ddk wf file :t87o_DS3_1WF7
================================================================================

 ----iterations are completed or convergence reached----

 Mean square residual over all n,k,spin=   2.4908E-21; max=  7.6180E-21

 Fourteen components of 2nd-order total energy (hartree) are
 1,2,3: 0th-order hamiltonian combined with 1st-order wavefunctions
     kin0=   9.87170998E+00 eigvalue=   2.66630399E-01  local=  -6.50051283E+00
 4,5,6: 1st-order hamiltonian combined with 1st and 0th-order wfs
 loc psp =  -5.38431652E+00  Hartree=   3.81404679E+00     xc=  -1.59021059E+00
 note that "loc psp" includes a xc core correction that could be resolved
 7,8,9: eventually, occupation + non-local contributions
    edocc=   3.11378498E+00     enl0=   4.02760690E+00   enl1=  -2.09789899E+01
 10: eventually, PAW "on-site" Hxc contribution: epaw1=   1.08862771E-02
 1-10 gives the relaxation energy (to be shifted if some occ is /=2.0)
   erelax=  -1.33493645E+01
 11,12,13 Non-relaxation  contributions : frozen-wavefunctions and Ewald
 fr.local=  -2.54051066E+01 fr.nonlo=   3.24862803E+01  Ewald=   1.18104987E+01
 14,15 Frozen wf xc core corrections (1) and (2)
 frxc 1  =  -3.64892253E+00  frxc 2 =   3.15763990E+00
 16 Contribution from 1st-order change of wavefunctions overlap
 eovl1 =  -1.67711309E-01
 Resulting in :
 2DEtotal=    0.5051025197E+01 Ha. Also 2DEtotal=    0.137445385529E+03 eV
    (2DErelax=   -1.3349364528E+01 Ha. 2DEnonrelax=    1.8400389725E+01 Ha)
    (  non-var. 2DEtotal :    5.0510251972E+00 Ha)


--------------------------------------------------------------------------------
 Perturbation wavevector (in red.coord.)   0.000000  0.000000  0.000000
 Perturbation : displacement of atom   2   along direction   1
 symkpt : not enough symmetry to change the number of k points.

--------------------------------------------------------------------------------

-inwffil : will read wavefunctions from disk file t87o_DS2_WFK
--------------------------------------------------------------------------------

 Initialisation of the first-order wave-functions :
  ireadwf=   0

     iter   2DEtotal(Ha)        deltaE(Ha) residm    vres2
-ETOT  1   33.023863650748     -5.986E+01 3.574E-01 2.076E+04
 ETOT  2   7.5470987224510     -2.548E+01 6.136E-03 1.970E+03
 ETOT  3   5.1549914385981     -2.392E+00 2.423E-03 2.974E+01
 ETOT  4   5.1254714418853     -2.952E-02 1.800E-03 6.618E-01
 ETOT  5   5.1251001705276     -3.713E-04 2.726E-04 1.732E-02
 ETOT  6   5.1250905284026     -9.642E-06 2.168E-04 1.558E-03
 ETOT  7   5.1250898115087     -7.169E-07 3.150E-05 1.244E-04
 ETOT  8   5.1250897482954     -6.321E-08 2.426E-05 3.735E-06
 ETOT  9   5.1250897459408     -2.355E-09 3.729E-06 9.662E-08
 ETOT 10   5.1250897458764     -6.446E-11 2.857E-06 6.716E-09
 ETOT 11   5.1250897458708     -5.571E-12 4.508E-07 3.078E-10
 ETOT 12   5.1250897458707     -8.527E-14 3.456E-07 2.618E-11
 ETOT 13   5.1250897458713      6.395E-13 5.465E-08 1.028E-12
 ETOT 14   5.1250897458707     -6.679E-13 4.221E-08 1.239E-13
 ETOT 15   5.1250897458710      3.126E-13 6.625E-09 7.575E-15
 ETOT 16   5.1250897458713      3.695E-13 5.167E-09 3.313E-16
 ETOT 17   5.1250897458711     -2.700E-13 8.040E-10 3.862E-17
 ETOT 18   5.1250897458705     -5.684E-13 6.329E-10 2.946E-18
 ETOT 19   5.1250897458700     -5.258E-13 9.773E-11 2.751E-19
 ETOT 20   5.1250897458707      6.963E-13 7.756E-11 1.376E-20
 ETOT 21   5.1250897458706     -9.948E-14 1.190E-11 1.025E-21
 ETOT 22   5.1250897458706     -5.684E-14 9.508E-12 9.446E-23
 ETOT 23   5.1250897458706      8.527E-14 1.451E-12 8.279E-24
 ETOT 24   5.1250897458707      2.842E-14 1.166E-12 7.614E-25
 ETOT 25   5.1250897458706     -9.948E-14 1.771E-13 7.546E-26
 ETOT 26   5.1250897458706     -1.421E-14 1.432E-13 1.799E-26
 ETOT 27   5.1250897458706      2.842E-14 2.165E-14 7.580E-27
 ETOT 28   5.1250897458706      0.000E+00 1.759E-14 9.346E-27
 ETOT 29   5.1250897458706      2.842E-14 2.650E-15 4.407E-27
 ETOT 30   5.1250897458706     -4.263E-14 2.163E-15 6.758E-27
 ETOT 31   5.1250897458706      1.421E-14 3.246E-16 5.943E-27
 ETOT 32   5.1250897458706      0.000E+00 2.661E-16 4.146E-27
 ETOT 33   5.1250897458706      1.421E-14 3.980E-17 5.799E-27
 ETOT 34   5.1250897458706     -4.263E-14 3.276E-17 4.161E-27
 ETOT 35   5.1250897458706      5.684E-14 4.883E-18 1.004E-26
 ETOT 36   5.1250897458706     -2.842E-14 4.034E-18 6.563E-27
 ETOT 37   5.1250897458706      1.421E-14 5.995E-19 4.527E-27
 ETOT 38   5.1250897458706     -2.842E-14 4.971E-19 8.314E-27
 ETOT 39   5.1250897458706      4.263E-14 7.365E-20 6.360E-27
 ETOT 40   5.1250897458706      0.000E+00 6.128E-20 5.267E-27
 ETOT 41   5.1250897458706     -2.842E-14 9.651E-21 5.086E-27

 At SCF step   41   max residual=  9.65E-21 < tolwfr=  1.00E-20 =>converged.
-open ddk wf file :t87o_DS3_1WF7
-open ddk wf file :t87o_DS3_1WF8
-open ddk wf file :t87o_DS3_1WF9
================================================================================

 ----iterations are completed or convergence reached----

 Mean square residual over all n,k,spin=   5.9374E-21; max=  9.6508E-21

 Fourteen components of 2nd-order total energy (hartree) are
 1,2,3: 0th-order hamiltonian combined with 1st-order wavefunctions
     kin0=   4.28666222E+01 eigvalue=   8.37146332E-01  local=  -1.44064189E+01
 4,5,6: 1st-order hamiltonian combined with 1st and 0th-order wfs
 loc psp =  -1.28314944E+02  Hartree=   3.83622756E+01     xc=  -1.28431150E+01
 note that "loc psp" includes a xc core correction that could be resolved
 7,8,9: eventually, occupation + non-local contributions
    edocc=   2.24303468E+01     enl0=  -3.88031663E-01   enl1=  -3.63092450E+01
 10: eventually, PAW "on-site" Hxc contribution: epaw1=   1.09546196E-02
 1-10 gives the relaxation energy (to be shifted if some occ is /=2.0)
   erelax=  -8.77544094E+01
 11,12,13 Non-relaxation  contributions : frozen-wavefunctions and Ewald
 fr.local=   6.45275032E+01 fr.nonlo=   1.00632352E+01  Ewald=   1.18104987E+01
 14,15 Frozen wf xc core corrections (1) and (2)
 frxc 1  =  -1.86687337E+02  frxc 2 =   1.93165599E+02
 16 Contribution from 1st-order change of wavefunctions overlap
 eovl1 =  -5.44231473E+00
 Resulting in :
 2DEtotal=    0.5125089746E+01 Ha. Also 2DEtotal=    0.139460784392E+03 eV
    (2DErelax=   -8.7754409382E+01 Ha. 2DEnonrelax=    9.2879499128E+01 Ha)
    (  non-var. 2DEtotal :    5.1250897461E+00 Ha)


--------------------------------------------------------------------------------
 Perturbation wavevector (in red.coord.)   0.000000  0.000000  0.000000
 Perturbation : displacement of atom   2   along direction   2
 symkpt : not enough symmetry to change the number of k points.

--------------------------------------------------------------------------------

-inwffil : will read wavefunctions from disk file t87o_DS2_WFK
--------------------------------------------------------------------------------

 Initialisation of the first-order wave-functions :
  ireadwf=   0

     iter   2DEtotal(Ha)        deltaE(Ha) residm    vres2
-ETOT  1   33.024814697920     -5.985E+01 3.574E-01 2.076E+04
 ETOT  2   7.5470094510339     -2.548E+01 6.136E-03 1.970E+03
 ETOT  3   5.1549944172157     -2.392E+00 2.423E-03 2.974E+01
 ETOT  4   5.1254715939778     -2.952E-02 1.800E-03 6.620E-01
 ETOT  5   5.1251001817840     -3.714E-04 2.726E-04 1.734E-02
 ETOT  6   5.1250905288961     -9.653E-06 2.168E-04 1.559E-03
 ETOT  7   5.1250898115830     -7.173E-07 3.150E-05 1.246E-04
[...]
   2    1   2    4         1.8674347538         0.0000000000
   3    1   2    4         0.4219193256         0.0000000000
   1    2   2    4         2.3052869763         0.0000000000
   2    2   2    4        -3.4072024567         0.0000000000
   3    2   2    4         2.3052869764         0.0000000000
  
   1    1   3    4         0.4219193256         0.0000000000
   2    1   3    4         0.4219193256         0.0000000000
   3    1   3    4         1.8674347538         0.0000000000
   1    2   3    4         2.3052869764         0.0000000000
   2    2   3    4         2.3052869764         0.0000000000
   3    2   3    4        -3.4072024566         0.0000000000
  
  Effective charges, in cartesian coordinates,
  (from phonon response) 
   if specified in the inputs, asr has been imposed
     j1       j2             matrix element
  dir pert dir pert     real part    imaginary part
  
   1    4   1    1         1.8674347538         0.0000000000
   2    4   1    1         0.4219193256         0.0000000000
   3    4   1    1         0.4219193256         0.0000000000
  
   1    4   2    1         0.4219193256         0.0000000000
   2    4   2    1         1.8674347538         0.0000000000
   3    4   2    1         0.4219193255         0.0000000000
  
   1    4   3    1         0.4219193256         0.0000000000
   2    4   3    1         0.4219193256         0.0000000000
   3    4   3    1         1.8674347538         0.0000000000
  
   1    4   1    2        -3.4072024567         0.0000000000
   2    4   1    2         2.3052869763         0.0000000000
   3    4   1    2         2.3052869764         0.0000000000
  
   1    4   2    2         2.3052869763         0.0000000000
   2    4   2    2        -3.4072024567         0.0000000000
   3    4   2    2         2.3052869764         0.0000000000
  
   1    4   3    2         2.3052869763         0.0000000000
   2    4   3    2         2.3052869764         0.0000000000
   3    4   3    2        -3.4072024567         0.0000000000
  
  
  
  
  Rigid-atom proper piezoelectric tensor, in cartesian coordinates,
  (from electric field response)
     j1       j2             matrix element
  dir pert dir pert     real part    imaginary part
  
   1    5   1    4        -0.0020604000         0.0000000000
   2    5   1    4         0.0018157943         0.0000000000
   3    5   1    4         0.0018157943         0.0000000000
   1    6   1    4        -0.0145041198         0.0000000000
   2    6   1    4         0.0044060705         0.0000000000
   3    6   1    4         0.0044060705         0.0000000000
  
   1    5   2    4         0.0018157943         0.0000000000
   2    5   2    4        -0.0020604000         0.0000000000
   3    5   2    4         0.0018157943         0.0000000000
   1    6   2    4         0.0044060705         0.0000000000
   2    6   2    4        -0.0145041198         0.0000000000
   3    6   2    4         0.0044060705         0.0000000000
  
   1    5   3    4         0.0018157943         0.0000000000
   2    5   3    4         0.0018157943         0.0000000000
   3    5   3    4        -0.0020604000         0.0000000000
   1    6   3    4         0.0044060705         0.0000000000
   2    6   3    4         0.0044060705         0.0000000000
   3    6   3    4        -0.0145041198         0.0000000000

  Phonon wavevector (reduced coordinates) :  0.00000  0.00000  0.00000
 Phonon energies in Hartree :
  -8.738318E-05 -8.738318E-05 -7.784952E-05  1.520251E-03  1.681982E-03
   1.681982E-03
 Phonon frequencies in cm-1    :
- -1.917839E+01 -1.917839E+01 -1.708599E+01  3.336565E+02  3.691523E+02
-  3.691523E+02

  Phonon at Gamma, with non-analyticity in the
  direction (cartesian coordinates)  1.00000  0.00000  0.00000
 Phonon energies in Hartree :
  -8.738318E-05 -8.085023E-05  4.568579E-04  1.534500E-03  1.681982E-03
   1.795687E-03
 Phonon frequencies in cm-1    :
- -1.917839E+01 -1.774457E+01  1.002687E+02  3.367839E+02  3.691523E+02
-  3.941077E+02

  Phonon at Gamma, with non-analyticity in the
  direction (cartesian coordinates)  0.00000  1.00000  0.00000
 Phonon energies in Hartree :
  -8.738318E-05 -8.085023E-05  4.568579E-04  1.534500E-03  1.681982E-03
   1.795687E-03
 Phonon frequencies in cm-1    :
- -1.917839E+01 -1.774457E+01  1.002687E+02  3.367839E+02  3.691523E+02
-  3.941077E+02

  Phonon at Gamma, with non-analyticity in the
  direction (cartesian coordinates)  0.00000  0.00000  1.00000
 Phonon energies in Hartree :
  -8.738318E-05 -8.085023E-05  4.568579E-04  1.534500E-03  1.681982E-03
   1.795687E-03
 Phonon frequencies in cm-1    :
- -1.917839E+01 -1.774457E+01  1.002687E+02  3.367839E+02  3.691523E+02
-  3.941077E+02

== END DATASET(S) ==============================================================
================================================================================
  
 -outvars: echo values of variables after computation  --------
            acell      1.0640000000E+01  1.0640000000E+01  1.0640000000E+01 Bohr
              amu      2.69815390E+01  7.49215900E+01
             ecut      3.50000000E+00 Hartree
           etotal1    -8.6574235863E+00
           etotal2    -8.6574235863E+00
           etotal3    -1.2103113433E+01
           etotal4    -4.6985173649E+02
            fcart1     1.2487747849E-03  1.2499851363E-03  1.2512426139E-03
                      -1.2487747849E-03 -1.2499851363E-03 -1.2512426139E-03
            fcart2     1.2489149782E-03  1.2489149787E-03  1.2489149780E-03
                      -1.2489149782E-03 -1.2489149787E-03 -1.2489149780E-03
            fcart3     0.0000000000E+00  0.0000000000E+00  0.0000000000E+00
                       0.0000000000E+00  0.0000000000E+00  0.0000000000E+00
            fcart4     0.0000000000E+00  0.0000000000E+00  0.0000000000E+00
                       0.0000000000E+00  0.0000000000E+00  0.0000000000E+00
-          fftalg         312
           getddk1          0
           getddk2          0
           getddk3          0
           getddk4          3
           getden1          0
           getden2          1
           getden3          2
           getden4          2
           getwfk1          0
           getwfk2          1
           getwfk3          2
           getwfk4          2
             iscf1         17
             iscf2         17
             iscf3          7
             iscf4          7
              ixc           7
           jdtset        1    2    3    4
              kpt1     2.50000000E-01  2.50000000E-01  2.50000000E-01
                      -2.50000000E-01  2.50000000E-01  2.50000000E-01
                       2.50000000E-01 -2.50000000E-01  2.50000000E-01
                      -2.50000000E-01 -2.50000000E-01  2.50000000E-01
              kpt2     2.50000000E-01  2.50000000E-01  2.50000000E-01
                      -2.50000000E-01  2.50000000E-01  2.50000000E-01
                       2.50000000E-01 -2.50000000E-01  2.50000000E-01
                      -2.50000000E-01 -2.50000000E-01  2.50000000E-01
                       2.50000000E-01  2.50000000E-01 -2.50000000E-01
                      -2.50000000E-01  2.50000000E-01 -2.50000000E-01
                       2.50000000E-01 -2.50000000E-01 -2.50000000E-01
                      -2.50000000E-01 -2.50000000E-01 -2.50000000E-01
              kpt3     2.50000000E-01  2.50000000E-01  2.50000000E-01
                      -2.50000000E-01  2.50000000E-01  2.50000000E-01
                       2.50000000E-01 -2.50000000E-01  2.50000000E-01
                      -2.50000000E-01 -2.50000000E-01  2.50000000E-01
                       2.50000000E-01  2.50000000E-01 -2.50000000E-01
                      -2.50000000E-01  2.50000000E-01 -2.50000000E-01
                       2.50000000E-01 -2.50000000E-01 -2.50000000E-01
                      -2.50000000E-01 -2.50000000E-01 -2.50000000E-01
              kpt4     2.50000000E-01  2.50000000E-01  2.50000000E-01
                      -2.50000000E-01  2.50000000E-01  2.50000000E-01
                       2.50000000E-01 -2.50000000E-01  2.50000000E-01
                      -2.50000000E-01 -2.50000000E-01  2.50000000E-01
                       2.50000000E-01  2.50000000E-01 -2.50000000E-01
                      -2.50000000E-01  2.50000000E-01 -2.50000000E-01
                       2.50000000E-01 -2.50000000E-01 -2.50000000E-01
                      -2.50000000E-01 -2.50000000E-01 -2.50000000E-01
           kptopt1          1
           kptopt2          3
           kptopt3          3
           kptopt4          3
         kptrlatt        2    0    0      0    2    0      0    0    2
          kptrlen      1.50472323E+01
P           mkmem1          4
P           mkmem2          8
P           mkmem3          8
P           mkmem4          8
P          mkqmem1          4
P          mkqmem2          8
P          mkqmem3          8
P          mkqmem4          8
P          mk1mem1          4
P          mk1mem2          8
P          mk1mem3          8
P          mk1mem4          8
            natom           2
            nband1         12
            nband2         12
            nband3         12
            nband4         12
           ndtset           4
            ngfft          15      15      15
          ngfftdg          18      18      18
             nkpt1          4
             nkpt2          8
             nkpt3          8
             nkpt4          8
            nline1          4
            nline2          4
            nline3        100
            nline4          4
           nspden           2
           nsppol           2
            nstep1        100
            nstep2        100
            nstep3          1
            nstep4        100
             nsym           1
           ntypat           2
              occ1     1.000000  1.000000  1.000000  1.000000  0.000000  0.000000
                       0.000000  0.000000  0.000000  0.000000  0.000000  0.000000
                       1.000000  1.000000  1.000000  1.000000  0.000000  0.000000
                       0.000000  0.000000  0.000000  0.000000  0.000000  0.000000
              occ2     1.000000  1.000000  1.000000  1.000000  0.000000  0.000000
                       0.000000  0.000000  0.000000  0.000000  0.000000  0.000000
                       1.000000  1.000000  1.000000  1.000000  0.000000  0.000000
                       0.000000  0.000000  0.000000  0.000000  0.000000  0.000000
              occ3     1.000000  1.000000  1.000000  1.000000  0.000000  0.000000
                       0.000000  0.000000  0.000000  0.000000  0.000000  0.000000
                       1.000000  1.000000  1.000000  1.000000  0.000000  0.000000
                       0.000000  0.000000  0.000000  0.000000  0.000000  0.000000
              occ4     1.000000  1.000000  1.000000  1.000000  0.000000  0.000000
                       0.000000  0.000000  0.000000  0.000000  0.000000  0.000000
                       1.000000  1.000000  1.000000  1.000000  0.000000  0.000000
                       0.000000  0.000000  0.000000  0.000000  0.000000  0.000000
        optdriver1          0
        optdriver2          0
        optdriver3          1
        optdriver4          1
        pawecutdg      7.00000000E+00 Hartree
         pawxcdev           0
          prepanl1          0
          prepanl2          0
          prepanl3          0
          prepanl4          1
          rfatpol1          1       1
          rfatpol2          1       1
          rfatpol3          1       1
          rfatpol4          1       2
            rfddk1          0
            rfddk2          0
            rfddk3          1
            rfddk4          0
            rfdir1          0       0       0
            rfdir2          0       0       0
            rfdir3          1       1       1
            rfdir4          1       1       1
           rfelfd1          0
           rfelfd2          0
           rfelfd3          0
           rfelfd4          3
           rfphon1          0
           rfphon2          0
           rfphon3          0
           rfphon4          1
            rprim      0.0000000000E+00  5.0000000000E-01  5.0000000000E-01
                       5.0000000000E-01  0.0000000000E+00  5.0000000000E-01
                       5.0000000000E-01  5.0000000000E-01  0.0000000000E+00
           shiftk      5.00000000E-01  5.00000000E-01  5.00000000E-01
          spgroup           1
   spinmagntarget      0.00000000E+00
           strten1     6.9143486352E-05  6.9144306611E-05  6.9145035156E-05
                       1.9964045271E-04  1.9963878415E-04  1.9963641775E-04
           strten2     6.9146179322E-05  6.9146179362E-05  6.9146179399E-05
                       1.9963837906E-04  1.9963837902E-04  1.9963837898E-04
           strten3     0.0000000000E+00  0.0000000000E+00  0.0000000000E+00
                       0.0000000000E+00  0.0000000000E+00  0.0000000000E+00
           strten4     0.0000000000E+00  0.0000000000E+00  0.0000000000E+00
                       0.0000000000E+00  0.0000000000E+00  0.0000000000E+00
           tolrde1     5.00000000E-03
           tolrde2     5.00000000E-03
           tolrde3     1.00000000E-30
           tolrde4     5.00000000E-03
           tolvrs1     1.00000000E-08
           tolvrs2     0.00000000E+00
           tolvrs3     0.00000000E+00
           tolvrs4     0.00000000E+00
           tolwfr1     0.00000000E+00
           tolwfr2     1.00000000E-22
           tolwfr3     1.00000000E-20
           tolwfr4     1.00000000E-20
            typat      1  2
           useylm           1
              wtk1       0.25000    0.25000    0.25000    0.25000
              wtk2       0.12500    0.12500    0.12500    0.12500    0.12500    0.12500
                         0.12500    0.12500
              wtk3       0.12500    0.12500    0.12500    0.12500    0.12500    0.12500
                         0.12500    0.12500
              wtk4       0.12500    0.12500    0.12500    0.12500    0.12500    0.12500
                         0.12500    0.12500
           xangst      0.0000000000E+00  0.0000000000E+00  0.0000000000E+00
                       1.4076113748E+00  1.4076113748E+00  1.4076113748E+00
            xcart      0.0000000000E+00  0.0000000000E+00  0.0000000000E+00
                       2.6600000000E+00  2.6600000000E+00  2.6600000000E+00
             xred      0.0000000000E+00  0.0000000000E+00  0.0000000000E+00
                       2.5000000000E-01  2.5000000000E-01  2.5000000000E-01
            znucl       13.00000   33.00000

================================================================================


- Timing analysis has been suppressed with timopt=0



================================================================================

 Suggested references for the acknowledgment of ABINIT usage.

 The users of ABINIT have little formal obligations with respect to the ABINIT group
 (those specified in the GNU General Public License, http://www.gnu.org/copyleft/gpl.txt).
 However, it is common practice in the scientific literature,
 to acknowledge the efforts of people that have made the research possible.
 In this spirit, please find below suggested citations of work written by ABINIT developers,
 corresponding to implementations inside of ABINIT that you have used in the present run.
 Note also that it will be of great value to readers of publications presenting these results,
 to read papers enabling them to understand the theoretical formalism and details
 of the ABINIT implementation.
 For information on why they are suggested, see also https://docs.abinit.org/theory/acknowledgments.
-
- [1] Projector augmented-wave approach to density-functional perturbation theory.
- C. Audouze, F. Jollet, M. Torrent and X. Gonze, Phys. Rev. B 73, 235101 (2006).
- Comparison between projector augmented-wave and ultrasoft pseudopotential formalisms
- at the density-functional perturbation theory level.
- C. Audouze, F. Jollet, M. Torrent and X. Gonze, Phys. Rev. B 78, 035105 (2008).
- Comment : to be cited in case the computation of response function with PAW, i.e. (rfphon=1 or rfelfd=1) and usepaw=1.
- Strong suggestion to cite these papers.
-
- [2] Implementation of the Projector Augmented-Wave Method in the ABINIT code.
- M. Torrent, F. Jollet, F. Bottin, G. Zerah, and X. Gonze Comput. Mat. Science 42, 337, (2008).
- Comment : PAW calculations. Strong suggestion to cite this paper.
-
- [3] Recent developments in the ABINIT software package.
- Computer Phys. Comm. 205, 106 (2016).
- X.Gonze, F.Jollet, F.Abreu Araujo, D.Adams, B.Amadon, T.Applencourt,
- C.Audouze, J.-M.Beuken, J.Bieder, A.Bokhanchuk, E.Bousquet, F.Bruneval
- D.Caliste, M.Cote, F.Dahm, F.Da Pieve, M.Delaveau, M.Di Gennaro,
- B.Dorado, C.Espejo, G.Geneste, L.Genovese, A.Gerossier, M.Giantomassi,
- Y.Gillet, D.R.Hamann, L.He, G.Jomard, J.Laflamme Janssen, S.Le Roux,
- A.Levitt, A.Lherbier, F.Liu, I.Lukacevic, A.Martin, C.Martins,
- M.J.T.Oliveira, S.Ponce, Y.Pouillon, T.Rangel, G.-M.Rignanese,
- A.H.Romero, B.Rousseau, O.Rubel, A.A.Shukri, M.Stankovski, M.Torrent,
- M.J.Van Setten, B.Van Troeye, M.J.Verstraete, D.Waroquier, J.Wiktor,
- B.Xu, A.Zhou, J.W.Zwanziger.
- Comment : the fourth generic paper describing the ABINIT project.
- Note that a version of this paper, that is not formatted for Computer Phys. Comm. 
- is available at https://www.abinit.org/about/ABINIT16.pdf .
- The licence allows the authors to put it on the Web.
-
- [4] First-principles responses of solids to atomic displacements and homogeneous electric fields:,
- implementation of a conjugate-gradient algorithm. X. Gonze, Phys. Rev. B55, 10337 (1997).
- Comment : Non-vanishing rfphon and/or rfelfd, in the norm-conserving case.
-
- [5] Dynamical matrices, Born effective charges, dielectric permittivity tensors, and ,
- interatomic force constants from density-functional perturbation theory,
- X. Gonze and C. Lee, Phys. Rev. B55, 10355 (1997).
- Comment : Non-vanishing rfphon and/or rfelfd, in the norm-conserving case.
-
- [6] ABINIT : First-principles approach of materials and nanosystem properties.
- Computer Phys. Comm. 180, 2582-2615 (2009).
- X. Gonze, B. Amadon, P.-M. Anglade, J.-M. Beuken, F. Bottin, P. Boulanger, F. Bruneval,
- D. Caliste, R. Caracas, M. Cote, T. Deutsch, L. Genovese, Ph. Ghosez, M. Giantomassi
- S. Goedecker, D.R. Hamann, P. Hermet, F. Jollet, G. Jomard, S. Leroux, M. Mancini, S. Mazevet,
- M.J.T. Oliveira, G. Onida, Y. Pouillon, T. Rangel, G.-M. Rignanese, D. Sangalli, R. Shaltaf,
- M. Torrent, M.J. Verstraete, G. Zerah, J.W. Zwanziger
- Comment : the third generic paper describing the ABINIT project.
- Note that a version of this paper, that is not formatted for Computer Phys. Comm. 
- is available at https://www.abinit.org/about/ABINIT_CPC_v10.pdf .
- The licence allows the authors to put it on the Web.
-
- [7] A brief introduction to the ABINIT software package.
- Z. Kristallogr. 220, 558-562 (2005).
- X. Gonze, G.-M. Rignanese, M. Verstraete, J.-M. Beuken, Y. Pouillon, R. Caracas, F. Jollet,
- M. Torrent, G. Zerah, M. Mikami, Ph. Ghosez, M. Veithen, J.-Y. Raty, V. Olevano, F. Bruneval,
- L. Reining, R. Godby, G. Onida, D.R. Hamann, and D.C. Allan.
- Comment : the second generic paper describing the ABINIT project. Note that this paper
- should be cited especially if you are using the GW part of ABINIT, as several authors
- of this part are not in the list of authors of the first or third paper.
- The .pdf of the latter paper is available at https://www.abinit.org/about/zfk_0505-06_558-562.pdf.
- Note that it should not redistributed (Copyright by Oldenburg Wissenshaftverlag,
- the licence allows the authors to put it on the Web).
-
- Proc.   0 individual time (sec): cpu=         65.8  wall=         65.8

================================================================================

 Calculation completed.
.Delivered   8 WARNINGs and  21 COMMENTs to log file.
+Overall time at end (sec) : cpu=         65.8  wall=         65.8
