
.Version 8.7.1 of ABINIT 
.(MPI version, prepared for a x86_64_linux_gnu5.3 computer) 

.Copyright (C) 1998-2019 ABINIT group . 
 ABINIT comes with ABSOLUTELY NO WARRANTY.
 It is free software, and you are welcome to redistribute it
 under certain conditions (GNU General Public License,
 see ~abinit/COPYING or http://www.gnu.org/copyleft/gpl.txt).

 ABINIT is a project of the Universite Catholique de Louvain,
 Corning Inc. and other collaborators, see ~abinit/doc/developers/contributors.txt .
 Please read https://docs.abinit.org/theory/acknowledgments for suggested
 acknowledgments of the ABINIT effort.
 For more information, see https://www.abinit.org .

.Starting date : Sat 28 Oct 2017.
- ( at 17h09 )
  
- input  file    -> t91.in
- output file    -> t91.out
- root for input  files -> t91i
- root for output files -> t91o


 DATASET    1 : space group Fd -3 m (#227); Bravais cF (face-center cubic)
================================================================================
 Values of the parameters that define the memory need for DATASET  1.
     intxc =       0    ionmov =       0      iscf =       7    lmnmax =       7
     lnmax =       7     mgfft =      20  mpssoang =       3    mqgrid =    3001
     natom =       2  nloc_mem =       1    nspden =       1   nspinor =       1
    nsppol =       1      nsym =      48    n1xccc =    2501    ntypat =       1
    occopt =       1   xclevel =       2
-    mband =          14        mffmem =           1         mkmem =           3
       mpw =         151          nfft =        8000          nkpt =           3
================================================================================
P This job should need less than                       3.448 Mbytes of memory.
  Rough estimation (10% accuracy) of disk space for files :
_ WF disk file :      0.099 Mbytes ; DEN or POT disk file :      0.063 Mbytes.
================================================================================


 DATASET    2 : space group Fd -3 m (#227); Bravais cF (face-center cubic)
================================================================================
 Values of the parameters that define the memory need for DATASET  2.
     intxc =       0    ionmov =       0      iscf =       7    lmnmax =       7
     lnmax =       7     mgfft =      20  mpssoang =       3    mqgrid =    3001
     natom =       2  nloc_mem =       1    nspden =       4   nspinor =       2
    nsppol =       1      nsym =      48    n1xccc =    2501    ntypat =       1
    occopt =       1   xclevel =       2
-    mband =          28        mffmem =           1         mkmem =           3
       mpw =         302          nfft =        8000          nkpt =           3
================================================================================
P This job should need less than                       9.075 Mbytes of memory.
  Rough estimation (10% accuracy) of disk space for files :
_ WF disk file :      0.389 Mbytes ; DEN or POT disk file :      0.063 Mbytes.
================================================================================


 DATASET    3 : space group Fd -3 m (#227); Bravais cF (face-center cubic)
================================================================================
 Values of the parameters that define the memory need for DATASET  3.
     intxc =       0    ionmov =       0      iscf =       7    lmnmax =       7
     lnmax =       7     mgfft =      18  mpssoang =       3    mqgrid =    3001
     natom =       2  nloc_mem =       1    nspden =       1   nspinor =       1
    nsppol =       1      nsym =      48    n1xccc =    2501    ntypat =       1
    occopt =       1   xclevel =       2
-    mband =          14        mffmem =           1         mkmem =           3
       mpw =         133          nfft =        5832          nkpt =           3
================================================================================
P This job should need less than                       2.738 Mbytes of memory.
  Rough estimation (10% accuracy) of disk space for files :
_ WF disk file :      0.087 Mbytes ; DEN or POT disk file :      0.046 Mbytes.
================================================================================


 DATASET    4 : space group Fd -3 m (#227); Bravais cF (face-center cubic)
================================================================================
 Values of the parameters that define the memory need for DATASET  4.
     intxc =       0    ionmov =       0      iscf =       7    lmnmax =       7
     lnmax =       7     mgfft =      18  mpssoang =       3    mqgrid =    3001
     natom =       2  nloc_mem =       1    nspden =       4   nspinor =       2
    nsppol =       1      nsym =      48    n1xccc =    2501    ntypat =       1
    occopt =       1   xclevel =       2
-    mband =          28        mffmem =           1         mkmem =           3
       mpw =         266          nfft =        5832          nkpt =           3
================================================================================
P This job should need less than                       6.945 Mbytes of memory.
  Rough estimation (10% accuracy) of disk space for files :
_ WF disk file :      0.343 Mbytes ; DEN or POT disk file :      0.046 Mbytes.
================================================================================


 DATASET    5 : space group Fd -3 m (#227); Bravais cF (face-center cubic)
================================================================================
 Values of the parameters that define the memory need for DATASET  5.
     intxc =       0    ionmov =       0      iscf =       7    lmnmax =       7
     lnmax =       7     mgfft =      18  mpssoang =       3    mqgrid =    3001
     natom =       2  nloc_mem =       1    nspden =       4   nspinor =       2
    nsppol =       1      nsym =      48    n1xccc =    2501    ntypat =       1
    occopt =       1   xclevel =       2
-    mband =          28        mffmem =           1         mkmem =           3
       mpw =         266          nfft =        5832          nkpt =           3
================================================================================
P This job should need less than                       6.945 Mbytes of memory.
  Rough estimation (10% accuracy) of disk space for files :
_ WF disk file :      0.343 Mbytes ; DEN or POT disk file :      0.046 Mbytes.
================================================================================


 DATASET    6 : space group Fd -3 m (#227); Bravais cF (face-center cubic)
================================================================================
 Values of the parameters that define the memory need for DATASET  6.
     intxc =       0    ionmov =       0      iscf =       7    lmnmax =       7
     lnmax =       7     mgfft =      18  mpssoang =       3    mqgrid =    3001
     natom =       2  nloc_mem =       1    nspden =       4   nspinor =       2
    nsppol =       1      nsym =      48    n1xccc =    2501    ntypat =       1
    occopt =       1   xclevel =       2
-    mband =          28        mffmem =           1         mkmem =           3
       mpw =         266          nfft =        5832          nkpt =           3
================================================================================
P This job should need less than                       6.945 Mbytes of memory.
  Rough estimation (10% accuracy) of disk space for files :
_ WF disk file :      0.343 Mbytes ; DEN or POT disk file :      0.046 Mbytes.
================================================================================

--------------------------------------------------------------------------------
------------- Echo of variables that govern the present computation ------------
--------------------------------------------------------------------------------
-
- outvars: echo of selected default values                                      
-   iomode0 =  0 , fftalg0 =312 , wfoptalg0 =  0
-
- outvars: echo of global parameters not present in the input file              
-  max_nthreads =    0
-
 -outvars: echo values of preprocessed input variables --------
            acell      1.0217000000E+01  1.0217000000E+01  1.0217000000E+01 Bohr
              amu      2.80855000E+01
             awtr           0
             bdgw           1      14
             ecut1     8.00000000E+00 Hartree
             ecut2     8.00000000E+00 Hartree
             ecut3     7.56385066E+00 Hartree
             ecut4     7.56385066E+00 Hartree
             ecut5     7.56385066E+00 Hartree
             ecut6     7.56385066E+00 Hartree
          ecuteps1     2.00000000E+00 Hartree
          ecuteps2     2.00000000E+00 Hartree
          ecuteps3     1.51277013E+00 Hartree
          ecuteps4     1.51277013E+00 Hartree
          ecuteps5     1.51277013E+00 Hartree
          ecuteps6     1.51277013E+00 Hartree
         ecutsigx1     8.00000000E+00 Hartree
         ecutsigx2     8.00000000E+00 Hartree
         ecutsigx3     7.56385066E+00 Hartree
         ecutsigx4     7.56385066E+00 Hartree
         ecutsigx5     7.56385066E+00 Hartree
         ecutsigx6     7.56385066E+00 Hartree
          ecutwfn1     0.00000000E+00 Hartree
          ecutwfn2     0.00000000E+00 Hartree
          ecutwfn3     7.56385066E+00 Hartree
          ecutwfn4     7.56385066E+00 Hartree
          ecutwfn5     7.56385066E+00 Hartree
          ecutwfn6     7.56385066E+00 Hartree
-          fftalg         312
        freqremax      7.34986508E-01 Hartree
           getscr1          0
           getscr2          0
           getscr3          0
           getscr4          3
           getscr5          3
           getscr6          3
           getwfk1          0
           getwfk2          1
           getwfk3          1
           getwfk4          2
           getwfk5          2
           getwfk6          2
        gwcalctyp1          0
        gwcalctyp2          0
        gwcalctyp3          2
        gwcalctyp4          0
        gwcalctyp5          7
        gwcalctyp6          2
-          gwpara           1
          inclvkb           0
           istwfk1       2    3    7
           istwfk2       1    1    1
           istwfk3       2    3    7
           istwfk4       1    1    1
           istwfk5       1    1    1
           istwfk6       1    1    1
              ixc          11
           jdtset        1    2    3    4    5    6
              kpt      0.00000000E+00  0.00000000E+00  0.00000000E+00
                       5.00000000E-01  0.00000000E+00  0.00000000E+00
                       5.00000000E-01  5.00000000E-01  0.00000000E+00
           kptopt           4
         kptrlatt        2    0    0      0    2    0      0    0    2
          kptrlen      1.44490200E+01
P           mkmem           3
            natom           2
            nband1         14
            nband2         28
            nband3         14
            nband4         28
            nband5         28
            nband6         28
           ndtset           6
          nfreqim           5
          nfreqre          10
            ngfft1         20      20      20
            ngfft2         20      20      20
            ngfft3         18      18      18
            ngfft4         18      18      18
            ngfft5         18      18      18
            ngfft6         18      18      18
             nkpt           3
           nkptgw           1
           npweps1          0
           npweps2          0
           npweps3         27
           npweps4         27
           npweps5         27
           npweps6         27
          npwsigx1          0
          npwsigx2          0
          npwsigx3        283
          npwsigx4        283
          npwsigx5        283
          npwsigx6        283
           npwwfn1          0
           npwwfn2          0
           npwwfn3        283
           npwwfn4        283
           npwwfn5        283
           npwwfn6        283
           nspden1          1
           nspden2          4
           nspden3          1
           nspden4          4
           nspden5          4
           nspden6          4
          nspinor1          1
          nspinor2          2
          nspinor3          1
          nspinor4          2
          nspinor5          2
          nspinor6          2
             nsym          48
           ntypat           1
              occ1     2.000000  2.000000  2.000000  2.000000  0.000000  0.000000
                       0.000000  0.000000  0.000000  0.000000  0.000000  0.000000
                       0.000000  0.000000
              occ2     1.000000  1.000000  1.000000  1.000000  1.000000  1.000000
                       1.000000  1.000000  0.000000  0.000000  0.000000  0.000000
                       0.000000  0.000000  0.000000  0.000000  0.000000  0.000000
                       0.000000  0.000000  0.000000  0.000000  0.000000  0.000000
                       0.000000  0.000000  0.000000  0.000000
              occ3     2.000000  2.000000  2.000000  2.000000  0.000000  0.000000
                       0.000000  0.000000  0.000000  0.000000  0.000000  0.000000
                       0.000000  0.000000
              occ4     1.000000  1.000000  1.000000  1.000000  1.000000  1.000000
                       1.000000  1.000000  0.000000  0.000000  0.000000  0.000000
                       0.000000  0.000000  0.000000  0.000000  0.000000  0.000000
                       0.000000  0.000000  0.000000  0.000000  0.000000  0.000000
                       0.000000  0.000000  0.000000  0.000000
              occ5     1.000000  1.000000  1.000000  1.000000  1.000000  1.000000
                       1.000000  1.000000  0.000000  0.000000  0.000000  0.000000
                       0.000000  0.000000  0.000000  0.000000  0.000000  0.000000
                       0.000000  0.000000  0.000000  0.000000  0.000000  0.000000
                       0.000000  0.000000  0.000000  0.000000
              occ6     1.000000  1.000000  1.000000  1.000000  1.000000  1.000000
                       1.000000  1.000000  0.000000  0.000000  0.000000  0.000000
                       0.000000  0.000000  0.000000  0.000000  0.000000  0.000000
                       0.000000  0.000000  0.000000  0.000000  0.000000  0.000000
                       0.000000  0.000000  0.000000  0.000000
        optdriver1          0
        optdriver2          0
        optdriver3          3
        optdriver4          4
        optdriver5          4
        optdriver6          4
            rprim      0.0000000000E+00  5.0000000000E-01  5.0000000000E-01
                       5.0000000000E-01  0.0000000000E+00  5.0000000000E-01
                       5.0000000000E-01  5.0000000000E-01  0.0000000000E+00
           so_psp           0
          spgroup         227
           symchi        0
           symrel      1  0  0   0  1  0   0  0  1      -1  0  0   0 -1  0   0  0 -1
                       0 -1  1   0 -1  0   1 -1  0       0  1 -1   0  1  0  -1  1  0
                      -1  0  0  -1  0  1  -1  1  0       1  0  0   1  0 -1   1 -1  0
                       0  1 -1   1  0 -1   0  0 -1       0 -1  1  -1  0  1   0  0  1
                      -1  0  0  -1  1  0  -1  0  1       1  0  0   1 -1  0   1  0 -1
                       0 -1  1   1 -1  0   0 -1  0       0  1 -1  -1  1  0   0  1  0
                       1  0  0   0  0  1   0  1  0      -1  0  0   0  0 -1   0 -1  0
                       0  1 -1   0  0 -1   1  0 -1       0 -1  1   0  0  1  -1  0  1
                      -1  0  1  -1  1  0  -1  0  0       1  0 -1   1 -1  0   1  0  0
                       0 -1  0   1 -1  0   0 -1  1       0  1  0  -1  1  0   0  1 -1
                       1  0 -1   0  0 -1   0  1 -1      -1  0  1   0  0  1   0 -1  1
                       0  1  0   0  0  1   1  0  0       0 -1  0   0  0 -1  -1  0  0
                       1  0 -1   0  1 -1   0  0 -1      -1  0  1   0 -1  1   0  0  1
                       0 -1  0   0 -1  1   1 -1  0       0  1  0   0  1 -1  -1  1  0
                      -1  0  1  -1  0  0  -1  1  0       1  0 -1   1  0  0   1 -1  0
                       0  1  0   1  0  0   0  0  1       0 -1  0  -1  0  0   0  0 -1
                       0  0 -1   0  1 -1   1  0 -1       0  0  1   0 -1  1  -1  0  1
                       1 -1  0   0 -1  1   0 -1  0      -1  1  0   0  1 -1   0  1  0
                       0  0  1   1  0  0   0  1  0       0  0 -1  -1  0  0   0 -1  0
                      -1  1  0  -1  0  0  -1  0  1       1 -1  0   1  0  0   1  0 -1
                       0  0  1   0  1  0   1  0  0       0  0 -1   0 -1  0  -1  0  0
                       1 -1  0   0 -1  0   0 -1  1      -1  1  0   0  1  0   0  1 -1
                       0  0 -1   1  0 -1   0  1 -1       0  0  1  -1  0  1   0 -1  1
                      -1  1  0  -1  0  1  -1  0  0       1 -1  0   1  0 -1   1  0  0
            tnons      0.0000000  0.0000000  0.0000000     0.2500000  0.2500000  0.2500000
                       0.0000000  0.0000000  0.0000000     0.2500000  0.2500000  0.2500000
                       0.0000000  0.0000000  0.0000000     0.2500000  0.2500000  0.2500000
                       0.0000000  0.0000000  0.0000000     0.2500000  0.2500000  0.2500000
                       0.0000000  0.0000000  0.0000000     0.2500000  0.2500000  0.2500000
                       0.0000000  0.0000000  0.0000000     0.2500000  0.2500000  0.2500000
                       0.0000000  0.0000000  0.0000000     0.2500000  0.2500000  0.2500000
                       0.0000000  0.0000000  0.0000000     0.2500000  0.2500000  0.2500000
                       0.0000000  0.0000000  0.0000000     0.2500000  0.2500000  0.2500000
                       0.0000000  0.0000000  0.0000000     0.2500000  0.2500000  0.2500000
                       0.0000000  0.0000000  0.0000000     0.2500000  0.2500000  0.2500000
                       0.0000000  0.0000000  0.0000000     0.2500000  0.2500000  0.2500000
                       0.0000000  0.0000000  0.0000000     0.2500000  0.2500000  0.2500000
                       0.0000000  0.0000000  0.0000000     0.2500000  0.2500000  0.2500000
                       0.0000000  0.0000000  0.0000000     0.2500000  0.2500000  0.2500000
                       0.0000000  0.0000000  0.0000000     0.2500000  0.2500000  0.2500000
                       0.0000000  0.0000000  0.0000000     0.2500000  0.2500000  0.2500000
                       0.0000000  0.0000000  0.0000000     0.2500000  0.2500000  0.2500000
                       0.0000000  0.0000000  0.0000000     0.2500000  0.2500000  0.2500000
                       0.0000000  0.0000000  0.0000000     0.2500000  0.2500000  0.2500000
                       0.0000000  0.0000000  0.0000000     0.2500000  0.2500000  0.2500000
                       0.0000000  0.0000000  0.0000000     0.2500000  0.2500000  0.2500000
                       0.0000000  0.0000000  0.0000000     0.2500000  0.2500000  0.2500000
                       0.0000000  0.0000000  0.0000000     0.2500000  0.2500000  0.2500000
           tolwfr      1.00000000E-16
            typat      1  1
              wtk        0.12500    0.50000    0.37500
           xangst      0.0000000000E+00  0.0000000000E+00  0.0000000000E+00
                       1.3516508850E+00  1.3516508850E+00  1.3516508850E+00
            xcart      0.0000000000E+00  0.0000000000E+00  0.0000000000E+00
                       2.5542500000E+00  2.5542500000E+00  2.5542500000E+00
             xred      0.0000000000E+00  0.0000000000E+00  0.0000000000E+00
                       2.5000000000E-01  2.5000000000E-01  2.5000000000E-01
            znucl       14.00000

================================================================================

 chkinp: Checking input parameters for consistency, jdtset=   1.

 chkinp: Checking input parameters for consistency, jdtset=   2.

 chkinp: Checking input parameters for consistency, jdtset=   3.

 chkinp: Checking input parameters for consistency, jdtset=   4.

 chkinp: Checking input parameters for consistency, jdtset=   5.

 chkinp: Checking input parameters for consistency, jdtset=   6.

================================================================================
== DATASET  1 ==================================================================
-   nproc =    1

 Exchange-correlation functional for the present dataset will be:
  GGA: Perdew-Burke-Ernzerhof functional - ixc=11
 Citation for XC functional:
  J.P.Perdew, K.Burke, M.Ernzerhof, PRL 77, 3865 (1996)

 Real(R)+Recip(G) space primitive vectors, cartesian coordinates (Bohr,Bohr^-1):
 R(1)=  0.0000000  5.1085000  5.1085000  G(1)= -0.0978761  0.0978761  0.0978761
 R(2)=  5.1085000  0.0000000  5.1085000  G(2)=  0.0978761 -0.0978761  0.0978761
 R(3)=  5.1085000  5.1085000  0.0000000  G(3)=  0.0978761  0.0978761 -0.0978761
 Unit cell volume ucvol=  2.6663072E+02 bohr^3
 Angles (23,13,12)=  6.00000000E+01  6.00000000E+01  6.00000000E+01 degrees

 getcut: wavevector=  0.0000  0.0000  0.0000  ngfft=  20  20  20
         ecut(hartree)=      8.000   => boxcut(ratio)=   2.17426

--- Pseudopotential description ------------------------------------------------
- pspini: atom type   1  psp file is /home/gmatteo/git_repos/abinit_soc/tests/Psps_for_tests/Si_r.psp8
- pspatm: opening atomic psp file    /home/gmatteo/git_repos/abinit_soc/tests/Psps_for_tests/Si_r.psp8
- Si    ONCVPSP  r_core=  1.60  1.72  1.92
- 14.00000   4.00000    160518                znucl, zion, pspdat
    8   11    2    4       600   0.00000      pspcod,pspxc,lmax,lloc,mmax,r2well
    5.99000000000000    4.00000000000000    0.00000000000000   rchrg,fchrg,qchrg
     nproj     2     3     2
     spin-orbit psp, extension_switch     3
        nprojso     4     3
  pspatm : epsatm=    9.34878155
         --- l  ekb(1:nproj) -->
             0    0.840891    5.077806
             1    2.715487    0.601430    0.000397
             2  -10.098948   -0.937382
  spin-orbit 1
  spin-orbit 1
  spin-orbit 1
  spin-orbit 1
  spin-orbit 2
  spin-orbit 2
  spin-orbit 2
 pspatm: atomic psp has been read  and splines computed

   1.49580505E+02                                ecore*ucvol(ha*bohr**3)
--------------------------------------------------------------------------------

_setup2: Arith. and geom. avg. npw (full set) are     284.625     284.289

================================================================================

     iter   Etot(hartree)      deltaE(h)  residm     vres2
 ETOT  1  -8.3582585935285    -8.358E+00 9.907E-02 4.262E+00
 ETOT  2  -8.3627219182551    -4.463E-03 1.286E-05 1.119E-01
 ETOT  3  -8.3628055388145    -8.362E-05 4.648E-06 8.144E-04
 ETOT  4  -8.3628058170006    -2.782E-07 1.502E-08 2.026E-05
 ETOT  5  -8.3628058221389    -5.138E-09 4.083E-10 8.875E-07
 ETOT  6  -8.3628058223834    -2.445E-10 2.823E-11 3.310E-08
 ETOT  7  -8.3628058223925    -9.127E-12 1.661E-12 1.264E-10
 ETOT  8  -8.3628058223925    -3.375E-14 2.687E-15 5.596E-13
 ETOT  9  -8.3628058223925     4.619E-14 9.498E-17 1.892E-15

 At SCF step    9   max residual=  9.50E-17 < tolwfr=  1.00E-16 =>converged.

 Cartesian components of stress tensor (hartree/bohr^3)
  sigma(1 1)= -3.35007526E-04  sigma(3 2)=  0.00000000E+00
  sigma(2 2)= -3.35007526E-04  sigma(3 1)=  0.00000000E+00
  sigma(3 3)= -3.35007526E-04  sigma(2 1)=  0.00000000E+00

 Integrated electronic density in atomic spheres:
 ------------------------------------------------
 Atom  Sphere_radius  Integrated_density
    1        2.00000          1.73969272
    2        2.00000          1.73969272
================================================================================

 ----iterations are completed or convergence reached----

 Mean square residual over all n,k,spin=   4.0387E-17; max=  9.4976E-17
 reduced coordinates (array xred) for    2 atoms
       0.000000000000      0.000000000000      0.000000000000
       0.250000000000      0.250000000000      0.250000000000
 rms dE/dt=  2.2421E-27; max dE/dt=  4.3082E-27; dE/dt below (all hartree)
    1       0.000000000000      0.000000000000     -0.000000000000
    2       0.000000000000      0.000000000000     -0.000000000000

 cartesian coordinates (angstrom) at end:
    1      0.00000000000000     0.00000000000000     0.00000000000000
    2      1.35165088504101     1.35165088504101     1.35165088504101

 cartesian forces (hartree/bohr) at end:
    1     -0.00000000000000     0.00000000000000     0.00000000000000
    2      0.00000000000000    -0.00000000000000    -0.00000000000000
 frms,max,avg= 2.6529674E-28 3.1625470E-28   0.000E+00  0.000E+00  0.000E+00 h/b

 cartesian forces (eV/Angstrom) at end:
    1     -0.00000000000000     0.00000000000000     0.00000000000000
    2      0.00000000000000    -0.00000000000000    -0.00000000000000
 frms,max,avg= 1.3642106E-26 1.6262469E-26   0.000E+00  0.000E+00  0.000E+00 e/A
 length scales= 10.217000000000 10.217000000000 10.217000000000 bohr
              =  5.406603540164  5.406603540164  5.406603540164 angstroms
 prteigrs : about to open file t91o_DS1_EIG
 Fermi (or HOMO) energy (hartree) =   0.17540   Average Vxc (hartree)=  -0.33628
 Eigenvalues (hartree) for nkpt=   3  k points:
 kpt#   1, nband= 14, wtk=  0.12500, kpt=  0.0000  0.0000  0.0000 (reduced coord)
  -0.26979    0.17540    0.17540    0.17540    0.26526    0.26526    0.26526    0.30717
   0.45859    0.45859    0.47018    0.58602    0.58602    0.58602
 prteigrs : prtvol=0 or 1, do not print more k-points.


--------------------------------------------------------------------------------
 Components of total free energy (in Hartree) :

    Kinetic energy  =  3.28859060482303E+00
    Hartree energy  =  6.24241183076773E-01
    XC energy       = -3.13744571448026E+00
    Ewald energy    = -8.43581958561899E+00
    PspCore energy  =  5.61002511661397E-01
    Loc. psp. energy= -2.39481213826404E+00
    NL   psp  energy=  1.13143731640959E+00
    >>>>>>>>> Etotal= -8.36280582239250E+00

 Other information on the energy :
    Total energy(eV)= -2.27563519379765E+02 ; Band energy (Ha)=  -1.7382527346E-02
--------------------------------------------------------------------------------

 Cartesian components of stress tensor (hartree/bohr^3)
  sigma(1 1)= -3.35007526E-04  sigma(3 2)=  0.00000000E+00
  sigma(2 2)= -3.35007526E-04  sigma(3 1)=  0.00000000E+00
  sigma(3 3)= -3.35007526E-04  sigma(2 1)=  0.00000000E+00

-Cartesian components of stress tensor (GPa)         [Pressure=  9.8563E+00 GPa]
- sigma(1 1)= -9.85626005E+00  sigma(3 2)=  0.00000000E+00
- sigma(2 2)= -9.85626005E+00  sigma(3 1)=  0.00000000E+00
- sigma(3 3)= -9.85626005E+00  sigma(2 1)=  0.00000000E+00

================================================================================
== DATASET  2 ==================================================================
-   nproc =    1

 mkfilename : getwfk/=0, take file _WFK from output of DATASET   1.

 Exchange-correlation functional for the present dataset will be:
  GGA: Perdew-Burke-Ernzerhof functional - ixc=11
 Citation for XC functional:
  J.P.Perdew, K.Burke, M.Ernzerhof, PRL 77, 3865 (1996)

 Real(R)+Recip(G) space primitive vectors, cartesian coordinates (Bohr,Bohr^-1):
 R(1)=  0.0000000  5.1085000  5.1085000  G(1)= -0.0978761  0.0978761  0.0978761
 R(2)=  5.1085000  0.0000000  5.1085000  G(2)=  0.0978761 -0.0978761  0.0978761
 R(3)=  5.1085000  5.1085000  0.0000000  G(3)=  0.0978761  0.0978761 -0.0978761
 Unit cell volume ucvol=  2.6663072E+02 bohr^3
 Angles (23,13,12)=  6.00000000E+01  6.00000000E+01  6.00000000E+01 degrees

 getcut: wavevector=  0.0000  0.0000  0.0000  ngfft=  20  20  20
         ecut(hartree)=      8.000   => boxcut(ratio)=   2.17426
--------------------------------------------------------------------------------

-inwffil : will read wavefunctions from disk file t91o_DS1_WFK
_setup2: Arith. and geom. avg. npw (full set) are     284.625     284.289

================================================================================

     iter   Etot(hartree)      deltaE(h)  residm     vres2
 ETOT  1  -8.3628058223925    -8.363E+00 9.352E-17 3.321E-17

 At SCF step    1   max residual=  9.35E-17 < tolwfr=  1.00E-16 =>converged.

 Cartesian components of stress tensor (hartree/bohr^3)
  sigma(1 1)= -3.35007524E-04  sigma(3 2)=  0.00000000E+00
  sigma(2 2)= -3.35007524E-04  sigma(3 1)=  0.00000000E+00
  sigma(3 3)= -3.35007524E-04  sigma(2 1)=  0.00000000E+00

 Integrated electronic and magnetization densities in atomic spheres:
 ---------------------------------------------------------------------
 Radius=ratsph(iatom), smearing ratsm=  0.0000. mag(i)=approximate local magnetic moment.
 Atom   Radius      Total density     mag(x)      mag(y)      mag(z)
    1   2.00000        1.739693      0.000000   -0.000000   -0.000000
    2   2.00000        1.739693     -0.000000   -0.000000    0.000000
 ---------------------------------------------------------------------
 Total magnetization (spheres)      -0.000000   -0.000000   -0.000000
 Total magnetization (exact)        -0.000000   -0.000000    0.000000
================================================================================

 ----iterations are completed or convergence reached----

 Mean square residual over all n,k,spin=   3.6856E-17; max=  9.3525E-17
 reduced coordinates (array xred) for    2 atoms
       0.000000000000      0.000000000000      0.000000000000
       0.250000000000      0.250000000000      0.250000000000
 rms dE/dt=  6.2184E-28; max dE/dt=  1.0771E-27; dE/dt below (all hartree)
    1       0.000000000000     -0.000000000000      0.000000000000
    2       0.000000000000      0.000000000000      0.000000000000

 cartesian coordinates (angstrom) at end:
    1      0.00000000000000     0.00000000000000     0.00000000000000
    2      1.35165088504101     1.35165088504101     1.35165088504101

 cartesian forces (hartree/bohr) at end:
    1      0.00000000000000    -0.00000000000000     0.00000000000000
    2     -0.00000000000000     0.00000000000000    -0.00000000000000
 frms,max,avg= 1.0541823E-28 1.0541823E-28   0.000E+00  0.000E+00  0.000E+00 h/b

 cartesian forces (eV/Angstrom) at end:
    1      0.00000000000000    -0.00000000000000     0.00000000000000
    2     -0.00000000000000     0.00000000000000    -0.00000000000000
 frms,max,avg= 5.4208231E-27 5.4208231E-27   0.000E+00  0.000E+00  0.000E+00 e/A
 length scales= 10.217000000000 10.217000000000 10.217000000000 bohr
              =  5.406603540164  5.406603540164  5.406603540164 angstroms
 prteigrs : about to open file t91o_DS2_EIG
 Fermi (or HOMO) energy (hartree) =   0.17540   Average Vxc (hartree)=  -0.33628
 Eigenvalues (hartree) for nkpt=   3  k points:
 kpt#   1, nband= 28, wtk=  0.12500, kpt=  0.0000  0.0000  0.0000 (reduced coord)
  -0.26979   -0.26979    0.17540    0.17540    0.17540    0.17540    0.17540    0.17540
   0.26526    0.26526    0.26526    0.26526    0.26526    0.26526    0.30717    0.30717
   0.45859    0.45859    0.45859    0.45859    0.47018    0.47018    0.58602    0.58602
   0.58602    0.58602    0.58602    0.58602
 prteigrs : prtvol=0 or 1, do not print more k-points.


--------------------------------------------------------------------------------
 Components of total free energy (in Hartree) :

    Kinetic energy  =  3.28859060421089E+00
    Hartree energy  =  6.24241182531130E-01
    XC energy       = -3.13744571421987E+00
    Ewald energy    = -8.43581958561899E+00
    PspCore energy  =  5.61002511661397E-01
    Loc. psp. energy= -2.39481213710372E+00
    NL   psp  energy=  1.13143731614666E+00
    >>>>>>>>> Etotal= -8.36280582239250E+00

 Other information on the energy :
    Total energy(eV)= -2.27563519379765E+02 ; Band energy (Ha)=  -1.7382530602E-02
--------------------------------------------------------------------------------

 Cartesian components of stress tensor (hartree/bohr^3)
  sigma(1 1)= -3.35007524E-04  sigma(3 2)=  0.00000000E+00
  sigma(2 2)= -3.35007524E-04  sigma(3 1)=  0.00000000E+00
  sigma(3 3)= -3.35007524E-04  sigma(2 1)=  0.00000000E+00

-Cartesian components of stress tensor (GPa)         [Pressure=  9.8563E+00 GPa]
- sigma(1 1)= -9.85625999E+00  sigma(3 2)=  0.00000000E+00
- sigma(2 2)= -9.85625999E+00  sigma(3 1)=  0.00000000E+00
- sigma(3 3)= -9.85625999E+00  sigma(2 1)=  0.00000000E+00

================================================================================
== DATASET  3 ==================================================================
-   nproc =    1

 mkfilename : getwfk/=0, take file _WFK from output of DATASET   1.

 Exchange-correlation functional for the present dataset will be:
  GGA: Perdew-Burke-Ernzerhof functional - ixc=11
 Citation for XC functional:
  J.P.Perdew, K.Burke, M.Ernzerhof, PRL 77, 3865 (1996)

 SCREENING: Calculation of the susceptibility and dielectric matrices 

 Based on a program developped by R.W. Godby, V. Olevano, G. Onida, and L. Reining.
 Incorporated in ABINIT by V. Olevano, G.-M. Rignanese, and M. Torrent.
.Using double precision arithmetic ; gwpc =  8

 Real(R)+Recip(G) space primitive vectors, cartesian coordinates (Bohr,Bohr^-1):
 R(1)=  0.0000000  5.1085000  5.1085000  G(1)= -0.0978761  0.0978761  0.0978761
 R(2)=  5.1085000  0.0000000  5.1085000  G(2)=  0.0978761 -0.0978761  0.0978761
 R(3)=  5.1085000  5.1085000  0.0000000  G(3)=  0.0978761  0.0978761 -0.0978761
 Unit cell volume ucvol=  2.6663072E+02 bohr^3
 Angles (23,13,12)=  6.00000000E+01  6.00000000E+01  6.00000000E+01 degrees

--- Pseudopotential description ------------------------------------------------
- pspini: atom type   1  psp file is /home/gmatteo/git_repos/abinit_soc/tests/Psps_for_tests/Si_r.psp8
- pspatm: opening atomic psp file    /home/gmatteo/git_repos/abinit_soc/tests/Psps_for_tests/Si_r.psp8
- Si    ONCVPSP  r_core=  1.60  1.72  1.92
- 14.00000   4.00000    160518                znucl, zion, pspdat
    8   11    2    4       600   0.00000      pspcod,pspxc,lmax,lloc,mmax,r2well
    5.99000000000000    4.00000000000000    0.00000000000000   rchrg,fchrg,qchrg
     nproj     2     3     2
     spin-orbit psp, extension_switch     3
        nprojso     4     3
  pspatm : epsatm=    9.34878155
         --- l  ekb(1:nproj) -->
             0    0.840891    5.077806
             1    2.715487    0.601430    0.000397
             2  -10.098948   -0.937382
  spin-orbit 1
  spin-orbit 1
  spin-orbit 1
  spin-orbit 1
  spin-orbit 2
  spin-orbit 2
  spin-orbit 2
 pspatm: atomic psp has been read  and splines computed

--------------------------------------------------------------------------------

 ==== K-mesh for the wavefunctions ====
 Number of points in the irreducible wedge :     3
 Reduced coordinates and weights : 

     1)     0.00000000E+00  0.00000000E+00  0.00000000E+00       0.12500
     2)     5.00000000E-01  0.00000000E+00  0.00000000E+00       0.50000
     3)     5.00000000E-01  5.00000000E-01  0.00000000E+00       0.37500

 Together with 48 symmetry operations (time-reversal symmetry not used) 
 yields     8 points in the full Brillouin Zone.


 ==== Q-mesh for the screening function ====
 Number of points in the irreducible wedge :     3
 Reduced coordinates and weights : 

     1)     0.00000000E+00  0.00000000E+00  0.00000000E+00       0.12500
     2)     5.00000000E-01  0.00000000E+00  0.00000000E+00       0.50000
     3)     5.00000000E-01  5.00000000E-01  0.00000000E+00       0.37500

 Together with 48 symmetry operations (time-reversal symmetry not used) 
 yields     8 points in the full Brillouin Zone.


 setmesh: FFT mesh size selected  =  20x 20x 20
          total number of points  =     8000

 Number of electrons calculated from density =    7.9997; Expected =    8.0000
 average of density, n =  0.030003
 r_s =    1.9964
 omega_plasma =   16.7085 [eV]


 calculating chi0 at frequencies [eV] :
  1    0.000000E+00    0.000000E+00
  2    2.222222E+00    0.000000E+00
  3    4.444444E+00    0.000000E+00
  4    6.666667E+00    0.000000E+00
  5    8.888889E+00    0.000000E+00
  6    1.111111E+01    0.000000E+00
  7    1.333333E+01    0.000000E+00
  8    1.555556E+01    0.000000E+00
  9    1.777778E+01    0.000000E+00
 10    2.000000E+01    0.000000E+00
 11    0.000000E+00    3.271539E+00
 12    0.000000E+00    8.464782E+00
 13    0.000000E+00    1.670854E+01
 14    0.000000E+00    2.979470E+01
 15    0.000000E+00    5.056767E+01


--------------------------------------------------------------------------------
  q-point number  1        q = ( 0.000000, 0.000000, 0.000000) [r.l.u.]
--------------------------------------------------------------------------------
  chi0(G,G') at the    1 th omega   0.0000   0.0000 [eV]
       1       2       3       4       5       6       7       8       9
    1  -0.000   0.000  -0.000  -0.000   0.000   0.000  -0.000  -0.000   0.000
        0.000   0.000   0.000  -0.000  -0.000   0.000   0.000  -0.000  -0.000

    2   0.000 -15.869  -0.000   0.230   0.000   0.230   0.000   0.230   0.000
       -0.000   0.000  -7.855  -0.000  -0.149   0.000  -0.149   0.000  -0.149

  chi0(G,G') at the    2 th omega   2.2222   0.0000 [eV]
       1       2       3       4       5       6       7       8       9
    1  -0.000   0.000  -0.000  -0.001   0.001   0.001  -0.001  -0.000   0.000
       -0.000   0.000   0.000  -0.001  -0.001   0.001   0.001  -0.000  -0.000

    2   0.000 -21.259   2.103  -0.690   0.592  -0.690   0.592  -0.690   0.592
       -0.000  -2.173 -12.971  -0.591  -1.068  -0.591  -1.068  -0.591  -1.068

  chi0(G,G') at the    3 th omega   4.4444   0.0000 [eV]
       1       2       3       4       5       6       7       8       9
    1   0.000  -0.001  -0.002   0.004   0.007  -0.004  -0.007   0.001   0.002
       -0.000   0.002  -0.001  -0.007   0.004   0.007  -0.004  -0.002   0.001

    2   0.002 -24.319  52.343  -0.268   0.484  -0.268   0.484  -0.268   0.484
        0.001 -52.449 -15.272  -0.485  -0.542  -0.485  -0.542  -0.485  -0.542

  chi0(G,G') at the    4 th omega   6.6667   0.0000 [eV]
       1       2       3       4       5       6       7       8       9
    1   0.000  -0.000  -0.000   0.000   0.000  -0.000  -0.000   0.000   0.000
       -0.000   0.000  -0.000  -0.000   0.000   0.000  -0.000  -0.000   0.000

    2   0.000 -16.227   0.464   0.504  -0.086   0.504  -0.086   0.504  -0.086
        0.000  -0.726  -4.414   0.054   0.506   0.054   0.506   0.054   0.506

  chi0(G,G') at the    5 th omega   8.8889   0.0000 [eV]
       1       2       3       4       5       6       7       8       9
    1   0.000  -0.000   0.000   0.000  -0.000  -0.000   0.000   0.000  -0.000
       -0.000  -0.000  -0.000   0.000   0.000  -0.000  -0.000   0.000   0.000

    2  -0.000   6.309  -3.363   3.403  -0.742   3.403  -0.742   3.403  -0.742
        0.000  -9.868   1.922  -0.686  -5.327  -0.686  -5.327  -0.686  -5.327

  chi0(G,G') at the    6 th omega  11.1111   0.0000 [eV]
       1       2       3       4       5       6       7       8       9
    1   0.000   0.000  -0.000  -0.000   0.000   0.000  -0.000  -0.000   0.000
       -0.000   0.000   0.000  -0.000  -0.000   0.000   0.000  -0.000  -0.000

    2   0.000 -33.011   3.780  -2.509   0.790  -2.509   0.790  -2.509   0.790
       -0.000  -9.523 -15.014  -2.072  -4.036  -2.072  -4.036  -2.072  -4.036

  chi0(G,G') at the    7 th omega  13.3333   0.0000 [eV]
       1       2       3       4       5       6       7       8       9
    1   0.000  -0.000   0.000   0.000  -0.000  -0.000   0.000   0.000  -0.000
       -0.000  -0.000  -0.000   0.000   0.000  -0.000  -0.000   0.000   0.000

    2  -0.000  25.615  12.815   6.913   3.648   6.913   3.648   6.913   3.648
        0.000 -14.571  37.720  -3.667   6.492  -3.667   6.492  -3.667   6.492

  chi0(G,G') at the    8 th omega  15.5556   0.0000 [eV]
       1       2       3       4       5       6       7       8       9
    1   0.000  -0.000  -0.000   0.001   0.000  -0.001  -0.000   0.000   0.000
       -0.000   0.000  -0.000  -0.000   0.001   0.000  -0.001  -0.000   0.000

    2   0.000  23.900   8.565  -9.543   0.709  -9.543   0.709  -9.543   0.709
        0.000 -84.189   3.159  24.262  -3.229  24.262  -3.229  24.262  -3.229

  chi0(G,G') at the    9 th omega  17.7778   0.0000 [eV]
       1       2       3       4       5       6       7       8       9
    1   0.000  -0.000  -0.000   0.001   0.000  -0.001  -0.000   0.000   0.000
       -0.000   0.000  -0.000  -0.000   0.001   0.000  -0.001  -0.000   0.000

    2   0.000  -1.316  47.252   0.314 -16.134   0.314 -16.134   0.314 -16.134
        0.000 -51.549  15.256  16.529  -4.379  16.529  -4.379  16.529  -4.379

  chi0(G,G') at the   10 th omega  20.0000   0.0000 [eV]
       1       2       3       4       5       6       7       8       9
    1   0.000  -0.000   0.000   0.000  -0.000  -0.000   0.000   0.000  -0.000
       -0.000  -0.000  -0.000   0.000   0.000  -0.000  -0.000   0.000   0.000

    2  -0.000  -1.944  -1.485  -9.493  -0.045  -9.493  -0.045  -9.493  -0.045
        0.000  -6.480   2.258  -2.860  -6.011  -2.860  -6.011  -2.860  -6.011

  chi0(G,G') at the   11 th omega   0.0000   3.2715 [eV]
       1       2       3       4       5       6       7       8       9
    1  -0.000   0.000  -0.000  -0.000   0.000   0.000  -0.000  -0.000   0.000
       -0.000   0.000   0.000  -0.000  -0.000   0.000   0.000  -0.000  -0.000

    2   0.000 -13.188  -0.000   0.261   0.000   0.261   0.000   0.261   0.000
       -0.000   0.000  -5.664  -0.000  -0.127   0.000  -0.127   0.000  -0.127

  chi0(G,G') at the   12 th omega   0.0000   8.4648 [eV]
       1       2       3       4       5       6       7       8       9
    1  -0.000   0.000  -0.000  -0.000   0.000   0.000  -0.000  -0.000   0.000
        0.000   0.000   0.000  -0.000  -0.000   0.000   0.000  -0.000  -0.000

    2   0.000  -8.771  -0.000   0.189   0.000   0.189   0.000   0.189   0.000
       -0.000   0.000  -3.003  -0.000  -0.195   0.000  -0.195   0.000  -0.195

  chi0(G,G') at the   13 th omega   0.0000  16.7085 [eV]
       1       2       3       4       5       6       7       8       9
    1  -0.000   0.000  -0.000  -0.000   0.000   0.000  -0.000  -0.000   0.000
       -0.000   0.000   0.000  -0.000  -0.000   0.000   0.000  -0.000  -0.000

    2   0.000  -4.799  -0.000   0.111   0.000   0.111   0.000   0.111   0.000
       -0.000  -0.000  -1.384  -0.000  -0.167   0.000  -0.167   0.000  -0.167

  chi0(G,G') at the   14 th omega   0.0000  29.7947 [eV]
       1       2       3       4       5       6       7       8       9
    1  -0.000   0.000  -0.000  -0.000   0.000   0.000  -0.000  -0.000   0.000
        0.000   0.000   0.000  -0.000  -0.000   0.000   0.000  -0.000  -0.000

    2   0.000  -2.174  -0.000   0.050   0.000   0.050   0.000   0.050   0.000
       -0.000   0.000  -0.558  -0.000  -0.094   0.000  -0.094   0.000  -0.094

  chi0(G,G') at the   15 th omega   0.0000  50.5677 [eV]
       1       2       3       4       5       6       7       8       9
    1  -0.000   0.000  -0.000  -0.000   0.000   0.000  -0.000  -0.000   0.000
       -0.000   0.000   0.000  -0.000  -0.000   0.000   0.000  -0.000  -0.000

    2   0.000  -0.881  -0.000   0.019   0.000   0.019   0.000   0.019   0.000
       -0.000   0.000  -0.213  -0.000  -0.042   0.000  -0.042   0.000  -0.042

 For q-point:  0.000010 0.000020 0.000030
  dielectric constant =  59.9394
  dielectric constant without local fields =  65.1120

  Average fulfillment of the sum rule on Im[epsilon] for q-point    1 :     30.27  [%]
  Heads and wings of the symmetrical epsilon^-1(G,G') 

   Upper and lower wings at the    1 th omega   0.0000   0.0000 [eV]
       1       2       3       4       5       6       7       8       9
      0.017   0.002  -0.002  -0.007   0.007   0.007  -0.007  -0.002   0.002
     -0.000   0.002   0.002  -0.007  -0.007   0.007   0.007  -0.002  -0.002
       1       2       3       4       5       6       7       8       9
      0.017   0.002  -0.002  -0.007   0.007   0.007  -0.007  -0.002   0.002
     -0.000  -0.002  -0.002   0.007   0.007  -0.007  -0.007   0.002   0.002


   Upper and lower wings at the    2 th omega   2.2222   0.0000 [eV]
       1       2       3       4       5       6       7       8       9
      0.006   0.002  -0.002  -0.006   0.006   0.006  -0.006  -0.002   0.002
     -0.001   0.002   0.002  -0.006  -0.006   0.006   0.006  -0.002  -0.002
       1       2       3       4       5       6       7       8       9
      0.006   0.002  -0.002  -0.006   0.006   0.006  -0.006  -0.002   0.002
     -0.001  -0.002  -0.002   0.006   0.006  -0.006  -0.006   0.002   0.002


   Upper and lower wings at the    3 th omega   4.4444   0.0000 [eV]
       1       2       3       4       5       6       7       8       9
     -0.019   0.020   0.026  -0.059  -0.078   0.059   0.078  -0.020  -0.026
     -0.038  -0.026   0.020   0.078  -0.059  -0.078   0.059   0.026  -0.020
       1       2       3       4       5       6       7       8       9
     -0.019  -0.026  -0.020   0.078   0.059  -0.078  -0.059   0.026   0.020
     -0.038  -0.020   0.026   0.059  -0.078  -0.059   0.078   0.020  -0.026


   Upper and lower wings at the    4 th omega   6.6667   0.0000 [eV]
       1       2       3       4       5       6       7       8       9
     -0.055   0.001  -0.000  -0.003   0.001   0.003  -0.001  -0.001   0.000
     -0.004   0.000   0.001  -0.001  -0.003   0.001   0.003  -0.000  -0.001
       1       2       3       4       5       6       7       8       9
     -0.055   0.000  -0.001  -0.001   0.003   0.001  -0.003  -0.000   0.001
     -0.004  -0.001  -0.000   0.003   0.001  -0.003  -0.001   0.001   0.000


   Upper and lower wings at the    5 th omega   8.8889   0.0000 [eV]
       1       2       3       4       5       6       7       8       9
     -0.075   0.027  -0.011  -0.080   0.032   0.080  -0.032  -0.027   0.011
     -0.021   0.011   0.027  -0.032  -0.080   0.032   0.080  -0.011  -0.027
       1       2       3       4       5       6       7       8       9
     -0.075   0.011  -0.027  -0.032   0.080   0.032  -0.080  -0.011   0.027
     -0.021  -0.027  -0.011   0.080   0.032  -0.080  -0.032   0.027   0.011


   Upper and lower wings at the    6 th omega  11.1111   0.0000 [eV]
       1       2       3       4       5       6       7       8       9
     -0.216  -0.002   0.006   0.006  -0.017  -0.006   0.017   0.002  -0.006
     -0.013  -0.006  -0.002   0.017   0.006  -0.017  -0.006   0.006   0.002
       1       2       3       4       5       6       7       8       9
     -0.216  -0.006   0.002   0.017  -0.006  -0.017   0.006   0.006  -0.002
     -0.013   0.002   0.006  -0.006  -0.017   0.006   0.017  -0.002  -0.006


   Upper and lower wings at the    7 th omega  13.3333   0.0000 [eV]
       1       2       3       4       5       6       7       8       9
     -0.438  -0.015   0.075   0.046  -0.224  -0.046   0.224   0.015  -0.075
     -0.107  -0.075  -0.015   0.224   0.046  -0.224  -0.046   0.075   0.015
       1       2       3       4       5       6       7       8       9
     -0.438  -0.075   0.015   0.224  -0.046  -0.224   0.046   0.075  -0.015
     -0.107   0.015   0.075  -0.046  -0.224   0.046   0.224  -0.015  -0.075


   Upper and lower wings at the    8 th omega  15.5556   0.0000 [eV]
       1       2       3       4       5       6       7       8       9
     -0.728  -0.020   0.064   0.059  -0.191  -0.059   0.191   0.020  -0.064
     -0.140  -0.064  -0.020   0.191   0.059  -0.191  -0.059   0.064   0.020
       1       2       3       4       5       6       7       8       9
     -0.728  -0.064   0.020   0.191  -0.059  -0.191   0.059   0.064  -0.020
     -0.140   0.020   0.064  -0.059  -0.191   0.059   0.191  -0.020  -0.064


   Upper and lower wings at the    9 th omega  17.7778   0.0000 [eV]
       1       2       3       4       5       6       7       8       9
     -1.097  -0.004   0.078   0.012  -0.235  -0.012   0.235   0.004  -0.078
     -0.354  -0.078  -0.004   0.235   0.012  -0.235  -0.012   0.078   0.004
       1       2       3       4       5       6       7       8       9
     -1.097  -0.078   0.004   0.235  -0.012  -0.235   0.012   0.078  -0.004
     -0.354   0.004   0.078  -0.012  -0.235   0.012   0.235  -0.004  -0.078


   Upper and lower wings at the   10 th omega  20.0000   0.0000 [eV]
       1       2       3       4       5       6       7       8       9
     -0.571   0.110  -0.095  -0.331   0.284   0.331  -0.284  -0.110   0.095
     -0.102   0.095   0.110  -0.284  -0.331   0.284   0.331  -0.095  -0.110
       1       2       3       4       5       6       7       8       9
     -0.571   0.095  -0.110  -0.284   0.331   0.284  -0.331  -0.095   0.110
     -0.102  -0.110  -0.095   0.331   0.284  -0.331  -0.284   0.110   0.095


   Upper and lower wings at the   11 th omega   0.0000   3.2715 [eV]
       1       2       3       4       5       6       7       8       9
      0.034   0.003  -0.003  -0.010   0.010   0.010  -0.010  -0.003   0.003
     -0.000   0.003   0.003  -0.010  -0.010   0.010   0.010  -0.003  -0.003
       1       2       3       4       5       6       7       8       9
      0.034   0.003  -0.003  -0.010   0.010   0.010  -0.010  -0.003   0.003
     -0.000  -0.003  -0.003   0.010   0.010  -0.010  -0.010   0.003   0.003


   Upper and lower wings at the   12 th omega   0.0000   8.4648 [eV]
       1       2       3       4       5       6       7       8       9
      0.115   0.005  -0.005  -0.016   0.016   0.016  -0.016  -0.005   0.005
      0.000   0.005   0.005  -0.016  -0.016   0.016   0.016  -0.005  -0.005
       1       2       3       4       5       6       7       8       9
      0.115   0.005  -0.005  -0.016   0.016   0.016  -0.016  -0.005   0.005
      0.000  -0.005  -0.005   0.016   0.016  -0.016  -0.016   0.005   0.005


   Upper and lower wings at the   13 th omega   0.0000  16.7085 [eV]
       1       2       3       4       5       6       7       8       9
      0.304   0.006  -0.006  -0.018   0.018   0.018  -0.018  -0.006   0.006
     -0.000   0.006   0.006  -0.018  -0.018   0.018   0.018  -0.006  -0.006
       1       2       3       4       5       6       7       8       9
      0.304   0.006  -0.006  -0.018   0.018   0.018  -0.018  -0.006   0.006
     -0.000  -0.006  -0.006   0.018   0.018  -0.018  -0.018   0.006   0.006


   Upper and lower wings at the   14 th omega   0.0000  29.7947 [eV]
       1       2       3       4       5       6       7       8       9
      0.569   0.005  -0.005  -0.015   0.015   0.015  -0.015  -0.005   0.005
      0.000   0.005   0.005  -0.015  -0.015   0.015   0.015  -0.005  -0.005
       1       2       3       4       5       6       7       8       9
      0.569   0.005  -0.005  -0.015   0.015   0.015  -0.015  -0.005   0.005
      0.000  -0.005  -0.005   0.015   0.015  -0.015  -0.015   0.005   0.005


   Upper and lower wings at the   15 th omega   0.0000  50.5677 [eV]
       1       2       3       4       5       6       7       8       9
      0.789   0.003  -0.003  -0.008   0.008   0.008  -0.008  -0.003   0.003
     -0.000   0.003   0.003  -0.008  -0.008   0.008   0.008  -0.003  -0.003
       1       2       3       4       5       6       7       8       9
      0.789   0.003  -0.003  -0.008   0.008   0.008  -0.008  -0.003   0.003
     -0.000  -0.003  -0.003   0.008   0.008  -0.008  -0.008   0.003   0.003




--------------------------------------------------------------------------------
  q-point number  2        q = ( 0.500000, 0.000000, 0.000000) [r.l.u.]
--------------------------------------------------------------------------------
  chi0(G,G') at the    1 th omega   0.0000   0.0000 [eV]
       1       2       3       4       5       6       7       8       9
    1 -15.075  -2.222   4.532  -1.984  -3.555  -1.984  -3.555  -1.984  -3.555
        0.000  -2.222  -4.532  -1.984   3.555  -1.984   3.555  -1.984   3.555

    2  -2.222 -12.024  -0.000   0.260  -0.000   0.260   0.000   0.260  -0.000
        2.222   0.000  -6.717   0.000   0.494   0.000   0.494   0.000   0.494

  chi0(G,G') at the    2 th omega   2.2222   0.0000 [eV]
       1       2       3       4       5       6       7       8       9
    1 -10.318  -4.433   3.944  -2.554  -0.435  -2.554  -0.435  -2.554  -0.435
       -1.292  -3.769  -3.322  -2.575  -0.834  -2.575  -0.834  -2.575  -0.834

    2  -3.769  -3.824   1.161  -1.774  -0.133  -1.774  -0.133  -1.774  -0.133
        4.433  -1.877  -1.683   0.320  -0.687   0.320  -0.687   0.320  -0.687

  chi0(G,G') at the    3 th omega   4.4444   0.0000 [eV]
       1       2       3       4       5       6       7       8       9
    1 -14.778  -2.241   1.632  -1.170  -3.073  -1.170  -3.073  -1.170  -3.073
       -2.168   2.600  -2.617  -0.823   2.229  -0.823   2.229  -0.823   2.229

    2   2.600 -20.840   3.976  -1.157   1.361  -1.157   1.361  -1.157   1.361
        2.241 -10.060  -9.075  -1.609  -1.402  -1.609  -1.402  -1.609  -1.402

  chi0(G,G') at the    4 th omega   6.6667   0.0000 [eV]
       1       2       3       4       5       6       7       8       9
    1  -3.361  -2.361  -1.019   2.378  -1.937   2.378  -1.937   2.378  -1.937
       -3.857  -3.496   5.443   0.737   1.362   0.737   1.362   0.737   1.362

    2  -3.496  -4.072   1.717  -1.027  -0.095  -1.027  -0.095  -1.027  -0.095
        2.361  -1.357   0.858   0.187  -0.153   0.187  -0.153   0.187  -0.153

  chi0(G,G') at the    5 th omega   8.8889   0.0000 [eV]
       1       2       3       4       5       6       7       8       9
    1 -25.190  -0.898  13.816  -2.880 -13.616  -2.880 -13.616  -2.880 -13.616
      -18.154  -9.639   8.911  -4.374   1.950  -4.374   1.950  -4.374   1.950

    2  -9.639 -14.215   6.845  -0.815  -2.749  -0.815  -2.749  -0.815  -2.749
        0.898  -3.025  -8.735  -0.205   1.405  -0.205   1.405  -0.205   1.405

  chi0(G,G') at the    6 th omega  11.1111   0.0000 [eV]
       1       2       3       4       5       6       7       8       9
    1 -22.212   6.157  27.081 -13.682 -16.998 -13.682 -16.998 -13.682 -16.998
      -44.693 -27.740   2.509  -0.327 -12.364  -0.327 -12.364  -0.327 -12.364

    2 -27.740 -20.214  33.604  -2.237 -13.046  -2.237 -13.046  -2.237 -13.046
       -6.157 -30.760 -18.150   6.065   2.636   6.065   2.636   6.065   2.636

  chi0(G,G') at the    7 th omega  13.3333   0.0000 [eV]
       1       2       3       4       5       6       7       8       9
    1  -4.759  -5.575   7.507   8.780  -4.929   8.780  -4.929   8.780  -4.929
      -13.250  -9.499  -4.007   1.393   1.819   1.393   1.819   1.393   1.819

    2  -9.499  -6.000   6.822   5.905   2.431   5.905   2.431   5.905   2.431
        5.575  -7.955   4.416  -3.402   4.936  -3.402   4.936  -3.402   4.936

  chi0(G,G') at the    8 th omega  15.5556   0.0000 [eV]
       1       2       3       4       5       6       7       8       9
    1  14.357   4.103  -0.885  -0.705   2.869  -0.705   2.869  -0.705   2.869
       -6.306   0.013  -2.004   3.060  -5.934   3.060  -5.934   3.060  -5.934

    2   0.013   1.091  -1.403   0.934  -1.586   0.934  -1.586   0.934  -1.586
       -4.103  -2.223   3.125   1.586  -0.770   1.586  -0.770   1.586  -0.770

  chi0(G,G') at the    9 th omega  17.7778   0.0000 [eV]
       1       2       3       4       5       6       7       8       9
    1   8.234   3.241  -1.631   2.847   0.481   2.847   0.481   2.847   0.481
       -2.092  -0.924  -0.729   0.618  -3.980   0.618  -3.980   0.618  -3.980

    2  -0.924 -10.588  -2.523   0.573  -3.803   0.573  -3.803   0.573  -3.803
       -3.241  -5.961   1.461  -2.010  -3.836  -2.010  -3.836  -2.010  -3.836

  chi0(G,G') at the   10 th omega  20.0000   0.0000 [eV]
       1       2       3       4       5       6       7       8       9
    1   5.277   1.031  -0.742   0.323   1.442   0.323   1.442   0.323   1.442
       -0.248   1.065   0.672   0.716  -1.917   0.716  -1.917   0.716  -1.917

    2   1.065  14.853   0.503   0.825   3.423   0.825   3.423   0.825   3.423
       -1.031  -7.481   2.119  -2.356   2.231  -2.356   2.231  -2.356   2.231

  chi0(G,G') at the   11 th omega   0.0000   3.2715 [eV]
       1       2       3       4       5       6       7       8       9
    1 -11.353  -2.279   3.071  -1.631  -2.159  -1.631  -2.159  -1.631  -2.159
        0.000  -2.279  -3.071  -1.631   2.159  -1.631   2.159  -1.631   2.159

    2  -2.279  -8.718  -0.000  -0.011  -0.000  -0.011   0.000  -0.011  -0.000
        2.279   0.000  -4.365   0.000   0.140   0.000   0.140   0.000   0.140

  chi0(G,G') at the   12 th omega   0.0000   8.4648 [eV]
       1       2       3       4       5       6       7       8       9
    1  -6.751  -1.601   1.468  -0.910  -1.315  -0.910  -1.315  -0.910  -1.315
       -0.000  -1.601  -1.468  -0.910   1.315  -0.910   1.315  -0.910   1.315

    2  -1.601  -5.701  -0.000   0.043  -0.000   0.043   0.000   0.043  -0.000
        1.601  -0.000  -2.296  -0.000   0.044   0.000   0.044   0.000   0.044

  chi0(G,G') at the   13 th omega   0.0000  16.7085 [eV]
       1       2       3       4       5       6       7       8       9
    1  -3.163  -0.819   0.566  -0.394  -0.650  -0.394  -0.650  -0.394  -0.650
       -0.000  -0.819  -0.566  -0.394   0.650  -0.394   0.650  -0.394   0.650

    2  -0.819  -3.141  -0.000   0.059  -0.000   0.059   0.000   0.059  -0.000
        0.819  -0.000  -0.987  -0.000  -0.025   0.000  -0.025   0.000  -0.025

  chi0(G,G') at the   14 th omega   0.0000  29.7947 [eV]
       1       2       3       4       5       6       7       8       9
    1  -1.272  -0.346   0.204  -0.150  -0.268  -0.150  -0.268  -0.150  -0.268
       -0.000  -0.346  -0.204  -0.150   0.268  -0.150   0.268  -0.150   0.268

    2  -0.346  -1.442  -0.000   0.036  -0.000   0.036   0.000   0.036  -0.000
        0.346  -0.000  -0.378  -0.000  -0.037   0.000  -0.037   0.000  -0.037

  chi0(G,G') at the   15 th omega   0.0000  50.5677 [eV]
       1       2       3       4       5       6       7       8       9
    1  -0.485  -0.135   0.074  -0.056  -0.103  -0.056  -0.103  -0.056  -0.103
       -0.000  -0.135  -0.074  -0.056   0.103  -0.056   0.103  -0.056   0.103

    2  -0.135  -0.591  -0.000   0.016  -0.000   0.016  -0.000   0.016  -0.000
        0.135   0.000  -0.141  -0.000  -0.022   0.000  -0.022   0.000  -0.022

  Average fulfillment of the sum rule on Im[epsilon] for q-point    2 :     57.13  [%]


--------------------------------------------------------------------------------
  q-point number  3        q = ( 0.500000, 0.500000, 0.000000) [r.l.u.]
--------------------------------------------------------------------------------
  chi0(G,G') at the    1 th omega   0.0000   0.0000 [eV]
       1       2       3       4       5       6       7       8       9
    1 -20.001  -4.478  -0.270  -0.270  -4.478  -0.270  -4.478  -4.478  -0.270
        0.000  -4.478   0.270  -0.270   4.478  -0.270   4.478  -4.478   0.270

    2  -4.478 -14.114  -0.000   0.430  -0.000   0.430  -0.000  -0.831  -0.000
        4.478   0.000  -4.774   0.000   1.566   0.000   1.566   0.000  -0.918

  chi0(G,G') at the    2 th omega   2.2222   0.0000 [eV]
       1       2       3       4       5       6       7       8       9
    1 -19.810  -3.345  -1.397  -1.439  -3.691  -1.439  -3.691  -3.345  -1.397
       -0.600  -3.691   1.439  -1.397   3.345  -1.397   3.345  -3.691   1.439

    2  -3.691 -15.448   0.366  -0.312  -0.083  -0.312  -0.083  -0.833   0.106
        3.345  -0.867  -4.599   0.014   0.363   0.014   0.363  -0.302  -0.048

  chi0(G,G') at the    3 th omega   4.4444   0.0000 [eV]
       1       2       3       4       5       6       7       8       9
    1 -34.490   5.778  -5.870   1.216 -18.601   1.216 -18.601   5.778  -5.870
      -73.275 -18.601  -1.216  -5.870  -5.778  -5.870  -5.778 -18.601  -1.216

    2 -18.601 -11.762   0.650  -0.532  -3.093  -0.532  -3.093   3.200   0.382
       -5.778 -24.479  -0.966  -0.847   1.311  -0.847   1.311  11.414   0.578

  chi0(G,G') at the    4 th omega   6.6667   0.0000 [eV]
       1       2       3       4       5       6       7       8       9
    1  -9.468  -2.049  -1.227  -1.074  -2.362  -1.074  -2.362  -2.049  -1.227
       -1.058  -2.362   1.074  -1.227   2.049  -1.227   2.049  -2.362   1.074

    2  -2.362  -6.991   0.091  -0.174  -0.019  -0.174  -0.019  -1.557  -0.041
        2.049  -2.037  -2.764  -0.027   0.002  -0.027   0.002   1.740   1.047

  chi0(G,G') at the    5 th omega   8.8889   0.0000 [eV]
       1       2       3       4       5       6       7       8       9
    1  15.304   3.485  -3.976   2.040  -4.463   2.040  -4.463   3.485  -3.976
      -26.679  -4.463  -2.040  -3.976  -3.485  -3.976  -3.485  -4.463  -2.040

    2  -4.463  -8.215   2.195   0.173   0.519   0.173   0.519  -0.448  -1.884
       -3.485 -11.637  -3.172  -2.252   1.371  -2.252   1.371   4.522   0.501

  chi0(G,G') at the    6 th omega  11.1111   0.0000 [eV]
       1       2       3       4       5       6       7       8       9
    1 -23.009   2.291 -18.847   1.524 -15.210   1.524 -15.210   2.291 -18.847
      -28.057 -15.210  -1.524 -18.847  -2.291 -18.847  -2.291 -15.210  -1.524

    2 -15.210 -14.357 -11.407  -3.597   0.236  -3.597   0.236  -8.122  -7.197
       -2.291 -16.209   2.509  -1.579  -1.750  -1.579  -1.750  -9.648  -1.665

  chi0(G,G') at the    7 th omega  13.3333   0.0000 [eV]
       1       2       3       4       5       6       7       8       9
    1  36.209   4.477   3.543  15.912   3.663  15.912   3.663   4.477   3.543
      -18.151   3.663 -15.912   3.543  -4.477   3.543  -4.477   3.663 -15.912

    2   3.663  10.869   3.010  -3.165  -0.935  -3.165  -0.935  -3.365   1.646
       -4.477  -6.139   4.676   1.235  -2.523   1.235  -2.523   2.158  -3.307

  chi0(G,G') at the    8 th omega  15.5556   0.0000 [eV]
       1       2       3       4       5       6       7       8       9
    1  12.598  10.860   2.794  -2.267  -9.585  -2.267  -9.585  10.860   2.794
      -42.252  -9.585   2.267   2.794 -10.860   2.794 -10.860  -9.585   2.267

    2  -9.585  -2.795   1.305  -1.039  -4.024  -1.039  -4.024  -2.090   0.962
      -10.860  -8.189   4.094   1.137   0.286   1.137   0.286  -5.539  -0.126

  chi0(G,G') at the    9 th omega  17.7778   0.0000 [eV]
       1       2       3       4       5       6       7       8       9
    1   9.458   1.800   3.150   2.431   0.050   2.431   0.050   1.800   3.150
       -1.070   0.050  -2.431   3.150  -1.800   3.150  -1.800   0.050  -2.431

    2   0.050 -11.692  -2.011   2.200  -1.966   2.200  -1.966   0.104   5.322
       -1.800 -15.364  -8.310  -0.184  -2.366  -0.184  -2.366   3.449  -0.685

  chi0(G,G') at the   10 th omega  20.0000   0.0000 [eV]
       1       2       3       4       5       6       7       8       9
    1   6.265   1.118   1.671   0.959   0.313   0.959   0.313   1.118   1.671
       -0.562   0.313  -0.959   1.671  -1.118   1.671  -1.118   0.313  -0.959

    2   0.313 -13.822  -0.248   5.132   0.171   5.132   0.171   1.653  -0.516
       -1.118  -5.350   0.922   1.429  -2.406   1.429  -2.406   0.341   2.734

  chi0(G,G') at the   11 th omega   0.0000   3.2715 [eV]
       1       2       3       4       5       6       7       8       9
    1 -13.786  -2.509  -1.088  -1.088  -2.509  -1.088  -2.509  -2.509  -1.088
        0.000  -2.509   1.088  -1.088   2.509  -1.088   2.509  -2.509   1.088

    2  -2.509  -9.473  -0.000  -0.181  -0.000  -0.181   0.000   0.320  -0.000
        2.509   0.000  -2.440   0.000   0.187   0.000   0.187   0.000   0.239

  chi0(G,G') at the   12 th omega   0.0000   8.4648 [eV]
       1       2       3       4       5       6       7       8       9
    1  -7.953  -1.551  -0.671  -0.671  -1.551  -0.671  -1.551  -1.551  -0.671
       -0.000  -1.551   0.671  -0.671   1.551  -0.671   1.551  -1.551   0.671

    2  -1.551  -6.115  -0.000  -0.084  -0.000  -0.084   0.000   0.228   0.000
        1.551  -0.000  -1.430   0.000   0.043   0.000   0.043   0.000   0.138

  chi0(G,G') at the   13 th omega   0.0000  16.7085 [eV]
       1       2       3       4       5       6       7       8       9
    1  -3.735  -0.774  -0.301  -0.301  -0.774  -0.301  -0.774  -0.774  -0.301
        0.000  -0.774   0.301  -0.301   0.774  -0.301   0.774  -0.774   0.301

    2  -0.774  -3.382  -0.000  -0.014  -0.000  -0.014  -0.000   0.116   0.000
        0.774   0.000  -0.702   0.000  -0.029   0.000  -0.029   0.000   0.011

  chi0(G,G') at the   14 th omega   0.0000  29.7947 [eV]
       1       2       3       4       5       6       7       8       9
    1  -1.518  -0.326  -0.113  -0.113  -0.326  -0.113  -0.326  -0.326  -0.113
       -0.000  -0.326   0.113  -0.113   0.326  -0.113   0.326  -0.326   0.113

    2  -0.326  -1.566  -0.000   0.004  -0.000   0.004  -0.000   0.056   0.000
        0.326   0.000  -0.293   0.000  -0.037   0.000  -0.037   0.000  -0.016

  chi0(G,G') at the   15 th omega   0.0000  50.5677 [eV]
       1       2       3       4       5       6       7       8       9
    1  -0.582  -0.127  -0.041  -0.041  -0.127  -0.041  -0.127  -0.127  -0.041
       -0.000  -0.127   0.041  -0.041   0.127  -0.041   0.127  -0.127   0.041

    2  -0.127  -0.645  -0.000   0.004  -0.000   0.004  -0.000   0.024   0.000
        0.127   0.000  -0.114   0.000  -0.021   0.000  -0.021   0.000  -0.010

  Average fulfillment of the sum rule on Im[epsilon] for q-point    3 :     52.82  [%]

================================================================================
== DATASET  4 ==================================================================
-   nproc =    1

 mkfilename : getwfk/=0, take file _WFK from output of DATASET   2.

 mkfilename : getscr/=0, take file _SCR from output of DATASET   3.

 Exchange-correlation functional for the present dataset will be:
  GGA: Perdew-Burke-Ernzerhof functional - ixc=11
 Citation for XC functional:
  J.P.Perdew, K.Burke, M.Ernzerhof, PRL 77, 3865 (1996)

 SIGMA: Calculation of the GW corrections 

 Based on a program developped by R.W. Godby, V. Olevano, G. Onida, and L. Reining.
 Incorporated in ABINIT by V. Olevano, G.-M. Rignanese, and M. Torrent.
.Using double precision arithmetic ; gwpc =  8

 Real(R)+Recip(G) space primitive vectors, cartesian coordinates (Bohr,Bohr^-1):
 R(1)=  0.0000000  5.1085000  5.1085000  G(1)= -0.0978761  0.0978761  0.0978761
 R(2)=  5.1085000  0.0000000  5.1085000  G(2)=  0.0978761 -0.0978761  0.0978761
 R(3)=  5.1085000  5.1085000  0.0000000  G(3)=  0.0978761  0.0978761 -0.0978761
 Unit cell volume ucvol=  2.6663072E+02 bohr^3
 Angles (23,13,12)=  6.00000000E+01  6.00000000E+01  6.00000000E+01 degrees
--------------------------------------------------------------------------------

 ==== K-mesh for the wavefunctions ====
 Number of points in the irreducible wedge :     3
 Reduced coordinates and weights : 

     1)     0.00000000E+00  0.00000000E+00  0.00000000E+00       0.12500
     2)     5.00000000E-01  0.00000000E+00  0.00000000E+00       0.50000
     3)     5.00000000E-01  5.00000000E-01  0.00000000E+00       0.37500

 Together with 48 symmetry operations (time-reversal symmetry not used) 
 yields     8 points in the full Brillouin Zone.


 ==== Q-mesh for screening function ====
 Number of points in the irreducible wedge :     3
 Reduced coordinates and weights : 

     1)     0.00000000E+00  0.00000000E+00  0.00000000E+00       0.12500
     2)     5.00000000E-01  0.00000000E+00  0.00000000E+00       0.50000
     3)     5.00000000E-01  5.00000000E-01  0.00000000E+00       0.37500

 Together with 48 symmetry operations (time-reversal symmetry not used) 
 yields     8 points in the full Brillouin Zone.


 setmesh: FFT mesh size selected  =  20x 20x 20
          total number of points  =     8000

 Number of electrons calculated from density =    7.9997; Expected =    8.0000
 average of density, n =  0.030003
 r_s =    1.9964
 omega_plasma =   16.7085 [eV]


 === KS Band Gaps ===
  >>>> For spin  1
   Minimum direct gap =   2.4451 [eV], located at k-point      :   0.0000  0.0000  0.0000
   Fundamental gap    =   0.5896 [eV], Top of valence bands at :   0.0000  0.0000  0.0000
                                       Bottom of conduction at :   0.5000  0.5000  0.0000
 SIGMA fundamental parameters:
 PLASMON POLE MODEL  1
 number of plane-waves for SigmaX                  283
 number of plane-waves for SigmaC and W             27
 number of plane-waves for wavefunctions           283
 number of bands                                    28
 number of independent spin polarizations            1
 number of spinorial components                      2
 number of k-points in IBZ                           3
 number of q-points in IBZ                           3
 number of symmetry operations                      48
 number of k-points in BZ                            8
 number of q-points in BZ                            8
 number of frequencies for dSigma/dE                 9
 frequency step for dSigma/dE [eV]                0.25
 number of omega for Sigma on real axis              0
 max omega for Sigma on real axis  [eV]           0.00
 zcut for avoiding poles [eV]                     0.10

 EPSILON^-1 parameters (SCR file):
 dimension of the eps^-1 matrix on file             27
 dimension of the eps^-1 matrix used                27
 number of plane-waves for wavefunctions           283
 number of bands                                    14
 number of q-points in IBZ                           3
 number of frequencies                              15
 number of real frequencies                         10
 number of imag frequencies                          5

 matrix elements of self-energy operator (all in [eV])

 Perturbative Calculation

 k =    0.000   0.000   0.000
 Band     E0 <VxcLDA>   SigX SigC(E0)      Z dSigC/dE  Sig(E)    E-E0       E
    1  -7.341 -10.462 -16.452   8.174   0.332  -2.016  -9.738   0.724  -6.617
    2  -7.341 -10.462 -16.452   8.174   0.332  -2.016  -9.738   0.724  -6.617
    3   4.773 -11.449 -13.574   2.957   0.808  -0.237 -10.776   0.673   5.446
    4   4.773 -11.449 -13.574   2.957   0.808  -0.237 -10.776   0.673   5.446
    5   4.773 -11.449 -13.574   2.957   0.808  -0.237 -10.776   0.673   5.446
    6   4.773 -11.449 -13.574   2.957   0.808  -0.237 -10.776   0.673   5.446
    7   4.773 -11.449 -13.574   2.957   0.808  -0.237 -10.776   0.673   5.446
    8   4.773 -11.449 -13.574   2.957   0.808  -0.237 -10.776   0.673   5.446
    9   7.218  -9.993  -4.962  -3.451   0.811  -0.233  -8.711   1.282   8.500
   10   7.218  -9.993  -4.962  -3.451   0.811  -0.233  -8.711   1.282   8.500
   11   7.218  -9.993  -4.962  -3.451   0.811  -0.233  -8.711   1.282   8.500
   12   7.218  -9.993  -4.962  -3.451   0.811  -0.233  -8.711   1.282   8.500
   13   7.218  -9.993  -4.962  -3.451   0.811  -0.233  -8.711   1.282   8.500
   14   7.218  -9.993  -4.962  -3.451   0.811  -0.233  -8.711   1.282   8.500

 E^0_gap          2.445
 E^GW_gap         3.054
 DeltaE^GW_gap    0.609


================================================================================
== DATASET  5 ==================================================================
-   nproc =    1

 mkfilename : getwfk/=0, take file _WFK from output of DATASET   2.

 mkfilename : getscr/=0, take file _SCR from output of DATASET   3.

 Exchange-correlation functional for the present dataset will be:
  GGA: Perdew-Burke-Ernzerhof functional - ixc=11
 Citation for XC functional:
  J.P.Perdew, K.Burke, M.Ernzerhof, PRL 77, 3865 (1996)

 SIGMA: Calculation of the GW corrections 

 Based on a program developped by R.W. Godby, V. Olevano, G. Onida, and L. Reining.
 Incorporated in ABINIT by V. Olevano, G.-M. Rignanese, and M. Torrent.
.Using double precision arithmetic ; gwpc =  8

 Real(R)+Recip(G) space primitive vectors, cartesian coordinates (Bohr,Bohr^-1):
 R(1)=  0.0000000  5.1085000  5.1085000  G(1)= -0.0978761  0.0978761  0.0978761
 R(2)=  5.1085000  0.0000000  5.1085000  G(2)=  0.0978761 -0.0978761  0.0978761
 R(3)=  5.1085000  5.1085000  0.0000000  G(3)=  0.0978761  0.0978761 -0.0978761
 Unit cell volume ucvol=  2.6663072E+02 bohr^3
 Angles (23,13,12)=  6.00000000E+01  6.00000000E+01  6.00000000E+01 degrees
--------------------------------------------------------------------------------

 ==== K-mesh for the wavefunctions ====
 Number of points in the irreducible wedge :     3
 Reduced coordinates and weights : 

     1)     0.00000000E+00  0.00000000E+00  0.00000000E+00       0.12500
     2)     5.00000000E-01  0.00000000E+00  0.00000000E+00       0.50000
     3)     5.00000000E-01  5.00000000E-01  0.00000000E+00       0.37500

 Together with 48 symmetry operations (time-reversal symmetry not used) 
 yields     8 points in the full Brillouin Zone.


 ==== Q-mesh for screening function ====
 Number of points in the irreducible wedge :     3
 Reduced coordinates and weights : 

     1)     0.00000000E+00  0.00000000E+00  0.00000000E+00       0.12500
     2)     5.00000000E-01  0.00000000E+00  0.00000000E+00       0.50000
     3)     5.00000000E-01  5.00000000E-01  0.00000000E+00       0.37500

 Together with 48 symmetry operations (time-reversal symmetry not used) 
 yields     8 points in the full Brillouin Zone.


 setmesh: FFT mesh size selected  =  20x 20x 20
          total number of points  =     8000

 Number of electrons calculated from density =    7.9997; Expected =    8.0000
 average of density, n =  0.030003
 r_s =    1.9964
 omega_plasma =   16.7085 [eV]


 === KS Band Gaps ===
  >>>> For spin  1
   Minimum direct gap =   2.4451 [eV], located at k-point      :   0.0000  0.0000  0.0000
   Fundamental gap    =   0.5896 [eV], Top of valence bands at :   0.0000  0.0000  0.0000
                                       Bottom of conduction at :   0.5000  0.5000  0.0000
 SIGMA fundamental parameters:
 COHSEX
 number of plane-waves for SigmaX                  283
 number of plane-waves for SigmaC and W             27
 number of plane-waves for wavefunctions           283
 number of bands                                    28
 number of independent spin polarizations            1
 number of spinorial components                      2
 number of k-points in IBZ                           3
 number of q-points in IBZ                           3
 number of symmetry operations                      48
 number of k-points in BZ                            8
 number of q-points in BZ                            8
 number of frequencies for dSigma/dE                 1
 frequency step for dSigma/dE [eV]                0.00
 number of omega for Sigma on real axis              0
 max omega for Sigma on real axis  [eV]           0.00
 zcut for avoiding poles [eV]                     0.10

 EPSILON^-1 parameters (SCR file):
 dimension of the eps^-1 matrix on file             27
 dimension of the eps^-1 matrix used                27
 number of plane-waves for wavefunctions           283
 number of bands                                    14
 number of q-points in IBZ                           3
 number of frequencies                              15
 number of real frequencies                         10
 number of imag frequencies                          5

 matrix elements of self-energy operator (all in [eV])

 Perturbative Calculation

 k =    0.000   0.000   0.000
 Band     E0 <VxcLDA>   SigX SigC(E0)      Z dSigC/dE  Sig(E)    E-E0       E
    1  -7.341 -10.462 -16.452   4.151   1.000   0.000 -12.301  -1.839  -9.181
    2  -7.341 -10.462 -16.452   4.151   1.000   0.000 -12.301  -1.839  -9.181
    3   4.773 -11.449 -13.574   1.110   1.000   0.000 -12.464  -1.014   3.759
    4   4.773 -11.449 -13.574   1.110   1.000   0.000 -12.464  -1.014   3.759
    5   4.773 -11.449 -13.574   1.110   1.000   0.000 -12.464  -1.014   3.758
    6   4.773 -11.449 -13.574   1.110   1.000   0.000 -12.464  -1.014   3.758
    7   4.773 -11.449 -13.574   1.110   1.000   0.000 -12.463  -1.014   3.759
    8   4.773 -11.449 -13.574   1.110   1.000   0.000 -12.463  -1.014   3.759
    9   7.218  -9.993  -4.962  -5.280   1.000   0.000 -10.242  -0.249   6.969
   10   7.218  -9.993  -4.962  -5.280   1.000   0.000 -10.242  -0.249   6.969
   11   7.218  -9.993  -4.962  -5.280   1.000   0.000 -10.242  -0.249   6.969
   12   7.218  -9.993  -4.962  -5.280   1.000   0.000 -10.242  -0.249   6.969
   13   7.218  -9.993  -4.962  -5.281   1.000   0.000 -10.242  -0.249   6.969
   14   7.218  -9.993  -4.962  -5.281   1.000   0.000 -10.242  -0.249   6.969

 E^0_gap          2.445
 E^GW_gap         3.210
 DeltaE^GW_gap    0.765


================================================================================
== DATASET  6 ==================================================================
-   nproc =    1

 mkfilename : getwfk/=0, take file _WFK from output of DATASET   2.

 mkfilename : getscr/=0, take file _SCR from output of DATASET   3.

 Exchange-correlation functional for the present dataset will be:
  GGA: Perdew-Burke-Ernzerhof functional - ixc=11
 Citation for XC functional:
  J.P.Perdew, K.Burke, M.Ernzerhof, PRL 77, 3865 (1996)

 SIGMA: Calculation of the GW corrections 

 Based on a program developped by R.W. Godby, V. Olevano, G. Onida, and L. Reining.
 Incorporated in ABINIT by V. Olevano, G.-M. Rignanese, and M. Torrent.
.Using double precision arithmetic ; gwpc =  8

 Real(R)+Recip(G) space primitive vectors, cartesian coordinates (Bohr,Bohr^-1):
 R(1)=  0.0000000  5.1085000  5.1085000  G(1)= -0.0978761  0.0978761  0.0978761
 R(2)=  5.1085000  0.0000000  5.1085000  G(2)=  0.0978761 -0.0978761  0.0978761
 R(3)=  5.1085000  5.1085000  0.0000000  G(3)=  0.0978761  0.0978761 -0.0978761
 Unit cell volume ucvol=  2.6663072E+02 bohr^3
 Angles (23,13,12)=  6.00000000E+01  6.00000000E+01  6.00000000E+01 degrees
--------------------------------------------------------------------------------

 ==== K-mesh for the wavefunctions ====
 Number of points in the irreducible wedge :     3
 Reduced coordinates and weights : 

     1)     0.00000000E+00  0.00000000E+00  0.00000000E+00       0.12500
     2)     5.00000000E-01  0.00000000E+00  0.00000000E+00       0.50000
     3)     5.00000000E-01  5.00000000E-01  0.00000000E+00       0.37500

 Together with 48 symmetry operations (time-reversal symmetry not used) 
 yields     8 points in the full Brillouin Zone.


 ==== Q-mesh for screening function ====
 Number of points in the irreducible wedge :     3
 Reduced coordinates and weights : 

     1)     0.00000000E+00  0.00000000E+00  0.00000000E+00       0.12500
     2)     5.00000000E-01  0.00000000E+00  0.00000000E+00       0.50000
     3)     5.00000000E-01  5.00000000E-01  0.00000000E+00       0.37500

 Together with 48 symmetry operations (time-reversal symmetry not used) 
 yields     8 points in the full Brillouin Zone.


 setmesh: FFT mesh size selected  =  20x 20x 20
          total number of points  =     8000

 Number of electrons calculated from density =    7.9997; Expected =    8.0000
 average of density, n =  0.030003
 r_s =    1.9964
 omega_plasma =   16.7085 [eV]


 === KS Band Gaps ===
  >>>> For spin  1
   Minimum direct gap =   2.4451 [eV], located at k-point      :   0.0000  0.0000  0.0000
   Fundamental gap    =   0.5896 [eV], Top of valence bands at :   0.0000  0.0000  0.0000
                                       Bottom of conduction at :   0.5000  0.5000  0.0000
 SIGMA fundamental parameters:
 CONTOUR DEFORMATION
 number of plane-waves for SigmaX                  283
 number of plane-waves for SigmaC and W             27
 number of plane-waves for wavefunctions           283
 number of bands                                    28
 number of independent spin polarizations            1
 number of spinorial components                      2
 number of k-points in IBZ                           3
 number of q-points in IBZ                           3
 number of symmetry operations                      48
 number of k-points in BZ                            8
[...]
    6   0.000   0.000   0.000  -0.000   0.000   0.000  -0.000  -0.000  -0.000
    7   4.773 -11.449 -13.574   2.951   0.798  -0.254 -10.790   0.659   5.432
    7   0.000   0.000   0.000   0.000   0.000   0.000   0.000   0.000   0.000
    8   4.773 -11.449 -13.574   2.951   0.798  -0.254 -10.790   0.659   5.432
    8   0.000   0.000   0.000  -0.000   0.000   0.000  -0.000  -0.000  -0.000
    9   7.218  -9.993  -4.962  -3.414   0.807  -0.239  -8.688   1.305   8.523
    9   0.000   0.000   0.000  -0.007   0.000   0.000  -0.006  -0.006  -0.006
   10   7.218  -9.993  -4.962  -3.414   0.807  -0.239  -8.688   1.305   8.523
   10   0.000   0.000   0.000  -0.007   0.000   0.000  -0.006  -0.006  -0.006
   11   7.218  -9.993  -4.962  -3.414   0.807  -0.239  -8.688   1.305   8.523
   11   0.000   0.000   0.000  -0.007   0.000   0.000  -0.006  -0.006  -0.006
   12   7.218  -9.993  -4.962  -3.414   0.807  -0.239  -8.688   1.305   8.523
   12   0.000   0.000   0.000  -0.007   0.000   0.000  -0.006  -0.006  -0.006
   13   7.218  -9.993  -4.962  -3.414   0.807  -0.239  -8.688   1.305   8.523
   13   0.000   0.000   0.000  -0.007   0.000   0.000  -0.006  -0.006  -0.006
   14   7.218  -9.993  -4.962  -3.414   0.807  -0.239  -8.688   1.305   8.523
   14   0.000   0.000   0.000  -0.007   0.000   0.000  -0.006  -0.006  -0.006

 E^0_gap          2.445
 E^GW_gap         3.091
 DeltaE^GW_gap    0.645


== END DATASET(S) ==============================================================
================================================================================
  
 -outvars: echo values of variables after computation  --------
            acell      1.0217000000E+01  1.0217000000E+01  1.0217000000E+01 Bohr
              amu      2.80855000E+01
             awtr           0
             bdgw           1      14
             ecut1     8.00000000E+00 Hartree
             ecut2     8.00000000E+00 Hartree
             ecut3     7.56385066E+00 Hartree
             ecut4     7.56385066E+00 Hartree
             ecut5     7.56385066E+00 Hartree
             ecut6     7.56385066E+00 Hartree
          ecuteps1     2.00000000E+00 Hartree
          ecuteps2     2.00000000E+00 Hartree
          ecuteps3     1.51277013E+00 Hartree
          ecuteps4     1.51277013E+00 Hartree
          ecuteps5     1.51277013E+00 Hartree
          ecuteps6     1.51277013E+00 Hartree
         ecutsigx1     8.00000000E+00 Hartree
         ecutsigx2     8.00000000E+00 Hartree
         ecutsigx3     7.56385066E+00 Hartree
         ecutsigx4     7.56385066E+00 Hartree
         ecutsigx5     7.56385066E+00 Hartree
         ecutsigx6     7.56385066E+00 Hartree
          ecutwfn1     0.00000000E+00 Hartree
          ecutwfn2     0.00000000E+00 Hartree
          ecutwfn3     7.56385066E+00 Hartree
          ecutwfn4     7.56385066E+00 Hartree
          ecutwfn5     7.56385066E+00 Hartree
          ecutwfn6     7.56385066E+00 Hartree
           etotal1    -8.3628058224E+00
           etotal2    -8.3628058224E+00
           etotal3     0.0000000000E+00
           etotal4     0.0000000000E+00
           etotal5     0.0000000000E+00
           etotal6     0.0000000000E+00
            fcart1    -3.1625469979E-28  1.0541823326E-28  3.1625469979E-28
                       3.1625469979E-28 -1.0541823326E-28 -3.1625469979E-28
            fcart2     1.0541823326E-28 -1.0541823326E-28  1.0541823326E-28
                      -1.0541823326E-28  1.0541823326E-28 -1.0541823326E-28
            fcart3     0.0000000000E+00  0.0000000000E+00  0.0000000000E+00
                       0.0000000000E+00  0.0000000000E+00  0.0000000000E+00
            fcart4     0.0000000000E+00  0.0000000000E+00  0.0000000000E+00
                       0.0000000000E+00  0.0000000000E+00  0.0000000000E+00
            fcart5     0.0000000000E+00  0.0000000000E+00  0.0000000000E+00
                       0.0000000000E+00  0.0000000000E+00  0.0000000000E+00
            fcart6     0.0000000000E+00  0.0000000000E+00  0.0000000000E+00
                       0.0000000000E+00  0.0000000000E+00  0.0000000000E+00
-          fftalg         312
        freqremax      7.34986508E-01 Hartree
           getscr1          0
           getscr2          0
           getscr3          0
           getscr4          3
           getscr5          3
           getscr6          3
           getwfk1          0
           getwfk2          1
           getwfk3          1
           getwfk4          2
           getwfk5          2
           getwfk6          2
        gwcalctyp1          0
        gwcalctyp2          0
        gwcalctyp3          2
        gwcalctyp4          0
        gwcalctyp5          7
        gwcalctyp6          2
-          gwpara           1
          inclvkb           0
           istwfk1       2    3    7
           istwfk2       1    1    1
           istwfk3       2    3    7
           istwfk4       1    1    1
           istwfk5       1    1    1
           istwfk6       1    1    1
              ixc          11
           jdtset        1    2    3    4    5    6
              kpt      0.00000000E+00  0.00000000E+00  0.00000000E+00
                       5.00000000E-01  0.00000000E+00  0.00000000E+00
                       5.00000000E-01  5.00000000E-01  0.00000000E+00
           kptopt           4
         kptrlatt        2    0    0      0    2    0      0    0    2
          kptrlen      1.44490200E+01
P           mkmem           3
            natom           2
            nband1         14
            nband2         28
            nband3         14
            nband4         28
            nband5         28
            nband6         28
           ndtset           6
          nfreqim           5
          nfreqre          10
            ngfft1         20      20      20
            ngfft2         20      20      20
            ngfft3         18      18      18
            ngfft4         18      18      18
            ngfft5         18      18      18
            ngfft6         18      18      18
             nkpt           3
           nkptgw           1
           npweps1          0
           npweps2          0
           npweps3         27
           npweps4         27
           npweps5         27
           npweps6         27
          npwsigx1          0
          npwsigx2          0
          npwsigx3        283
          npwsigx4        283
          npwsigx5        283
          npwsigx6        283
           npwwfn1          0
           npwwfn2          0
           npwwfn3        283
           npwwfn4        283
           npwwfn5        283
           npwwfn6        283
           nspden1          1
           nspden2          4
           nspden3          1
           nspden4          4
           nspden5          4
           nspden6          4
          nspinor1          1
          nspinor2          2
          nspinor3          1
          nspinor4          2
          nspinor5          2
          nspinor6          2
             nsym          48
           ntypat           1
              occ1     2.000000  2.000000  2.000000  2.000000  0.000000  0.000000
                       0.000000  0.000000  0.000000  0.000000  0.000000  0.000000
                       0.000000  0.000000
              occ2     1.000000  1.000000  1.000000  1.000000  1.000000  1.000000
                       1.000000  1.000000  0.000000  0.000000  0.000000  0.000000
                       0.000000  0.000000  0.000000  0.000000  0.000000  0.000000
                       0.000000  0.000000  0.000000  0.000000  0.000000  0.000000
                       0.000000  0.000000  0.000000  0.000000
              occ3     2.000000  2.000000  2.000000  2.000000  0.000000  0.000000
                       0.000000  0.000000  0.000000  0.000000  0.000000  0.000000
                       0.000000  0.000000
              occ4     1.000000  1.000000  1.000000  1.000000  1.000000  1.000000
                       1.000000  1.000000  0.000000  0.000000  0.000000  0.000000
                       0.000000  0.000000  0.000000  0.000000  0.000000  0.000000
                       0.000000  0.000000  0.000000  0.000000  0.000000  0.000000
                       0.000000  0.000000  0.000000  0.000000
              occ5     1.000000  1.000000  1.000000  1.000000  1.000000  1.000000
                       1.000000  1.000000  0.000000  0.000000  0.000000  0.000000
                       0.000000  0.000000  0.000000  0.000000  0.000000  0.000000
                       0.000000  0.000000  0.000000  0.000000  0.000000  0.000000
                       0.000000  0.000000  0.000000  0.000000
              occ6     1.000000  1.000000  1.000000  1.000000  1.000000  1.000000
                       1.000000  1.000000  0.000000  0.000000  0.000000  0.000000
                       0.000000  0.000000  0.000000  0.000000  0.000000  0.000000
                       0.000000  0.000000  0.000000  0.000000  0.000000  0.000000
                       0.000000  0.000000  0.000000  0.000000
        optdriver1          0
        optdriver2          0
        optdriver3          3
        optdriver4          4
        optdriver5          4
        optdriver6          4
            rprim      0.0000000000E+00  5.0000000000E-01  5.0000000000E-01
                       5.0000000000E-01  0.0000000000E+00  5.0000000000E-01
                       5.0000000000E-01  5.0000000000E-01  0.0000000000E+00
           so_psp           0
          spgroup         227
           strten1    -3.3500752629E-04 -3.3500752629E-04 -3.3500752629E-04
                       0.0000000000E+00  0.0000000000E+00  0.0000000000E+00
           strten2    -3.3500752419E-04 -3.3500752419E-04 -3.3500752419E-04
                       0.0000000000E+00  0.0000000000E+00  0.0000000000E+00
           strten3     0.0000000000E+00  0.0000000000E+00  0.0000000000E+00
                       0.0000000000E+00  0.0000000000E+00  0.0000000000E+00
           strten4     0.0000000000E+00  0.0000000000E+00  0.0000000000E+00
                       0.0000000000E+00  0.0000000000E+00  0.0000000000E+00
           strten5     0.0000000000E+00  0.0000000000E+00  0.0000000000E+00
                       0.0000000000E+00  0.0000000000E+00  0.0000000000E+00
           strten6     0.0000000000E+00  0.0000000000E+00  0.0000000000E+00
                       0.0000000000E+00  0.0000000000E+00  0.0000000000E+00
           symchi        0
           symrel      1  0  0   0  1  0   0  0  1      -1  0  0   0 -1  0   0  0 -1
                       0 -1  1   0 -1  0   1 -1  0       0  1 -1   0  1  0  -1  1  0
                      -1  0  0  -1  0  1  -1  1  0       1  0  0   1  0 -1   1 -1  0
                       0  1 -1   1  0 -1   0  0 -1       0 -1  1  -1  0  1   0  0  1
                      -1  0  0  -1  1  0  -1  0  1       1  0  0   1 -1  0   1  0 -1
                       0 -1  1   1 -1  0   0 -1  0       0  1 -1  -1  1  0   0  1  0
                       1  0  0   0  0  1   0  1  0      -1  0  0   0  0 -1   0 -1  0
                       0  1 -1   0  0 -1   1  0 -1       0 -1  1   0  0  1  -1  0  1
                      -1  0  1  -1  1  0  -1  0  0       1  0 -1   1 -1  0   1  0  0
                       0 -1  0   1 -1  0   0 -1  1       0  1  0  -1  1  0   0  1 -1
                       1  0 -1   0  0 -1   0  1 -1      -1  0  1   0  0  1   0 -1  1
                       0  1  0   0  0  1   1  0  0       0 -1  0   0  0 -1  -1  0  0
                       1  0 -1   0  1 -1   0  0 -1      -1  0  1   0 -1  1   0  0  1
                       0 -1  0   0 -1  1   1 -1  0       0  1  0   0  1 -1  -1  1  0
                      -1  0  1  -1  0  0  -1  1  0       1  0 -1   1  0  0   1 -1  0
                       0  1  0   1  0  0   0  0  1       0 -1  0  -1  0  0   0  0 -1
                       0  0 -1   0  1 -1   1  0 -1       0  0  1   0 -1  1  -1  0  1
                       1 -1  0   0 -1  1   0 -1  0      -1  1  0   0  1 -1   0  1  0
                       0  0  1   1  0  0   0  1  0       0  0 -1  -1  0  0   0 -1  0
                      -1  1  0  -1  0  0  -1  0  1       1 -1  0   1  0  0   1  0 -1
                       0  0  1   0  1  0   1  0  0       0  0 -1   0 -1  0  -1  0  0
                       1 -1  0   0 -1  0   0 -1  1      -1  1  0   0  1  0   0  1 -1
                       0  0 -1   1  0 -1   0  1 -1       0  0  1  -1  0  1   0 -1  1
                      -1  1  0  -1  0  1  -1  0  0       1 -1  0   1  0 -1   1  0  0
            tnons      0.0000000  0.0000000  0.0000000     0.2500000  0.2500000  0.2500000
                       0.0000000  0.0000000  0.0000000     0.2500000  0.2500000  0.2500000
                       0.0000000  0.0000000  0.0000000     0.2500000  0.2500000  0.2500000
                       0.0000000  0.0000000  0.0000000     0.2500000  0.2500000  0.2500000
                       0.0000000  0.0000000  0.0000000     0.2500000  0.2500000  0.2500000
                       0.0000000  0.0000000  0.0000000     0.2500000  0.2500000  0.2500000
                       0.0000000  0.0000000  0.0000000     0.2500000  0.2500000  0.2500000
                       0.0000000  0.0000000  0.0000000     0.2500000  0.2500000  0.2500000
                       0.0000000  0.0000000  0.0000000     0.2500000  0.2500000  0.2500000
                       0.0000000  0.0000000  0.0000000     0.2500000  0.2500000  0.2500000
                       0.0000000  0.0000000  0.0000000     0.2500000  0.2500000  0.2500000
                       0.0000000  0.0000000  0.0000000     0.2500000  0.2500000  0.2500000
                       0.0000000  0.0000000  0.0000000     0.2500000  0.2500000  0.2500000
                       0.0000000  0.0000000  0.0000000     0.2500000  0.2500000  0.2500000
                       0.0000000  0.0000000  0.0000000     0.2500000  0.2500000  0.2500000
                       0.0000000  0.0000000  0.0000000     0.2500000  0.2500000  0.2500000
                       0.0000000  0.0000000  0.0000000     0.2500000  0.2500000  0.2500000
                       0.0000000  0.0000000  0.0000000     0.2500000  0.2500000  0.2500000
                       0.0000000  0.0000000  0.0000000     0.2500000  0.2500000  0.2500000
                       0.0000000  0.0000000  0.0000000     0.2500000  0.2500000  0.2500000
                       0.0000000  0.0000000  0.0000000     0.2500000  0.2500000  0.2500000
                       0.0000000  0.0000000  0.0000000     0.2500000  0.2500000  0.2500000
                       0.0000000  0.0000000  0.0000000     0.2500000  0.2500000  0.2500000
                       0.0000000  0.0000000  0.0000000     0.2500000  0.2500000  0.2500000
           tolwfr      1.00000000E-16
            typat      1  1
              wtk        0.12500    0.50000    0.37500
           xangst      0.0000000000E+00  0.0000000000E+00  0.0000000000E+00
                       1.3516508850E+00  1.3516508850E+00  1.3516508850E+00
            xcart      0.0000000000E+00  0.0000000000E+00  0.0000000000E+00
                       2.5542500000E+00  2.5542500000E+00  2.5542500000E+00
             xred      0.0000000000E+00  0.0000000000E+00  0.0000000000E+00
                       2.5000000000E-01  2.5000000000E-01  2.5000000000E-01
            znucl       14.00000

================================================================================


- Timing analysis has been suppressed with timopt=0



================================================================================

 Suggested references for the acknowledgment of ABINIT usage.

 The users of ABINIT have little formal obligations with respect to the ABINIT group
 (those specified in the GNU General Public License, http://www.gnu.org/copyleft/gpl.txt).
 However, it is common practice in the scientific literature,
 to acknowledge the efforts of people that have made the research possible.
 In this spirit, please find below suggested citations of work written by ABINIT developers,
 corresponding to implementations inside of ABINIT that you have used in the present run.
 Note also that it will be of great value to readers of publications presenting these results,
 to read papers enabling them to understand the theoretical formalism and details
 of the ABINIT implementation.
 For information on why they are suggested, see also https://docs.abinit.org/theory/acknowledgments.
-
- [1] Recent developments in the ABINIT software package.
- Computer Phys. Comm. 205, 106 (2016).
- X.Gonze, F.Jollet, F.Abreu Araujo, D.Adams, B.Amadon, T.Applencourt,
- C.Audouze, J.-M.Beuken, J.Bieder, A.Bokhanchuk, E.Bousquet, F.Bruneval
- D.Caliste, M.Cote, F.Dahm, F.Da Pieve, M.Delaveau, M.Di Gennaro,
- B.Dorado, C.Espejo, G.Geneste, L.Genovese, A.Gerossier, M.Giantomassi,
- Y.Gillet, D.R.Hamann, L.He, G.Jomard, J.Laflamme Janssen, S.Le Roux,
- A.Levitt, A.Lherbier, F.Liu, I.Lukacevic, A.Martin, C.Martins,
- M.J.T.Oliveira, S.Ponce, Y.Pouillon, T.Rangel, G.-M.Rignanese,
- A.H.Romero, B.Rousseau, O.Rubel, A.A.Shukri, M.Stankovski, M.Torrent,
- M.J.Van Setten, B.Van Troeye, M.J.Verstraete, D.Waroquier, J.Wiktor,
- B.Xue, A.Zhou, J.W.Zwanziger.
- Comment : the fourth generic paper describing the ABINIT project.
- Note that a version of this paper, that is not formatted for Computer Phys. Comm. 
- is available at https://www.abinit.org/about/ABINIT16.pdf .
- The licence allows the authors to put it on the Web.
-
- [2] Optimized norm-conserving Vanderbilt pseudopotentials.
- D.R. Hamann, Phys. Rev. B 88, 085117 (2013).
- Comment: Some pseudopotential generated using the ONCVPSP code were used.
-
- [3] ABINIT : First-principles approach of materials and nanosystem properties.
- Computer Phys. Comm. 180, 2582-2615 (2009).
- X. Gonze, B. Amadon, P.-M. Anglade, J.-M. Beuken, F. Bottin, P. Boulanger, F. Bruneval,
- D. Caliste, R. Caracas, M. Cote, T. Deutsch, L. Genovese, Ph. Ghosez, M. Giantomassi
- S. Goedecker, D.R. Hamann, P. Hermet, F. Jollet, G. Jomard, S. Leroux, M. Mancini, S. Mazevet,
- M.J.T. Oliveira, G. Onida, Y. Pouillon, T. Rangel, G.-M. Rignanese, D. Sangalli, R. Shaltaf,
- M. Torrent, M.J. Verstraete, G. Zerah, J.W. Zwanziger
- Comment : the third generic paper describing the ABINIT project.
- Note that a version of this paper, that is not formatted for Computer Phys. Comm. 
- is available at https://www.abinit.org/about/ABINIT_CPC_v10.pdf .
- The licence allows the authors to put it on the Web.
-
- [4] A brief introduction to the ABINIT software package.
- Z. Kristallogr. 220, 558-562 (2005).
- X. Gonze, G.-M. Rignanese, M. Verstraete, J.-M. Beuken, Y. Pouillon, R. Caracas, F. Jollet,
- M. Torrent, G. Zerah, M. Mikami, Ph. Ghosez, M. Veithen, J.-Y. Raty, V. Olevano, F. Bruneval,
- L. Reining, R. Godby, G. Onida, D.R. Hamann, and D.C. Allan.
- Comment : the second generic paper describing the ABINIT project. Note that this paper
- should be cited especially if you are using the GW part of ABINIT, as several authors
- of this part are not in the list of authors of the first or third paper.
- The .pdf of the latter paper is available at https://www.abinit.org/about/zfk_0505-06_558-562.pdf.
- Note that it should not redistributed (Copyright by Oldenburg Wissenshaftverlag,
- the licence allows the authors to put it on the Web).
-
- And optionally:
-
- [5] First-principles computation of material properties : the ABINIT software project. 
- X. Gonze, J.-M. Beuken, R. Caracas, F. Detraux, M. Fuchs, G.-M. Rignanese, L. Sindic,
- M. Verstraete, G. Zerah, F. Jollet, M. Torrent, A. Roy, M. Mikami, Ph. Ghosez, J.-Y. Raty, D.C. Allan.
- Computational Materials Science 25, 478-492 (2002). http://dx.doi.org/10.1016/S0927-0256(02)00325-7
- Comment : the original paper describing the ABINIT project.
-
- Proc.   0 individual time (sec): cpu=          7.7  wall=          7.9

================================================================================

 Calculation completed.
.Delivered  44 WARNINGs and   6 COMMENTs to log file.
+Overall time at end (sec) : cpu=          7.7  wall=          7.9
