
.Version 10.2.4.2 of ABINIT, released Nov 2024.
.(MPI version, prepared for a x86_64_linux_gnu13.2 computer) 

.Copyright (C) 1998-2025 ABINIT group . 
 ABINIT comes with ABSOLUTELY NO WARRANTY.
 It is free software, and you are welcome to redistribute it
 under certain conditions (GNU General Public License,
 see ~abinit/COPYING or http://www.gnu.org/copyleft/gpl.txt).

 ABINIT is a project of the Universite Catholique de Louvain,
 Corning Inc. and other collaborators, see ~abinit/doc/developers/contributors.txt .
 Please read https://docs.abinit.org/theory/acknowledgments for suggested
 acknowledgments of the ABINIT effort.
 For more information, see https://www.abinit.org .

.Starting date : Tue 19 Nov 2024.
- ( at 18h45 )
  
- input  file    -> /home/buildbot/ABINIT3/eos_gnu_13.2_mpich/trunk_release-10.2/tests/TestBot_MPI1/v8_t97/t97.abi
- output file    -> t97.abo
- root for input  files -> t97i
- root for output files -> t97o

 DATASET   11 : magnetic group, Shubnikov type III
 Fedorov space group P2/c (# 13); Bravais mP (primitive monocl.)
 Magnetic point group 2'/m (#  5)
================================================================================
 Values of the parameters that define the memory need for DATASET 11.
     intxc =       0    ionmov =       0      iscf =       7    lmnmax =       1
     lnmax =       1     mgfft =      24  mpssoang =       1    mqgrid =    3001
     natom =       2  nloc_mem =       1    nspden =       4   nspinor =       2
    nsppol =       1      nsym =       4    n1xccc =       0    ntypat =       1
    occopt =       7   xclevel =       1
-    mband =           4        mffmem =           1         mkmem =           1
       mpw =         183          nfft =        5400          nkpt =           1
================================================================================
P This job should need less than                       5.462 Mbytes of memory.
  Rough estimation (10% accuracy) of disk space for files :
_ WF disk file :      0.013 Mbytes ; DEN or POT disk file :      0.043 Mbytes.
================================================================================

 DATASET   12 : magnetic group, Shubnikov type III
 Fedorov space group P2/c (# 13); Bravais mP (primitive monocl.)
 Magnetic point group 2/m' (#  4)
================================================================================
 Values of the parameters that define the memory need for DATASET 12.
     intxc =       0    ionmov =       0      iscf =       7    lmnmax =       1
     lnmax =       1     mgfft =      24  mpssoang =       1    mqgrid =    3001
     natom =       2  nloc_mem =       1    nspden =       4   nspinor =       2
    nsppol =       1      nsym =       4    n1xccc =       0    ntypat =       1
    occopt =       7   xclevel =       1
-    mband =           4        mffmem =           1         mkmem =           1
       mpw =         183          nfft =        5400          nkpt =           1
================================================================================
P This job should need less than                       5.462 Mbytes of memory.
  Rough estimation (10% accuracy) of disk space for files :
_ WF disk file :      0.013 Mbytes ; DEN or POT disk file :      0.043 Mbytes.
================================================================================

 DATASET   21 : magnetic group, Shubnikov type III
 Fedorov space group R3 2 (#155); Bravais hR (rhombohedral)
 Magnetic point group 32' (# 30)
================================================================================
 Values of the parameters that define the memory need for DATASET 21.
     intxc =       0    ionmov =       0      iscf =       7    lmnmax =       1
     lnmax =       1     mgfft =      18  mpssoang =       1    mqgrid =    3001
     natom =       3  nloc_mem =       1    nspden =       4   nspinor =       2
    nsppol =       1      nsym =       6    n1xccc =       0    ntypat =       1
    occopt =       7   xclevel =       1
-    mband =           6        mffmem =           1         mkmem =           1
       mpw =         259          nfft =        5832          nkpt =           1
================================================================================
P This job should need less than                       5.836 Mbytes of memory.
  Rough estimation (10% accuracy) of disk space for files :
_ WF disk file :      0.026 Mbytes ; DEN or POT disk file :      0.046 Mbytes.
================================================================================

 DATASET   22 : space group R-3 m (#166); Bravais hR (rhombohedral)
================================================================================
 Values of the parameters that define the memory need for DATASET 22.
     intxc =       0    ionmov =       0      iscf =       7    lmnmax =       1
     lnmax =       1     mgfft =      18  mpssoang =       1    mqgrid =    3001
     natom =       3  nloc_mem =       1    nspden =       4   nspinor =       2
    nsppol =       1      nsym =      12    n1xccc =       0    ntypat =       1
    occopt =       7   xclevel =       1
-    mband =           6        mffmem =           1         mkmem =           1
       mpw =         259          nfft =        5832          nkpt =           1
================================================================================
P This job should need less than                       5.836 Mbytes of memory.
  Rough estimation (10% accuracy) of disk space for files :
_ WF disk file :      0.026 Mbytes ; DEN or POT disk file :      0.046 Mbytes.
================================================================================

 DATASET   31 : magnetic group, Shubnikov type III
 Fedorov space group I4/m m m (#139); Bravais tI (body-center tetrag.)
 Magnetic point group 4'/mmm' (# 27)
================================================================================
 Values of the parameters that define the memory need for DATASET 31.
     intxc =       0    ionmov =       0      iscf =       7    lmnmax =       1
     lnmax =       1     mgfft =      18  mpssoang =       1    mqgrid =    3001
     natom =       4  nloc_mem =       1    nspden =       4   nspinor =       2
    nsppol =       1      nsym =      16    n1xccc =       0    ntypat =       1
    occopt =       7   xclevel =       1
-    mband =           8        mffmem =           1         mkmem =           1
       mpw =         125          nfft =        5832          nkpt =           1
================================================================================
P This job should need less than                       5.821 Mbytes of memory.
  Rough estimation (10% accuracy) of disk space for files :
_ WF disk file :      0.017 Mbytes ; DEN or POT disk file :      0.046 Mbytes.
================================================================================

 DATASET   32 : magnetic group, Shubnikov type III
 Fedorov space group I-4 2 m (#121); Bravais tI (body-center tetrag.)
 Magnetic point group -4'm2' (# 24)
================================================================================
 Values of the parameters that define the memory need for DATASET 32.
     intxc =       0    ionmov =       0      iscf =       7    lmnmax =       1
     lnmax =       1     mgfft =      18  mpssoang =       1    mqgrid =    3001
     natom =       4  nloc_mem =       1    nspden =       4   nspinor =       2
    nsppol =       1      nsym =       8    n1xccc =       0    ntypat =       1
    occopt =       7   xclevel =       1
-    mband =           8        mffmem =           1         mkmem =           1
       mpw =         125          nfft =        5832          nkpt =           1
================================================================================
P This job should need less than                       5.820 Mbytes of memory.
  Rough estimation (10% accuracy) of disk space for files :
_ WF disk file :      0.017 Mbytes ; DEN or POT disk file :      0.046 Mbytes.
================================================================================

--------------------------------------------------------------------------------
------------- Echo of variables that govern the present computation ------------
--------------------------------------------------------------------------------
-
- outvars: echo of selected default values
-   iomode0 =  0 , fftalg0 =512 , wfoptalg0 =  0
-
- outvars: echo of global parameters not present in the input file
-  max_nthreads =    0
-
 -outvars: echo values of preprocessed input variables --------
            acell11    1.0000000000E+01  6.0000000000E+00  6.0000000000E+00 Bohr
            acell12    1.0000000000E+01  6.0000000000E+00  6.0000000000E+00 Bohr
            acell21    6.0000000000E+00  6.0000000000E+00  6.0000000000E+00 Bohr
            acell22    6.0000000000E+00  6.0000000000E+00  6.0000000000E+00 Bohr
            acell31    1.0000000000E+00  1.0000000000E+00  1.0000000000E+00 Bohr
            acell32    1.0000000000E+00  1.0000000000E+00  1.0000000000E+00 Bohr
              amu      1.00794000E+00
      chksymtnons           3
  constraint_kind        1
             ecut      5.00000000E+00 Hartree
-          fftalg         512
           istwfk        1
           jdtset       11   12   21   22   31   32
           kptopt           0
    magcon_lambda      2.0000000000E+00
P           mkmem           1
            natom11         2
            natom12         2
            natom21         3
            natom22         3
            natom31         4
            natom32         4
            nband11         4
            nband12         4
            nband21         6
            nband22         6
            nband31         8
            nband32         8
           ndtset           6
            ngfft11        24      15      15
            ngfft12        24      15      15
            ngfft21        18      18      18
            ngfft22        18      18      18
            ngfft31        18      18      18
            ngfft32        18      18      18
             nkpt           1
           nspden           4
          nspinor           2
            nstep          60
             nsym11         4
             nsym12         4
             nsym21         6
             nsym22        12
             nsym31        16
             nsym32         8
           ntypat           1
              occ11    1.000000  1.000000  0.000000  0.000000
              occ12    1.000000  1.000000  0.000000  0.000000
              occ21    1.000000  1.000000  1.000000  0.000000  0.000000  0.000000
              occ22    1.000000  1.000000  1.000000  0.000000  0.000000  0.000000
              occ31    1.000000  1.000000  1.000000  1.000000  0.000000  0.000000
                       0.000000  0.000000
              occ32    1.000000  1.000000  1.000000  1.000000  0.000000  0.000000
                       0.000000  0.000000
           occopt           7
           prtvol           2
        ptgroupma11         5
        ptgroupma12         4
        ptgroupma21        30
        ptgroupma22         0
        ptgroupma31        27
        ptgroupma32        24
            ratsm      5.00000000E-02 Bohr
           ratsph      1.00000000E+00 Bohr
            rprim11    1.0000000000E+00  0.0000000000E+00  0.0000000000E+00
                       0.0000000000E+00  1.0000000000E+00  0.0000000000E+00
                       0.0000000000E+00  0.0000000000E+00  1.0000000000E+00
            rprim12    1.0000000000E+00  0.0000000000E+00  0.0000000000E+00
                       0.0000000000E+00  1.0000000000E+00  0.0000000000E+00
                       0.0000000000E+00  0.0000000000E+00  1.0000000000E+00
            rprim21    0.0000000000E+00  1.0000000000E+00  1.0000000000E+00
                       1.0000000000E+00  0.0000000000E+00  1.0000000000E+00
                       1.0000000000E+00  1.0000000000E+00  0.0000000000E+00
            rprim22    0.0000000000E+00  1.0000000000E+00  1.0000000000E+00
                       1.0000000000E+00  0.0000000000E+00  1.0000000000E+00
                       1.0000000000E+00  1.0000000000E+00  0.0000000000E+00
            rprim31    0.0000000000E+00  4.0000000000E+00  8.0000000000E+00
                       4.0000000000E+00  0.0000000000E+00  8.0000000000E+00
                       4.0000000000E+00  4.0000000000E+00  0.0000000000E+00
            rprim32    0.0000000000E+00  4.0000000000E+00  8.0000000000E+00
                       4.0000000000E+00  0.0000000000E+00  8.0000000000E+00
                       4.0000000000E+00  4.0000000000E+00  0.0000000000E+00
           so_psp           0
          spgroup11        13
          spgroup12        13
          spgroup21       155
          spgroup22       166
          spgroup31       139
          spgroup32       121
           spinat11    1.0000000000E-02  1.0000000000E-02  8.0000000000E-02
                       1.0000000000E-02 -1.0000000000E-02  8.0000000000E-02
           spinat12    1.0000000000E-02  1.0000000000E-02  8.0000000000E-02
                      -1.0000000000E-02  1.0000000000E-02 -8.0000000000E-02
           spinat21    8.0000000000E-02  0.0000000000E+00  0.0000000000E+00
                       0.0000000000E+00  8.0000000000E-02  0.0000000000E+00
                       0.0000000000E+00  0.0000000000E+00  8.0000000000E-02
           spinat22    0.0000000000E+00  0.0000000000E+00  0.0000000000E+00
                       4.0000000000E-02  4.0000000000E-02  4.0000000000E-02
                      -4.0000000000E-02 -4.0000000000E-02 -4.0000000000E-02
           spinat31    4.0000000000E-02  0.0000000000E+00  0.0000000000E+00
                       0.0000000000E+00 -4.0000000000E-02  0.0000000000E+00
                      -4.0000000000E-02  0.0000000000E+00  0.0000000000E+00
                       0.0000000000E+00  4.0000000000E-02  0.0000000000E+00
           spinat32    4.0000000000E-02  0.0000000000E+00  2.0000000000E-02
                       0.0000000000E+00 -4.0000000000E-02  2.0000000000E-02
                      -4.0000000000E-02  0.0000000000E+00  2.0000000000E-02
                       0.0000000000E+00  4.0000000000E-02  2.0000000000E-02
           symafm11      1   -1   -1    1
           symafm12      1   -1    1   -1
           symafm21      1   -1    1   -1    1   -1
           symafm22      1    1    1    1    1    1    1    1    1    1
                         1    1
           symafm31      1    1   -1   -1    1    1   -1   -1    1    1
                        -1   -1    1    1   -1   -1
           symafm32      1   -1    1   -1    1   -1    1   -1
           symrel11    1  0  0   0  1  0   0  0  1      -1  0  0   0 -1  0   0  0 -1
                      -1  0  0   0  1  0   0  0 -1       1  0  0   0 -1  0   0  0  1
           symrel12    1  0  0   0  1  0   0  0  1      -1  0  0   0 -1  0   0  0 -1
                      -1  0  0   0  1  0   0  0 -1       1  0  0   0 -1  0   0  0  1
           symrel21    1  0  0   0  1  0   0  0  1      -1  0  0   0  0 -1   0 -1  0
                       0  1  0   0  0  1   1  0  0       0 -1  0  -1  0  0   0  0 -1
                       0  0  1   1  0  0   0  1  0       0  0 -1   0 -1  0  -1  0  0
           symrel22    1  0  0   0  1  0   0  0  1      -1  0  0   0 -1  0   0  0 -1
                       1  0  0   0  0  1   0  1  0      -1  0  0   0  0 -1   0 -1  0
                       0  1  0   0  0  1   1  0  0       0 -1  0   0  0 -1  -1  0  0
                       0  1  0   1  0  0   0  0  1       0 -1  0  -1  0  0   0  0 -1
                       0  0  1   1  0  0   0  1  0       0  0 -1  -1  0  0   0 -1  0
                       0  0  1   0  1  0   1  0  0       0  0 -1   0 -1  0  -1  0  0
           symrel31    1  0  0   0  1  0   0  0  1      -1  0  0   0 -1  0   0  0 -1
                      -1  0  1   0 -1  1   0  0  1       1  0 -1   0  1 -1   0  0 -1
                       0  1 -1   1  0 -1   0  0 -1       0 -1  1  -1  0  1   0  0  1
                       0 -1  0  -1  0  0   0  0 -1       0  1  0   1  0  0   0  0  1
                       0  1 -1   0  1  0  -1  1  0       0 -1  1   0 -1  0   1 -1  0
                      -1  0  1  -1  0  0  -1  1  0       1  0 -1   1  0  0   1 -1  0
                       1  0  0   1  0 -1   1 -1  0      -1  0  0  -1  0  1  -1  1  0
                       0 -1  0   0 -1  1   1 -1  0       0  1  0   0  1 -1  -1  1  0
           symrel32    1  0  0   0  1  0   0  0  1      -1  0  1   0 -1  1   0  0  1
                       0  1 -1   1  0 -1   0  0 -1       0 -1  0  -1  0  0   0  0 -1
                       0  1 -1   0  1  0  -1  1  0      -1  0  1  -1  0  0  -1  1  0
                       1  0  0   1  0 -1   1 -1  0       0 -1  0   0 -1  1   1 -1  0
            tnons11    0.0000000  0.0000000  0.0000000     0.0000000  0.0000000  0.0000000
                       0.5000000  0.0000000  0.0000000     0.5000000  0.0000000  0.0000000
            tnons12    0.0000000  0.0000000  0.0000000     0.0000000  0.0000000  0.0000000
                       0.5000000  0.0000000  0.0000000     0.5000000  0.0000000  0.0000000
            tnons21    0.0000000  0.0000000  0.0000000     0.0000000  0.0000000  0.0000000
                       0.3333333  0.3333333  0.3333333     0.3333333  0.3333333  0.3333333
                      -0.3333333 -0.3333333 -0.3333333    -0.3333333 -0.3333333 -0.3333333
            tnons22    0.0000000  0.0000000  0.0000000     0.0000000  0.0000000  0.0000000
                       0.0000000  0.0000000  0.0000000     0.0000000  0.0000000  0.0000000
                       0.0000000  0.0000000  0.0000000     0.0000000  0.0000000  0.0000000
                       0.0000000  0.0000000  0.0000000     0.0000000  0.0000000  0.0000000
                       0.0000000  0.0000000  0.0000000     0.0000000  0.0000000  0.0000000
                       0.0000000  0.0000000  0.0000000     0.0000000  0.0000000  0.0000000
            tnons31    0.0000000  0.0000000  0.0000000     0.0000000  0.0000000  0.0000000
                       0.0000000  0.0000000  0.0000000     0.0000000  0.0000000  0.0000000
                       0.0000000  0.0000000  0.0000000     0.0000000  0.0000000  0.0000000
                       0.0000000  0.0000000  0.0000000     0.0000000  0.0000000  0.0000000
                       0.0000000  0.0000000  0.0000000     0.0000000  0.0000000  0.0000000
                       0.0000000  0.0000000  0.0000000     0.0000000  0.0000000  0.0000000
                       0.0000000  0.0000000  0.0000000     0.0000000  0.0000000  0.0000000
                       0.0000000  0.0000000  0.0000000     0.0000000  0.0000000  0.0000000
            tnons32    0.0000000  0.0000000  0.0000000     0.0000000  0.0000000  0.0000000
                       0.0000000  0.0000000  0.0000000     0.0000000  0.0000000  0.0000000
                       0.0000000  0.0000000  0.0000000     0.0000000  0.0000000  0.0000000
                       0.0000000  0.0000000  0.0000000     0.0000000  0.0000000  0.0000000
           tolvrs11    1.00000000E-10
           tolvrs12    1.00000000E-08
           tolvrs21    1.00000000E-08
           tolvrs22    1.00000000E-08
           tolvrs31    1.00000000E-08
           tolvrs32    1.00000000E-08
            typat11    1  1
            typat12    1  1
            typat21    1  1  1
            typat22    1  1  1
            typat31    1  1  1  1
            typat32    1  1  1  1
           xangst11    0.0000000000E+00  0.0000000000E+00  0.0000000000E+00
                       2.6458860429E+00  0.0000000000E+00  0.0000000000E+00
           xangst12    0.0000000000E+00  0.0000000000E+00  0.0000000000E+00
                       2.6458860429E+00  0.0000000000E+00  0.0000000000E+00
           xangst21    0.0000000000E+00  0.0000000000E+00  0.0000000000E+00
                       2.1167088344E+00  2.1167088344E+00  2.1167088344E+00
                       4.2334176687E+00  4.2334176687E+00  4.2334176687E+00
           xangst22    0.0000000000E+00  0.0000000000E+00  0.0000000000E+00
                       2.1167088344E+00  2.1167088344E+00  2.1167088344E+00
                       4.2334176687E+00  4.2334176687E+00  4.2334176687E+00
           xangst31    5.2917720859E-01  0.0000000000E+00  0.0000000000E+00
                       0.0000000000E+00  5.2917720859E-01  0.0000000000E+00
                      -5.2917720859E-01  0.0000000000E+00  0.0000000000E+00
                       0.0000000000E+00 -5.2917720859E-01  0.0000000000E+00
           xangst32    5.2917720859E-01  0.0000000000E+00  0.0000000000E+00
                       0.0000000000E+00  5.2917720859E-01  0.0000000000E+00
                      -5.2917720859E-01  0.0000000000E+00  0.0000000000E+00
                       0.0000000000E+00 -5.2917720859E-01  0.0000000000E+00
            xcart11    0.0000000000E+00  0.0000000000E+00  0.0000000000E+00
                       5.0000000000E+00  0.0000000000E+00  0.0000000000E+00
            xcart12    0.0000000000E+00  0.0000000000E+00  0.0000000000E+00
                       5.0000000000E+00  0.0000000000E+00  0.0000000000E+00
            xcart21    0.0000000000E+00  0.0000000000E+00  0.0000000000E+00
                       4.0000000000E+00  4.0000000000E+00  4.0000000000E+00
                       8.0000000000E+00  8.0000000000E+00  8.0000000000E+00
            xcart22    0.0000000000E+00  0.0000000000E+00  0.0000000000E+00
                       4.0000000000E+00  4.0000000000E+00  4.0000000000E+00
                       8.0000000000E+00  8.0000000000E+00  8.0000000000E+00
            xcart31    1.0000000000E+00  0.0000000000E+00  0.0000000000E+00
                       0.0000000000E+00  1.0000000000E+00  0.0000000000E+00
                      -1.0000000000E+00  0.0000000000E+00  0.0000000000E+00
                       0.0000000000E+00 -1.0000000000E+00  0.0000000000E+00
            xcart32    1.0000000000E+00  0.0000000000E+00  0.0000000000E+00
                       0.0000000000E+00  1.0000000000E+00  0.0000000000E+00
                      -1.0000000000E+00  0.0000000000E+00  0.0000000000E+00
                       0.0000000000E+00 -1.0000000000E+00  0.0000000000E+00
             xred11    0.0000000000E+00  0.0000000000E+00  0.0000000000E+00
                       5.0000000000E-01  0.0000000000E+00  0.0000000000E+00
             xred12    0.0000000000E+00  0.0000000000E+00  0.0000000000E+00
                       5.0000000000E-01  0.0000000000E+00  0.0000000000E+00
             xred21    0.0000000000E+00  0.0000000000E+00  0.0000000000E+00
                       3.3333333333E-01  3.3333333333E-01  3.3333333333E-01
                       6.6666666667E-01  6.6666666667E-01  6.6666666667E-01
             xred22    0.0000000000E+00  0.0000000000E+00  0.0000000000E+00
                       3.3333333333E-01  3.3333333333E-01  3.3333333333E-01
                       6.6666666667E-01  6.6666666667E-01  6.6666666667E-01
             xred31   -1.2500000000E-01  1.2500000000E-01  1.2500000000E-01
                       1.2500000000E-01 -1.2500000000E-01  1.2500000000E-01
                       1.2500000000E-01 -1.2500000000E-01 -1.2500000000E-01
                      -1.2500000000E-01  1.2500000000E-01 -1.2500000000E-01
             xred32   -1.2500000000E-01  1.2500000000E-01  1.2500000000E-01
                       1.2500000000E-01 -1.2500000000E-01  1.2500000000E-01
                       1.2500000000E-01 -1.2500000000E-01 -1.2500000000E-01
                      -1.2500000000E-01  1.2500000000E-01 -1.2500000000E-01
            znucl        1.00000

================================================================================

 chkinp: Checking input parameters for consistency, jdtset=  11.

 chkinp: Checking input parameters for consistency, jdtset=  12.

 chkinp: Checking input parameters for consistency, jdtset=  21.

 chkinp: Checking input parameters for consistency, jdtset=  22.

 chkinp: Checking input parameters for consistency, jdtset=  31.

 chkinp: Checking input parameters for consistency, jdtset=  32.

================================================================================
== DATASET 11 ==================================================================
-   mpi_nproc: 1, omp_nthreads: -1 (-1 if OMP is not activated)


--- !DatasetInfo
iteration_state: {dtset: 11, }
dimensions: {natom: 2, nkpt: 1, mband: 4, nsppol: 1, nspinor: 2, nspden: 4, mpw: 183, }
cutoff_energies: {ecut:   5.0, pawecutdg:  -1.0, }
electrons: {nelect:   2.00000000E+00, charge:   0.00000000E+00, occopt:   7.00000000E+00, tsmear:   1.00000000E-02, }
meta: {optdriver: 0, ionmov: 0, optcell: 0, iscf: 7, paral_kgb: 0, }
...

 Exchange-correlation functional for the present dataset will be:
  LDA: new Teter (4/93) with spin-polarized option - ixc=1
 Citation for XC functional:
  S. Goedecker, M. Teter, J. Huetter, PRB 54, 1703 (1996)

 Real(R)+Recip(G) space primitive vectors, cartesian coordinates (Bohr,Bohr^-1):
 R(1)= 10.0000000  0.0000000  0.0000000  G(1)=  0.1000000  0.0000000  0.0000000
 R(2)=  0.0000000  6.0000000  0.0000000  G(2)=  0.0000000  0.1666667  0.0000000
 R(3)=  0.0000000  0.0000000  6.0000000  G(3)=  0.0000000  0.0000000  0.1666667
 Unit cell volume ucvol=  3.6000000E+02 bohr^3
 Angles (23,13,12)=  9.00000000E+01  9.00000000E+01  9.00000000E+01 degrees

 getcut: wavevector=  0.0000  0.0000  0.0000  ngfft=  24  15  15
         ecut(hartree)=      5.000   => boxcut(ratio)=   2.31807

 getcut : COMMENT -
  Note that boxcut > 2.2 ; recall that boxcut=Gcut(box)/Gcut(sphere) = 2
  is sufficient for exact treatment of convolution.
  Such a large boxcut is a waste : you could raise ecut
  e.g. ecut=    6.716814 Hartrees makes boxcut=2


--- Pseudopotential description ------------------------------------------------
- pspini: atom type   1  psp file is /home/buildbot/ABINIT3/eos_gnu_13.2_mpich/trunk_release-10.2/tests/Pspdir/PseudosTM_pwteter/1h.pspnc
- pspatm: opening atomic psp file    /home/buildbot/ABINIT3/eos_gnu_13.2_mpich/trunk_release-10.2/tests/Pspdir/PseudosTM_pwteter/1h.pspnc
-  Troullier-Martins psp for element  H         Thu Oct 27 17:28:54 EDT 1994
-  1.00000   1.00000    940714                znucl, zion, pspdat
    1    1    0    0      2001   0.00000      pspcod,pspxc,lmax,lloc,mmax,r2well
    0   7.740  11.990    0   1.5855604        l,e99.0,e99.9,nproj,rcpsp
   0.00000000   0.00000000   0.00000000   0.00000000     rms, ekb1, ekb2, epsatm
    0.00000000000000    0.00000000000000    0.00000000000000   rchrg,fchrg,qchrg
 Note: local psp for atom with Z=  1.0
  pspatm : epsatm=    0.04198703
         --- l  ekb(1:nproj) -->
 pspatm: atomic psp has been read  and splines computed

   1.67948119E-01                                ecore*ucvol(ha*bohr**3)
--------------------------------------------------------------------------------

P newkpt: treating      4 bands with npw=     183 for ikpt=   1 by node    0
_setup2: Arith. and geom. avg. npw (full set) are     183.000     183.000

================================================================================

--- !BeginCycle
iteration_state: {dtset: 11, }
solver: {iscf: 7, nstep: 60, nline: 4, wfoptalg: 0, }
tolerances: {tolvrs: 1.00E-10, }
...

     iter   Etot(hartree)      deltaE(h)  residm     vres2
 ETOT  1  -1.0257916594740    -1.026E+00 6.609E-04 1.103E+01
 ETOT  2  -1.0115844758649     1.421E-02 4.541E-10 3.423E+00
 ETOT  3  -1.0258335465855    -1.425E-02 2.557E-05 2.920E+01
 ETOT  4  -1.0111522105084     1.468E-02 4.642E-06 1.799E+01
 ETOT  5  -1.0092185728582     1.934E-03 1.335E-06 1.499E+00
 ETOT  6  -1.0158828751289    -6.664E-03 1.793E-06 3.517E+00
 ETOT  7  -1.0162217176357    -3.388E-04 8.916E-08 3.322E+00
 ETOT  8  -1.0130600225653     3.162E-03 1.222E-06 2.471E+00
 ETOT  9  -1.0121305683901     9.295E-04 1.364E-07 2.085E+00
 ETOT 10  -1.0114453520297     6.852E-04 1.828E-07 1.585E+00
 ETOT 11  -1.0113791837569     6.617E-05 1.911E-06 4.315E-01
 ETOT 12  -1.0109705103502     4.087E-04 3.241E-07 1.555E-01
 ETOT 13  -1.0112545770877    -2.841E-04 6.044E-07 1.490E+00
 ETOT 14  -1.0113281299038    -7.355E-05 1.124E-06 4.013E-01
 ETOT 15  -1.0111525548578     1.756E-04 8.992E-08 5.335E-01
 ETOT 16  -1.0111479026417     4.652E-06 2.812E-09 6.492E-01
 ETOT 17  -1.0112468731112    -9.897E-05 5.949E-09 8.258E-01
 ETOT 18  -1.0118799983134    -6.331E-04 8.017E-08 1.555E+00
 ETOT 19  -1.0113418354745     5.382E-04 7.169E-08 1.061E+00
 ETOT 20  -1.0108560122026     4.858E-04 2.449E-07 5.424E-02
 ETOT 21  -1.0117429162307    -8.869E-04 3.661E-07 1.891E+00
 ETOT 22  -1.0107603983839     9.825E-04 2.827E-07 8.504E-01
 ETOT 23  -1.0109936281059    -2.332E-04 6.018E-07 5.322E-02
 ETOT 24  -1.0109452795193     4.835E-05 2.309E-07 6.829E-02
 ETOT 25  -1.0109123575343     3.292E-05 1.312E-08 2.390E-02
 ETOT 26  -1.0110183215224    -1.060E-04 9.880E-08 1.315E-01
 ETOT 27  -1.0111682297776    -1.499E-04 3.582E-07 5.802E-01
 ETOT 28  -1.0110017051753     1.665E-04 6.640E-08 6.274E-01
 ETOT 29  -1.0110065210253    -4.816E-06 1.011E-08 8.542E-01
 ETOT 30  -1.0110570430901    -5.052E-05 3.021E-08 1.355E+00
 ETOT 31  -1.0110350402169     2.200E-05 2.835E-08 1.808E+00
 ETOT 32  -1.0107136290608     3.214E-04 7.285E-07 2.576E-01
 ETOT 33  -1.0116955115587    -9.819E-04 1.542E-06 8.804E-01
 ETOT 34  -1.0110112905411     6.842E-04 2.173E-07 4.520E-01
 ETOT 35  -1.0108770830494     1.342E-04 4.320E-08 9.178E-02
 ETOT 36  -1.0109066160529    -2.953E-05 1.711E-08 2.926E-03
 ETOT 37  -1.0109167993504    -1.018E-05 5.672E-09 7.073E-03
 ETOT 38  -1.0109173956526    -5.963E-07 5.309E-11 6.080E-03
 ETOT 39  -1.0109215399171    -4.144E-06 1.080E-09 1.432E-02
 ETOT 40  -1.0109162510680     5.289E-06 1.475E-09 2.978E-03
 ETOT 41  -1.0109171677088    -9.166E-07 8.731E-10 2.513E-06
 ETOT 42  -1.0109187231837    -1.555E-06 8.723E-10 2.429E-03
 ETOT 43  -1.0109184965687     2.266E-07 1.278E-10 4.349E-03
 ETOT 44  -1.0109222810301    -3.784E-06 1.089E-09 1.645E-02
 ETOT 45  -1.0109167273677     5.554E-06 1.004E-09 7.247E-03
 ETOT 46  -1.0109165645745     1.628E-07 5.666E-10 1.763E-03
 ETOT 47  -1.0109174242242    -8.596E-07 7.864E-10 6.534E-05
 ETOT 48  -1.0109179477732    -5.235E-07 2.447E-10 1.227E-03
 ETOT 49  -1.0109177612336     1.865E-07 3.052E-11 1.828E-03
 ETOT 50  -1.0109172186932     5.425E-07 1.091E-10 6.052E-04
 ETOT 51  -1.0109172623067    -4.361E-08 7.795E-11 6.856E-05
 ETOT 52  -1.0109173348507    -7.254E-08 3.026E-11 2.279E-06
 ETOT 53  -1.0109173815250    -4.667E-08 2.227E-11 9.803E-05
 ETOT 54  -1.0109174248562    -4.333E-08 1.670E-11 2.968E-04
 ETOT 55  -1.0109173534732     7.138E-08 7.099E-12 2.367E-04
 ETOT 56  -1.0109173633302    -9.857E-09 1.558E-13 2.573E-04
 ETOT 57  -1.0109173730425    -9.712E-09 4.388E-13 2.974E-04
 ETOT 58  -1.0109174048093    -3.177E-08 3.027E-12 4.167E-04
 ETOT 59  -1.0109173843338     2.048E-08 3.650E-13 4.287E-04
 ETOT 60  -1.0109173819421     2.392E-09 2.603E-14 4.390E-04

 Cartesian components of stress tensor (hartree/bohr^3)
  sigma(1 1)=  5.63196391E-04  sigma(3 2)=  0.00000000E+00
  sigma(2 2)=  6.42369952E-04  sigma(3 1)=  0.00000000E+00
  sigma(3 3)=  6.42369952E-04  sigma(2 1)=  0.00000000E+00


 scprqt:  WARNING -
  nstep=   60 was not enough SCF cycles to converge;
  potential residual=  4.390E-04 exceeds tolvrs=  1.000E-10


--- !ResultsGS
iteration_state: {dtset: 11, }
comment   : Summary of ground state results
lattice_vectors:
- [ 10.0000000,   0.0000000,   0.0000000, ]
- [  0.0000000,   6.0000000,   0.0000000, ]
- [  0.0000000,   0.0000000,   6.0000000, ]
lattice_lengths: [  10.00000,    6.00000,    6.00000, ]
lattice_angles: [ 90.000,  90.000,  90.000, ] # degrees, (23, 13, 12)
lattice_volume:   3.6000000E+02
convergence: {deltae:  2.392E-09, res2:  4.390E-04, residm:  2.603E-14, diffor: null, }
etotal    :  -1.01091738E+00
entropy   :   0.00000000E+00
fermie    :  -2.48098432E-01
cartesian_stress_tensor: # hartree/bohr^3
- [  5.63196391E-04,   0.00000000E+00,   0.00000000E+00, ]
- [  0.00000000E+00,   6.42369952E-04,   0.00000000E+00, ]
- [  0.00000000E+00,   0.00000000E+00,   6.42369952E-04, ]
pressure_GPa:  -1.8123E+01
xred      :
- [  0.0000E+00,   0.0000E+00,   0.0000E+00,  H]
- [  5.0000E-01,   0.0000E+00,   0.0000E+00,  H]
cartesian_forces: # hartree/bohr
- [ -0.00000000E+00,  -0.00000000E+00,  -0.00000000E+00, ]
- [ -0.00000000E+00,  -0.00000000E+00,  -0.00000000E+00, ]
force_length_stats: {min:   0.00000000E+00, max:   0.00000000E+00, mean:   0.00000000E+00, }
...

 Integrated electronic and magnetization densities in atomic spheres:
 ---------------------------------------------------------------------
 Radius=ratsph(iatom), smearing ratsm=  0.0500. mag(i)=approximate local magnetic moment.
 Atom    Radius     Total density     mag(x)      mag(y)      mag(z)   Atomic charge
    1   1.00000        0.189108      0.010081    0.010027    0.080650      0.810892
    2   1.00000        0.189108      0.010081   -0.010027    0.080650      0.810892
 ---------------------------------------------------------------------
 Total magnetization (spheres)       0.020162    0.000000    0.161299
 Total magnetization (exact)         0.048471   -0.000000    0.387772

 Gradient with respect to target (=torque)       (scalar + magnetic field):
 ---------------------------------------------------------------------
 Radius=ratsph(iatom), smearing ratsm=  0.0500.
 Atom    Radius       Torque          T(x)        T(y)        T(z)
    1   1.00000       -0.000000      0.016112   -0.008204    0.128893
    2   1.00000       -0.000000      0.016112    0.008204    0.128893
 ---------------------------------------------------------------------
================================================================================

 ----iterations are completed or convergence reached----

 Mean square residual over all n,k,spin=   14.162E-15; max=  26.031E-15
   0.0000  0.0000  0.0000    1  2.60312E-14 kpt; spin; max resid(k); each band:
  4.28E-15 2.57E-14 2.60E-14 6.02E-16
 reduced coordinates (array xred) for    2 atoms
       0.000000000000      0.000000000000      0.000000000000
       0.500000000000      0.000000000000      0.000000000000
 rms dE/dt=  0.0000E+00; max dE/dt=  0.0000E+00; dE/dt below (all hartree)
    1       0.000000000000      0.000000000000      0.000000000000
    2       0.000000000000      0.000000000000      0.000000000000

 cartesian coordinates (angstrom) at end:
    1      0.00000000000000     0.00000000000000     0.00000000000000
    2      2.64588604295000     0.00000000000000     0.00000000000000

 cartesian forces (hartree/bohr) at end:
    1     -0.00000000000000    -0.00000000000000    -0.00000000000000
    2     -0.00000000000000    -0.00000000000000    -0.00000000000000
 frms,max,avg= 0.0000000E+00 0.0000000E+00   0.000E+00  0.000E+00  0.000E+00 h/b

 cartesian forces (eV/Angstrom) at end:
    1     -0.00000000000000    -0.00000000000000    -0.00000000000000
    2     -0.00000000000000    -0.00000000000000    -0.00000000000000
 frms,max,avg= 0.0000000E+00 0.0000000E+00   0.000E+00  0.000E+00  0.000E+00 e/A
 length scales= 10.000000000000  6.000000000000  6.000000000000 bohr
              =  5.291772085900  3.175063251540  3.175063251540 angstroms
 prteigrs : about to open file t97o_DS11_EIG
 Fermi (or HOMO) energy (hartree) =  -0.24810   Average Vxc (hartree)=  -0.19404
 Eigenvalues (hartree) for nkpt=   1  k points:
 kpt#   1, nband=  4, wtk=  1.00000, kpt=  0.0000  0.0000  0.0000 (reduced coord)
  -0.32461   -0.25426   -0.24194   -0.13736
      occupation numbers for kpt#   1
   1.00000    0.80820    0.19180    0.00000
 Total charge density [el/Bohr^3]
)     Maximum=    7.5320E-02  at reduced coord.    0.5000    0.0000    0.0000
)Next maximum=    7.5320E-02  at reduced coord.    0.0000    0.0000    0.0000
)     Minimum=    1.2091E-03  at reduced coord.    0.1250    0.4667    0.4667
)Next minimum=    1.2091E-03  at reduced coord.    0.3750    0.4667    0.4667
   Integrated=    2.0000E+00
 x component of magnetization [el/Bohr^3]
)     Maximum=    4.3565E-03  at reduced coord.    0.5000    0.0000    0.0000
)Next maximum=    4.3565E-03  at reduced coord.    0.0000    0.0000    0.0000
)     Minimum=   -3.9310E-05  at reduced coord.    0.2500    0.4667    0.2000
)Next minimum=   -3.9310E-05  at reduced coord.    0.7500    0.4667    0.2000
   Integrated=    4.8471E-02
 y component of magnetization [el/Bohr^3]
)     Maximum=    3.9027E-03  at reduced coord.    0.0000    0.0000    0.0000
)Next maximum=    3.4353E-03  at reduced coord.    0.0000    0.0000    0.9333
)     Minimum=   -3.9027E-03  at reduced coord.    0.5000    0.0000    0.0000
)Next minimum=   -3.4353E-03  at reduced coord.    0.5000    0.0667    0.0000
   Integrated=    0.0000E+00
 z component of magnetization [el/Bohr^3]
)     Maximum=    3.4852E-02  at reduced coord.    0.5000    0.0000    0.0000
)Next maximum=    3.4852E-02  at reduced coord.    0.0000    0.0000    0.0000
)     Minimum=   -3.1448E-04  at reduced coord.    0.2500    0.4667    0.2000
)Next minimum=   -3.1448E-04  at reduced coord.    0.7500    0.4667    0.2000
   Integrated=    3.8777E-01
 Magnetization (absolute value) [el/Bohr^3]
)     Maximum=    3.5339E-02  at reduced coord.    0.5000    0.0000    0.0000
)Next maximum=    3.5339E-02  at reduced coord.    0.0000    0.0000    0.0000
)     Minimum=    1.7310E-06  at reduced coord.    0.2500    0.2000    0.0667
)Next minimum=    1.7310E-06  at reduced coord.    0.7500    0.2000    0.0667
   Integrated=    4.5809E-01
 Relative magnetization (=zeta, between -1 and 1)
)     Maximum=    4.6919E-01  at reduced coord.    0.5000    0.0000    0.0000
)Next maximum=    4.6919E-01  at reduced coord.    0.0000    0.0000    0.0000
)     Minimum=    4.0816E-04  at reduced coord.    0.2500    0.2000    0.0667
)Next minimum=    4.0816E-04  at reduced coord.    0.7500    0.2000    0.0667

--- !EnergyTerms
iteration_state     : {dtset: 11, }
comment             : Components of total free energy in Hartree
kinetic             :  4.34965948409829E-01
hartree             :  8.17940417259248E-02
xc                  : -4.18245057714490E-01
Ewald energy        : -4.96863793280290E-01
psp_core            :  4.66522553903205E-04
local_psp           : -6.09005478248890E-01
non_local_psp       :  0.00000000000000E+00
internal            : -1.00705745281510E+00
'-kT*entropy'       : -3.85992912696701E-03
total_energy        : -1.01091738194207E+00
total_energy_eV     : -2.75084609307719E+01
band_energy         : -5.76504213059034E-01
...


 Cartesian components of stress tensor (hartree/bohr^3)
  sigma(1 1)=  5.63196391E-04  sigma(3 2)=  0.00000000E+00
  sigma(2 2)=  6.42369952E-04  sigma(3 1)=  0.00000000E+00
  sigma(3 3)=  6.42369952E-04  sigma(2 1)=  0.00000000E+00

-Cartesian components of stress tensor (GPa)         [Pressure= -1.8123E+01 GPa]
- sigma(1 1)=  1.65698071E+01  sigma(3 2)=  0.00000000E+00
- sigma(2 2)=  1.88991733E+01  sigma(3 1)=  0.00000000E+00
- sigma(3 3)=  1.88991733E+01  sigma(2 1)=  0.00000000E+00

================================================================================
== DATASET 12 ==================================================================
-   mpi_nproc: 1, omp_nthreads: -1 (-1 if OMP is not activated)


--- !DatasetInfo
iteration_state: {dtset: 12, }
dimensions: {natom: 2, nkpt: 1, mband: 4, nsppol: 1, nspinor: 2, nspden: 4, mpw: 183, }
cutoff_energies: {ecut:   5.0, pawecutdg:  -1.0, }
electrons: {nelect:   2.00000000E+00, charge:   0.00000000E+00, occopt:   7.00000000E+00, tsmear:   1.00000000E-02, }
meta: {optdriver: 0, ionmov: 0, optcell: 0, iscf: 7, paral_kgb: 0, }
...

 Exchange-correlation functional for the present dataset will be:
  LDA: new Teter (4/93) with spin-polarized option - ixc=1
 Citation for XC functional:
  S. Goedecker, M. Teter, J. Huetter, PRB 54, 1703 (1996)

 Real(R)+Recip(G) space primitive vectors, cartesian coordinates (Bohr,Bohr^-1):
 R(1)= 10.0000000  0.0000000  0.0000000  G(1)=  0.1000000  0.0000000  0.0000000
 R(2)=  0.0000000  6.0000000  0.0000000  G(2)=  0.0000000  0.1666667  0.0000000
 R(3)=  0.0000000  0.0000000  6.0000000  G(3)=  0.0000000  0.0000000  0.1666667
 Unit cell volume ucvol=  3.6000000E+02 bohr^3
 Angles (23,13,12)=  9.00000000E+01  9.00000000E+01  9.00000000E+01 degrees

 getcut: wavevector=  0.0000  0.0000  0.0000  ngfft=  24  15  15
         ecut(hartree)=      5.000   => boxcut(ratio)=   2.31807

 getcut : COMMENT -
  Note that boxcut > 2.2 ; recall that boxcut=Gcut(box)/Gcut(sphere) = 2
  is sufficient for exact treatment of convolution.
  Such a large boxcut is a waste : you could raise ecut
  e.g. ecut=    6.716814 Hartrees makes boxcut=2

--------------------------------------------------------------------------------

P newkpt: treating      4 bands with npw=     183 for ikpt=   1 by node    0
_setup2: Arith. and geom. avg. npw (full set) are     183.000     183.000

================================================================================

--- !BeginCycle
iteration_state: {dtset: 12, }
solver: {iscf: 7, nstep: 60, nline: 4, wfoptalg: 0, }
tolerances: {tolvrs: 1.00E-08, }
...

     iter   Etot(hartree)      deltaE(h)  residm     vres2
 ETOT  1  -1.0272094988898    -1.027E+00 6.496E-04 8.833E+00
 ETOT  2  -1.0308678762514    -3.658E-03 9.685E-09 3.244E+00
 ETOT  3  -1.0289427642377     1.925E-03 8.903E-06 8.686E-01
 ETOT  4  -1.0284472777491     4.955E-04 1.329E-05 7.062E-02
 ETOT  5  -1.0284822607745    -3.498E-05 1.636E-06 3.496E-02
 ETOT  6  -1.0284898116059    -7.551E-06 8.159E-08 1.035E-02
 ETOT  7  -1.0284870906893     2.721E-06 1.379E-08 5.334E-04
 ETOT  8  -1.0284872960147    -2.053E-07 6.407E-09 2.823E-05
 ETOT  9  -1.0284872750672     2.095E-08 1.261E-10 1.002E-06
 ETOT 10  -1.0284872743568     7.104E-10 4.118E-11 2.125E-08
 ETOT 11  -1.0284872743679    -1.104E-11 3.147E-13 3.234E-09

 At SCF step   11       vres2   =  3.23E-09 < tolvrs=  1.00E-08 =>converged.

 Cartesian components of stress tensor (hartree/bohr^3)
  sigma(1 1)=  6.47342690E-04  sigma(3 2)=  0.00000000E+00
  sigma(2 2)=  5.55480609E-04  sigma(3 1)=  5.78534552E-14
  sigma(3 3)=  5.55480611E-04  sigma(2 1)=  0.00000000E+00


--- !ResultsGS
iteration_state: {dtset: 12, }
comment   : Summary of ground state results
lattice_vectors:
- [ 10.0000000,   0.0000000,   0.0000000, ]
- [  0.0000000,   6.0000000,   0.0000000, ]
- [  0.0000000,   0.0000000,   6.0000000, ]
lattice_lengths: [  10.00000,    6.00000,    6.00000, ]
lattice_angles: [ 90.000,  90.000,  90.000, ] # degrees, (23, 13, 12)
lattice_volume:   3.6000000E+02
convergence: {deltae: -1.104E-11, res2:  3.234E-09, residm:  3.147E-13, diffor: null, }
etotal    :  -1.02848727E+00
entropy   :   0.00000000E+00
fermie    :  -2.39614135E-01
cartesian_stress_tensor: # hartree/bohr^3
- [  6.47342690E-04,   0.00000000E+00,   5.78534552E-14, ]
- [  0.00000000E+00,   5.55480609E-04,   0.00000000E+00, ]
- [  5.78534552E-14,   0.00000000E+00,   5.55480611E-04, ]
pressure_GPa:  -1.7244E+01
xred      :
- [  0.0000E+00,   0.0000E+00,   0.0000E+00,  H]
- [  5.0000E-01,   0.0000E+00,   0.0000E+00,  H]
cartesian_forces: # hartree/bohr
- [ -0.00000000E+00,  -0.00000000E+00,  -0.00000000E+00, ]
- [ -0.00000000E+00,  -0.00000000E+00,  -0.00000000E+00, ]
force_length_stats: {min:   0.00000000E+00, max:   0.00000000E+00, mean:   0.00000000E+00, }
...

 Integrated electronic and magnetization densities in atomic spheres:
 ---------------------------------------------------------------------
 Radius=ratsph(iatom), smearing ratsm=  0.0500. mag(i)=approximate local magnetic moment.
 Atom    Radius     Total density     mag(x)      mag(y)      mag(z)   Atomic charge
    1   1.00000        0.177198      0.009999    0.010000    0.080000      0.822802
    2   1.00000        0.177198     -0.009999    0.010000   -0.080000      0.822802
 ---------------------------------------------------------------------
 Total magnetization (spheres)       0.000000    0.020000    0.000000
 Total magnetization (exact)         0.000000    0.033042    0.000000

 Gradient with respect to target (=torque)       (scalar + magnetic field):
 ---------------------------------------------------------------------
 Radius=ratsph(iatom), smearing ratsm=  0.0500.
 Atom    Radius       Torque          T(x)        T(y)        T(z)
    1   1.00000       -0.000000     -0.000950    0.023927   -0.007593
    2   1.00000       -0.000000      0.000950    0.023927    0.007593
 ---------------------------------------------------------------------
================================================================================

 ----iterations are completed or convergence reached----

 Mean square residual over all n,k,spin=   18.897E-14; max=  31.466E-14
   0.0000  0.0000  0.0000    1  3.14660E-13 kpt; spin; max resid(k); each band:
  3.15E-13 7.00E-14 6.97E-14 3.01E-13
 reduced coordinates (array xred) for    2 atoms
       0.000000000000      0.000000000000      0.000000000000
       0.500000000000      0.000000000000      0.000000000000
 rms dE/dt=  0.0000E+00; max dE/dt=  0.0000E+00; dE/dt below (all hartree)
    1       0.000000000000      0.000000000000      0.000000000000
    2       0.000000000000      0.000000000000      0.000000000000

 cartesian coordinates (angstrom) at end:
    1      0.00000000000000     0.00000000000000     0.00000000000000
    2      2.64588604295000     0.00000000000000     0.00000000000000

 cartesian forces (hartree/bohr) at end:
    1     -0.00000000000000    -0.00000000000000    -0.00000000000000
    2     -0.00000000000000    -0.00000000000000    -0.00000000000000
 frms,max,avg= 0.0000000E+00 0.0000000E+00   0.000E+00  0.000E+00  0.000E+00 h/b

 cartesian forces (eV/Angstrom) at end:
    1     -0.00000000000000    -0.00000000000000    -0.00000000000000
    2     -0.00000000000000    -0.00000000000000    -0.00000000000000
 frms,max,avg= 0.0000000E+00 0.0000000E+00   0.000E+00  0.000E+00  0.000E+00 e/A
 length scales= 10.000000000000  6.000000000000  6.000000000000 bohr
              =  5.291772085900  3.175063251540  3.175063251540 angstroms
 prteigrs : about to open file t97o_DS12_EIG
 Fermi (or HOMO) energy (hartree) =  -0.23961   Average Vxc (hartree)=  -0.19495
 Eigenvalues (hartree) for nkpt=   1  k points:
 kpt#   1, nband=  4, wtk=  1.00000, kpt=  0.0000  0.0000  0.0000 (reduced coord)
  -0.29636   -0.28621   -0.19302   -0.17706
      occupation numbers for kpt#   1
   1.00000    1.00000    0.00000    0.00000
 Total charge density [el/Bohr^3]
)     Maximum=    6.9406E-02  at reduced coord.    0.5000    0.0000    0.0000
)Next maximum=    6.9406E-02  at reduced coord.    0.0000    0.0000    0.0000
)     Minimum=    1.2320E-03  at reduced coord.    0.1250    0.4667    0.4667
)Next minimum=    1.2320E-03  at reduced coord.    0.3750    0.4667    0.4667
   Integrated=    2.0000E+00
 x component of magnetization [el/Bohr^3]
)     Maximum=    4.0224E-03  at reduced coord.    0.0000    0.0000    0.0000
)Next maximum=    3.5066E-03  at reduced coord.    0.0000    0.0000    0.9333
)     Minimum=   -4.0224E-03  at reduced coord.    0.5000    0.0000    0.0000
)Next minimum=   -3.5066E-03  at reduced coord.    0.5000    0.0000    0.0667
   Integrated=    0.0000E+00
 y component of magnetization [el/Bohr^3]
)     Maximum=    4.4177E-03  at reduced coord.    0.5000    0.0000    0.0000
)Next maximum=    4.4177E-03  at reduced coord.    0.0000    0.0000    0.0000
)     Minimum=   -6.7279E-05  at reduced coord.    0.2500    0.1333    0.4667
)Next minimum=   -6.7279E-05  at reduced coord.    0.7500    0.1333    0.4667
   Integrated=    3.3042E-02
 z component of magnetization [el/Bohr^3]
)     Maximum=    3.2182E-02  at reduced coord.    0.0000    0.0000    0.0000
)Next maximum=    2.8056E-02  at reduced coord.    0.0000    0.0000    0.9333
)     Minimum=   -3.2182E-02  at reduced coord.    0.5000    0.0000    0.0000
)Next minimum=   -2.8056E-02  at reduced coord.    0.5000    0.0000    0.0667
   Integrated=    0.0000E+00
 Magnetization (absolute value) [el/Bohr^3]
)     Maximum=    3.2732E-02  at reduced coord.    0.5000    0.0000    0.0000
)Next maximum=    3.2732E-02  at reduced coord.    0.0000    0.0000    0.0000
)     Minimum=    4.8999E-06  at reduced coord.    0.2500    0.0000    0.0000
)Next minimum=    4.8999E-06  at reduced coord.    0.7500    0.0000    0.0000
   Integrated=    6.8201E-01
 Relative magnetization (=zeta, between -1 and 1)
)     Maximum=    4.7160E-01  at reduced coord.    0.5000    0.0000    0.0000
)Next maximum=    4.7160E-01  at reduced coord.    0.0000    0.0000    0.0000
)     Minimum=    7.1065E-04  at reduced coord.    0.7500    0.0000    0.0000
)Next minimum=    7.1065E-04  at reduced coord.    0.2500    0.0000    0.0000

--- !EnergyTerms
iteration_state     : {dtset: 12, }
comment             : Components of total free energy in Hartree
kinetic             :  3.78118792297440E-01
hartree             :  7.42446674330966E-02
xc                  : -4.13069943149579E-01
Ewald energy        : -4.96863793280290E-01
psp_core            :  4.66522553903205E-04
local_psp           : -5.71383512335913E-01
non_local_psp       :  0.00000000000000E+00
internal            : -1.02848727436578E+00
'-kT*entropy'       : -2.10015516413534E-12
total_energy        : -1.02848727436788E+00
total_energy_eV     : -2.79865620179495E+01
band_energy         : -5.82566187355611E-01
...


 Cartesian components of stress tensor (hartree/bohr^3)
  sigma(1 1)=  6.47342690E-04  sigma(3 2)=  0.00000000E+00
  sigma(2 2)=  5.55480609E-04  sigma(3 1)=  5.78534552E-14
  sigma(3 3)=  5.55480611E-04  sigma(2 1)=  0.00000000E+00

-Cartesian components of stress tensor (GPa)         [Pressure= -1.7244E+01 GPa]
- sigma(1 1)=  1.90454763E+01  sigma(3 2)=  0.00000000E+00
- sigma(2 2)=  1.63428010E+01  sigma(3 1)=  1.70210713E-09
- sigma(3 3)=  1.63428011E+01  sigma(2 1)=  0.00000000E+00

================================================================================
== DATASET 21 ==================================================================
-   mpi_nproc: 1, omp_nthreads: -1 (-1 if OMP is not activated)


--- !DatasetInfo
iteration_state: {dtset: 21, }
dimensions: {natom: 3, nkpt: 1, mband: 6, nsppol: 1, nspinor: 2, nspden: 4, mpw: 259, }
cutoff_energies: {ecut:   5.0, pawecutdg:  -1.0, }
electrons: {nelect:   3.00000000E+00, charge:   0.00000000E+00, occopt:   7.00000000E+00, tsmear:   1.00000000E-02, }
meta: {optdriver: 0, ionmov: 0, optcell: 0, iscf: 7, paral_kgb: 0, }
...

 Exchange-correlation functional for the present dataset will be:
  LDA: new Teter (4/93) with spin-polarized option - ixc=1
 Citation for XC functional:
  S. Goedecker, M. Teter, J. Huetter, PRB 54, 1703 (1996)

 Real(R)+Recip(G) space primitive vectors, cartesian coordinates (Bohr,Bohr^-1):
 R(1)=  0.0000000  6.0000000  6.0000000  G(1)= -0.0833333  0.0833333  0.0833333
 R(2)=  6.0000000  0.0000000  6.0000000  G(2)=  0.0833333 -0.0833333  0.0833333
 R(3)=  6.0000000  6.0000000  0.0000000  G(3)=  0.0833333  0.0833333 -0.0833333
 Unit cell volume ucvol=  4.3200000E+02 bohr^3
 Angles (23,13,12)=  6.00000000E+01  6.00000000E+01  6.00000000E+01 degrees

 getcut: wavevector=  0.0000  0.0000  0.0000  ngfft=  18  18  18
         ecut(hartree)=      5.000   => boxcut(ratio)=   2.11394
   3.77883269E-01                                ecore*ucvol(ha*bohr**3)
--------------------------------------------------------------------------------

P newkpt: treating      6 bands with npw=     259 for ikpt=   1 by node    0
_setup2: Arith. and geom. avg. npw (full set) are     259.000     259.000

================================================================================

--- !BeginCycle
iteration_state: {dtset: 21, }
solver: {iscf: 7, nstep: 60, nline: 4, wfoptalg: 0, }
tolerances: {tolvrs: 1.00E-08, }
...

     iter   Etot(hartree)      deltaE(h)  residm     vres2
 ETOT  1  -1.4639224560409    -1.464E+00 1.979E-03 1.298E+01
 ETOT  2  -1.5626653258963    -9.874E-02 7.976E-09 2.318E+01
 ETOT  3  -1.5667664387200    -4.101E-03 4.608E-05 1.418E+01
 ETOT  4  -1.5963316138050    -2.957E-02 2.304E-04 3.587E+00
 ETOT  5  -1.6139005950920    -1.757E-02 1.493E-04 9.989E-01
 ETOT  6  -1.6229936310909    -9.093E-03 4.725E-05 5.010E-01
 ETOT  7  -1.6326086076046    -9.615E-03 4.755E-05 2.870E-01
 ETOT  8  -1.6393870893338    -6.778E-03 2.656E-05 2.138E-01
 ETOT  9  -1.6434135871765    -4.026E-03 1.213E-05 1.685E-01
 ETOT 10  -1.6470688768337    -3.655E-03 2.012E-05 1.188E-01
 ETOT 11  -1.6495004666390    -2.432E-03 1.903E-05 1.039E-01
 ETOT 12  -1.6506907012315    -1.190E-03 9.497E-06 9.742E-02
 ETOT 13  -1.6507799204930    -8.922E-05 2.885E-06 8.687E-02
 ETOT 14  -1.6505117747024     2.681E-04 2.199E-05 8.627E-02
 ETOT 15  -1.6497164322838     7.953E-04 1.146E-06 7.922E-02
 ETOT 16  -1.6464333536418     3.283E-03 3.297E-05 7.777E-02
 ETOT 17  -1.6451014622016     1.332E-03 2.964E-06 7.419E-02
 ETOT 18  -1.6434664231425     1.635E-03 3.306E-06 7.140E-02
 ETOT 19  -1.6395733095886     3.893E-03 1.204E-05 6.922E-02
 ETOT 20  -1.6345271902546     5.046E-03 2.055E-05 7.065E-02
 ETOT 21  -1.6339818305602     5.454E-04 1.814E-07 6.950E-02
 ETOT 22  -1.6333906084794     5.912E-04 1.146E-07 6.921E-02
 ETOT 23  -1.6320868131766     1.304E-03 1.018E-06 6.891E-02
 ETOT 24  -1.6304816244397     1.605E-03 1.439E-06 6.845E-02
 ETOT 25  -1.6171893550280     1.329E-02 8.414E-05 7.247E-02
 ETOT 26  -1.6174604152535    -2.711E-04 4.822E-08 7.105E-02
 ETOT 27  -1.6105764812076     6.884E-03 1.828E-05 7.602E-02
 ETOT 28  -1.6049353278909     5.641E-03 1.065E-05 8.415E-02
 ETOT 29  -1.6053040745551    -3.687E-04 3.676E-08 8.255E-02
 ETOT 30  -1.5953473033736     9.957E-03 2.771E-05 9.650E-02
 ETOT 31  -1.5983572427182    -3.010E-03 2.813E-06 9.074E-02
 ETOT 32  -1.6178375186074    -1.948E-02 1.209E-04 6.996E-02
 ETOT 33  -1.6148205670014     3.017E-03 2.944E-06 7.030E-02
 ETOT 34  -1.6140510809367     7.695E-04 1.698E-07 7.228E-02
 ETOT 35  -1.6150006567579    -9.496E-04 5.514E-07 7.262E-02
 ETOT 36  -1.6144013041656     5.994E-04 2.102E-07 7.026E-02
 ETOT 37  -1.6114560124454     2.945E-03 3.125E-06 6.838E-02
 ETOT 38  -1.5997126273744     1.174E-02 4.490E-05 6.831E-02
 ETOT 39  -1.5973526056353     2.360E-03 1.563E-06 6.718E-02
 ETOT 40  -1.5915370440965     5.816E-03 9.031E-06 6.786E-02
 ETOT 41  -1.5834884937131     8.049E-03 1.553E-05 6.986E-02
 ETOT 42  -1.5901169137509    -6.628E-03 9.814E-06 6.884E-02
 ETOT 43  -1.5918130702041    -1.696E-03 6.541E-07 6.843E-02
 ETOT 44  -1.5936490248868    -1.836E-03 7.250E-07 6.871E-02
 ETOT 45  -1.6108635854315    -1.721E-02 7.222E-05 7.800E-02
 ETOT 46  -1.6163833949188    -5.520E-03 1.023E-05 7.718E-02
 ETOT 47  -1.6207339511059    -4.351E-03 7.825E-06 7.502E-02
 ETOT 48  -1.6017284066646     1.901E-02 1.295E-04 7.086E-02
 ETOT 49  -1.6010894158783     6.390E-04 8.499E-08 7.088E-02
 ETOT 50  -1.5072040843032     9.389E-02 1.980E-03 3.187E-01
 ETOT 51  -1.4975291108951     9.675E-03 9.729E-06 2.776E-01
 ETOT 52  -1.5150372174614    -1.751E-02 4.333E-05 2.169E-01
 ETOT 53  -1.4997463830345     1.529E-02 3.858E-05 2.898E-01
 ETOT 54  -1.5968294786787    -9.708E-02 1.597E-03 8.687E-02
 ETOT 55  -1.5798953088951     1.693E-02 6.961E-05 7.960E-02
 ETOT 56  -1.5846684517390    -4.773E-03 5.905E-06 7.486E-02
 ETOT 57  -1.5844767820619     1.917E-04 4.335E-08 7.519E-02
 ETOT 58  -1.5741631556590     1.031E-02 3.245E-05 9.620E-02
 ETOT 59  -1.5742217797741    -5.862E-05 2.349E-08 1.019E-01
 ETOT 60  -1.5741661410671     5.564E-05 1.113E-07 1.196E-01

 Cartesian components of stress tensor (hartree/bohr^3)
  sigma(1 1)= -8.73367364E-05  sigma(3 2)=  1.92369513E-05
  sigma(2 2)= -8.73367364E-05  sigma(3 1)=  1.92369513E-05
  sigma(3 3)= -8.73367364E-05  sigma(2 1)=  1.92369513E-05


 scprqt:  WARNING -
  nstep=   60 was not enough SCF cycles to converge;
  potential residual=  1.196E-01 exceeds tolvrs=  1.000E-08


--- !ResultsGS
iteration_state: {dtset: 21, }
comment   : Summary of ground state results
lattice_vectors:
- [  0.0000000,   6.0000000,   6.0000000, ]
- [  6.0000000,   0.0000000,   6.0000000, ]
- [  6.0000000,   6.0000000,   0.0000000, ]
lattice_lengths: [   8.48528,    8.48528,    8.48528, ]
lattice_angles: [ 60.000,  60.000,  60.000, ] # degrees, (23, 13, 12)
lattice_volume:   4.3200000E+02
convergence: {deltae:  5.564E-05, res2:  1.196E-01, residm:  1.113E-07, diffor: null, }
etotal    :  -1.57416614E+00
entropy   :   0.00000000E+00
fermie    :  -2.14641884E-01
cartesian_stress_tensor: # hartree/bohr^3
- [ -8.73367364E-05,   1.92369513E-05,   1.92369513E-05, ]
- [  1.92369513E-05,  -8.73367364E-05,   1.92369513E-05, ]
- [  1.92369513E-05,   1.92369513E-05,  -8.73367364E-05, ]
pressure_GPa:   2.5695E+00
xred      :
- [  0.0000E+00,   0.0000E+00,   0.0000E+00,  H]
- [  3.3333E-01,   3.3333E-01,   3.3333E-01,  H]
- [  6.6667E-01,   6.6667E-01,   6.6667E-01,  H]
cartesian_forces: # hartree/bohr
- [ -4.73578014E-24,  -4.65158416E-07,   4.65158416E-07, ]
- [  4.65158416E-07,   4.73578014E-24,  -4.65158416E-07, ]
- [ -4.65158416E-07,   4.65158416E-07,   3.15718676E-24, ]
force_length_stats: {min:   6.57833341E-07, max:   6.57833341E-07, mean:   6.57833341E-07, }
...

 Integrated electronic and magnetization densities in atomic spheres:
 ---------------------------------------------------------------------
 Radius=ratsph(iatom), smearing ratsm=  0.0500. mag(i)=approximate local magnetic moment.
 Atom    Radius     Total density     mag(x)      mag(y)      mag(z)   Atomic charge
    1   1.00000        0.357949      0.078636    0.005410   -0.003481      0.642051
    2   1.00000        0.357949     -0.003481    0.078636    0.005410      0.642051
    3   1.00000        0.357949      0.005410   -0.003480    0.078636      0.642051
 ---------------------------------------------------------------------
 Total magnetization (spheres)       0.080565    0.080565    0.080565
 Total magnetization (exact)         0.192755    0.192755    0.192755

 Gradient with respect to target (=torque)       (scalar + magnetic field):
 ---------------------------------------------------------------------
 Radius=ratsph(iatom), smearing ratsm=  0.0500.
 Atom    Radius       Torque          T(x)        T(y)        T(z)
    1   1.00000       -0.000000      0.365664   -0.387072    0.125049
    2   1.00000       -0.000000      0.125040    0.365780   -0.387459
    3   1.00000       -0.000000     -0.387225    0.124793    0.365846
 ---------------------------------------------------------------------
================================================================================

 ----iterations are completed or convergence reached----

 Mean square residual over all n,k,spin=   72.202E-09; max=  11.130E-08
   0.0000  0.0000  0.0000    1  1.11297E-07 kpt; spin; max resid(k); each band:
  1.11E-07 1.05E-07 1.02E-09 1.04E-07 1.11E-07 9.42E-10
 reduced coordinates (array xred) for    3 atoms
       0.000000000000      0.000000000000      0.000000000000
       0.333333333333      0.333333333333      0.333333333333
       0.666666666667      0.666666666667      0.666666666667
 rms dE/dt=  2.2788E-06; max dE/dt=  2.7910E-06; dE/dt below (all hartree)
    1       0.000000000000     -0.000002790950      0.000002790950
    2       0.000002790950      0.000000000000     -0.000002790950
    3      -0.000002790950      0.000002790950      0.000000000000

 cartesian coordinates (angstrom) at end:
    1      0.00000000000000     0.00000000000000     0.00000000000000
    2      2.11670883436000     2.11670883436000     2.11670883436000
    3      4.23341766872000     4.23341766872000     4.23341766872000

 cartesian forces (hartree/bohr) at end:
    1     -0.00000000000000    -0.00000046515842     0.00000046515842
    2      0.00000046515842     0.00000000000000    -0.00000046515842
    3     -0.00000046515842     0.00000046515842     0.00000000000000
 frms,max,avg= 3.7980026E-07 4.6515842E-07   0.000E+00  0.000E+00  0.000E+00 h/b

 cartesian forces (eV/Angstrom) at end:
    1     -0.00000000000000    -0.00002391940548     0.00002391940548
    2      0.00002391940548     0.00000000000000    -0.00002391940548
    3     -0.00002391940548     0.00002391940548     0.00000000000000
 frms,max,avg= 1.9530113E-05 2.3919405E-05   0.000E+00  0.000E+00  0.000E+00 e/A
 length scales=  6.000000000000  6.000000000000  6.000000000000 bohr
              =  3.175063251540  3.175063251540  3.175063251540 angstroms
 prteigrs : about to open file t97o_DS21_EIG
 Fermi (or HOMO) energy (hartree) =  -0.21464   Average Vxc (hartree)=  -0.20335
 Eigenvalues (hartree) for nkpt=   1  k points:
 kpt#   1, nband=  6, wtk=  1.00000, kpt=  0.0000  0.0000  0.0000 (reduced coord)
  -0.38129   -0.36500   -0.28590   -0.09063   -0.05785    0.10311
      occupation numbers for kpt#   1
   1.00000    1.00000    1.00000    0.00000    0.00000    0.00000
 Total charge density [el/Bohr^3]
)     Maximum=    1.6154E-01  at reduced coord.    0.6667    0.6667    0.6667
)Next maximum=    1.6154E-01  at reduced coord.    0.3333    0.3333    0.3333
)     Minimum=    3.6325E-04  at reduced coord.    0.0000    0.5000    0.0000
)Next minimum=    3.6325E-04  at reduced coord.    0.8333    0.3333    0.3333
   Integrated=    3.0000E+00
 x component of magnetization [el/Bohr^3]
)     Maximum=    3.4424E-02  at reduced coord.    0.0000    0.0000    0.0556
)Next maximum=    3.4405E-02  at reduced coord.    0.0000    0.0000    0.9444
)     Minimum=   -3.0277E-02  at reduced coord.    0.6111    0.0000    0.3333
)Next minimum=   -2.8258E-02  at reduced coord.    0.6111    0.9444    0.3889
   Integrated=    1.9275E-01
 y component of magnetization [el/Bohr^3]
)     Maximum=    3.4424E-02  at reduced coord.    0.3333    0.3333    0.3889
)Next maximum=    3.4405E-02  at reduced coord.    0.3333    0.3333    0.2778
)     Minimum=   -3.0277E-02  at reduced coord.    0.9444    0.3333    0.6667
)Next minimum=   -2.8258E-02  at reduced coord.    0.9444    0.2778    0.7222
   Integrated=    1.9275E-01
 z component of magnetization [el/Bohr^3]
)     Maximum=    3.4424E-02  at reduced coord.    0.6667    0.6667    0.7222
)Next maximum=    3.4405E-02  at reduced coord.    0.6667    0.6667    0.6111
)     Minimum=   -3.0277E-02  at reduced coord.    0.2778    0.6667    0.0000
)Next minimum=   -2.8258E-02  at reduced coord.    0.2778    0.6111    0.0556
   Integrated=    1.9275E-01
 Magnetization (absolute value) [el/Bohr^3]
)     Maximum=    3.8356E-02  at reduced coord.    0.2778    0.6667    0.0000
)Next maximum=    3.8356E-02  at reduced coord.    0.9444    0.3333    0.6667
)     Minimum=    2.8305E-04  at reduced coord.    0.6111    0.2222    0.8889
)Next minimum=    2.8306E-04  at reduced coord.    0.2778    0.8889    0.5556
   Integrated=    4.1863E+00
 Relative magnetization (=zeta, between -1 and 1)
)     Maximum=    2.9749E+01  at reduced coord.    0.1667    0.6667    0.6667
)Next maximum=    2.9749E+01  at reduced coord.    0.8333    0.3333    0.3333
)     Minimum=    1.2992E-01  at reduced coord.    0.2222    0.3889    0.3889
)Next minimum=    1.2992E-01  at reduced coord.    0.8889    0.0556    0.0556

--- !EnergyTerms
iteration_state     : {dtset: 21, }
comment             : Components of total free energy in Hartree
kinetic             :  1.63788117465604E+00
hartree             :  3.38527391255688E-01
xc                  : -1.13230366505834E+00
Ewald energy        : -7.66364550354768E-01
psp_core            :  8.74729788568509E-04
local_psp           : -1.66186725746844E+00
non_local_psp       :  0.00000000000000E+00
internal            : -1.57416614106711E+00
'-kT*entropy'       : -2.83223205298554E-18
total_energy        : -1.57416614106711E+00
total_energy_eV     : -4.28352391239920E+01
band_energy         : -1.03219441065961E+00
...


 Cartesian components of stress tensor (hartree/bohr^3)
  sigma(1 1)= -8.73367364E-05  sigma(3 2)=  1.92369513E-05
  sigma(2 2)= -8.73367364E-05  sigma(3 1)=  1.92369513E-05
  sigma(3 3)= -8.73367364E-05  sigma(2 1)=  1.92369513E-05

-Cartesian components of stress tensor (GPa)         [Pressure=  2.5695E+00 GPa]
- sigma(1 1)= -2.56953507E+00  sigma(3 2)=  5.65970552E-01
- sigma(2 2)= -2.56953507E+00  sigma(3 1)=  5.65970552E-01
- sigma(3 3)= -2.56953507E+00  sigma(2 1)=  5.65970552E-01

================================================================================
== DATASET 22 ==================================================================
-   mpi_nproc: 1, omp_nthreads: -1 (-1 if OMP is not activated)


--- !DatasetInfo
iteration_state: {dtset: 22, }
dimensions: {natom: 3, nkpt: 1, mband: 6, nsppol: 1, nspinor: 2, nspden: 4, mpw: 259, }
cutoff_energies: {ecut:   5.0, pawecutdg:  -1.0, }
electrons: {nelect:   3.00000000E+00, charge:   0.00000000E+00, occopt:   7.00000000E+00, tsmear:   1.00000000E-02, }
meta: {optdriver: 0, ionmov: 0, optcell: 0, iscf: 7, paral_kgb: 0, }
...

 Exchange-correlation functional for the present dataset will be:
  LDA: new Teter (4/93) with spin-polarized option - ixc=1
 Citation for XC functional:
  S. Goedecker, M. Teter, J. Huetter, PRB 54, 1703 (1996)

 Real(R)+Recip(G) space primitive vectors, cartesian coordinates (Bohr,Bohr^-1):
 R(1)=  0.0000000  6.0000000  6.0000000  G(1)= -0.0833333  0.0833333  0.0833333
 R(2)=  6.0000000  0.0000000  6.0000000  G(2)=  0.0833333 -0.0833333  0.0833333
 R(3)=  6.0000000  6.0000000  0.0000000  G(3)=  0.0833333  0.0833333 -0.0833333
 Unit cell volume ucvol=  4.3200000E+02 bohr^3
 Angles (23,13,12)=  6.00000000E+01  6.00000000E+01  6.00000000E+01 degrees

 getcut: wavevector=  0.0000  0.0000  0.0000  ngfft=  18  18  18
         ecut(hartree)=      5.000   => boxcut(ratio)=   2.11394
--------------------------------------------------------------------------------

P newkpt: treating      6 bands with npw=     259 for ikpt=   1 by node    0
_setup2: Arith. and geom. avg. npw (full set) are     259.000     259.000

================================================================================

--- !BeginCycle
iteration_state: {dtset: 22, }
solver: {iscf: 7, nstep: 60, nline: 4, wfoptalg: 0, }
tolerances: {tolvrs: 1.00E-08, }
...

     iter   Etot(hartree)      deltaE(h)  residm     vres2
 ETOT  1  -1.4557083659619    -1.456E+00 2.121E-03 5.733E+00
 ETOT  2  -1.4592339966694    -3.526E-03 2.640E-10 3.030E+00
 ETOT  3  -1.4581910879619     1.043E-03 4.577E-05 2.140E+00
 ETOT  4  -1.4573791181304     8.120E-04 1.099E-05 2.251E-01
 ETOT  5  -1.4563508542348     1.028E-03 6.375E-06 5.745E-01
 ETOT  6  -1.4574665479198    -1.116E-03 2.365E-06 7.710E-02
 ETOT  7  -1.4574548547443     1.169E-05 6.248E-07 1.689E-02
 ETOT  8  -1.4574476694381     7.185E-06 6.066E-08 8.402E-05
 ETOT  9  -1.4574476909840    -2.155E-08 3.115E-10 1.411E-06
 ETOT 10  -1.4574476911130    -1.290E-10 9.386E-12 5.130E-08
 ETOT 11  -1.4574476910780     3.501E-11 6.663E-14 1.354E-09

 At SCF step   11       vres2   =  1.35E-09 < tolvrs=  1.00E-08 =>converged.

 Cartesian components of stress tensor (hartree/bohr^3)
  sigma(1 1)=  3.63717717E-04  sigma(3 2)= -2.52147021E-06
  sigma(2 2)=  3.63717717E-04  sigma(3 1)= -2.52147021E-06
  sigma(3 3)=  3.63717717E-04  sigma(2 1)= -2.52147021E-06


--- !ResultsGS
iteration_state: {dtset: 22, }
comment   : Summary of ground state results
lattice_vectors:
- [  0.0000000,   6.0000000,   6.0000000, ]
- [  6.0000000,   0.0000000,   6.0000000, ]
- [  6.0000000,   6.0000000,   0.0000000, ]
lattice_lengths: [   8.48528,    8.48528,    8.48528, ]
lattice_angles: [ 60.000,  60.000,  60.000, ] # degrees, (23, 13, 12)
lattice_volume:   4.3200000E+02
convergence: {deltae:  3.501E-11, res2:  1.354E-09, residm:  6.663E-14, diffor: null, }
etotal    :  -1.45744769E+00
entropy   :   0.00000000E+00
fermie    :  -1.05002419E-01
cartesian_stress_tensor: # hartree/bohr^3
- [  3.63717717E-04,  -2.52147021E-06,  -2.52147021E-06, ]
- [ -2.52147021E-06,   3.63717717E-04,  -2.52147021E-06, ]
- [ -2.52147021E-06,  -2.52147021E-06,   3.63717717E-04, ]
pressure_GPa:  -1.0701E+01
xred      :
- [  0.0000E+00,   0.0000E+00,   0.0000E+00,  H]
- [  3.3333E-01,   3.3333E-01,   3.3333E-01,  H]
- [  6.6667E-01,   6.6667E-01,   6.6667E-01,  H]
cartesian_forces: # hartree/bohr
- [ -1.12937726E-21,   2.25875453E-21,   2.25875453E-21, ]
- [  1.85776398E-05,   1.85776398E-05,   1.85776398E-05, ]
- [ -1.85776398E-05,  -1.85776398E-05,  -1.85776398E-05, ]
force_length_stats: {min:   3.38813179E-21, max:   3.21774160E-05, mean:   2.14516107E-05, }
...

 Integrated electronic and magnetization densities in atomic spheres:
 ---------------------------------------------------------------------
 Radius=ratsph(iatom), smearing ratsm=  0.0500. mag(i)=approximate local magnetic moment.
 Atom    Radius     Total density     mag(x)      mag(y)      mag(z)   Atomic charge
    1   1.00000        0.239292     -0.000000   -0.000000    0.000000      0.760708
    2   1.00000        0.237191      0.039999    0.039999    0.039999      0.762809
    3   1.00000        0.237191     -0.039999   -0.039999   -0.039999      0.762809
 ---------------------------------------------------------------------
 Total magnetization (spheres)      -0.000000   -0.000000   -0.000000
 Total magnetization (exact)         0.000000    0.000000   -0.000000

 Gradient with respect to target (=torque)       (scalar + magnetic field):
 ---------------------------------------------------------------------
 Radius=ratsph(iatom), smearing ratsm=  0.0500.
 Atom    Radius       Torque          T(x)        T(y)        T(z)
    1   1.00000       -0.000000      0.000000    0.000000   -0.000000
    2   1.00000       -0.000000     -0.020086   -0.020086   -0.020086
    3   1.00000       -0.000000      0.020086    0.020086    0.020086
 ---------------------------------------------------------------------
================================================================================

 ----iterations are completed or convergence reached----

 Mean square residual over all n,k,spin=   43.602E-15; max=  66.632E-15
   0.0000  0.0000  0.0000    1  6.66322E-14 kpt; spin; max resid(k); each band:
  6.66E-14 6.66E-14 2.89E-14 2.89E-14 3.53E-14 3.53E-14
 reduced coordinates (array xred) for    3 atoms
       0.000000000000      0.000000000000      0.000000000000
       0.333333333333      0.333333333333      0.333333333333
       0.666666666667      0.666666666667      0.666666666667
 rms dE/dt=  1.8202E-04; max dE/dt=  2.2293E-04; dE/dt below (all hartree)
    1       0.000000000000      0.000000000000      0.000000000000
    2      -0.000222931678     -0.000222931678     -0.000222931678
    3       0.000222931678      0.000222931678      0.000222931678

 cartesian coordinates (angstrom) at end:
    1      0.00000000000000     0.00000000000000     0.00000000000000
    2      2.11670883436000     2.11670883436000     2.11670883436000
    3      4.23341766872000     4.23341766872000     4.23341766872000

 cartesian forces (hartree/bohr) at end:
    1     -0.00000000000000     0.00000000000000     0.00000000000000
    2      0.00001857763981     0.00001857763981     0.00001857763981
    3     -0.00001857763981    -0.00001857763981    -0.00001857763981
 frms,max,avg= 1.5168579E-05 1.8577640E-05   0.000E+00  0.000E+00  0.000E+00 h/b

 cartesian forces (eV/Angstrom) at end:
    1     -0.00000000000000     0.00000000000000     0.00000000000000
    2      0.00095530056843     0.00095530056843     0.00095530056843
    3     -0.00095530056843    -0.00095530056843    -0.00095530056843
 frms,max,avg= 7.7999965E-04 9.5530057E-04   0.000E+00  0.000E+00  0.000E+00 e/A
 length scales=  6.000000000000  6.000000000000  6.000000000000 bohr
              =  3.175063251540  3.175063251540  3.175063251540 angstroms
 prteigrs : about to open file t97o_DS22_EIG
 Fermi (or HOMO) energy (hartree) =  -0.10500   Average Vxc (hartree)=  -0.20063
 Eigenvalues (hartree) for nkpt=   1  k points:
 kpt#   1, nband=  6, wtk=  1.00000, kpt=  0.0000  0.0000  0.0000 (reduced coord)
  -0.29969   -0.29969   -0.10333   -0.10333   -0.09568   -0.09568
      occupation numbers for kpt#   1
   1.00000    1.00000    0.40640    0.40640    0.09360    0.09360
 Total charge density [el/Bohr^3]
)     Maximum=    9.7437E-02  at reduced coord.    0.0000    0.0000    0.0000
)Next maximum=    9.6498E-02  at reduced coord.    0.6667    0.6667    0.6667
)     Minimum=    8.6117E-04  at reduced coord.    0.6667    0.6667    0.1667
)Next minimum=    8.6117E-04  at reduced coord.    0.8333    0.3333    0.3333
   Integrated=    3.0000E+00
 x component of magnetization [el/Bohr^3]
)     Maximum=    1.6371E-02  at reduced coord.    0.3333    0.3333    0.3333
)Next maximum=    1.3492E-02  at reduced coord.    0.3889    0.3333    0.3333
)     Minimum=   -1.6371E-02  at reduced coord.    0.6667    0.6667    0.6667
)Next minimum=   -1.3492E-02  at reduced coord.    0.6111    0.6667    0.6667
   Integrated=    0.0000E+00
 y component of magnetization [el/Bohr^3]
)     Maximum=    1.6371E-02  at reduced coord.    0.3333    0.3333    0.3333
)Next maximum=    1.3492E-02  at reduced coord.    0.3333    0.3889    0.3333
)     Minimum=   -1.6371E-02  at reduced coord.    0.6667    0.6667    0.6667
)Next minimum=   -1.3492E-02  at reduced coord.    0.6667    0.6111    0.6667
   Integrated=    0.0000E+00
 z component of magnetization [el/Bohr^3]
)     Maximum=    1.6371E-02  at reduced coord.    0.3333    0.3333    0.3333
)Next maximum=    1.3492E-02  at reduced coord.    0.3333    0.3333    0.3889
)     Minimum=   -1.6371E-02  at reduced coord.    0.6667    0.6667    0.6667
)Next minimum=   -1.3492E-02  at reduced coord.    0.6667    0.6667    0.6111
   Integrated=    0.0000E+00
 Magnetization (absolute value) [el/Bohr^3]
)     Maximum=    2.8356E-02  at reduced coord.    0.6667    0.6667    0.6667
)Next maximum=    2.8356E-02  at reduced coord.    0.3333    0.3333    0.3333
)     Minimum=    0.0000E+00  at reduced coord.    0.0000    0.0000    0.0000
)Next minimum=    0.0000E+00  at reduced coord.    0.5000    0.0000    0.0000
   Integrated=    4.2351E-01
 Relative magnetization (=zeta, between -1 and 1)
)     Maximum=    3.0207E-01  at reduced coord.    0.6111    0.6111    0.6111
)Next maximum=    3.0207E-01  at reduced coord.    0.3889    0.3889    0.3889
)     Minimum=    0.0000E+00  at reduced coord.    0.0000    0.0000    0.0000
)Next minimum=    0.0000E+00  at reduced coord.    0.5000    0.0000    0.0000

--- !EnergyTerms
iteration_state     : {dtset: 22, }
comment             : Components of total free energy in Hartree
kinetic             :  9.49267142664712E-01
hartree             :  1.88225080401940E-01
xc                  : -6.93568930183671E-01
Ewald energy        : -7.66364550354768E-01
psp_core            :  8.74729788568509E-04
local_psp           : -1.12803090379910E+00
non_local_psp       :  0.00000000000000E+00
internal            : -1.44959750225639E+00
'-kT*entropy'       : -7.85018882159062E-03
total_energy        : -1.45744769107798E+00
total_energy_eV     : -3.96591685777936E+01
band_energy         : -7.01276431708510E-01
...


 Cartesian components of stress tensor (hartree/bohr^3)
  sigma(1 1)=  3.63717717E-04  sigma(3 2)= -2.52147021E-06
  sigma(2 2)=  3.63717717E-04  sigma(3 1)= -2.52147021E-06
  sigma(3 3)=  3.63717717E-04  sigma(2 1)= -2.52147021E-06

-Cartesian components of stress tensor (GPa)         [Pressure= -1.0701E+01 GPa]
- sigma(1 1)=  1.07009429E+01  sigma(3 2)= -7.41842022E-02
- sigma(2 2)=  1.07009429E+01  sigma(3 1)= -7.41842022E-02
- sigma(3 3)=  1.07009429E+01  sigma(2 1)= -7.41842022E-02

================================================================================
== DATASET 31 ==================================================================
-   mpi_nproc: 1, omp_nthreads: -1 (-1 if OMP is not activated)


--- !DatasetInfo
iteration_state: {dtset: 31, }
dimensions: {natom: 4, nkpt: 1, mband: 8, nsppol: 1, nspinor: 2, nspden: 4, mpw: 125, }
cutoff_energies: {ecut:   5.0, pawecutdg:  -1.0, }
electrons: {nelect:   4.00000000E+00, charge:   0.00000000E+00, occopt:   7.00000000E+00, tsmear:   1.00000000E-02, }
meta: {optdriver: 0, ionmov: 0, optcell: 0, iscf: 7, paral_kgb: 0, }
...

 Exchange-correlation functional for the present dataset will be:
  LDA: new Teter (4/93) with spin-polarized option - ixc=1
 Citation for XC functional:
  S. Goedecker, M. Teter, J. Huetter, PRB 54, 1703 (1996)

 Real(R)+Recip(G) space primitive vectors, cartesian coordinates (Bohr,Bohr^-1):
 R(1)=  0.0000000  4.0000000  8.0000000  G(1)= -0.1250000  0.1250000  0.0625000
 R(2)=  4.0000000  0.0000000  8.0000000  G(2)=  0.1250000 -0.1250000  0.0625000
 R(3)=  4.0000000  4.0000000  0.0000000  G(3)=  0.1250000  0.1250000 -0.0625000
 Unit cell volume ucvol=  2.5600000E+02 bohr^3
 Angles (23,13,12)=  7.15650512E+01  7.15650512E+01  3.68698976E+01 degrees

 getcut: wavevector=  0.0000  0.0000  0.0000  ngfft=  18  18  18
         ecut(hartree)=      5.000   => boxcut(ratio)=   2.00238
   6.71792478E-01                                ecore*ucvol(ha*bohr**3)
--------------------------------------------------------------------------------

P newkpt: treating      8 bands with npw=     125 for ikpt=   1 by node    0
_setup2: Arith. and geom. avg. npw (full set) are     125.000     125.000

================================================================================

--- !BeginCycle
iteration_state: {dtset: 31, }
solver: {iscf: 7, nstep: 60, nline: 4, wfoptalg: 0, }
tolerances: {tolvrs: 1.00E-08, }
...

     iter   Etot(hartree)      deltaE(h)  residm     vres2
 ETOT  1  -1.5557570019884    -1.556E+00 1.104E-02 1.180E+02
 ETOT  2  -1.5585283508668    -2.771E-03 9.479E-04 9.818E+01
 ETOT  3  -1.6274932790190    -6.896E-02 6.013E-04 2.797E+01
 ETOT  4  -1.6345994210031    -7.106E-03 7.399E-05 1.352E+01
 ETOT  5  -1.6315793106400     3.020E-03 4.955E-04 7.971E+00
 ETOT  6  -1.6362501061325    -4.671E-03 7.030E-05 3.718E+00
 ETOT  7  -1.6360937614000     1.563E-04 1.021E-04 2.630E+00
 ETOT  8  -1.6379383568232    -1.845E-03 1.249E-05 3.250E-02
 ETOT  9  -1.6379175455749     2.081E-05 1.351E-06 4.828E-02
 ETOT 10  -1.6379543937227    -3.685E-05 5.039E-08 5.167E-04
 ETOT 11  -1.6379547206518    -3.269E-07 3.730E-09 1.429E-06
 ETOT 12  -1.6379547212023    -5.505E-10 1.481E-10 4.431E-07
 ETOT 13  -1.6379547212657    -6.336E-11 8.111E-12 2.311E-08
 ETOT 14  -1.6379547212851    -1.937E-11 5.648E-14 1.454E-11

 At SCF step   14       vres2   =  1.45E-11 < tolvrs=  1.00E-08 =>converged.

 Cartesian components of stress tensor (hartree/bohr^3)
  sigma(1 1)= -1.76810499E-03  sigma(3 2)=  0.00000000E+00
  sigma(2 2)= -1.76810499E-03  sigma(3 1)=  0.00000000E+00
  sigma(3 3)=  8.58415102E-04  sigma(2 1)=  0.00000000E+00


--- !ResultsGS
iteration_state: {dtset: 31, }
comment   : Summary of ground state results
lattice_vectors:
- [  0.0000000,   4.0000000,   8.0000000, ]
- [  4.0000000,   0.0000000,   8.0000000, ]
- [  4.0000000,   4.0000000,   0.0000000, ]
lattice_lengths: [   8.94427,    8.94427,    5.65685, ]
lattice_angles: [ 71.565,  71.565,  36.870, ] # degrees, (23, 13, 12)
lattice_volume:   2.5600000E+02
convergence: {deltae: -1.937E-11, res2:  1.454E-11, residm:  5.648E-14, diffor: null, }
etotal    :  -1.63795472E+00
entropy   :   0.00000000E+00
fermie    :  -4.85569849E-03
cartesian_stress_tensor: # hartree/bohr^3
- [ -1.76810499E-03,   0.00000000E+00,   0.00000000E+00, ]
- [  0.00000000E+00,  -1.76810499E-03,   0.00000000E+00, ]
- [  0.00000000E+00,   0.00000000E+00,   8.58415102E-04, ]
pressure_GPa:   2.6261E+01
xred      :
- [ -1.2500E-01,   1.2500E-01,   1.2500E-01,  H]
- [  1.2500E-01,  -1.2500E-01,   1.2500E-01,  H]
- [  1.2500E-01,  -1.2500E-01,  -1.2500E-01,  H]
- [ -1.2500E-01,   1.2500E-01,  -1.2500E-01,  H]
cartesian_forces: # hartree/bohr
- [  1.70212177E-01,   2.77555756E-17,  -1.38777878E-17, ]
- [  2.42861287E-17,   1.70212177E-01,  -6.93889390E-18, ]
- [ -1.70212177E-01,  -1.38777878E-17,   6.93889390E-18, ]
[...]
             nkpt           1
           nspden           4
          nspinor           2
            nstep          60
             nsym11         4
             nsym12         4
             nsym21         6
             nsym22        12
             nsym31        16
             nsym32         8
           ntypat           1
              occ11    1.000000  0.808202  0.191798  0.000000
              occ12    1.000000  1.000000  0.000000  0.000000
              occ21    1.000000  1.000000  1.000000  0.000000  0.000000  0.000000
              occ22    1.000000  1.000000  0.406397  0.406397  0.093603  0.093603
              occ31    1.000000  1.000000  0.690082  0.690082  0.216437  0.216437
                       0.093481  0.093481
              occ32    1.000000  1.000000  0.999196  0.368308  0.265087  0.220207
                       0.147155  0.000047
           occopt           7
           prtvol           2
        ptgroupma11         5
        ptgroupma12         4
        ptgroupma21        30
        ptgroupma22         0
        ptgroupma31        27
        ptgroupma32        24
            ratsm      5.00000000E-02 Bohr
           ratsph      1.00000000E+00 Bohr
            rprim11    1.0000000000E+00  0.0000000000E+00  0.0000000000E+00
                       0.0000000000E+00  1.0000000000E+00  0.0000000000E+00
                       0.0000000000E+00  0.0000000000E+00  1.0000000000E+00
            rprim12    1.0000000000E+00  0.0000000000E+00  0.0000000000E+00
                       0.0000000000E+00  1.0000000000E+00  0.0000000000E+00
                       0.0000000000E+00  0.0000000000E+00  1.0000000000E+00
            rprim21    0.0000000000E+00  1.0000000000E+00  1.0000000000E+00
                       1.0000000000E+00  0.0000000000E+00  1.0000000000E+00
                       1.0000000000E+00  1.0000000000E+00  0.0000000000E+00
            rprim22    0.0000000000E+00  1.0000000000E+00  1.0000000000E+00
                       1.0000000000E+00  0.0000000000E+00  1.0000000000E+00
                       1.0000000000E+00  1.0000000000E+00  0.0000000000E+00
            rprim31    0.0000000000E+00  4.0000000000E+00  8.0000000000E+00
                       4.0000000000E+00  0.0000000000E+00  8.0000000000E+00
                       4.0000000000E+00  4.0000000000E+00  0.0000000000E+00
            rprim32    0.0000000000E+00  4.0000000000E+00  8.0000000000E+00
                       4.0000000000E+00  0.0000000000E+00  8.0000000000E+00
                       4.0000000000E+00  4.0000000000E+00  0.0000000000E+00
           so_psp           0
          spgroup11        13
          spgroup12        13
          spgroup21       155
          spgroup22       166
          spgroup31       139
          spgroup32       121
           spinat11    1.0000000000E-02  1.0000000000E-02  8.0000000000E-02
                       1.0000000000E-02 -1.0000000000E-02  8.0000000000E-02
           spinat12    1.0000000000E-02  1.0000000000E-02  8.0000000000E-02
                      -1.0000000000E-02  1.0000000000E-02 -8.0000000000E-02
           spinat21    8.0000000000E-02  0.0000000000E+00  0.0000000000E+00
                       0.0000000000E+00  8.0000000000E-02  0.0000000000E+00
                       0.0000000000E+00  0.0000000000E+00  8.0000000000E-02
           spinat22    0.0000000000E+00  0.0000000000E+00  0.0000000000E+00
                       4.0000000000E-02  4.0000000000E-02  4.0000000000E-02
                      -4.0000000000E-02 -4.0000000000E-02 -4.0000000000E-02
           spinat31    4.0000000000E-02  0.0000000000E+00  0.0000000000E+00
                       0.0000000000E+00 -4.0000000000E-02  0.0000000000E+00
                      -4.0000000000E-02  0.0000000000E+00  0.0000000000E+00
                       0.0000000000E+00  4.0000000000E-02  0.0000000000E+00
           spinat32    4.0000000000E-02  0.0000000000E+00  2.0000000000E-02
                       0.0000000000E+00 -4.0000000000E-02  2.0000000000E-02
                      -4.0000000000E-02  0.0000000000E+00  2.0000000000E-02
                       0.0000000000E+00  4.0000000000E-02  2.0000000000E-02
           strten11    5.6319639071E-04  6.4236995212E-04  6.4236995211E-04
                       0.0000000000E+00  0.0000000000E+00  0.0000000000E+00
           strten12    6.4734268998E-04  5.5548060921E-04  5.5548061149E-04
                       0.0000000000E+00  5.7853455219E-14  0.0000000000E+00
           strten21   -8.7336736428E-05 -8.7336736428E-05 -8.7336736428E-05
                       1.9236951298E-05  1.9236951298E-05  1.9236951298E-05
           strten22    3.6371771722E-04  3.6371771722E-04  3.6371771722E-04
                      -2.5214702061E-06 -2.5214702061E-06 -2.5214702061E-06
           strten31   -1.7681049919E-03 -1.7681049919E-03  8.5841510190E-04
                       0.0000000000E+00  0.0000000000E+00  0.0000000000E+00
           strten32   -1.7869933801E-03 -1.7869933801E-03  8.8201720360E-04
                       0.0000000000E+00  0.0000000000E+00  0.0000000000E+00
           symafm11      1   -1   -1    1
           symafm12      1   -1    1   -1
           symafm21      1   -1    1   -1    1   -1
           symafm22      1    1    1    1    1    1    1    1    1    1
                         1    1
           symafm31      1    1   -1   -1    1    1   -1   -1    1    1
                        -1   -1    1    1   -1   -1
           symafm32      1   -1    1   -1    1   -1    1   -1
           symrel11    1  0  0   0  1  0   0  0  1      -1  0  0   0 -1  0   0  0 -1
                      -1  0  0   0  1  0   0  0 -1       1  0  0   0 -1  0   0  0  1
           symrel12    1  0  0   0  1  0   0  0  1      -1  0  0   0 -1  0   0  0 -1
                      -1  0  0   0  1  0   0  0 -1       1  0  0   0 -1  0   0  0  1
           symrel21    1  0  0   0  1  0   0  0  1      -1  0  0   0  0 -1   0 -1  0
                       0  1  0   0  0  1   1  0  0       0 -1  0  -1  0  0   0  0 -1
                       0  0  1   1  0  0   0  1  0       0  0 -1   0 -1  0  -1  0  0
           symrel22    1  0  0   0  1  0   0  0  1      -1  0  0   0 -1  0   0  0 -1
                       1  0  0   0  0  1   0  1  0      -1  0  0   0  0 -1   0 -1  0
                       0  1  0   0  0  1   1  0  0       0 -1  0   0  0 -1  -1  0  0
                       0  1  0   1  0  0   0  0  1       0 -1  0  -1  0  0   0  0 -1
                       0  0  1   1  0  0   0  1  0       0  0 -1  -1  0  0   0 -1  0
                       0  0  1   0  1  0   1  0  0       0  0 -1   0 -1  0  -1  0  0
           symrel31    1  0  0   0  1  0   0  0  1      -1  0  0   0 -1  0   0  0 -1
                      -1  0  1   0 -1  1   0  0  1       1  0 -1   0  1 -1   0  0 -1
                       0  1 -1   1  0 -1   0  0 -1       0 -1  1  -1  0  1   0  0  1
                       0 -1  0  -1  0  0   0  0 -1       0  1  0   1  0  0   0  0  1
                       0  1 -1   0  1  0  -1  1  0       0 -1  1   0 -1  0   1 -1  0
                      -1  0  1  -1  0  0  -1  1  0       1  0 -1   1  0  0   1 -1  0
                       1  0  0   1  0 -1   1 -1  0      -1  0  0  -1  0  1  -1  1  0
                       0 -1  0   0 -1  1   1 -1  0       0  1  0   0  1 -1  -1  1  0
           symrel32    1  0  0   0  1  0   0  0  1      -1  0  1   0 -1  1   0  0  1
                       0  1 -1   1  0 -1   0  0 -1       0 -1  0  -1  0  0   0  0 -1
                       0  1 -1   0  1  0  -1  1  0      -1  0  1  -1  0  0  -1  1  0
                       1  0  0   1  0 -1   1 -1  0       0 -1  0   0 -1  1   1 -1  0
            tnons11    0.0000000  0.0000000  0.0000000     0.0000000  0.0000000  0.0000000
                       0.5000000  0.0000000  0.0000000     0.5000000  0.0000000  0.0000000
            tnons12    0.0000000  0.0000000  0.0000000     0.0000000  0.0000000  0.0000000
                       0.5000000  0.0000000  0.0000000     0.5000000  0.0000000  0.0000000
            tnons21    0.0000000  0.0000000  0.0000000     0.0000000  0.0000000  0.0000000
                       0.3333333  0.3333333  0.3333333     0.3333333  0.3333333  0.3333333
                      -0.3333333 -0.3333333 -0.3333333    -0.3333333 -0.3333333 -0.3333333
            tnons22    0.0000000  0.0000000  0.0000000     0.0000000  0.0000000  0.0000000
                       0.0000000  0.0000000  0.0000000     0.0000000  0.0000000  0.0000000
                       0.0000000  0.0000000  0.0000000     0.0000000  0.0000000  0.0000000
                       0.0000000  0.0000000  0.0000000     0.0000000  0.0000000  0.0000000
                       0.0000000  0.0000000  0.0000000     0.0000000  0.0000000  0.0000000
                       0.0000000  0.0000000  0.0000000     0.0000000  0.0000000  0.0000000
            tnons31    0.0000000  0.0000000  0.0000000     0.0000000  0.0000000  0.0000000
                       0.0000000  0.0000000  0.0000000     0.0000000  0.0000000  0.0000000
                       0.0000000  0.0000000  0.0000000     0.0000000  0.0000000  0.0000000
                       0.0000000  0.0000000  0.0000000     0.0000000  0.0000000  0.0000000
                       0.0000000  0.0000000  0.0000000     0.0000000  0.0000000  0.0000000
                       0.0000000  0.0000000  0.0000000     0.0000000  0.0000000  0.0000000
                       0.0000000  0.0000000  0.0000000     0.0000000  0.0000000  0.0000000
                       0.0000000  0.0000000  0.0000000     0.0000000  0.0000000  0.0000000
            tnons32    0.0000000  0.0000000  0.0000000     0.0000000  0.0000000  0.0000000
                       0.0000000  0.0000000  0.0000000     0.0000000  0.0000000  0.0000000
                       0.0000000  0.0000000  0.0000000     0.0000000  0.0000000  0.0000000
                       0.0000000  0.0000000  0.0000000     0.0000000  0.0000000  0.0000000
           tolvrs11    1.00000000E-10
           tolvrs12    1.00000000E-08
           tolvrs21    1.00000000E-08
           tolvrs22    1.00000000E-08
           tolvrs31    1.00000000E-08
           tolvrs32    1.00000000E-08
            typat11    1  1
            typat12    1  1
            typat21    1  1  1
            typat22    1  1  1
            typat31    1  1  1  1
            typat32    1  1  1  1
           xangst11    0.0000000000E+00  0.0000000000E+00  0.0000000000E+00
                       2.6458860429E+00  0.0000000000E+00  0.0000000000E+00
           xangst12    0.0000000000E+00  0.0000000000E+00  0.0000000000E+00
                       2.6458860429E+00  0.0000000000E+00  0.0000000000E+00
           xangst21    0.0000000000E+00  0.0000000000E+00  0.0000000000E+00
                       2.1167088344E+00  2.1167088344E+00  2.1167088344E+00
                       4.2334176687E+00  4.2334176687E+00  4.2334176687E+00
           xangst22    0.0000000000E+00  0.0000000000E+00  0.0000000000E+00
                       2.1167088344E+00  2.1167088344E+00  2.1167088344E+00
                       4.2334176687E+00  4.2334176687E+00  4.2334176687E+00
           xangst31    5.2917720859E-01  0.0000000000E+00  0.0000000000E+00
                       0.0000000000E+00  5.2917720859E-01  0.0000000000E+00
                      -5.2917720859E-01  0.0000000000E+00  0.0000000000E+00
                       0.0000000000E+00 -5.2917720859E-01  0.0000000000E+00
           xangst32    5.2917720859E-01  0.0000000000E+00  0.0000000000E+00
                       0.0000000000E+00  5.2917720859E-01  0.0000000000E+00
                      -5.2917720859E-01  0.0000000000E+00  0.0000000000E+00
                       0.0000000000E+00 -5.2917720859E-01  0.0000000000E+00
            xcart11    0.0000000000E+00  0.0000000000E+00  0.0000000000E+00
                       5.0000000000E+00  0.0000000000E+00  0.0000000000E+00
            xcart12    0.0000000000E+00  0.0000000000E+00  0.0000000000E+00
                       5.0000000000E+00  0.0000000000E+00  0.0000000000E+00
            xcart21    0.0000000000E+00  0.0000000000E+00  0.0000000000E+00
                       4.0000000000E+00  4.0000000000E+00  4.0000000000E+00
                       8.0000000000E+00  8.0000000000E+00  8.0000000000E+00
            xcart22    0.0000000000E+00  0.0000000000E+00  0.0000000000E+00
                       4.0000000000E+00  4.0000000000E+00  4.0000000000E+00
                       8.0000000000E+00  8.0000000000E+00  8.0000000000E+00
            xcart31    1.0000000000E+00  0.0000000000E+00  0.0000000000E+00
                       0.0000000000E+00  1.0000000000E+00  0.0000000000E+00
                      -1.0000000000E+00  0.0000000000E+00  0.0000000000E+00
                       0.0000000000E+00 -1.0000000000E+00  0.0000000000E+00
            xcart32    1.0000000000E+00  0.0000000000E+00  0.0000000000E+00
                       0.0000000000E+00  1.0000000000E+00  0.0000000000E+00
                      -1.0000000000E+00  0.0000000000E+00  0.0000000000E+00
                       0.0000000000E+00 -1.0000000000E+00  0.0000000000E+00
             xred11    0.0000000000E+00  0.0000000000E+00  0.0000000000E+00
                       5.0000000000E-01  0.0000000000E+00  0.0000000000E+00
             xred12    0.0000000000E+00  0.0000000000E+00  0.0000000000E+00
                       5.0000000000E-01  0.0000000000E+00  0.0000000000E+00
             xred21    0.0000000000E+00  0.0000000000E+00  0.0000000000E+00
                       3.3333333333E-01  3.3333333333E-01  3.3333333333E-01
                       6.6666666667E-01  6.6666666667E-01  6.6666666667E-01
             xred22    0.0000000000E+00  0.0000000000E+00  0.0000000000E+00
                       3.3333333333E-01  3.3333333333E-01  3.3333333333E-01
                       6.6666666667E-01  6.6666666667E-01  6.6666666667E-01
             xred31   -1.2500000000E-01  1.2500000000E-01  1.2500000000E-01
                       1.2500000000E-01 -1.2500000000E-01  1.2500000000E-01
                       1.2500000000E-01 -1.2500000000E-01 -1.2500000000E-01
                      -1.2500000000E-01  1.2500000000E-01 -1.2500000000E-01
             xred32   -1.2500000000E-01  1.2500000000E-01  1.2500000000E-01
                       1.2500000000E-01 -1.2500000000E-01  1.2500000000E-01
                       1.2500000000E-01 -1.2500000000E-01 -1.2500000000E-01
                      -1.2500000000E-01  1.2500000000E-01 -1.2500000000E-01
            znucl        1.00000

================================================================================


- Timing analysis has been suppressed with timopt=0



================================================================================

 Suggested references for the acknowledgment of ABINIT usage.

 The users of ABINIT have little formal obligations with respect to the ABINIT group
 (those specified in the GNU General Public License, http://www.gnu.org/copyleft/gpl.txt).
 However, it is common practice in the scientific literature,
 to acknowledge the efforts of people that have made the research possible.
 In this spirit, please find below suggested citations of work written by ABINIT developers,
 corresponding to implementations inside of ABINIT that you have used in the present run.
 Note also that it will be of great value to readers of publications presenting these results,
 to read papers enabling them to understand the theoretical formalism and details
 of the ABINIT implementation.
 For information on why they are suggested, see also https://docs.abinit.org/theory/acknowledgments.
-
- [1] The Abinit project: Impact, environment and recent developments.
- Computer Phys. Comm. 248, 107042 (2020).
- X.Gonze, B. Amadon, G. Antonius, F.Arnardi, L.Baguet, J.-M.Beuken,
- J.Bieder, F.Bottin, J.Bouchet, E.Bousquet, N.Brouwer, F.Bruneval,
- G.Brunin, T.Cavignac, J.-B. Charraud, Wei Chen, M.Cote, S.Cottenier,
- J.Denier, G.Geneste, Ph.Ghosez, M.Giantomassi, Y.Gillet, O.Gingras,
- D.R.Hamann, G.Hautier, Xu He, N.Helbig, N.Holzwarth, Y.Jia, F.Jollet,
- W.Lafargue-Dit-Hauret, K.Lejaeghere, M.A.L.Marques, A.Martin, C.Martins,
- H.P.C. Miranda, F.Naccarato, K. Persson, G.Petretto, V.Planes, Y.Pouillon,
- S.Prokhorenko, F.Ricci, G.-M.Rignanese, A.H.Romero, M.M.Schmitt, M.Torrent,
- M.J.van Setten, B.Van Troeye, M.J.Verstraete, G.Zerah and J.W.Zwanzig
- Comment: the fifth generic paper describing the ABINIT project.
- Note that a version of this paper, that is not formatted for Computer Phys. Comm. 
- is available at https://www.abinit.org/sites/default/files/ABINIT20.pdf .
- The licence allows the authors to put it on the Web.
- DOI and bibtex: see https://docs.abinit.org/theory/bibliography/#gonze2020
-
- [2] ABINIT: Overview, and focus on selected capabilities
- J. Chem. Phys. 152, 124102 (2020).
- A. Romero, D.C. Allan, B. Amadon, G. Antonius, T. Applencourt, L.Baguet,
- J.Bieder, F.Bottin, J.Bouchet, E.Bousquet, F.Bruneval,
- G.Brunin, D.Caliste, M.Cote,
- J.Denier, C. Dreyer, Ph.Ghosez, M.Giantomassi, Y.Gillet, O.Gingras,
- D.R.Hamann, G.Hautier, F.Jollet, G. Jomard,
- A.Martin, 
- H.P.C. Miranda, F.Naccarato, G.Petretto, N.A. Pike, V.Planes,
- S.Prokhorenko, T. Rangel, F.Ricci, G.-M.Rignanese, M.Royo, M.Stengel, M.Torrent,
- M.J.van Setten, B.Van Troeye, M.J.Verstraete, J.Wiktor, J.W.Zwanziger, and X.Gonze.
- Comment: a global overview of ABINIT, with focus on selected capabilities .
- Note that a version of this paper, that is not formatted for J. Chem. Phys 
- is available at https://www.abinit.org/sites/default/files/ABINIT20_JPC.pdf .
- The licence allows the authors to put it on the Web.
- DOI and bibtex: see https://docs.abinit.org/theory/bibliography/#romero2020
-
- [3] Recent developments in the ABINIT software package.
- Computer Phys. Comm. 205, 106 (2016).
- X.Gonze, F.Jollet, F.Abreu Araujo, D.Adams, B.Amadon, T.Applencourt,
- C.Audouze, J.-M.Beuken, J.Bieder, A.Bokhanchuk, E.Bousquet, F.Bruneval
- D.Caliste, M.Cote, F.Dahm, F.Da Pieve, M.Delaveau, M.Di Gennaro,
- B.Dorado, C.Espejo, G.Geneste, L.Genovese, A.Gerossier, M.Giantomassi,
- Y.Gillet, D.R.Hamann, L.He, G.Jomard, J.Laflamme Janssen, S.Le Roux,
- A.Levitt, A.Lherbier, F.Liu, I.Lukacevic, A.Martin, C.Martins,
- M.J.T.Oliveira, S.Ponce, Y.Pouillon, T.Rangel, G.-M.Rignanese,
- A.H.Romero, B.Rousseau, O.Rubel, A.A.Shukri, M.Stankovski, M.Torrent,
- M.J.Van Setten, B.Van Troeye, M.J.Verstraete, D.Waroquier, J.Wiktor,
- B.Xu, A.Zhou, J.W.Zwanziger.
- Comment: the fourth generic paper describing the ABINIT project.
- Note that a version of this paper, that is not formatted for Computer Phys. Comm. 
- is available at https://www.abinit.org/sites/default/files/ABINIT16.pdf .
- The licence allows the authors to put it on the Web.
- DOI and bibtex: see https://docs.abinit.org/theory/bibliography/#gonze2016
-
- And optionally:
-
- [4] ABINIT: First-principles approach of materials and nanosystem properties.
- Computer Phys. Comm. 180, 2582-2615 (2009).
- X. Gonze, B. Amadon, P.-M. Anglade, J.-M. Beuken, F. Bottin, P. Boulanger, F. Bruneval,
- D. Caliste, R. Caracas, M. Cote, T. Deutsch, L. Genovese, Ph. Ghosez, M. Giantomassi
- S. Goedecker, D.R. Hamann, P. Hermet, F. Jollet, G. Jomard, S. Leroux, M. Mancini, S. Mazevet,
- M.J.T. Oliveira, G. Onida, Y. Pouillon, T. Rangel, G.-M. Rignanese, D. Sangalli, R. Shaltaf,
- M. Torrent, M.J. Verstraete, G. Zerah, J.W. Zwanziger
- Comment: the third generic paper describing the ABINIT project.
- Note that a version of this paper, that is not formatted for Computer Phys. Comm. 
- is available at https://www.abinit.org/sites/default/files/ABINIT_CPC_v10.pdf .
- The licence allows the authors to put it on the Web.
- DOI and bibtex: see https://docs.abinit.org/theory/bibliography/#gonze2009
-
- Proc.   0 individual time (sec): cpu=          4.6  wall=          4.6

================================================================================

 Calculation completed.
.Delivered  86 WARNINGs and  37 COMMENTs to log file.
+Overall time at end (sec) : cpu=          4.6  wall=          4.6
