
.Version 9.0.0 of ABINIT 
.(MPI version, prepared for a x86_64_linux_gnu9.2 computer) 

.Copyright (C) 1998-2020 ABINIT group . 
 ABINIT comes with ABSOLUTELY NO WARRANTY.
 It is free software, and you are welcome to redistribute it
 under certain conditions (GNU General Public License,
 see ~abinit/COPYING or http://www.gnu.org/copyleft/gpl.txt).

 ABINIT is a project of the Universite Catholique de Louvain,
 Corning Inc. and other collaborators, see ~abinit/doc/developers/contributors.txt .
 Please read https://docs.abinit.org/theory/acknowledgments for suggested
 acknowledgments of the ABINIT effort.
 For more information, see https://www.abinit.org .

.Starting date : Mon 24 Feb 2020.
- ( at 16h41 )
  
- input  file    -> /home/gmatteo/git_repos/abinit/_abiref_gnu9.2_openmpi/tests/Test_suite/libxc_t13/t13.in
- output file    -> t13.out
- root for input  files -> t13i
- root for output files -> t13o


 DATASET    1 : space group Fm -3 m (#225); Bravais cF (face-center cubic)
================================================================================
 Values of the parameters that define the memory need for DATASET  1.
     intxc =       0    ionmov =       0      iscf =       7    lmnmax =       2
     lnmax =       2     mgfft =      36  mpssoang =       2    mqgrid =    3001
     natom =       1  nloc_mem =       1    nspden =       1   nspinor =       1
    nsppol =       1      nsym =      48    n1xccc =       0    ntypat =       1
    occopt =       0   xclevel =       2
-    mband =           4        mffmem =           1         mkmem =           1
       mpw =         919          nfft =       46656          nkpt =           1
================================================================================
P This job should need less than                      14.764 Mbytes of memory.
  Rough estimation (10% accuracy) of disk space for files :
_ WF disk file :      0.058 Mbytes ; DEN or POT disk file :      0.358 Mbytes.
================================================================================


 DATASET    2 : space group Fm -3 m (#225); Bravais cF (face-center cubic)
================================================================================
 Values of the parameters that define the memory need for DATASET  2.
     intxc =       0    ionmov =       0      iscf =       7    lmnmax =       2
     lnmax =       2     mgfft =      36  mpssoang =       2    mqgrid =    3001
     natom =       1  nloc_mem =       1    nspden =       1   nspinor =       1
    nsppol =       1      nsym =      48    n1xccc =       0    ntypat =       1
    occopt =       0   xclevel =       2
-    mband =           4        mffmem =           1         mkmem =           1
       mpw =         919          nfft =       46656          nkpt =           1
================================================================================
P This job should need less than                      14.764 Mbytes of memory.
  Rough estimation (10% accuracy) of disk space for files :
_ WF disk file :      0.058 Mbytes ; DEN or POT disk file :      0.358 Mbytes.
================================================================================


 DATASET    3 : space group Fm -3 m (#225); Bravais cF (face-center cubic)
================================================================================
 Values of the parameters that define the memory need for DATASET  3.
     intxc =       0    ionmov =       0      iscf =       7    lmnmax =       2
     lnmax =       2     mgfft =      36  mpssoang =       2    mqgrid =    3001
     natom =       1  nloc_mem =       1    nspden =       1   nspinor =       1
    nsppol =       1      nsym =      48    n1xccc =       0    ntypat =       1
    occopt =       0   xclevel =       2
-    mband =           4        mffmem =           1         mkmem =           1
       mpw =         919          nfft =       46656          nkpt =           1
================================================================================
P This job should need less than                      14.764 Mbytes of memory.
  Rough estimation (10% accuracy) of disk space for files :
_ WF disk file :      0.058 Mbytes ; DEN or POT disk file :      0.358 Mbytes.
================================================================================


 DATASET    4 : space group Fm -3 m (#225); Bravais cF (face-center cubic)
================================================================================
 Values of the parameters that define the memory need for DATASET  4.
     intxc =       0    ionmov =       0      iscf =       7    lmnmax =       2
     lnmax =       2     mgfft =      36  mpssoang =       2    mqgrid =    3001
     natom =       1  nloc_mem =       1    nspden =       1   nspinor =       1
    nsppol =       1      nsym =      48    n1xccc =       0    ntypat =       1
    occopt =       0   xclevel =       2
-    mband =           4        mffmem =           1         mkmem =           1
       mpw =         919          nfft =       46656          nkpt =           1
================================================================================
P This job should need less than                      14.764 Mbytes of memory.
  Rough estimation (10% accuracy) of disk space for files :
_ WF disk file :      0.058 Mbytes ; DEN or POT disk file :      0.358 Mbytes.
================================================================================

--------------------------------------------------------------------------------
------------- Echo of variables that govern the present computation ------------
--------------------------------------------------------------------------------
-
- outvars: echo of selected default values                                      
-   iomode0 =  0 , fftalg0 =312 , wfoptalg0 =  0
-
- outvars: echo of global parameters not present in the input file              
-  max_nthreads =    0
-
 -outvars: echo values of preprocessed input variables --------
            acell      1.2000000000E+01  1.2000000000E+01  1.2000000000E+01 Bohr
              amu      1.20110000E+01
           diemac      1.00000000E+00
           diemix      7.00000000E-01
             ecut      2.00000000E+01 Hartree
-          fftalg         312
           istwfk        2
              ixc1     -12207
              ixc2     -12208
              ixc3     -12209
              ixc4     -12208
           jdtset        1    2    3    4
           kptopt           0
P           mkmem           1
            natom           1
            nband           4
           ndtset           4
            ngfft          36      36      36
             nkpt           1
            nstep1         10
            nstep2         15
            nstep3         10
            nstep4         15
             nsym          48
           ntypat           1
              occ      2.000000  0.666667  0.666667  0.666667
           occopt           0
          prtkden           1
            rprim      5.0000000000E-01  5.0000000000E-01  0.0000000000E+00
                       0.0000000000E+00  5.0000000000E-01  5.0000000000E-01
                       5.0000000000E-01  0.0000000000E+00  5.0000000000E-01
          spgroup         225
           symrel      1  0  0   0  1  0   0  0  1      -1  0  0   0 -1  0   0  0 -1
                       0 -1  1   0 -1  0   1 -1  0       0  1 -1   0  1  0  -1  1  0
                      -1  0  0  -1  0  1  -1  1  0       1  0  0   1  0 -1   1 -1  0
                       0  1 -1   1  0 -1   0  0 -1       0 -1  1  -1  0  1   0  0  1
                      -1  0  0  -1  1  0  -1  0  1       1  0  0   1 -1  0   1  0 -1
                       0 -1  1   1 -1  0   0 -1  0       0  1 -1  -1  1  0   0  1  0
                       1  0  0   0  0  1   0  1  0      -1  0  0   0  0 -1   0 -1  0
                       0  1 -1   0  0 -1   1  0 -1       0 -1  1   0  0  1  -1  0  1
                      -1  0  1  -1  1  0  -1  0  0       1  0 -1   1 -1  0   1  0  0
                       0 -1  0   1 -1  0   0 -1  1       0  1  0  -1  1  0   0  1 -1
                       1  0 -1   0  0 -1   0  1 -1      -1  0  1   0  0  1   0 -1  1
                       0  1  0   0  0  1   1  0  0       0 -1  0   0  0 -1  -1  0  0
                       1  0 -1   0  1 -1   0  0 -1      -1  0  1   0 -1  1   0  0  1
                       0 -1  0   0 -1  1   1 -1  0       0  1  0   0  1 -1  -1  1  0
                      -1  0  1  -1  0  0  -1  1  0       1  0 -1   1  0  0   1 -1  0
                       0  1  0   1  0  0   0  0  1       0 -1  0  -1  0  0   0  0 -1
                       0  0 -1   0  1 -1   1  0 -1       0  0  1   0 -1  1  -1  0  1
                       1 -1  0   0 -1  1   0 -1  0      -1  1  0   0  1 -1   0  1  0
                       0  0  1   1  0  0   0  1  0       0  0 -1  -1  0  0   0 -1  0
                      -1  1  0  -1  0  0  -1  0  1       1 -1  0   1  0  0   1  0 -1
                       0  0  1   0  1  0   1  0  0       0  0 -1   0 -1  0  -1  0  0
                       1 -1  0   0 -1  0   0 -1  1      -1  1  0   0  1  0   0  1 -1
                       0  0 -1   1  0 -1   0  1 -1       0  0  1  -1  0  1   0 -1  1
                      -1  1  0  -1  0  1  -1  0  0       1 -1  0   1  0 -1   1  0  0
           tolvrs      1.00000000E-16
            typat      1
          usekden           1
        xc_denpos      1.00000000E-07
        xc_tb09_c1     9.99900000E+01
        xc_tb09_c2     9.99900000E+01
        xc_tb09_c3     9.99900000E+01
        xc_tb09_c4     1.58000000E+00
            znucl        6.00000

================================================================================

 chkinp: Checking input parameters for consistency, jdtset=   1.

 chkinp: Checking input parameters for consistency, jdtset=   2.

 chkinp: Checking input parameters for consistency, jdtset=   3.

 chkinp: Checking input parameters for consistency, jdtset=   4.

================================================================================
== DATASET  1 ==================================================================
-   mpi_nproc: 1, omp_nthreads: -1 (-1 if OMP is not activated)


--- !DatasetInfo
iteration_state: {dtset: 1, }
dimensions: {natom: 1, nkpt: 1, mband: 4, nsppol: 1, nspinor: 1, nspden: 1, mpw: 919, }
cutoff_energies: {ecut:  20.0, pawecutdg:  -1.0, }
electrons: {nelect:   4.00000000E+00, charge:   0.00000000E+00, occopt:   0.00000000E+00, tsmear:   1.00000000E-02, }
meta: {optdriver: 0, ionmov: 0, optcell: 0, iscf: 7, paral_kgb: 0, }
...

 Real(R)+Recip(G) space primitive vectors, cartesian coordinates (Bohr,Bohr^-1):
 R(1)=  6.0000000  6.0000000  0.0000000  G(1)=  0.0833333  0.0833333 -0.0833333
 R(2)=  0.0000000  6.0000000  6.0000000  G(2)= -0.0833333  0.0833333  0.0833333
 R(3)=  6.0000000  0.0000000  6.0000000  G(3)=  0.0833333 -0.0833333  0.0833333
 Unit cell volume ucvol=  4.3200000E+02 bohr^3
 Angles (23,13,12)=  6.00000000E+01  6.00000000E+01  6.00000000E+01 degrees

 getcut: wavevector=  0.0000  0.0000  0.0000  ngfft=  36  36  36
         ecut(hartree)=     20.000   => boxcut(ratio)=   2.10744

--- Pseudopotential description ------------------------------------------------
- pspini: atom type   1  psp file is /home/gmatteo/git_repos/abinit/tests/Psps_for_tests/6-C.fhi
- pspatm: opening atomic psp file    /home/gmatteo/git_repos/abinit/tests/Psps_for_tests/6-C.fhi
-    C  APE 1.0 : Troullier-Martins scheme, , llocal= 1
-  6.00000   4.00000  20100127                znucl, zion, pspdat
    6    0    1    1       400   0.00000      pspcod,pspxc,lmax,lloc,mmax,r2well
    0.00000000000000    0.00000000000000    0.00000000000000   rchrg,fchrg,qchrg
  1.038086          amesh (Hamman grid)
  pspatm : epsatm=    0.13429536
         --- l  ekb(1:nproj) -->
             0    5.611174
 pspatm: atomic psp has been read  and splines computed

   5.37181436E-01                                ecore*ucvol(ha*bohr**3)
--------------------------------------------------------------------------------

_setup2: Arith. and geom. avg. npw (full set) are    1837.000    1837.000

================================================================================

--- !BeginCycle
iteration_state: {dtset: 1, }
solver: {iscf: 7, nstep: 10, nline: 4, wfoptalg: 0, }
tolerances: {tolvrs: 1.00E-16, }
...

     iter   Etot(hartree)      deltaE(h)  residm     vres2
 ETOT  1  -4.1931212376595    -4.193E+00 1.265E-02 9.365E+01
 ETOT  2  -4.1942069558565    -1.086E-03 8.103E-08 1.628E+01
 ETOT  3  -4.1851088111195     9.098E-03 1.800E-06 7.294E-01
 ETOT  4  -4.1850295017085     7.931E-05 8.404E-08 2.509E-02
 ETOT  5  -4.1846664304110     3.631E-04 7.818E-10 6.651E-04
 ETOT  6  -4.1846596034206     6.827E-06 2.551E-12 2.142E-05
 ETOT  7  -4.1846646632863    -5.060E-06 1.686E-12 1.415E-07
 ETOT  8  -4.1846643169965     3.463E-07 4.791E-15 2.785E-09
 ETOT  9  -4.1846644615662    -1.446E-07 1.492E-16 2.013E-10
 ETOT 10  -4.1846644361981     2.537E-08 6.632E-18 5.163E-13

Result for kinetic energy density :

--------------------------------------------------------------------------------
 Total kinetic energy density [Ha/Bohr^3]
      Maximum=    1.3298E+00  at reduced coord.    0.0000    0.0000    0.0000
      Minimum=    1.1882E-05  at reduced coord.    0.5000    0.5000    0.5000
   Integrated=    3.1978E+00
--------------------------------------------------------------------------------

 Cartesian components of stress tensor (hartree/bohr^3)
  sigma(1 1)=  2.99501753E-03  sigma(3 2)=  0.00000000E+00
  sigma(2 2)=  2.99501753E-03  sigma(3 1)=  0.00000000E+00
  sigma(3 3)=  2.99501753E-03  sigma(2 1)=  0.00000000E+00


 scprqt:  WARNING -
  nstep=   10 was not enough SCF cycles to converge;
  potential residual=  5.163E-13 exceeds tolvrs=  1.000E-16


--- !ResultsGS
iteration_state: {dtset: 1, }
comment   : Summary of ground state results
lattice_vectors:
- [  6.0000000,   6.0000000,   0.0000000, ]
- [  0.0000000,   6.0000000,   6.0000000, ]
- [  6.0000000,   0.0000000,   6.0000000, ]
lattice_lengths: [   8.48528,    8.48528,    8.48528, ]
lattice_angles: [ 60.000,  60.000,  60.000, ] # degrees, (23, 13, 12)
lattice_volume:   4.3200000E+02
convergence: {deltae:  2.537E-08, res2:  5.163E-13, residm:  6.632E-18, diffor: null, }
etotal    :  -4.18466444E+00
entropy   :   0.00000000E+00
fermie    :  -1.10430085E-01
cartesian_stress_tensor: # hartree/bohr^3
- [  2.99501753E-03,   0.00000000E+00,   0.00000000E+00, ]
- [  0.00000000E+00,   2.99501753E-03,   0.00000000E+00, ]
- [  0.00000000E+00,   0.00000000E+00,   2.99501753E-03, ]
pressure_GPa:  -8.8116E+01
xred      :
- [  0.0000E+00,   0.0000E+00,   0.0000E+00,  C]
cartesian_forces: # hartree/bohr
- [ -0.00000000E+00,  -0.00000000E+00,  -0.00000000E+00, ]
force_length_stats: {min:   0.00000000E+00, max:   0.00000000E+00, mean:   0.00000000E+00, }
...

 Integrated electronic density in atomic spheres:
 ------------------------------------------------
 Atom  Sphere_radius  Integrated_density
    1        2.00000          2.86936530
================================================================================

 ----iterations are completed or convergence reached----

 Mean square residual over all n,k,spin=   24.401E-19; max=  66.316E-19
 reduced coordinates (array xred) for    1 atoms
       0.000000000000      0.000000000000      0.000000000000
 rms dE/dt=  0.0000E+00; max dE/dt=  0.0000E+00; dE/dt below (all hartree)
    1       0.000000000000      0.000000000000      0.000000000000

 cartesian coordinates (angstrom) at end:
    1      0.00000000000000     0.00000000000000     0.00000000000000

 cartesian forces (hartree/bohr) at end:
    1     -0.00000000000000    -0.00000000000000    -0.00000000000000
 frms,max,avg= 0.0000000E+00 0.0000000E+00   0.000E+00  0.000E+00  0.000E+00 h/b

 cartesian forces (eV/Angstrom) at end:
    1     -0.00000000000000    -0.00000000000000    -0.00000000000000
 frms,max,avg= 0.0000000E+00 0.0000000E+00   0.000E+00  0.000E+00  0.000E+00 e/A
 length scales= 12.000000000000 12.000000000000 12.000000000000 bohr
              =  6.350126503080  6.350126503080  6.350126503080 angstroms
 prteigrs : about to open file t13o_DS1_EIG
 Fermi (or HOMO) energy (hartree) =  -0.11043   Average Vxc (hartree)=  -0.14015
 Eigenvalues (hartree) for nkpt=   1  k points:
 kpt#   1, nband=  4, wtk=  1.00000, kpt=  0.0000  0.0000  0.0000 (reduced coord)
  -0.44364   -0.11043   -0.11043   -0.11043

--- !EnergyTerms
iteration_state     : {dtset: 1, }
comment             : Components of total free energy in Hartree
kinetic             :  3.19775960515681E+00
hartree             :  1.61317442492186E+00
xc                  : -1.94965271001250E-01
Ewald energy        : -3.05657471607587E+00
psp_core            :  1.24347554578084E-03
local_psp           : -6.60587804699505E+00
non_local_psp       :  8.60576092249628E-01
total_energy        : -4.18466443619810E+00
total_energy_eV     : -1.13870510298677E+02
band_energy         : -1.10814453004049E+00
...


 Cartesian components of stress tensor (hartree/bohr^3)
  sigma(1 1)=  2.99501753E-03  sigma(3 2)=  0.00000000E+00
  sigma(2 2)=  2.99501753E-03  sigma(3 1)=  0.00000000E+00
  sigma(3 3)=  2.99501753E-03  sigma(2 1)=  0.00000000E+00

-Cartesian components of stress tensor (GPa)         [Pressure= -8.8116E+01 GPa]
- sigma(1 1)=  8.81164431E+01  sigma(3 2)=  0.00000000E+00
- sigma(2 2)=  8.81164431E+01  sigma(3 1)=  0.00000000E+00
- sigma(3 3)=  8.81164431E+01  sigma(2 1)=  0.00000000E+00

================================================================================
== DATASET  2 ==================================================================
-   mpi_nproc: 1, omp_nthreads: -1 (-1 if OMP is not activated)


--- !DatasetInfo
iteration_state: {dtset: 2, }
dimensions: {natom: 1, nkpt: 1, mband: 4, nsppol: 1, nspinor: 1, nspden: 1, mpw: 919, }
cutoff_energies: {ecut:  20.0, pawecutdg:  -1.0, }
electrons: {nelect:   4.00000000E+00, charge:   0.00000000E+00, occopt:   0.00000000E+00, tsmear:   1.00000000E-02, }
meta: {optdriver: 0, ionmov: 0, optcell: 0, iscf: 7, paral_kgb: 0, }
...

 Real(R)+Recip(G) space primitive vectors, cartesian coordinates (Bohr,Bohr^-1):
 R(1)=  6.0000000  6.0000000  0.0000000  G(1)=  0.0833333  0.0833333 -0.0833333
 R(2)=  0.0000000  6.0000000  6.0000000  G(2)= -0.0833333  0.0833333  0.0833333
 R(3)=  6.0000000  0.0000000  6.0000000  G(3)=  0.0833333 -0.0833333  0.0833333
 Unit cell volume ucvol=  4.3200000E+02 bohr^3
 Angles (23,13,12)=  6.00000000E+01  6.00000000E+01  6.00000000E+01 degrees

 getcut: wavevector=  0.0000  0.0000  0.0000  ngfft=  36  36  36
         ecut(hartree)=     20.000   => boxcut(ratio)=   2.10744

--- Pseudopotential description ------------------------------------------------
- pspini: atom type   1  psp file is /home/gmatteo/git_repos/abinit/tests/Psps_for_tests/6-C.fhi
- pspatm: opening atomic psp file    /home/gmatteo/git_repos/abinit/tests/Psps_for_tests/6-C.fhi
-    C  APE 1.0 : Troullier-Martins scheme, , llocal= 1
-  6.00000   4.00000  20100127                znucl, zion, pspdat
    6    0    1    1       400   0.00000      pspcod,pspxc,lmax,lloc,mmax,r2well
    0.00000000000000    0.00000000000000    0.00000000000000   rchrg,fchrg,qchrg
  1.038086          amesh (Hamman grid)
  pspatm : epsatm=    0.13429536
         --- l  ekb(1:nproj) -->
             0    5.611174
 pspatm: atomic psp has been read  and splines computed

--------------------------------------------------------------------------------

_setup2: Arith. and geom. avg. npw (full set) are    1837.000    1837.000

================================================================================

--- !BeginCycle
iteration_state: {dtset: 2, }
solver: {iscf: 7, nstep: 15, nline: 4, wfoptalg: 0, }
tolerances: {tolvrs: 1.00E-16, }
...

     iter   Etot(hartree)      deltaE(h)  residm     vres2
 ETOT  1  -3.9841826586614    -3.984E+00 3.951E-03 5.328E+02
 ETOT  2  -4.1259050847095    -1.417E-01 7.067E-08 7.401E+01
 ETOT  3  -4.1201004133027     5.805E-03 4.101E-06 2.091E+01
 ETOT  4  -4.1047883473913     1.531E-02 4.291E-06 2.914E+00
 ETOT  5  -4.0962924777231     8.496E-03 4.886E-07 3.953E-01
 ETOT  6  -4.0957159721088     5.765E-04 3.755E-10 4.600E-02
 ETOT  7  -4.0956192405805     9.673E-05 5.168E-10 1.872E-03
 ETOT  8  -4.0955699796979     4.926E-05 6.125E-12 7.473E-04
 ETOT  9  -4.0954710385798     9.894E-05 9.959E-11 8.621E-06
 ETOT 10  -4.0954596964842     1.134E-05 1.576E-12 1.260E-06
 ETOT 11  -4.0954583339013     1.363E-06 4.681E-14 8.226E-08
 ETOT 12  -4.0954588527922    -5.189E-07 2.577E-15 9.888E-09
 ETOT 13  -4.0954588378502     1.494E-08 4.630E-17 6.686E-10
 ETOT 14  -4.0954588402807    -2.430E-09 5.768E-18 5.037E-12
 ETOT 15  -4.0954588398932     3.875E-10 8.935E-20 4.856E-13

Result for kinetic energy density :

--------------------------------------------------------------------------------
 Total kinetic energy density [Ha/Bohr^3]
      Maximum=    1.3020E+00  at reduced coord.    0.0000    0.0000    0.0000
      Minimum=    1.8532E-06  at reduced coord.    0.5000    0.5000    0.5000
   Integrated=    3.4424E+00
--------------------------------------------------------------------------------

 Cartesian components of stress tensor (hartree/bohr^3)
  sigma(1 1)=  2.37651026E-03  sigma(3 2)=  0.00000000E+00
  sigma(2 2)=  2.37651026E-03  sigma(3 1)=  0.00000000E+00
  sigma(3 3)=  2.37651026E-03  sigma(2 1)=  0.00000000E+00


 scprqt:  WARNING -
  nstep=   15 was not enough SCF cycles to converge;
  potential residual=  4.856E-13 exceeds tolvrs=  1.000E-16


--- !ResultsGS
iteration_state: {dtset: 2, }
comment   : Summary of ground state results
lattice_vectors:
- [  6.0000000,   6.0000000,   0.0000000, ]
- [  0.0000000,   6.0000000,   6.0000000, ]
- [  6.0000000,   0.0000000,   6.0000000, ]
lattice_lengths: [   8.48528,    8.48528,    8.48528, ]
lattice_angles: [ 60.000,  60.000,  60.000, ] # degrees, (23, 13, 12)
lattice_volume:   4.3200000E+02
convergence: {deltae:  3.875E-10, res2:  4.856E-13, residm:  8.935E-20, diffor: null, }
etotal    :  -4.09545884E+00
entropy   :   0.00000000E+00
fermie    :  -1.02755187E-03
cartesian_stress_tensor: # hartree/bohr^3
- [  2.37651026E-03,   0.00000000E+00,   0.00000000E+00, ]
- [  0.00000000E+00,   2.37651026E-03,   0.00000000E+00, ]
- [  0.00000000E+00,   0.00000000E+00,   2.37651026E-03, ]
pressure_GPa:  -6.9919E+01
xred      :
- [  0.0000E+00,   0.0000E+00,   0.0000E+00,  C]
cartesian_forces: # hartree/bohr
- [ -0.00000000E+00,  -0.00000000E+00,  -0.00000000E+00, ]
force_length_stats: {min:   0.00000000E+00, max:   0.00000000E+00, mean:   0.00000000E+00, }
...

 Integrated electronic density in atomic spheres:
 ------------------------------------------------
 Atom  Sphere_radius  Integrated_density
    1        2.00000          3.05536997
================================================================================

 ----iterations are completed or convergence reached----

 Mean square residual over all n,k,spin=   55.244E-21; max=  89.348E-21
 reduced coordinates (array xred) for    1 atoms
       0.000000000000      0.000000000000      0.000000000000
 rms dE/dt=  0.0000E+00; max dE/dt=  0.0000E+00; dE/dt below (all hartree)
    1       0.000000000000      0.000000000000      0.000000000000

 cartesian coordinates (angstrom) at end:
    1      0.00000000000000     0.00000000000000     0.00000000000000

 cartesian forces (hartree/bohr) at end:
    1     -0.00000000000000    -0.00000000000000    -0.00000000000000
 frms,max,avg= 0.0000000E+00 0.0000000E+00   0.000E+00  0.000E+00  0.000E+00 h/b

 cartesian forces (eV/Angstrom) at end:
    1     -0.00000000000000    -0.00000000000000    -0.00000000000000
 frms,max,avg= 0.0000000E+00 0.0000000E+00   0.000E+00  0.000E+00  0.000E+00 e/A
 length scales= 12.000000000000 12.000000000000 12.000000000000 bohr
              =  6.350126503080  6.350126503080  6.350126503080 angstroms
 prteigrs : about to open file t13o_DS2_EIG
 Fermi (or HOMO) energy (hartree) =  -0.00103   Average Vxc (hartree)=   0.14845
 Eigenvalues (hartree) for nkpt=   1  k points:
 kpt#   1, nband=  4, wtk=  1.00000, kpt=  0.0000  0.0000  0.0000 (reduced coord)
  -0.34395   -0.00103   -0.00103   -0.00103

--- !EnergyTerms
iteration_state     : {dtset: 2, }
comment             : Components of total free energy in Hartree
kinetic             :  3.44242914734620E+00
hartree             :  1.80710576657561E+00
xc                  : -1.99964331868419E-01
Ewald energy        : -3.05657471607587E+00
psp_core            :  1.24347554578084E-03
local_psp           : -6.93267992143421E+00
non_local_psp       :  8.42981740017746E-01
total_energy        : -4.09545883989317E+00
total_energy_eV     : -1.11443102575163E+02
band_energy         : -6.89950211706110E-01
...


 Cartesian components of stress tensor (hartree/bohr^3)
  sigma(1 1)=  2.37651026E-03  sigma(3 2)=  0.00000000E+00
  sigma(2 2)=  2.37651026E-03  sigma(3 1)=  0.00000000E+00
  sigma(3 3)=  2.37651026E-03  sigma(2 1)=  0.00000000E+00

-Cartesian components of stress tensor (GPa)         [Pressure= -6.9919E+01 GPa]
- sigma(1 1)=  6.99193340E+01  sigma(3 2)=  0.00000000E+00
- sigma(2 2)=  6.99193340E+01  sigma(3 1)=  0.00000000E+00
- sigma(3 3)=  6.99193340E+01  sigma(2 1)=  0.00000000E+00

================================================================================
== DATASET  3 ==================================================================
-   mpi_nproc: 1, omp_nthreads: -1 (-1 if OMP is not activated)


--- !DatasetInfo
iteration_state: {dtset: 3, }
dimensions: {natom: 1, nkpt: 1, mband: 4, nsppol: 1, nspinor: 1, nspden: 1, mpw: 919, }
cutoff_energies: {ecut:  20.0, pawecutdg:  -1.0, }
electrons: {nelect:   4.00000000E+00, charge:   0.00000000E+00, occopt:   0.00000000E+00, tsmear:   1.00000000E-02, }
meta: {optdriver: 0, ionmov: 0, optcell: 0, iscf: 7, paral_kgb: 0, }
...

 Real(R)+Recip(G) space primitive vectors, cartesian coordinates (Bohr,Bohr^-1):
 R(1)=  6.0000000  6.0000000  0.0000000  G(1)=  0.0833333  0.0833333 -0.0833333
 R(2)=  0.0000000  6.0000000  6.0000000  G(2)= -0.0833333  0.0833333  0.0833333
 R(3)=  6.0000000  0.0000000  6.0000000  G(3)=  0.0833333 -0.0833333  0.0833333
 Unit cell volume ucvol=  4.3200000E+02 bohr^3
 Angles (23,13,12)=  6.00000000E+01  6.00000000E+01  6.00000000E+01 degrees

 getcut: wavevector=  0.0000  0.0000  0.0000  ngfft=  36  36  36
         ecut(hartree)=     20.000   => boxcut(ratio)=   2.10744

--- Pseudopotential description ------------------------------------------------
- pspini: atom type   1  psp file is /home/gmatteo/git_repos/abinit/tests/Psps_for_tests/6-C.fhi
- pspatm: opening atomic psp file    /home/gmatteo/git_repos/abinit/tests/Psps_for_tests/6-C.fhi
-    C  APE 1.0 : Troullier-Martins scheme, , llocal= 1
-  6.00000   4.00000  20100127                znucl, zion, pspdat
    6    0    1    1       400   0.00000      pspcod,pspxc,lmax,lloc,mmax,r2well
    0.00000000000000    0.00000000000000    0.00000000000000   rchrg,fchrg,qchrg
  1.038086          amesh (Hamman grid)
  pspatm : epsatm=    0.13429536
         --- l  ekb(1:nproj) -->
             0    5.611174
 pspatm: atomic psp has been read  and splines computed

--------------------------------------------------------------------------------

_setup2: Arith. and geom. avg. npw (full set) are    1837.000    1837.000

================================================================================

--- !BeginCycle
iteration_state: {dtset: 3, }
solver: {iscf: 7, nstep: 10, nline: 4, wfoptalg: 0, }
tolerances: {tolvrs: 1.00E-16, }
...

     iter   Etot(hartree)      deltaE(h)  residm     vres2
 ETOT  1  -4.1931212376595    -4.193E+00 1.265E-02 2.259E+02
 ETOT  2  -4.2116140429936    -1.849E-02 1.049E-07 5.328E+01
 ETOT  3  -4.2077411960082     3.873E-03 1.191E-06 2.320E+00
 ETOT  4  -4.2080914072118    -3.502E-04 1.990E-08 3.825E-02
 ETOT  5  -4.2078990438881     1.924E-04 3.633E-10 4.848E-04
 ETOT  6  -4.2079301063356    -3.106E-05 8.597E-11 2.448E-05
 ETOT  7  -4.2079288111748     1.295E-06 1.238E-13 4.993E-08
 ETOT  8  -4.2079287083588     1.028E-07 2.311E-15 7.632E-10
 ETOT  9  -4.2079287223685    -1.401E-08 1.569E-17 1.535E-11
 ETOT 10  -4.2079287235377    -1.169E-09 1.749E-19 5.806E-14

Result for kinetic energy density :

--------------------------------------------------------------------------------
 Total kinetic energy density [Ha/Bohr^3]
      Maximum=    1.2067E+00  at reduced coord.    0.0000    0.0000    0.0000
      Minimum=    1.3691E-05  at reduced coord.    0.5000    0.5000    0.5000
   Integrated=    3.0031E+00
--------------------------------------------------------------------------------

 Cartesian components of stress tensor (hartree/bohr^3)
  sigma(1 1)=  3.91807572E-03  sigma(3 2)=  0.00000000E+00
  sigma(2 2)=  3.91807572E-03  sigma(3 1)=  0.00000000E+00
  sigma(3 3)=  3.91807572E-03  sigma(2 1)=  0.00000000E+00


 scprqt:  WARNING -
  nstep=   10 was not enough SCF cycles to converge;
  potential residual=  5.806E-14 exceeds tolvrs=  1.000E-16


--- !ResultsGS
iteration_state: {dtset: 3, }
comment   : Summary of ground state results
lattice_vectors:
- [  6.0000000,   6.0000000,   0.0000000, ]
- [  0.0000000,   6.0000000,   6.0000000, ]
- [  6.0000000,   0.0000000,   6.0000000, ]
lattice_lengths: [   8.48528,    8.48528,    8.48528, ]
lattice_angles: [ 60.000,  60.000,  60.000, ] # degrees, (23, 13, 12)
lattice_volume:   4.3200000E+02
convergence: {deltae: -1.169E-09, res2:  5.806E-14, residm:  1.749E-19, diffor: null, }
etotal    :  -4.20792872E+00
entropy   :   0.00000000E+00
fermie    :  -2.19578962E-01
cartesian_stress_tensor: # hartree/bohr^3
- [  3.91807572E-03,   0.00000000E+00,   0.00000000E+00, ]
- [  0.00000000E+00,   3.91807572E-03,   0.00000000E+00, ]
- [  0.00000000E+00,   0.00000000E+00,   3.91807572E-03, ]
pressure_GPa:  -1.1527E+02
xred      :
- [  0.0000E+00,   0.0000E+00,   0.0000E+00,  C]
cartesian_forces: # hartree/bohr
- [ -0.00000000E+00,  -0.00000000E+00,  -0.00000000E+00, ]
force_length_stats: {min:   0.00000000E+00, max:   0.00000000E+00, mean:   0.00000000E+00, }
...

 Integrated electronic density in atomic spheres:
 ------------------------------------------------
 Atom  Sphere_radius  Integrated_density
    1        2.00000          2.76800544
================================================================================

 ----iterations are completed or convergence reached----

 Mean square residual over all n,k,spin=   84.123E-21; max=  17.492E-20
 reduced coordinates (array xred) for    1 atoms
       0.000000000000      0.000000000000      0.000000000000
 rms dE/dt=  0.0000E+00; max dE/dt=  0.0000E+00; dE/dt below (all hartree)
    1       0.000000000000      0.000000000000      0.000000000000

 cartesian coordinates (angstrom) at end:
    1      0.00000000000000     0.00000000000000     0.00000000000000

 cartesian forces (hartree/bohr) at end:
    1     -0.00000000000000    -0.00000000000000    -0.00000000000000
 frms,max,avg= 0.0000000E+00 0.0000000E+00   0.000E+00  0.000E+00  0.000E+00 h/b

 cartesian forces (eV/Angstrom) at end:
    1     -0.00000000000000    -0.00000000000000    -0.00000000000000
 frms,max,avg= 0.0000000E+00 0.0000000E+00   0.000E+00  0.000E+00  0.000E+00 e/A
 length scales= 12.000000000000 12.000000000000 12.000000000000 bohr
              =  6.350126503080  6.350126503080  6.350126503080 angstroms
 prteigrs : about to open file t13o_DS3_EIG
 Fermi (or HOMO) energy (hartree) =  -0.21958   Average Vxc (hartree)=  -0.25230
 Eigenvalues (hartree) for nkpt=   1  k points:
 kpt#   1, nband=  4, wtk=  1.00000, kpt=  0.0000  0.0000  0.0000 (reduced coord)
  -0.55146   -0.21958   -0.21958   -0.21958

--- !EnergyTerms
iteration_state     : {dtset: 3, }
comment             : Components of total free energy in Hartree
kinetic             :  3.00312696050310E+00
hartree             :  1.49515452384188E+00
xc                  : -1.92454012816412E-01
Ewald energy        : -3.05657471607587E+00
psp_core            :  1.24347554578084E-03
local_psp           : -6.26299539083558E+00
non_local_psp       :  8.04570436299408E-01
total_energy        : -4.20792872353769E+00
total_energy_eV     : -1.14503563751704E+02
band_energy         : -1.54207307133347E+00
...


 Cartesian components of stress tensor (hartree/bohr^3)
  sigma(1 1)=  3.91807572E-03  sigma(3 2)=  0.00000000E+00
  sigma(2 2)=  3.91807572E-03  sigma(3 1)=  0.00000000E+00
  sigma(3 3)=  3.91807572E-03  sigma(2 1)=  0.00000000E+00

-Cartesian components of stress tensor (GPa)         [Pressure= -1.1527E+02 GPa]
- sigma(1 1)=  1.15273748E+02  sigma(3 2)=  0.00000000E+00
- sigma(2 2)=  1.15273748E+02  sigma(3 1)=  0.00000000E+00
- sigma(3 3)=  1.15273748E+02  sigma(2 1)=  0.00000000E+00

================================================================================
== DATASET  4 ==================================================================
-   mpi_nproc: 1, omp_nthreads: -1 (-1 if OMP is not activated)


--- !DatasetInfo
iteration_state: {dtset: 4, }
dimensions: {natom: 1, nkpt: 1, mband: 4, nsppol: 1, nspinor: 1, nspden: 1, mpw: 919, }
cutoff_energies: {ecut:  20.0, pawecutdg:  -1.0, }
electrons: {nelect:   4.00000000E+00, charge:   0.00000000E+00, occopt:   0.00000000E+00, tsmear:   1.00000000E-02, }
meta: {optdriver: 0, ionmov: 0, optcell: 0, iscf: 7, paral_kgb: 0, }
...

 Real(R)+Recip(G) space primitive vectors, cartesian coordinates (Bohr,Bohr^-1):
 R(1)=  6.0000000  6.0000000  0.0000000  G(1)=  0.0833333  0.0833333 -0.0833333
 R(2)=  0.0000000  6.0000000  6.0000000  G(2)= -0.0833333  0.0833333  0.0833333
 R(3)=  6.0000000  0.0000000  6.0000000  G(3)=  0.0833333 -0.0833333  0.0833333
 Unit cell volume ucvol=  4.3200000E+02 bohr^3
 Angles (23,13,12)=  6.00000000E+01  6.00000000E+01  6.00000000E+01 degrees

 getcut: wavevector=  0.0000  0.0000  0.0000  ngfft=  36  36  36
         ecut(hartree)=     20.000   => boxcut(ratio)=   2.10744

--- Pseudopotential description ------------------------------------------------
- pspini: atom type   1  psp file is /home/gmatteo/git_repos/abinit/tests/Psps_for_tests/6-C.fhi
- pspatm: opening atomic psp file    /home/gmatteo/git_repos/abinit/tests/Psps_for_tests/6-C.fhi
-    C  APE 1.0 : Troullier-Martins scheme, , llocal= 1
-  6.00000   4.00000  20100127                znucl, zion, pspdat
    6    0    1    1       400   0.00000      pspcod,pspxc,lmax,lloc,mmax,r2well
    0.00000000000000    0.00000000000000    0.00000000000000   rchrg,fchrg,qchrg
  1.038086          amesh (Hamman grid)
  pspatm : epsatm=    0.13429536
         --- l  ekb(1:nproj) -->
             0    5.611174
 pspatm: atomic psp has been read  and splines computed

--------------------------------------------------------------------------------

_setup2: Arith. and geom. avg. npw (full set) are    1837.000    1837.000

================================================================================

--- !BeginCycle
iteration_state: {dtset: 4, }
solver: {iscf: 7, nstep: 15, nline: 4, wfoptalg: 0, }
tolerances: {tolvrs: 1.00E-16, }
...

     iter   Etot(hartree)      deltaE(h)  residm     vres2
 ETOT  1  -4.0528142661286    -4.053E+00 3.960E-03 5.572E+02
 ETOT  2  -4.1245446264601    -7.173E-02 7.517E-08 1.242E+02
 ETOT  3  -4.0992027818776     2.534E-02 1.133E-05 2.783E+01
 ETOT  4  -4.0777344188003     2.147E-02 3.914E-06 2.895E+00
 ETOT  5  -4.0771528863543     5.815E-04 8.409E-08 2.604E-01
 ETOT  6  -4.0772443212110    -9.143E-05 8.002E-09 8.160E-03
 ETOT  7  -4.0771652180302     7.910E-05 1.121E-10 4.383E-04
 ETOT  8  -4.0771665808959    -1.363E-06 9.605E-12 1.591E-05
 ETOT  9  -4.0771513228833     1.526E-05 2.334E-12 5.472E-07
 ETOT 10  -4.0771509005590     4.223E-07 4.077E-14 8.610E-08
 ETOT 11  -4.0771508537594     4.680E-08 1.742E-15 6.326E-09
 ETOT 12  -4.0771508976267    -4.387E-08 4.718E-16 4.135E-10
 ETOT 13  -4.0771509046164    -6.990E-09 4.576E-18 2.675E-11
 ETOT 14  -4.0771509137632    -9.147E-09 5.908E-19 1.861E-12
 ETOT 15  -4.0771509108221     2.941E-09 3.850E-20 1.198E-13

Result for kinetic energy density :

--------------------------------------------------------------------------------
 Total kinetic energy density [Ha/Bohr^3]
      Maximum=    1.3042E+00  at reduced coord.    0.0000    0.0000    0.0000
      Minimum=    1.1497E-06  at reduced coord.    0.5000    0.5000    0.5000
   Integrated=    3.4907E+00
--------------------------------------------------------------------------------

 Cartesian components of stress tensor (hartree/bohr^3)
  sigma(1 1)=  2.27678810E-03  sigma(3 2)=  0.00000000E+00
  sigma(2 2)=  2.27678810E-03  sigma(3 1)=  0.00000000E+00
  sigma(3 3)=  2.27678810E-03  sigma(2 1)=  0.00000000E+00


 scprqt:  WARNING -
  nstep=   15 was not enough SCF cycles to converge;
  potential residual=  1.198E-13 exceeds tolvrs=  1.000E-16


--- !ResultsGS
iteration_state: {dtset: 4, }
comment   : Summary of ground state results
lattice_vectors:
- [  6.0000000,   6.0000000,   0.0000000, ]
- [  0.0000000,   6.0000000,   6.0000000, ]
- [  6.0000000,   0.0000000,   6.0000000, ]
lattice_lengths: [   8.48528,    8.48528,    8.48528, ]
lattice_angles: [ 60.000,  60.000,  60.000, ] # degrees, (23, 13, 12)
lattice_volume:   4.3200000E+02
convergence: {deltae:  2.941E-09, res2:  1.198E-13, residm:  3.850E-20, diffor: null, }
etotal    :  -4.07715091E+00
entropy   :   0.00000000E+00
fermie    :   1.70568963E-02
cartesian_stress_tensor: # hartree/bohr^3
- [  2.27678810E-03,   0.00000000E+00,   0.00000000E+00, ]
- [  0.00000000E+00,   2.27678810E-03,   0.00000000E+00, ]
- [  0.00000000E+00,   0.00000000E+00,   2.27678810E-03, ]
pressure_GPa:  -6.6985E+01
xred      :
- [  0.0000E+00,   0.0000E+00,   0.0000E+00,  C]
cartesian_forces: # hartree/bohr
- [ -0.00000000E+00,  -0.00000000E+00,  -0.00000000E+00, ]
force_length_stats: {min:   0.00000000E+00, max:   0.00000000E+00, mean:   0.00000000E+00, }
...

 Integrated electronic density in atomic spheres:
 ------------------------------------------------
 Atom  Sphere_radius  Integrated_density
    1        2.00000          3.08575787
================================================================================

 ----iterations are completed or convergence reached----

 Mean square residual over all n,k,spin=   20.321E-21; max=  38.504E-21
 reduced coordinates (array xred) for    1 atoms
       0.000000000000      0.000000000000      0.000000000000
 rms dE/dt=  0.0000E+00; max dE/dt=  0.0000E+00; dE/dt below (all hartree)
    1       0.000000000000      0.000000000000      0.000000000000

 cartesian coordinates (angstrom) at end:
    1      0.00000000000000     0.00000000000000     0.00000000000000

 cartesian forces (hartree/bohr) at end:
    1     -0.00000000000000    -0.00000000000000    -0.00000000000000
 frms,max,avg= 0.0000000E+00 0.0000000E+00   0.000E+00  0.000E+00  0.000E+00 h/b

 cartesian forces (eV/Angstrom) at end:
    1     -0.00000000000000    -0.00000000000000    -0.00000000000000
 frms,max,avg= 0.0000000E+00 0.0000000E+00   0.000E+00  0.000E+00  0.000E+00 e/A
 length scales= 12.000000000000 12.000000000000 12.000000000000 bohr
              =  6.350126503080  6.350126503080  6.350126503080 angstroms
 prteigrs : about to open file t13o_DS4_EIG
 Fermi (or HOMO) energy (hartree) =   0.01706   Average Vxc (hartree)=   0.20341
 Eigenvalues (hartree) for nkpt=   1  k points:
 kpt#   1, nband=  4, wtk=  1.00000, kpt=  0.0000  0.0000  0.0000 (reduced coord)
  -0.32773    0.01706    0.01706    0.01706

--- !EnergyTerms
iteration_state     : {dtset: 4, }
comment             : Components of total free energy in Hartree
kinetic             :  3.49067104489466E+00
hartree             :  1.84051588300898E+00
xc                  : -2.00780489108201E-01
Ewald energy        : -3.05657471607587E+00
psp_core            :  1.24347554578084E-03
local_psp           : -6.99485498537856E+00
non_local_psp       :  8.42628876291116E-01
total_energy        : -4.07715091082210E+00
total_energy_eV     : -1.10944918489529E+02
band_energy         : -6.21351934533991E-01
...


 Cartesian components of stress tensor (hartree/bohr^3)
  sigma(1 1)=  2.27678810E-03  sigma(3 2)=  0.00000000E+00
  sigma(2 2)=  2.27678810E-03  sigma(3 1)=  0.00000000E+00
  sigma(3 3)=  2.27678810E-03  sigma(2 1)=  0.00000000E+00

-Cartesian components of stress tensor (GPa)         [Pressure= -6.6985E+01 GPa]
- sigma(1 1)=  6.69854072E+01  sigma(3 2)=  0.00000000E+00
- sigma(2 2)=  6.69854072E+01  sigma(3 1)=  0.00000000E+00
- sigma(3 3)=  6.69854072E+01  sigma(2 1)=  0.00000000E+00

== END DATASET(S) ==============================================================
================================================================================
  
 -outvars: echo values of variables after computation  --------
            acell      1.2000000000E+01  1.2000000000E+01  1.2000000000E+01 Bohr
              amu      1.20110000E+01
           diemac      1.00000000E+00
           diemix      7.00000000E-01
             ecut      2.00000000E+01 Hartree
           etotal1    -4.1846644362E+00
           etotal2    -4.0954588399E+00
           etotal3    -4.2079287235E+00
           etotal4    -4.0771509108E+00
            fcart1    -0.0000000000E+00 -0.0000000000E+00 -0.0000000000E+00
            fcart2    -0.0000000000E+00 -0.0000000000E+00 -0.0000000000E+00
            fcart3    -0.0000000000E+00 -0.0000000000E+00 -0.0000000000E+00
            fcart4    -0.0000000000E+00 -0.0000000000E+00 -0.0000000000E+00
-          fftalg         312
           istwfk        2
              ixc1     -12207
              ixc2     -12208
              ixc3     -12209
              ixc4     -12208
           jdtset        1    2    3    4
           kptopt           0
P           mkmem           1
            natom           1
            nband           4
           ndtset           4
            ngfft          36      36      36
             nkpt           1
            nstep1         10
            nstep2         15
            nstep3         10
            nstep4         15
             nsym          48
           ntypat           1
              occ      2.000000  0.666667  0.666667  0.666667
           occopt           0
          prtkden           1
            rprim      5.0000000000E-01  5.0000000000E-01  0.0000000000E+00
                       0.0000000000E+00  5.0000000000E-01  5.0000000000E-01
                       5.0000000000E-01  0.0000000000E+00  5.0000000000E-01
          spgroup         225
           strten1     2.9950175298E-03  2.9950175298E-03  2.9950175298E-03
                       0.0000000000E+00  0.0000000000E+00  0.0000000000E+00
           strten2     2.3765102574E-03  2.3765102574E-03  2.3765102574E-03
                       0.0000000000E+00  0.0000000000E+00  0.0000000000E+00
           strten3     3.9180757220E-03  3.9180757220E-03  3.9180757220E-03
                       0.0000000000E+00  0.0000000000E+00  0.0000000000E+00
           strten4     2.2767880986E-03  2.2767880986E-03  2.2767880986E-03
                       0.0000000000E+00  0.0000000000E+00  0.0000000000E+00
           symrel      1  0  0   0  1  0   0  0  1      -1  0  0   0 -1  0   0  0 -1
                       0 -1  1   0 -1  0   1 -1  0       0  1 -1   0  1  0  -1  1  0
                      -1  0  0  -1  0  1  -1  1  0       1  0  0   1  0 -1   1 -1  0
                       0  1 -1   1  0 -1   0  0 -1       0 -1  1  -1  0  1   0  0  1
                      -1  0  0  -1  1  0  -1  0  1       1  0  0   1 -1  0   1  0 -1
                       0 -1  1   1 -1  0   0 -1  0       0  1 -1  -1  1  0   0  1  0
                       1  0  0   0  0  1   0  1  0      -1  0  0   0  0 -1   0 -1  0
                       0  1 -1   0  0 -1   1  0 -1       0 -1  1   0  0  1  -1  0  1
                      -1  0  1  -1  1  0  -1  0  0       1  0 -1   1 -1  0   1  0  0
                       0 -1  0   1 -1  0   0 -1  1       0  1  0  -1  1  0   0  1 -1
                       1  0 -1   0  0 -1   0  1 -1      -1  0  1   0  0  1   0 -1  1
                       0  1  0   0  0  1   1  0  0       0 -1  0   0  0 -1  -1  0  0
                       1  0 -1   0  1 -1   0  0 -1      -1  0  1   0 -1  1   0  0  1
                       0 -1  0   0 -1  1   1 -1  0       0  1  0   0  1 -1  -1  1  0
                      -1  0  1  -1  0  0  -1  1  0       1  0 -1   1  0  0   1 -1  0
                       0  1  0   1  0  0   0  0  1       0 -1  0  -1  0  0   0  0 -1
                       0  0 -1   0  1 -1   1  0 -1       0  0  1   0 -1  1  -1  0  1
                       1 -1  0   0 -1  1   0 -1  0      -1  1  0   0  1 -1   0  1  0
                       0  0  1   1  0  0   0  1  0       0  0 -1  -1  0  0   0 -1  0
                      -1  1  0  -1  0  0  -1  0  1       1 -1  0   1  0  0   1  0 -1
                       0  0  1   0  1  0   1  0  0       0  0 -1   0 -1  0  -1  0  0
                       1 -1  0   0 -1  0   0 -1  1      -1  1  0   0  1  0   0  1 -1
                       0  0 -1   1  0 -1   0  1 -1       0  0  1  -1  0  1   0 -1  1
                      -1  1  0  -1  0  1  -1  0  0       1 -1  0   1  0 -1   1  0  0
           tolvrs      1.00000000E-16
            typat      1
          usekden           1
        xc_denpos      1.00000000E-07
        xc_tb09_c1     9.99900000E+01
        xc_tb09_c2     9.99900000E+01
        xc_tb09_c3     9.99900000E+01
        xc_tb09_c4     1.58000000E+00
            znucl        6.00000

================================================================================


- Timing analysis has been suppressed with timopt=0



================================================================================

 Suggested references for the acknowledgment of ABINIT usage.

 The users of ABINIT have little formal obligations with respect to the ABINIT group
 (those specified in the GNU General Public License, http://www.gnu.org/copyleft/gpl.txt).
 However, it is common practice in the scientific literature,
 to acknowledge the efforts of people that have made the research possible.
 In this spirit, please find below suggested citations of work written by ABINIT developers,
 corresponding to implementations inside of ABINIT that you have used in the present run.
 Note also that it will be of great value to readers of publications presenting these results,
 to read papers enabling them to understand the theoretical formalism and details
 of the ABINIT implementation.
 For information on why they are suggested, see also https://docs.abinit.org/theory/acknowledgments.
-
- [1] Libxc: A library of exchange and correlation functionals for density functional theory.
- M.A.L. Marques, M.J.T. Oliveira, T. Burnus, Computer Physics Communications 183, 2227 (2012).
- Comment: to be cited when LibXC is used (negative value of ixc)
- Strong suggestion to cite this paper.
- DOI and bibtex: see https://docs.abinit.org/theory/bibliography/#marques2012
-
- [2] The Abinit project: Impact, environment and recent developments.
- Computer Phys. Comm. 248, 107042 (2020).
- X.Gonze, B. Amadon, G. Antonius, F.Arnardi, L.Baguet, J.-M.Beuken,
- J.Bieder, F.Bottin, J.Bouchet, E.Bousquet, N.Brouwer, F.Bruneval,
- G.Brunin, T.Cavignac, J.-B. Charraud, Wei Chen, M.Cote, S.Cottenier,
- J.Denier, G.Geneste, Ph.Ghosez, M.Giantomassi, Y.Gillet, O.Gingras,
- D.R.Hamann, G.Hautier, Xu He, N.Helbig, N.Holzwarth, Y.Jia, F.Jollet,
- W.Lafargue-Dit-Hauret, K.Lejaeghere, M.A.L.Marques, A.Martin, C.Martins,
- H.P.C. Miranda, F.Naccarato, K. Persson, G.Petretto, V.Planes, Y.Pouillon,
- S.Prokhorenko, F.Ricci, G.-M.Rignanese, A.H.Romero, M.M.Schmitt, M.Torrent,
- M.J.van Setten, B.Van Troeye, M.J.Verstraete, G.Zerah and J.W.Zwanzig
- Comment: the fifth generic paper describing the ABINIT project.
- Note that a version of this paper, that is not formatted for Computer Phys. Comm. 
- is available at https://www.abinit.org/sites/default/files/ABINIT20.pdf .
- The licence allows the authors to put it on the Web.
- DOI and bibtex: see https://docs.abinit.org/theory/bibliography/#gonze2020
-
- [3] Ab initio pseudopotentials for electronic structure calculations of poly-atomic systems, 
- using density-functional theory.
- M. Fuchs, M. Scheffler, Comput. Phys. Commun. 119, 67 (1999).
- Comment: Some pseudopotential generated using the FHI code were used.
- DOI and bibtex: see https://docs.abinit.org/theory/bibliography/#fuchs1999
-
- [4] Recent developments in the ABINIT software package.
- Computer Phys. Comm. 205, 106 (2016).
- X.Gonze, F.Jollet, F.Abreu Araujo, D.Adams, B.Amadon, T.Applencourt,
- C.Audouze, J.-M.Beuken, J.Bieder, A.Bokhanchuk, E.Bousquet, F.Bruneval
- D.Caliste, M.Cote, F.Dahm, F.Da Pieve, M.Delaveau, M.Di Gennaro,
- B.Dorado, C.Espejo, G.Geneste, L.Genovese, A.Gerossier, M.Giantomassi,
- Y.Gillet, D.R.Hamann, L.He, G.Jomard, J.Laflamme Janssen, S.Le Roux,
- A.Levitt, A.Lherbier, F.Liu, I.Lukacevic, A.Martin, C.Martins,
- M.J.T.Oliveira, S.Ponce, Y.Pouillon, T.Rangel, G.-M.Rignanese,
- A.H.Romero, B.Rousseau, O.Rubel, A.A.Shukri, M.Stankovski, M.Torrent,
- M.J.Van Setten, B.Van Troeye, M.J.Verstraete, D.Waroquier, J.Wiktor,
- B.Xu, A.Zhou, J.W.Zwanziger.
- Comment: the fourth generic paper describing the ABINIT project.
- Note that a version of this paper, that is not formatted for Computer Phys. Comm. 
- is available at https://www.abinit.org/sites/default/files/ABINIT16.pdf .
- The licence allows the authors to put it on the Web.
- DOI and bibtex: see https://docs.abinit.org/theory/bibliography/#gonze2016
-
- [5] ABINIT: First-principles approach of materials and nanosystem properties.
- Computer Phys. Comm. 180, 2582-2615 (2009).
- X. Gonze, B. Amadon, P.-M. Anglade, J.-M. Beuken, F. Bottin, P. Boulanger, F. Bruneval,
- D. Caliste, R. Caracas, M. Cote, T. Deutsch, L. Genovese, Ph. Ghosez, M. Giantomassi
- S. Goedecker, D.R. Hamann, P. Hermet, F. Jollet, G. Jomard, S. Leroux, M. Mancini, S. Mazevet,
- M.J.T. Oliveira, G. Onida, Y. Pouillon, T. Rangel, G.-M. Rignanese, D. Sangalli, R. Shaltaf,
- M. Torrent, M.J. Verstraete, G. Zerah, J.W. Zwanziger
- Comment: the third generic paper describing the ABINIT project.
- Note that a version of this paper, that is not formatted for Computer Phys. Comm. 
- is available at https://www.abinit.org/sites/default/files/ABINIT_CPC_v10.pdf .
- The licence allows the authors to put it on the Web.
- DOI and bibtex: see https://docs.abinit.org/theory/bibliography/#gonze2009
-
- Proc.   0 individual time (sec): cpu=          9.8  wall=         19.4

================================================================================

 Calculation completed.
.Delivered  13 WARNINGs and   4 COMMENTs to log file.
+Overall time at end (sec) : cpu=          9.8  wall=         19.4
