
.Version 9.3.0 of ABINIT 
.(sequential version, prepared for a x86_64_linux_gnu9.2 computer) 

.Copyright (C) 1998-2020 ABINIT group . 
 ABINIT comes with ABSOLUTELY NO WARRANTY.
 It is free software, and you are welcome to redistribute it
 under certain conditions (GNU General Public License,
 see ~abinit/COPYING or http://www.gnu.org/copyleft/gpl.txt).

 ABINIT is a project of the Universite Catholique de Louvain,
 Corning Inc. and other collaborators, see ~abinit/doc/developers/contributors.txt .
 Please read https://docs.abinit.org/theory/acknowledgments for suggested
 acknowledgments of the ABINIT effort.
 For more information, see https://www.abinit.org .

.Starting date : Fri 25 Sep 2020.
- ( at 10h29 )
  
- input  file    -> /home/buildbot/bb/ABINIT/abiref_gnu_9.2_serial/marm3.14_ecut/tests/TestBot_MPI1/libxc_t44/t44.in
- output file    -> t44.out
- root for input  files -> t44i
- root for output files -> t44o


 DATASET    1 : space group Fd -3 m (#227); Bravais cF (face-center cubic)
================================================================================
 Values of the parameters that define the memory need for DATASET  1.
     intxc =       0    ionmov =       0      iscf =       7    lmnmax =       4
     lnmax =       4     mgfft =      15  mpssoang =       2    mqgrid =    3001
     natom =       2  nloc_mem =       1    nspden =       1   nspinor =       1
    nsppol =       1      nsym =      48    n1xccc =    2501    ntypat =       1
    occopt =       1   xclevel =       2
-    mband =          14        mffmem =           1         mkmem =           6
       mpw =          92          nfft =        3375          nkpt =           6
================================================================================
P This job should need less than                       1.838 Mbytes of memory.
  Rough estimation (10% accuracy) of disk space for files :
_ WF disk file :      0.120 Mbytes ; DEN or POT disk file :      0.028 Mbytes.
================================================================================


 DATASET    2 : space group Fd -3 m (#227); Bravais cF (face-center cubic)
================================================================================
 Values of the parameters that define the memory need for DATASET  2.
     intxc =       0    ionmov =       0      iscf =       7    lmnmax =       4
     lnmax =       4     mgfft =      15  mpssoang =       2    mqgrid =    3001
     natom =       2  nloc_mem =       1    nspden =       1   nspinor =       1
    nsppol =       1      nsym =      48    n1xccc =    2501    ntypat =       1
    occopt =       1   xclevel =       2
-    mband =          14        mffmem =           1         mkmem =           6
       mpw =          92          nfft =        3375          nkpt =           6
================================================================================
P This job should need less than                       1.838 Mbytes of memory.
  Rough estimation (10% accuracy) of disk space for files :
_ WF disk file :      0.120 Mbytes ; DEN or POT disk file :      0.028 Mbytes.
================================================================================


 DATASET    3 : space group Fd -3 m (#227); Bravais cF (face-center cubic)
================================================================================
 Values of the parameters that define the memory need for DATASET  3.
     intxc =       0    ionmov =       0      iscf =       7    lmnmax =       4
     lnmax =       4     mgfft =      15  mpssoang =       2    mqgrid =    3001
     natom =       2  nloc_mem =       1    nspden =       1   nspinor =       1
    nsppol =       1      nsym =      48    n1xccc =    2501    ntypat =       1
    occopt =       1   xclevel =       2
-    mband =          14        mffmem =           1         mkmem =           6
       mpw =          92          nfft =        3375          nkpt =           6
================================================================================
P This job should need less than                       1.838 Mbytes of memory.
  Rough estimation (10% accuracy) of disk space for files :
_ WF disk file :      0.120 Mbytes ; DEN or POT disk file :      0.028 Mbytes.
================================================================================


 DATASET    4 : space group Fd -3 m (#227); Bravais cF (face-center cubic)
================================================================================
 Values of the parameters that define the memory need for DATASET  4.
     intxc =       0    ionmov =       0      iscf =       7    lmnmax =       4
     lnmax =       4     mgfft =      15  mpssoang =       2    mqgrid =    3001
     natom =       2  nloc_mem =       1    nspden =       1   nspinor =       1
    nsppol =       1      nsym =      48    n1xccc =    2501    ntypat =       1
    occopt =       1   xclevel =       2
-    mband =          14        mffmem =           1         mkmem =           6
       mpw =          92          nfft =        3375          nkpt =           6
================================================================================
P This job should need less than                       1.838 Mbytes of memory.
  Rough estimation (10% accuracy) of disk space for files :
_ WF disk file :      0.120 Mbytes ; DEN or POT disk file :      0.028 Mbytes.
================================================================================


 DATASET    5 : space group Fd -3 m (#227); Bravais cF (face-center cubic)
================================================================================
 Values of the parameters that define the memory need for DATASET  5.
     intxc =       0    ionmov =       0      iscf =       7    lmnmax =       4
     lnmax =       4     mgfft =      15  mpssoang =       2    mqgrid =    3001
     natom =       2  nloc_mem =       1    nspden =       1   nspinor =       1
    nsppol =       1      nsym =      48    n1xccc =    2501    ntypat =       1
    occopt =       1   xclevel =       2
-    mband =          14        mffmem =           1         mkmem =           6
       mpw =          92          nfft =        3375          nkpt =           6
================================================================================
P This job should need less than                       1.838 Mbytes of memory.
  Rough estimation (10% accuracy) of disk space for files :
_ WF disk file :      0.120 Mbytes ; DEN or POT disk file :      0.028 Mbytes.
================================================================================


 DATASET    6 : space group Fd -3 m (#227); Bravais cF (face-center cubic)
================================================================================
 Values of the parameters that define the memory need for DATASET  6.
     intxc =       0    ionmov =       0      iscf =       7    lmnmax =       4
     lnmax =       4     mgfft =      15  mpssoang =       2    mqgrid =    3001
     natom =       2  nloc_mem =       1    nspden =       1   nspinor =       1
    nsppol =       1      nsym =      48    n1xccc =    2501    ntypat =       1
    occopt =       1   xclevel =       2
-    mband =          14        mffmem =           1         mkmem =           6
       mpw =          92          nfft =        3375          nkpt =           6
================================================================================
P This job should need less than                       1.838 Mbytes of memory.
  Rough estimation (10% accuracy) of disk space for files :
_ WF disk file :      0.120 Mbytes ; DEN or POT disk file :      0.028 Mbytes.
================================================================================


 DATASET    7 : space group Fd -3 m (#227); Bravais cF (face-center cubic)
================================================================================
 Values of the parameters that define the memory need for DATASET  7.
     intxc =       0    ionmov =       0      iscf =       7    lmnmax =       4
     lnmax =       4     mgfft =      15  mpssoang =       2    mqgrid =    3001
     natom =       2  nloc_mem =       1    nspden =       1   nspinor =       1
    nsppol =       1      nsym =      48    n1xccc =    2501    ntypat =       1
    occopt =       1   xclevel =       2
-    mband =          14        mffmem =           1         mkmem =           6
       mpw =          92          nfft =        3375          nkpt =           6
================================================================================
P This job should need less than                       1.838 Mbytes of memory.
  Rough estimation (10% accuracy) of disk space for files :
_ WF disk file :      0.120 Mbytes ; DEN or POT disk file :      0.028 Mbytes.
================================================================================


 DATASET    8 : space group Fd -3 m (#227); Bravais cF (face-center cubic)
================================================================================
 Values of the parameters that define the memory need for DATASET  8.
     intxc =       0    ionmov =       0      iscf =       7    lmnmax =       4
     lnmax =       4     mgfft =      15  mpssoang =       2    mqgrid =    3001
     natom =       2  nloc_mem =       1    nspden =       1   nspinor =       1
    nsppol =       1      nsym =      48    n1xccc =    2501    ntypat =       1
    occopt =       1   xclevel =       2
-    mband =          14        mffmem =           1         mkmem =           6
       mpw =          92          nfft =        3375          nkpt =           6
================================================================================
P This job should need less than                       1.838 Mbytes of memory.
  Rough estimation (10% accuracy) of disk space for files :
_ WF disk file :      0.120 Mbytes ; DEN or POT disk file :      0.028 Mbytes.
================================================================================


 DATASET    9 : space group Fd -3 m (#227); Bravais cF (face-center cubic)
================================================================================
 Values of the parameters that define the memory need for DATASET  9.
     intxc =       0    ionmov =       0      iscf =       7    lmnmax =       4
     lnmax =       4     mgfft =      15  mpssoang =       2    mqgrid =    3001
     natom =       2  nloc_mem =       1    nspden =       1   nspinor =       1
    nsppol =       1      nsym =      48    n1xccc =    2501    ntypat =       1
    occopt =       1   xclevel =       2
-    mband =          14        mffmem =           1         mkmem =           6
       mpw =          92          nfft =        3375          nkpt =           6
================================================================================
P This job should need less than                       1.838 Mbytes of memory.
  Rough estimation (10% accuracy) of disk space for files :
_ WF disk file :      0.120 Mbytes ; DEN or POT disk file :      0.028 Mbytes.
================================================================================


 DATASET   10 : space group Fd -3 m (#227); Bravais cF (face-center cubic)
================================================================================
 Values of the parameters that define the memory need for DATASET 10.
     intxc =       0    ionmov =       0      iscf =       7    lmnmax =       4
     lnmax =       4     mgfft =      15  mpssoang =       2    mqgrid =    3001
     natom =       2  nloc_mem =       1    nspden =       1   nspinor =       1
    nsppol =       1      nsym =      48    n1xccc =    2501    ntypat =       1
    occopt =       1   xclevel =       2
-    mband =          14        mffmem =           1         mkmem =           6
       mpw =          92          nfft =        3375          nkpt =           6
================================================================================
P This job should need less than                       1.838 Mbytes of memory.
  Rough estimation (10% accuracy) of disk space for files :
_ WF disk file :      0.120 Mbytes ; DEN or POT disk file :      0.028 Mbytes.
================================================================================


 DATASET   11 : space group Fd -3 m (#227); Bravais cF (face-center cubic)
================================================================================
 Values of the parameters that define the memory need for DATASET 11.
     intxc =       0    ionmov =       0      iscf =       7    lmnmax =       4
     lnmax =       4     mgfft =      15  mpssoang =       2    mqgrid =    3001
     natom =       2  nloc_mem =       1    nspden =       1   nspinor =       1
    nsppol =       1      nsym =      48    n1xccc =    2501    ntypat =       1
    occopt =       1   xclevel =       2
-    mband =          14        mffmem =           1         mkmem =           6
       mpw =          92          nfft =        3375          nkpt =           6
================================================================================
P This job should need less than                       1.838 Mbytes of memory.
  Rough estimation (10% accuracy) of disk space for files :
_ WF disk file :      0.120 Mbytes ; DEN or POT disk file :      0.028 Mbytes.
================================================================================


 DATASET   12 : space group Fd -3 m (#227); Bravais cF (face-center cubic)
================================================================================
 Values of the parameters that define the memory need for DATASET 12.
     intxc =       0    ionmov =       0      iscf =       7    lmnmax =       4
     lnmax =       4     mgfft =      15  mpssoang =       2    mqgrid =    3001
     natom =       2  nloc_mem =       1    nspden =       1   nspinor =       1
    nsppol =       1      nsym =      48    n1xccc =    2501    ntypat =       1
    occopt =       1   xclevel =       2
-    mband =          14        mffmem =           1         mkmem =           6
       mpw =          92          nfft =        3375          nkpt =           6
================================================================================
P This job should need less than                       1.838 Mbytes of memory.
  Rough estimation (10% accuracy) of disk space for files :
_ WF disk file :      0.120 Mbytes ; DEN or POT disk file :      0.028 Mbytes.
================================================================================


 DATASET   13 : space group Fd -3 m (#227); Bravais cF (face-center cubic)
================================================================================
 Values of the parameters that define the memory need for DATASET 13.
     intxc =       0    ionmov =       0      iscf =       7    lmnmax =       4
     lnmax =       4     mgfft =      15  mpssoang =       2    mqgrid =    3001
     natom =       2  nloc_mem =       1    nspden =       1   nspinor =       1
    nsppol =       1      nsym =      48    n1xccc =    2501    ntypat =       1
    occopt =       1   xclevel =       2
-    mband =          14        mffmem =           1         mkmem =           6
       mpw =          92          nfft =        3375          nkpt =           6
================================================================================
P This job should need less than                       1.838 Mbytes of memory.
  Rough estimation (10% accuracy) of disk space for files :
_ WF disk file :      0.120 Mbytes ; DEN or POT disk file :      0.028 Mbytes.
================================================================================

--------------------------------------------------------------------------------
------------- Echo of variables that govern the present computation ------------
--------------------------------------------------------------------------------
-
- outvars: echo of selected default values                                      
-   iomode0 =  0 , fftalg0 =312 , wfoptalg0 =  0
-
- outvars: echo of global parameters not present in the input file              
-  max_nthreads =    0
-
 -outvars: echo values of preprocessed input variables --------
            acell      6.7406530879E+00  6.7406530879E+00  6.7406530879E+00 Bohr
              amu      1.20110000E+01
           diemac      1.20000000E+01
             ecut      8.00000000E+00 Hartree
          ecuteps      2.00000000E+00 Hartree
         ecutsigx      8.00000000E+00 Hartree
          ecutwfn      8.00000000E+00 Hartree
           enunit           1
-          fftalg         312
           getqps1         -1
           getqps2         -1
           getqps3         -1
           getqps4         -1
           getqps5         -1
           getqps6         -1
           getqps7         -1
           getqps8         -1
           getqps9         -1
           getqps10         6
           getqps11         6
           getqps12         0
           getqps13         0
           getscr1          0
           getscr2          0
           getscr3          0
           getscr4          0
           getscr5          0
           getscr6          0
           getscr7          0
           getscr8          0
           getscr9         -1
           getscr10         0
           getscr11        -1
           getscr12         0
           getscr13        -1
           getwfk1          0
           getwfk2          1
           getwfk3          1
           getwfk4          1
           getwfk5          1
           getwfk6          1
           getwfk7          1
           getwfk8          1
           getwfk9          1
           getwfk10         1
           getwfk11         1
           getwfk12         7
           getwfk13         7
        gwcalctyp1         25
        gwcalctyp2         25
        gwcalctyp3         25
        gwcalctyp4         25
        gwcalctyp5         25
        gwcalctyp6         25
        gwcalctyp7         25
        gwcalctyp8          0
        gwcalctyp9          0
        gwcalctyp10        20
        gwcalctyp11        20
        gwcalctyp12        20
        gwcalctyp13         0
       gw_qprange1        -14
       gw_qprange2        -14
       gw_qprange3        -14
       gw_qprange4        -14
       gw_qprange5        -14
       gw_qprange6        -14
       gw_qprange7        -14
       gw_qprange8        -14
       gw_qprange9          0
       gw_qprange10       -14
       gw_qprange11       -14
       gw_qprange12       -14
       gw_qprange13         0
           istwfk        0    0    1    0    1    1
              ixc1         11
              ixc2         11
              ixc3         11
              ixc4         11
              ixc5         11
              ixc6         11
              ixc7       -428
              ixc8         11
              ixc9         11
              ixc10        11
              ixc11        11
              ixc12        11
              ixc13      -428
        ixc_sigma        -428
           jdtset        1    2    3    4    5    6    7    8    9   10
                        11   12   13
              kpt     -2.50000000E-01 -2.50000000E-01  0.00000000E+00
                      -2.50000000E-01  2.50000000E-01  0.00000000E+00
                       5.00000000E-01  5.00000000E-01  0.00000000E+00
                      -2.50000000E-01  5.00000000E-01  2.50000000E-01
                       5.00000000E-01  0.00000000E+00  0.00000000E+00
                       0.00000000E+00  0.00000000E+00  0.00000000E+00
         kptns_hf2    -2.50000000E-01 -2.50000000E-01  0.00000000E+00
                      -2.50000000E-01  2.50000000E-01  0.00000000E+00
                       5.00000000E-01  5.00000000E-01  0.00000000E+00
                      -2.50000000E-01  5.00000000E-01  2.50000000E-01
                       2.50000000E-01 -2.50000000E-01  0.00000000E+00
                       5.00000000E-01 -2.50000000E-01  2.50000000E-01
                      -2.50000000E-01 -2.50000000E-01  5.00000000E-01
                       5.00000000E-01  0.00000000E+00  0.00000000E+00
                      -2.50000000E-01  0.00000000E+00  2.50000000E-01
                       2.50000000E-01  2.50000000E-01  0.00000000E+00
                       5.00000000E-01  2.50000000E-01  2.50000000E-01
                      -2.50000000E-01  2.50000000E-01  5.00000000E-01
                       0.00000000E+00  5.00000000E-01  0.00000000E+00
                       2.50000000E-01  5.00000000E-01  2.50000000E-01
                       5.00000000E-01  5.00000000E-01  5.00000000E-01
                      -2.50000000E-01  5.00000000E-01 -2.50000000E-01
                       0.00000000E+00 -2.50000000E-01  2.50000000E-01
                       2.50000000E-01 -2.50000000E-01  5.00000000E-01
                       5.00000000E-01 -2.50000000E-01 -2.50000000E-01
                       0.00000000E+00  0.00000000E+00  0.00000000E+00
                       2.50000000E-01  0.00000000E+00  2.50000000E-01
                       5.00000000E-01  0.00000000E+00  5.00000000E-01
                      -2.50000000E-01  0.00000000E+00 -2.50000000E-01
                       0.00000000E+00  2.50000000E-01  2.50000000E-01
                       2.50000000E-01  2.50000000E-01  5.00000000E-01
                       5.00000000E-01  2.50000000E-01 -2.50000000E-01
                       0.00000000E+00  5.00000000E-01  5.00000000E-01
                       2.50000000E-01  5.00000000E-01 -2.50000000E-01
                       0.00000000E+00 -2.50000000E-01 -2.50000000E-01
                       0.00000000E+00  0.00000000E+00  5.00000000E-01
                       2.50000000E-01  0.00000000E+00 -2.50000000E-01
                       0.00000000E+00  2.50000000E-01 -2.50000000E-01
         kptns_hf3    -2.50000000E-01 -2.50000000E-01  0.00000000E+00
                      -2.50000000E-01  2.50000000E-01  0.00000000E+00
                       5.00000000E-01  5.00000000E-01  0.00000000E+00
                      -2.50000000E-01  5.00000000E-01  2.50000000E-01
                       2.50000000E-01 -2.50000000E-01  0.00000000E+00
                       5.00000000E-01 -2.50000000E-01  2.50000000E-01
                      -2.50000000E-01 -2.50000000E-01  5.00000000E-01
                       5.00000000E-01  0.00000000E+00  0.00000000E+00
                      -2.50000000E-01  0.00000000E+00  2.50000000E-01
                       2.50000000E-01  2.50000000E-01  0.00000000E+00
                       5.00000000E-01  2.50000000E-01  2.50000000E-01
                      -2.50000000E-01  2.50000000E-01  5.00000000E-01
                       0.00000000E+00  5.00000000E-01  0.00000000E+00
                       2.50000000E-01  5.00000000E-01  2.50000000E-01
                       5.00000000E-01  5.00000000E-01  5.00000000E-01
                      -2.50000000E-01  5.00000000E-01 -2.50000000E-01
                       0.00000000E+00 -2.50000000E-01  2.50000000E-01
                       2.50000000E-01 -2.50000000E-01  5.00000000E-01
                       5.00000000E-01 -2.50000000E-01 -2.50000000E-01
                       0.00000000E+00  0.00000000E+00  0.00000000E+00
                       2.50000000E-01  0.00000000E+00  2.50000000E-01
                       5.00000000E-01  0.00000000E+00  5.00000000E-01
                      -2.50000000E-01  0.00000000E+00 -2.50000000E-01
                       0.00000000E+00  2.50000000E-01  2.50000000E-01
                       2.50000000E-01  2.50000000E-01  5.00000000E-01
                       5.00000000E-01  2.50000000E-01 -2.50000000E-01
                       0.00000000E+00  5.00000000E-01  5.00000000E-01
                       2.50000000E-01  5.00000000E-01 -2.50000000E-01
                       0.00000000E+00 -2.50000000E-01 -2.50000000E-01
                       0.00000000E+00  0.00000000E+00  5.00000000E-01
                       2.50000000E-01  0.00000000E+00 -2.50000000E-01
                       0.00000000E+00  2.50000000E-01 -2.50000000E-01
         kptns_hf4    -2.50000000E-01 -2.50000000E-01  0.00000000E+00
                      -2.50000000E-01  2.50000000E-01  0.00000000E+00
                       5.00000000E-01  5.00000000E-01  0.00000000E+00
                      -2.50000000E-01  5.00000000E-01  2.50000000E-01
                       2.50000000E-01 -2.50000000E-01  0.00000000E+00
                       5.00000000E-01 -2.50000000E-01  2.50000000E-01
                      -2.50000000E-01 -2.50000000E-01  5.00000000E-01
                       5.00000000E-01  0.00000000E+00  0.00000000E+00
                      -2.50000000E-01  0.00000000E+00  2.50000000E-01
                       2.50000000E-01  2.50000000E-01  0.00000000E+00
                       5.00000000E-01  2.50000000E-01  2.50000000E-01
                      -2.50000000E-01  2.50000000E-01  5.00000000E-01
                       0.00000000E+00  5.00000000E-01  0.00000000E+00
                       2.50000000E-01  5.00000000E-01  2.50000000E-01
                       5.00000000E-01  5.00000000E-01  5.00000000E-01
                      -2.50000000E-01  5.00000000E-01 -2.50000000E-01
                       0.00000000E+00 -2.50000000E-01  2.50000000E-01
                       2.50000000E-01 -2.50000000E-01  5.00000000E-01
                       5.00000000E-01 -2.50000000E-01 -2.50000000E-01
                       0.00000000E+00  0.00000000E+00  0.00000000E+00
                       2.50000000E-01  0.00000000E+00  2.50000000E-01
                       5.00000000E-01  0.00000000E+00  5.00000000E-01
                      -2.50000000E-01  0.00000000E+00 -2.50000000E-01
                       0.00000000E+00  2.50000000E-01  2.50000000E-01
                       2.50000000E-01  2.50000000E-01  5.00000000E-01
                       5.00000000E-01  2.50000000E-01 -2.50000000E-01
                       0.00000000E+00  5.00000000E-01  5.00000000E-01
                       2.50000000E-01  5.00000000E-01 -2.50000000E-01
                       0.00000000E+00 -2.50000000E-01 -2.50000000E-01
                       0.00000000E+00  0.00000000E+00  5.00000000E-01
                       2.50000000E-01  0.00000000E+00 -2.50000000E-01
                       0.00000000E+00  2.50000000E-01 -2.50000000E-01
         kptns_hf5    -2.50000000E-01 -2.50000000E-01  0.00000000E+00
                      -2.50000000E-01  2.50000000E-01  0.00000000E+00
                       5.00000000E-01  5.00000000E-01  0.00000000E+00
                      -2.50000000E-01  5.00000000E-01  2.50000000E-01
                       2.50000000E-01 -2.50000000E-01  0.00000000E+00
                       5.00000000E-01 -2.50000000E-01  2.50000000E-01
                      -2.50000000E-01 -2.50000000E-01  5.00000000E-01
                       5.00000000E-01  0.00000000E+00  0.00000000E+00
                      -2.50000000E-01  0.00000000E+00  2.50000000E-01
                       2.50000000E-01  2.50000000E-01  0.00000000E+00
                       5.00000000E-01  2.50000000E-01  2.50000000E-01
                      -2.50000000E-01  2.50000000E-01  5.00000000E-01
                       0.00000000E+00  5.00000000E-01  0.00000000E+00
                       2.50000000E-01  5.00000000E-01  2.50000000E-01
                       5.00000000E-01  5.00000000E-01  5.00000000E-01
                      -2.50000000E-01  5.00000000E-01 -2.50000000E-01
                       0.00000000E+00 -2.50000000E-01  2.50000000E-01
                       2.50000000E-01 -2.50000000E-01  5.00000000E-01
                       5.00000000E-01 -2.50000000E-01 -2.50000000E-01
                       0.00000000E+00  0.00000000E+00  0.00000000E+00
                       2.50000000E-01  0.00000000E+00  2.50000000E-01
                       5.00000000E-01  0.00000000E+00  5.00000000E-01
                      -2.50000000E-01  0.00000000E+00 -2.50000000E-01
                       0.00000000E+00  2.50000000E-01  2.50000000E-01
                       2.50000000E-01  2.50000000E-01  5.00000000E-01
                       5.00000000E-01  2.50000000E-01 -2.50000000E-01
                       0.00000000E+00  5.00000000E-01  5.00000000E-01
                       2.50000000E-01  5.00000000E-01 -2.50000000E-01
                       0.00000000E+00 -2.50000000E-01 -2.50000000E-01
                       0.00000000E+00  0.00000000E+00  5.00000000E-01
                       2.50000000E-01  0.00000000E+00 -2.50000000E-01
                       0.00000000E+00  2.50000000E-01 -2.50000000E-01
         kptns_hf6    -2.50000000E-01 -2.50000000E-01  0.00000000E+00
                      -2.50000000E-01  2.50000000E-01  0.00000000E+00
                       5.00000000E-01  5.00000000E-01  0.00000000E+00
                      -2.50000000E-01  5.00000000E-01  2.50000000E-01
                       2.50000000E-01 -2.50000000E-01  0.00000000E+00
                       5.00000000E-01 -2.50000000E-01  2.50000000E-01
                      -2.50000000E-01 -2.50000000E-01  5.00000000E-01
                       5.00000000E-01  0.00000000E+00  0.00000000E+00
                      -2.50000000E-01  0.00000000E+00  2.50000000E-01
                       2.50000000E-01  2.50000000E-01  0.00000000E+00
                       5.00000000E-01  2.50000000E-01  2.50000000E-01
                      -2.50000000E-01  2.50000000E-01  5.00000000E-01
                       0.00000000E+00  5.00000000E-01  0.00000000E+00
                       2.50000000E-01  5.00000000E-01  2.50000000E-01
                       5.00000000E-01  5.00000000E-01  5.00000000E-01
                      -2.50000000E-01  5.00000000E-01 -2.50000000E-01
                       0.00000000E+00 -2.50000000E-01  2.50000000E-01
                       2.50000000E-01 -2.50000000E-01  5.00000000E-01
                       5.00000000E-01 -2.50000000E-01 -2.50000000E-01
                       0.00000000E+00  0.00000000E+00  0.00000000E+00
                       2.50000000E-01  0.00000000E+00  2.50000000E-01
                       5.00000000E-01  0.00000000E+00  5.00000000E-01
                      -2.50000000E-01  0.00000000E+00 -2.50000000E-01
                       0.00000000E+00  2.50000000E-01  2.50000000E-01
                       2.50000000E-01  2.50000000E-01  5.00000000E-01
                       5.00000000E-01  2.50000000E-01 -2.50000000E-01
                       0.00000000E+00  5.00000000E-01  5.00000000E-01
                       2.50000000E-01  5.00000000E-01 -2.50000000E-01
                       0.00000000E+00 -2.50000000E-01 -2.50000000E-01
                       0.00000000E+00  0.00000000E+00  5.00000000E-01
                       2.50000000E-01  0.00000000E+00 -2.50000000E-01
                       0.00000000E+00  2.50000000E-01 -2.50000000E-01
         kptns_hf7    -2.50000000E-01 -2.50000000E-01  0.00000000E+00
                      -2.50000000E-01  2.50000000E-01  0.00000000E+00
                       5.00000000E-01  5.00000000E-01  0.00000000E+00
                      -2.50000000E-01  5.00000000E-01  2.50000000E-01
                       2.50000000E-01 -2.50000000E-01  0.00000000E+00
                       5.00000000E-01 -2.50000000E-01  2.50000000E-01
                      -2.50000000E-01 -2.50000000E-01  5.00000000E-01
                       5.00000000E-01  0.00000000E+00  0.00000000E+00
                      -2.50000000E-01  0.00000000E+00  2.50000000E-01
                       2.50000000E-01  2.50000000E-01  0.00000000E+00
                       5.00000000E-01  2.50000000E-01  2.50000000E-01
                      -2.50000000E-01  2.50000000E-01  5.00000000E-01
                       0.00000000E+00  5.00000000E-01  0.00000000E+00
                       2.50000000E-01  5.00000000E-01  2.50000000E-01
                       5.00000000E-01  5.00000000E-01  5.00000000E-01
                      -2.50000000E-01  5.00000000E-01 -2.50000000E-01
                       0.00000000E+00 -2.50000000E-01  2.50000000E-01
                       2.50000000E-01 -2.50000000E-01  5.00000000E-01
                       5.00000000E-01 -2.50000000E-01 -2.50000000E-01
                       0.00000000E+00  0.00000000E+00  0.00000000E+00
                       2.50000000E-01  0.00000000E+00  2.50000000E-01
                       5.00000000E-01  0.00000000E+00  5.00000000E-01
                      -2.50000000E-01  0.00000000E+00 -2.50000000E-01
                       0.00000000E+00  2.50000000E-01  2.50000000E-01
                       2.50000000E-01  2.50000000E-01  5.00000000E-01
                       5.00000000E-01  2.50000000E-01 -2.50000000E-01
                       0.00000000E+00  5.00000000E-01  5.00000000E-01
                       2.50000000E-01  5.00000000E-01 -2.50000000E-01
                       0.00000000E+00 -2.50000000E-01 -2.50000000E-01
                       0.00000000E+00  0.00000000E+00  5.00000000E-01
                       2.50000000E-01  0.00000000E+00 -2.50000000E-01
                       0.00000000E+00  2.50000000E-01 -2.50000000E-01
         kptns_hf13   -2.50000000E-01 -2.50000000E-01  0.00000000E+00
                      -2.50000000E-01  2.50000000E-01  0.00000000E+00
                       5.00000000E-01  5.00000000E-01  0.00000000E+00
                      -2.50000000E-01  5.00000000E-01  2.50000000E-01
                       2.50000000E-01 -2.50000000E-01  0.00000000E+00
                       5.00000000E-01 -2.50000000E-01  2.50000000E-01
                      -2.50000000E-01 -2.50000000E-01  5.00000000E-01
                       5.00000000E-01  0.00000000E+00  0.00000000E+00
                      -2.50000000E-01  0.00000000E+00  2.50000000E-01
                       2.50000000E-01  2.50000000E-01  0.00000000E+00
                       5.00000000E-01  2.50000000E-01  2.50000000E-01
                      -2.50000000E-01  2.50000000E-01  5.00000000E-01
                       0.00000000E+00  5.00000000E-01  0.00000000E+00
                       2.50000000E-01  5.00000000E-01  2.50000000E-01
                       5.00000000E-01  5.00000000E-01  5.00000000E-01
                      -2.50000000E-01  5.00000000E-01 -2.50000000E-01
                       0.00000000E+00 -2.50000000E-01  2.50000000E-01
                       2.50000000E-01 -2.50000000E-01  5.00000000E-01
                       5.00000000E-01 -2.50000000E-01 -2.50000000E-01
                       0.00000000E+00  0.00000000E+00  0.00000000E+00
                       2.50000000E-01  0.00000000E+00  2.50000000E-01
                       5.00000000E-01  0.00000000E+00  5.00000000E-01
                      -2.50000000E-01  0.00000000E+00 -2.50000000E-01
                       0.00000000E+00  2.50000000E-01  2.50000000E-01
                       2.50000000E-01  2.50000000E-01  5.00000000E-01
                       5.00000000E-01  2.50000000E-01 -2.50000000E-01
                       0.00000000E+00  5.00000000E-01  5.00000000E-01
                       2.50000000E-01  5.00000000E-01 -2.50000000E-01
                       0.00000000E+00 -2.50000000E-01 -2.50000000E-01
                       0.00000000E+00  0.00000000E+00  5.00000000E-01
                       2.50000000E-01  0.00000000E+00 -2.50000000E-01
                       0.00000000E+00  2.50000000E-01 -2.50000000E-01
         kptrlatt        2   -2    2     -2    2    2     -2   -2    2
          kptrlen      1.34813062E+01
P           mkmem           6
            natom           2
            nband          14
          nbandhf           4
           ndtset          13
            ngfft          15      15      15
             nkpt           6
           nkpthf          32
           npweps1          0
           npweps2         15
           npweps3         15
           npweps4         15
           npweps5         15
           npweps6         15
           npweps7          0
           npweps8         15
           npweps9         15
           npweps10        15
           npweps11        15
           npweps12        15
           npweps13        15
          npwsigx1          0
          npwsigx2         65
          npwsigx3         65
          npwsigx4         65
          npwsigx5         65
          npwsigx6         65
          npwsigx7          0
          npwsigx8         65
          npwsigx9         65
          npwsigx10        65
          npwsigx11        65
          npwsigx12        65
          npwsigx13        65
           npwwfn1          0
           npwwfn2         65
           npwwfn3         65
           npwwfn4         65
           npwwfn5         65
           npwwfn6         65
           npwwfn7          0
           npwwfn8         65
           npwwfn9         65
           npwwfn10        65
           npwwfn11        65
           npwwfn12        65
           npwwfn13        65
            nstep         250
             nsym          48
           ntypat           1
              occ      2.000000  2.000000  2.000000  2.000000  0.000000  0.000000
                       0.000000  0.000000  0.000000  0.000000  0.000000  0.000000
                       0.000000  0.000000
        optdriver1          0
        optdriver2          4
        optdriver3          4
        optdriver4          4
        optdriver5          4
        optdriver6          4
        optdriver7          0
        optdriver8          3
        optdriver9          4
        optdriver10         3
        optdriver11         4
        optdriver12         3
        optdriver13         4
        pawecutdg      4.00000000E+01 Hartree
           prtvol           2
            rprim      0.0000000000E+00  5.0000000000E-01  5.0000000000E-01
                       5.0000000000E-01  0.0000000000E+00  5.0000000000E-01
                       5.0000000000E-01  5.0000000000E-01  0.0000000000E+00
          spgroup         227
           symrel      1  0  0   0  1  0   0  0  1      -1  0  0   0 -1  0   0  0 -1
                       0 -1  1   0 -1  0   1 -1  0       0  1 -1   0  1  0  -1  1  0
                      -1  0  0  -1  0  1  -1  1  0       1  0  0   1  0 -1   1 -1  0
                       0  1 -1   1  0 -1   0  0 -1       0 -1  1  -1  0  1   0  0  1
                      -1  0  0  -1  1  0  -1  0  1       1  0  0   1 -1  0   1  0 -1
                       0 -1  1   1 -1  0   0 -1  0       0  1 -1  -1  1  0   0  1  0
                       1  0  0   0  0  1   0  1  0      -1  0  0   0  0 -1   0 -1  0
                       0  1 -1   0  0 -1   1  0 -1       0 -1  1   0  0  1  -1  0  1
                      -1  0  1  -1  1  0  -1  0  0       1  0 -1   1 -1  0   1  0  0
                       0 -1  0   1 -1  0   0 -1  1       0  1  0  -1  1  0   0  1 -1
                       1  0 -1   0  0 -1   0  1 -1      -1  0  1   0  0  1   0 -1  1
                       0  1  0   0  0  1   1  0  0       0 -1  0   0  0 -1  -1  0  0
                       1  0 -1   0  1 -1   0  0 -1      -1  0  1   0 -1  1   0  0  1
                       0 -1  0   0 -1  1   1 -1  0       0  1  0   0  1 -1  -1  1  0
                      -1  0  1  -1  0  0  -1  1  0       1  0 -1   1  0  0   1 -1  0
                       0  1  0   1  0  0   0  0  1       0 -1  0  -1  0  0   0  0 -1
                       0  0 -1   0  1 -1   1  0 -1       0  0  1   0 -1  1  -1  0  1
                       1 -1  0   0 -1  1   0 -1  0      -1  1  0   0  1 -1   0  1  0
                       0  0  1   1  0  0   0  1  0       0  0 -1  -1  0  0   0 -1  0
                      -1  1  0  -1  0  0  -1  0  1       1 -1  0   1  0  0   1  0 -1
                       0  0  1   0  1  0   1  0  0       0  0 -1   0 -1  0  -1  0  0
                       1 -1  0   0 -1  0   0 -1  1      -1  1  0   0  1  0   0  1 -1
                       0  0 -1   1  0 -1   0  1 -1       0  0  1  -1  0  1   0 -1  1
                      -1  1  0  -1  0  1  -1  0  0       1 -1  0   1  0 -1   1  0  0
         symsigma        0
            tnons      0.0000000  0.0000000  0.0000000     0.2500000  0.2500000  0.2500000
                       0.0000000  0.0000000  0.0000000     0.2500000  0.2500000  0.2500000
                       0.0000000  0.0000000  0.0000000     0.2500000  0.2500000  0.2500000
                       0.0000000  0.0000000  0.0000000     0.2500000  0.2500000  0.2500000
                       0.0000000  0.0000000  0.0000000     0.2500000  0.2500000  0.2500000
                       0.0000000  0.0000000  0.0000000     0.2500000  0.2500000  0.2500000
                       0.0000000  0.0000000  0.0000000     0.2500000  0.2500000  0.2500000
                       0.0000000  0.0000000  0.0000000     0.2500000  0.2500000  0.2500000
                       0.0000000  0.0000000  0.0000000     0.2500000  0.2500000  0.2500000
                       0.0000000  0.0000000  0.0000000     0.2500000  0.2500000  0.2500000
                       0.0000000  0.0000000  0.0000000     0.2500000  0.2500000  0.2500000
                       0.0000000  0.0000000  0.0000000     0.2500000  0.2500000  0.2500000
                       0.0000000  0.0000000  0.0000000     0.2500000  0.2500000  0.2500000
                       0.0000000  0.0000000  0.0000000     0.2500000  0.2500000  0.2500000
                       0.0000000  0.0000000  0.0000000     0.2500000  0.2500000  0.2500000
                       0.0000000  0.0000000  0.0000000     0.2500000  0.2500000  0.2500000
                       0.0000000  0.0000000  0.0000000     0.2500000  0.2500000  0.2500000
                       0.0000000  0.0000000  0.0000000     0.2500000  0.2500000  0.2500000
                       0.0000000  0.0000000  0.0000000     0.2500000  0.2500000  0.2500000
                       0.0000000  0.0000000  0.0000000     0.2500000  0.2500000  0.2500000
                       0.0000000  0.0000000  0.0000000     0.2500000  0.2500000  0.2500000
                       0.0000000  0.0000000  0.0000000     0.2500000  0.2500000  0.2500000
                       0.0000000  0.0000000  0.0000000     0.2500000  0.2500000  0.2500000
                       0.0000000  0.0000000  0.0000000     0.2500000  0.2500000  0.2500000
           tolvrs      1.00000000E-15
            typat      1  1
          usefock1          0
          usefock2          1
          usefock3          1
          usefock4          1
          usefock5          1
          usefock6          1
          usefock7          1
          usefock8          0
          usefock9          0
          usefock10         0
          usefock11         0
          usefock12         0
          usefock13         1
              wtk        0.18750    0.37500    0.09375    0.18750    0.12500    0.03125
           xangst      0.0000000000E+00  0.0000000000E+00  0.0000000000E+00
                       8.9174999628E-01  8.9174999628E-01  8.9174999628E-01
            xcart      0.0000000000E+00  0.0000000000E+00  0.0000000000E+00
                       1.6851632720E+00  1.6851632720E+00  1.6851632720E+00
             xred      0.0000000000E+00  0.0000000000E+00  0.0000000000E+00
                       2.5000000000E-01  2.5000000000E-01  2.5000000000E-01
            znucl        6.00000

================================================================================

 chkinp: Checking input parameters for consistency, jdtset=   1.

 chkinp: Checking input parameters for consistency, jdtset=   2.

 chkinp: Checking input parameters for consistency, jdtset=   3.

 chkinp: Checking input parameters for consistency, jdtset=   4.

 chkinp: Checking input parameters for consistency, jdtset=   5.

 chkinp: Checking input parameters for consistency, jdtset=   6.

 chkinp: Checking input parameters for consistency, jdtset=   7.

 chkinp: Checking input parameters for consistency, jdtset=   8.

 chkinp: Checking input parameters for consistency, jdtset=   9.

 chkinp: Checking input parameters for consistency, jdtset=  10.

 chkinp: Checking input parameters for consistency, jdtset=  11.

 chkinp: Checking input parameters for consistency, jdtset=  12.

 chkinp: Checking input parameters for consistency, jdtset=  13.

================================================================================
== DATASET  1 ==================================================================
-   mpi_nproc: 1, omp_nthreads: -1 (-1 if OMP is not activated)


--- !DatasetInfo
iteration_state: {dtset: 1, }
dimensions: {natom: 2, nkpt: 6, mband: 14, nsppol: 1, nspinor: 1, nspden: 1, mpw: 92, }
cutoff_energies: {ecut:   8.0, pawecutdg:  40.0, }
electrons: {nelect:   8.00000000E+00, charge:   0.00000000E+00, occopt:   1.00000000E+00, tsmear:   1.00000000E-02, }
meta: {optdriver: 0, ionmov: 0, optcell: 0, iscf: 7, paral_kgb: 0, }
...

 Exchange-correlation functional for the present dataset will be:
  GGA: Perdew-Burke-Ernzerhof functional - ixc=11
 Citation for XC functional:
  J.P.Perdew, K.Burke, M.Ernzerhof, PRL 77, 3865 (1996)

 Real(R)+Recip(G) space primitive vectors, cartesian coordinates (Bohr,Bohr^-1):
 R(1)=  0.0000000  3.3703265  3.3703265  G(1)= -0.1483536  0.1483536  0.1483536
 R(2)=  3.3703265  0.0000000  3.3703265  G(2)=  0.1483536 -0.1483536  0.1483536
 R(3)=  3.3703265  3.3703265  0.0000000  G(3)=  0.1483536  0.1483536 -0.1483536
 Unit cell volume ucvol=  7.6567759E+01 bohr^3
 Angles (23,13,12)=  6.00000000E+01  6.00000000E+01  6.00000000E+01 degrees

 getcut: wavevector=  0.0000  0.0000  0.0000  ngfft=  15  15  15
         ecut(hartree)=      8.000   => boxcut(ratio)=   2.31865

 getcut : COMMENT -
  Note that boxcut > 2.2 ; recall that boxcut=Gcut(box)/Gcut(sphere) = 2
  is sufficient for exact treatment of convolution.
  Such a large boxcut is a waste : you could raise ecut
  e.g. ecut=   10.752291 Hartrees makes boxcut=2


--- Pseudopotential description ------------------------------------------------
- pspini: atom type   1  psp file is /home/buildbot/bb/ABINIT/abiref_gnu_9.2_serial/marm3.14_ecut/tests/Psps_for_tests/C.psp8
- pspatm: opening atomic psp file    /home/buildbot/bb/ABINIT/abiref_gnu_9.2_serial/marm3.14_ecut/tests/Psps_for_tests/C.psp8
- C     ONCVPSP-3.2.3  r_core=   1.51078   1.70218
-  6.00000   4.00000    160922                znucl, zion, pspdat
    8   11    1    4       600   0.00000      pspcod,pspxc,lmax,lloc,mmax,r2well
    5.99000000000000    4.00000000000000    0.00000000000000   rchrg,fchrg,qchrg
     nproj     2     2
     extension_switch     1
  pspatm : epsatm=    6.54852399
         --- l  ekb(1:nproj) -->
             0    5.385069    0.619074
             1   -3.489168   -1.040664
 pspatm: atomic psp has been read  and splines computed

   1.04776384E+02                                ecore*ucvol(ha*bohr**3)
--------------------------------------------------------------------------------

P newkpt: treating     14 bands with npw=      84 for ikpt=   1 by node    0
P newkpt: treating     14 bands with npw=      79 for ikpt=   2 by node    0
P newkpt: treating     14 bands with npw=      92 for ikpt=   3 by node    0
P newkpt: treating     14 bands with npw=      84 for ikpt=   4 by node    0
P newkpt: treating     14 bands with npw=      76 for ikpt=   5 by node    0
P newkpt: treating     14 bands with npw=      65 for ikpt=   6 by node    0
_setup2: Arith. and geom. avg. npw (full set) are      81.281      81.110

================================================================================

--- !BeginCycle
iteration_state: {dtset: 1, }
solver: {iscf: 7, nstep: 250, nline: 4, wfoptalg: 0, }
tolerances: {tolvrs: 1.00E-15, }
...

     iter   Etot(hartree)      deltaE(h)  residm     vres2
 ETOT  1  -11.728216697157    -1.173E+01 1.433E-02 1.559E+00
 ETOT  2  -11.729558941815    -1.342E-03 6.799E-04 3.389E-03
 ETOT  3  -11.729560116512    -1.175E-06 2.913E-05 5.009E-05
 ETOT  4  -11.729560133945    -1.743E-08 3.706E-06 1.033E-06
 ETOT  5  -11.729560134278    -3.327E-10 1.743E-07 7.567E-10
 ETOT  6  -11.729560134278    -2.398E-13 3.165E-08 6.238E-13
 ETOT  7  -11.729560134278     5.862E-14 1.644E-09 5.555E-16

 At SCF step    7       vres2   =  5.56E-16 < tolvrs=  1.00E-15 =>converged.

 Cartesian components of stress tensor (hartree/bohr^3)
  sigma(1 1)=  4.85646418E-03  sigma(3 2)=  0.00000000E+00
  sigma(2 2)=  4.85646418E-03  sigma(3 1)=  0.00000000E+00
  sigma(3 3)=  4.85646418E-03  sigma(2 1)=  0.00000000E+00


--- !ResultsGS
iteration_state: {dtset: 1, }
comment   : Summary of ground state results
lattice_vectors:
- [  0.0000000,   3.3703265,   3.3703265, ]
- [  3.3703265,   0.0000000,   3.3703265, ]
- [  3.3703265,   3.3703265,   0.0000000, ]
lattice_lengths: [   4.76636,    4.76636,    4.76636, ]
lattice_angles: [ 60.000,  60.000,  60.000, ] # degrees, (23, 13, 12)
lattice_volume:   7.6567759E+01
convergence: {deltae:  5.862E-14, res2:  5.555E-16, residm:  1.644E-09, diffor: null, }
etotal    :  -1.17295601E+01
entropy   :   0.00000000E+00
fermie    :   3.96241984E-01
cartesian_stress_tensor: # hartree/bohr^3
- [  4.85646418E-03,   0.00000000E+00,   0.00000000E+00, ]
- [  0.00000000E+00,   4.85646418E-03,   0.00000000E+00, ]
- [  0.00000000E+00,   0.00000000E+00,   4.85646418E-03, ]
pressure_GPa:  -1.4288E+02
xred      :
- [  0.0000E+00,   0.0000E+00,   0.0000E+00,  C]
- [  2.5000E-01,   2.5000E-01,   2.5000E-01,  C]
cartesian_forces: # hartree/bohr
- [  3.27240542E-25,   1.63620271E-24,  -6.21757029E-24, ]
- [ -3.27240542E-25,  -1.63620271E-24,   6.21757029E-24, ]
force_length_stats: {min:   6.43757920E-24, max:   6.43757920E-24, mean:   6.43757920E-24, }
...

 Integrated electronic density in atomic spheres:
 ------------------------------------------------
 Atom  Sphere_radius  Integrated_density
    1        2.00000          4.80712507
    2        2.00000          4.86139611
================================================================================

 ----iterations are completed or convergence reached----

 Mean square residual over all n,k,spin=   25.136E-12; max=  16.435E-10
  -0.2500 -0.2500  0.0000    1  6.71691E-18 kpt; spin; max resid(k); each band:
   3.99E-20  2.03E-19  1.58E-18  1.58E-18  2.51E-18  1.91E-18  2.93E-18  2.89E-18
   3.58E-18  2.54E-18  1.80E-19  5.49E-18  5.34E-18  6.72E-18
  -0.2500  0.2500  0.0000    1  8.19306E-11 kpt; spin; max resid(k); each band:
   1.83E-19  2.24E-19  2.18E-18  2.57E-19  1.42E-18  8.85E-20  5.85E-18  2.16E-18
   2.70E-19  1.05E-17  1.98E-18  3.54E-18  1.51E-17  8.19E-11
   0.5000  0.5000  0.0000    1  5.27023E-19 kpt; spin; max resid(k); each band:
   1.93E-20  2.07E-20  2.31E-19  2.33E-19  4.83E-19  5.09E-19  5.99E-20  1.08E-19
   5.27E-19  4.20E-19  2.80E-19  2.31E-19  1.52E-21  1.69E-21
  -0.2500  0.5000  0.2500    1  1.64353E-09 kpt; spin; max resid(k); each band:
   1.45E-19  8.11E-20  8.94E-19  3.92E-19  2.78E-18  2.95E-18  1.98E-19  2.83E-19
   1.74E-17  1.62E-17  9.09E-20  7.91E-20  3.86E-10  1.64E-09
   0.5000  0.0000  0.0000    1  1.50560E-18 kpt; spin; max resid(k); each band:
   6.01E-20  1.77E-19  1.42E-18  1.42E-18  6.11E-19  5.33E-19  5.29E-19  1.25E-18
   8.89E-19  1.45E-18  5.23E-19  5.15E-19  1.51E-18  1.50E-18
   0.0000  0.0000  0.0000    1  4.83046E-18 kpt; spin; max resid(k); each band:
   1.81E-20  4.68E-18  4.68E-18  4.67E-18  3.29E-20  3.29E-20  3.33E-20  1.21E-19
   3.51E-20  6.73E-19  3.30E-21  4.75E-18  4.75E-18  4.83E-18
 reduced coordinates (array xred) for    2 atoms
       0.000000000000      0.000000000000      0.000000000000
       0.250000000000      0.250000000000      0.250000000000
 rms dE/dt=  1.7920E-23; max dE/dt=  3.0881E-23; dE/dt below (all hartree)
    1       0.000000000000      0.000000000000     -0.000000000000
    2       0.000000000000     -0.000000000000      0.000000000000

 cartesian coordinates (angstrom) at end:
    1      0.00000000000000     0.00000000000000     0.00000000000000
    2      0.89174999627579     0.89174999627579     0.89174999627579

 cartesian forces (hartree/bohr) at end:
    1      0.00000000000000     0.00000000000000    -0.00000000000000
    2     -0.00000000000000    -0.00000000000000     0.00000000000000
 frms,max,avg= 3.7167381E-24 6.2175703E-24   0.000E+00  0.000E+00  0.000E+00 h/b

 cartesian forces (eV/Angstrom) at end:
    1      0.00000000000000     0.00000000000000    -0.00000000000000
    2     -0.00000000000000    -0.00000000000000     0.00000000000000
 frms,max,avg= 1.9112234E-22 3.1972029E-22   0.000E+00  0.000E+00  0.000E+00 e/A
 length scales=  6.740653087852  6.740653087852  6.740653087852 bohr
              =  3.566999985103  3.566999985103  3.566999985103 angstroms
 prteigrs : about to open file t44o_DS1_EIG
 Fermi (or HOMO) energy (eV) =  10.78229   Average Vxc (eV)= -13.50929
 Eigenvalues (   eV  ) for nkpt=   6  k points:
 kpt#   1, nband= 14, wtk=  0.18750, kpt= -0.2500 -0.2500  0.0000 (reduced coord)
 -10.35761    4.89029    5.22100    5.22102   14.04147   19.46615   22.59342   22.59344
  29.77268   33.02392   39.20659   42.35599   42.35603   45.04340
 kpt#   2, nband= 14, wtk=  0.37500, kpt= -0.2500  0.2500  0.0000 (reduced coord)
  -8.03907    0.42445    1.76036    6.84579   17.61888   20.73216   22.92967   23.77440
  30.35580   30.76702   36.04947   42.90346   45.65234   51.73520
 kpt#   3, nband= 14, wtk=  0.09375, kpt=  0.5000  0.5000  0.0000 (reduced coord)
  -3.92780   -3.92771    2.83878    2.83880   13.90723   13.90725   28.49091   28.49094
  33.68295   33.68338   42.55396   42.55401   47.99023   47.99034
 kpt#   4, nband= 14, wtk=  0.18750, kpt= -0.2500  0.5000  0.2500 (reduced coord)
  -2.92995   -2.92982    0.84474    0.84475   20.67565   20.67577   22.25727   22.25746
  33.07522   33.07532   41.06361   41.06369   53.06174   53.06190
 kpt#   5, nband= 14, wtk=  0.12500, kpt=  0.5000  0.0000  0.0000 (reduced coord)
  -6.80532   -4.36560    7.29402    7.29403   18.19025   18.88140   18.88143   25.93491
  32.48457   34.88304   36.73984   36.73986   43.92663   43.92667
 kpt#   6, nband= 14, wtk=  0.03125, kpt=  0.0000  0.0000  0.0000 (reduced coord)
 -12.64347   10.78229   10.78229   10.78229   16.01371   16.01371   16.01373   23.35749
  28.57513   36.32216   36.32216   37.16387   37.16387   37.16391
 Total charge density [el/Bohr^3]
      Maximum=    2.7776E-01  at reduced coord.    0.1333    0.1333    0.6000
 Next maximum=    2.7776E-01  at reduced coord.    0.1333    0.6000    0.1333
      Minimum=    1.5001E-02  at reduced coord.    0.7333    0.7333    0.7333
 Next minimum=    1.5001E-02  at reduced coord.    0.8000    0.7333    0.7333
   Integrated=    8.0000E+00

--- !EnergyTerms
iteration_state     : {dtset: 1, }
comment             : Components of total free energy in Hartree
kinetic             :  7.42746153805544E+00
hartree             :  8.53940825218230E-01
xc                  : -4.27325480542850E+00
Ewald energy        : -1.27864121744519E+01
psp_core            :  1.36841387056176E+00
local_psp           : -3.60688076094452E+00
non_local_psp       : -7.12828627288616E-01
total_energy        : -1.17295601342781E+01
total_energy_eV     : -3.19177563322795E+02
band_energy         :  1.00056854390748E-01
...


 Cartesian components of stress tensor (hartree/bohr^3)
  sigma(1 1)=  4.85646418E-03  sigma(3 2)=  0.00000000E+00
  sigma(2 2)=  4.85646418E-03  sigma(3 1)=  0.00000000E+00
  sigma(3 3)=  4.85646418E-03  sigma(2 1)=  0.00000000E+00

-Cartesian components of stress tensor (GPa)         [Pressure= -1.4288E+02 GPa]
- sigma(1 1)=  1.42882085E+02  sigma(3 2)=  0.00000000E+00
- sigma(2 2)=  1.42882085E+02  sigma(3 1)=  0.00000000E+00
- sigma(3 3)=  1.42882085E+02  sigma(2 1)=  0.00000000E+00

================================================================================
== DATASET  2 ==================================================================
-   mpi_nproc: 1, omp_nthreads: -1 (-1 if OMP is not activated)


--- !DatasetInfo
iteration_state: {dtset: 2, }
dimensions: {natom: 2, nkpt: 6, mband: 14, nsppol: 1, nspinor: 1, nspden: 1, mpw: 92, }
cutoff_energies: {ecut:   8.0, pawecutdg:  40.0, }
electrons: {nelect:   8.00000000E+00, charge:   0.00000000E+00, occopt:   1.00000000E+00, tsmear:   1.00000000E-02, }
meta: {optdriver: 4, gwcalctyp: 25, }
...

 mkfilename : getwfk/=0, take file _WFK from output of DATASET   1.

 mkfilename : getqps/=0, take file _QPS from output of DATASET   1.

 Exchange-correlation functional for the present dataset will be:
  GGA: Perdew-Burke-Ernzerhof functional - ixc=11
 Citation for XC functional:
  J.P.Perdew, K.Burke, M.Ernzerhof, PRL 77, 3865 (1996)

 SIGMA: Calculation of the GW corrections 

 Based on a program developped by R.W. Godby, V. Olevano, G. Onida, and L. Reining.
 Incorporated in ABINIT by V. Olevano, G.-M. Rignanese, and M. Torrent.
.Using double precision arithmetic ; gwpc =  8

 Real(R)+Recip(G) space primitive vectors, cartesian coordinates (Bohr,Bohr^-1):
 R(1)=  0.0000000  3.3703265  3.3703265  G(1)= -0.1483536  0.1483536  0.1483536
 R(2)=  3.3703265  0.0000000  3.3703265  G(2)=  0.1483536 -0.1483536  0.1483536
 R(3)=  3.3703265  3.3703265  0.0000000  G(3)=  0.1483536  0.1483536 -0.1483536
 Unit cell volume ucvol=  7.6567759E+01 bohr^3
 Angles (23,13,12)=  6.00000000E+01  6.00000000E+01  6.00000000E+01 degrees
--------------------------------------------------------------------------------

 ==== K-mesh for the wavefunctions ====
 Number of points in the irreducible wedge :     6
 Reduced coordinates and weights : 

     1)    -2.50000000E-01 -2.50000000E-01  0.00000000E+00       0.18750
     2)    -2.50000000E-01  2.50000000E-01  0.00000000E+00       0.37500
     3)     5.00000000E-01  5.00000000E-01  0.00000000E+00       0.09375
     4)    -2.50000000E-01  5.00000000E-01  2.50000000E-01       0.18750
     5)     5.00000000E-01  0.00000000E+00  0.00000000E+00       0.12500
     6)     0.00000000E+00  0.00000000E+00  0.00000000E+00       0.03125

 Together with 48 symmetry operations and time-reversal symmetry 
 yields    32 points in the full Brillouin Zone.


 ==== Q-mesh for screening function ====
 Number of points in the irreducible wedge :     6
 Reduced coordinates and weights : 

     1)     0.00000000E+00  0.00000000E+00  0.00000000E+00       0.03125
     2)     5.00000000E-01  5.00000000E-01  0.00000000E+00       0.09375
     3)     5.00000000E-01  2.50000000E-01  2.50000000E-01       0.37500
     4)     0.00000000E+00  5.00000000E-01  0.00000000E+00       0.12500
     5)     5.00000000E-01 -2.50000000E-01  2.50000000E-01       0.18750
     6)     0.00000000E+00 -2.50000000E-01 -2.50000000E-01       0.18750

 Together with 48 symmetry operations and time-reversal symmetry 
 yields    32 points in the full Brillouin Zone.


 setmesh: FFT mesh size selected  =  12x 12x 12
          total number of points  =     1728

 Number of electrons calculated from density =    8.0000; Expected =    8.0000
 average of density, n =  0.104483
 r_s =    1.3171
 omega_plasma =   31.1801 [eV]


 rdqps: reading QP wavefunctions of the previous step 
        looking for file t44o_DS1_QPS
 file not found, 1st iteration initialized with KS eigenelements 

 Number of electrons calculated from density =    8.0000; Expected =    8.0000
 average of density, n =  0.104483
 r_s =    1.3171
 omega_plasma =   31.1801 [eV]


--------------------------------------------------------------------------------

 QP results after the unitary transformation in the KS subspace: 

  Number of electrons    =    8.0000

  QP Band energy    [Ha] =  1.00056854390748E-01
  QP Hartree energy [Ha] =  8.53940825218230E-01

--------------------------------------------------------------------------------

 === KS Band Gaps ===
  >>>> For spin  1
   Minimum direct gap =   5.2314 [eV], located at k-point      :   0.0000  0.0000  0.0000
   Fundamental gap    =   3.1249 [eV], Top of valence bands at :   0.0000  0.0000  0.0000
                                       Bottom of conduction at :   0.5000  0.5000  0.0000
 SIGMA fundamental parameters:
 Hartree-Fock
 number of plane-waves for SigmaX                   65
 number of plane-waves for SigmaC and W              1
 number of plane-waves for wavefunctions            65
 number of bands                                    14
 number of independent spin polarizations            1
 number of spinorial components                      1
 number of k-points in IBZ                           6
 number of q-points in IBZ                           6
 number of symmetry operations                      48
 number of k-points in BZ                           32
 number of q-points in BZ                           32
 number of frequencies for dSigma/dE                 1
 frequency step for dSigma/dE [eV]                0.00
 number of omega for Sigma on real axis              0
 max omega for Sigma on real axis  [eV]           0.00
 zcut for avoiding poles [eV]                     0.10

 matrix elements of self-energy operator (all in [eV])

 Self-Consistent on Energies and Wavefunctions

--- !SelfEnergy_ee
iteration_state: {dtset: 2, }
kpoint     : [  -0.250,   -0.250,    0.000, ]
spin       : 1
KS_gap     :    8.820
QP_gap     :   10.533
Delta_QP_KS:    1.713
data: !SigmaeeData |
     Band     E_DFT   <VxcDFT>   E(N-1)  <Hhartree>   SigX  SigC[E(N-1)]    Z     dSigC/dE  Sig[E(N)]  DeltaE  E(N)_pert E(N)_diago
        1   -10.358   -14.994   -10.358    -7.387    -5.580     0.000     1.000     0.000    -5.580    -2.610   -12.967   -12.968
        2     4.890   -16.441     4.890     8.244    -4.582     0.000     1.000     0.000    -4.582    -1.228     3.662     3.662
        3     5.221   -15.988     5.221     8.461    -4.277     0.000     1.000     0.000    -4.277    -1.037     4.184     4.180
        4     5.221   -15.988     5.221     8.461    -4.278     0.000     1.000     0.000    -4.278    -1.038     4.183     4.181
        5    14.041   -14.323    14.041    16.834    -2.118     0.000     1.000     0.000    -2.118     0.675    14.716    14.713
        6    19.466   -13.404    19.466    22.021    -1.624     0.000     1.000     0.000    -1.624     0.931    20.397    20.386
        7    22.593   -16.100    22.593    25.854    -1.970     0.000     1.000     0.000    -1.970     1.290    23.884    23.885
        8    22.593   -16.100    22.593    25.854    -1.970     0.000     1.000     0.000    -1.970     1.291    23.884    23.885
        9    29.773   -14.790    29.773    32.692    -1.491     0.000     1.000     0.000    -1.491     1.428    31.201    31.212
       10    33.024   -12.983    33.024    35.482    -1.027     0.000     1.000     0.000    -1.027     1.432    34.456    34.459
       11    39.207   -13.899    39.207    41.889    -1.391     0.000     1.000     0.000    -1.391     1.292    40.498    40.498
       12    42.356   -11.595    42.356    44.467    -0.733     0.000     1.000     0.000    -0.733     1.378    43.734    43.735
       13    42.356   -11.595    42.356    44.467    -0.733     0.000     1.000     0.000    -0.733     1.378    43.734    43.736
       14    45.043   -11.538    45.043    47.106    -0.800     0.000     1.000     0.000    -0.800     1.263    46.307    46.307
...


--- !SelfEnergy_ee
iteration_state: {dtset: 2, }
kpoint     : [  -0.250,    0.250,    0.000, ]
spin       : 1
KS_gap     :   10.773
QP_gap     :   12.625
Delta_QP_KS:    1.852
data: !SigmaeeData |
     Band     E_DFT   <VxcDFT>   E(N-1)  <Hhartree>   SigX  SigC[E(N-1)]    Z     dSigC/dE  Sig[E(N)]  DeltaE  E(N)_pert E(N)_diago
        1    -8.039   -15.188    -8.039    -5.018    -5.447     0.000     1.000     0.000    -5.447    -2.426   -10.465   -10.467
        2     0.424   -15.830     0.424     3.618    -4.797     0.000     1.000     0.000    -4.797    -1.604    -1.179    -1.180
        3     1.760   -15.147     1.760     4.777    -4.351     0.000     1.000     0.000    -4.351    -1.334     0.426     0.426
        4     6.846   -16.289     6.846    10.168    -4.311     0.000     1.000     0.000    -4.311    -0.990     5.856     5.856
        5    17.619   -14.280    17.619    20.402    -1.920     0.000     1.000     0.000    -1.920     0.863    18.481    18.475
        6    20.732   -15.553    20.732    23.844    -1.908     0.000     1.000     0.000    -1.908     1.203    21.936    21.936
        7    22.930   -15.392    22.930    26.009    -1.920     0.000     1.000     0.000    -1.920     1.159    24.089    24.077
        8    23.774   -15.142    23.774    26.775    -1.633     0.000     1.000     0.000    -1.633     1.367    25.141    25.138
        9    30.356   -12.698    30.356    32.748    -1.371     0.000     1.000     0.000    -1.371     1.021    31.377    31.377
       10    30.767   -13.707    30.767    33.414    -1.214     0.000     1.000     0.000    -1.214     1.433    32.200    32.213
       11    36.049   -14.457    36.049    38.885    -1.086     0.000     1.000     0.000    -1.086     1.750    37.799    37.804
       12    42.903   -11.735    42.903    45.056    -0.810     0.000     1.000     0.000    -0.810     1.343    44.246    44.247
       13    45.652   -13.099    45.652    48.126    -1.024     0.000     1.000     0.000    -1.024     1.449    47.102    47.107
       14    51.735   -13.146    51.735    54.240    -0.882     0.000     1.000     0.000    -0.882     1.622    53.357    53.358
...


--- !SelfEnergy_ee
iteration_state: {dtset: 2, }
kpoint     : [   0.500,    0.500,    0.000, ]
spin       : 1
KS_gap     :   11.068
QP_gap     :   12.959
Delta_QP_KS:    1.891
data: !SigmaeeData |
     Band     E_DFT   <VxcDFT>   E(N-1)  <Hhartree>   SigX  SigC[E(N-1)]    Z     dSigC/dE  Sig[E(N)]  DeltaE  E(N)_pert E(N)_diago
        1    -3.928   -15.591    -3.928    -0.800    -5.160     0.000     1.000     0.000    -5.160    -2.032    -5.960    -5.961
        2    -3.928   -15.591    -3.928    -0.800    -5.160     0.000     1.000     0.000    -5.160    -2.032    -5.960    -5.961
        3     2.839   -15.802     2.839     6.030    -4.454     0.000     1.000     0.000    -4.454    -1.263     1.576     1.575
        4     2.839   -15.802     2.839     6.030    -4.455     0.000     1.000     0.000    -4.455    -1.264     1.575     1.576
        5    13.907   -13.429    13.907    16.470    -1.936     0.000     1.000     0.000    -1.936     0.627    14.535    14.530
        6    13.907   -13.429    13.907    16.470    -1.935     0.000     1.000     0.000    -1.935     0.628    14.535    14.530
        7    28.491   -16.585    28.491    31.872    -1.547     0.000     1.000     0.000    -1.547     1.834    30.325    30.325
        8    28.491   -16.585    28.491    31.872    -1.547     0.000     1.000     0.000    -1.547     1.834    30.325    30.325
        9    33.683   -14.831    33.683    36.620    -1.167     0.000     1.000     0.000    -1.167     1.770    35.453    35.458
       10    33.683   -14.831    33.683    36.621    -1.167     0.000     1.000     0.000    -1.167     1.770    35.453    35.461
       11    42.554   -13.122    42.554    45.082    -1.097     0.000     1.000     0.000    -1.097     1.431    43.985    43.985
       12    42.554   -13.122    42.554    45.082    -1.097     0.000     1.000     0.000    -1.097     1.431    43.985    43.985
       13    47.990   -13.948    47.990    50.685    -1.146     0.000     1.000     0.000    -1.146     1.549    49.539    49.538
       14    47.990   -13.948    47.990    50.685    -1.146     0.000     1.000     0.000    -1.146     1.549    49.539    49.540
...


--- !SelfEnergy_ee
iteration_state: {dtset: 2, }
kpoint     : [  -0.250,    0.500,    0.250, ]
spin       : 1
KS_gap     :   19.831
QP_gap     :   22.169
Delta_QP_KS:    2.338
data: !SigmaeeData |
     Band     E_DFT   <VxcDFT>   E(N-1)  <Hhartree>   SigX  SigC[E(N-1)]    Z     dSigC/dE  Sig[E(N)]  DeltaE  E(N)_pert E(N)_diago
        1    -2.930   -15.924    -2.930     0.282    -5.216     0.000     1.000     0.000    -5.216    -2.004    -4.934    -4.935
        2    -2.930   -15.924    -2.930     0.282    -5.216     0.000     1.000     0.000    -5.216    -2.005    -4.934    -4.934
        3     0.845   -14.886     0.845     3.797    -4.324     0.000     1.000     0.000    -4.324    -1.373    -0.528    -0.529
        4     0.845   -14.886     0.845     3.797    -4.324     0.000     1.000     0.000    -4.324    -1.373    -0.528    -0.529
        5    20.676   -13.787    20.676    23.342    -1.700     0.000     1.000     0.000    -1.700     0.965    21.641    21.633
        6    20.676   -13.786    20.676    23.342    -1.700     0.000     1.000     0.000    -1.700     0.966    21.641    21.634
        7    22.257   -15.722    22.257    25.408    -1.836     0.000     1.000     0.000    -1.836     1.315    23.573    23.565
        8    22.257   -15.722    22.257    25.409    -1.836     0.000     1.000     0.000    -1.836     1.316    23.573    23.567
        9    33.075   -15.280    33.075    36.133    -1.340     0.000     1.000     0.000    -1.340     1.717    34.792    34.800
       10    33.075   -15.280    33.075    36.133    -1.340     0.000     1.000     0.000    -1.340     1.717    34.792    34.801
       11    41.064   -13.293    41.064    43.615    -1.017     0.000     1.000     0.000    -1.017     1.534    42.597    42.604
       12    41.064   -13.293    41.064    43.615    -1.018     0.000     1.000     0.000    -1.018     1.534    42.598    42.605
       13    53.062   -12.682    53.062    55.442    -0.857     0.000     1.000     0.000    -0.857     1.523    54.585    54.585
       14    53.062   -12.682    53.062    55.442    -0.857     0.000     1.000     0.000    -0.857     1.523    54.585    54.587
...


--- !SelfEnergy_ee
iteration_state: {dtset: 2, }
kpoint     : [   0.500,    0.000,    0.000, ]
spin       : 1
KS_gap     :   10.896
QP_gap     :   12.761
Delta_QP_KS:    1.865
data: !SigmaeeData |
     Band     E_DFT   <VxcDFT>   E(N-1)  <Hhartree>   SigX  SigC[E(N-1)]    Z     dSigC/dE  Sig[E(N)]  DeltaE  E(N)_pert E(N)_diago
        1    -6.805   -15.648    -6.805    -3.666    -5.510     0.000     1.000     0.000    -5.510    -2.372    -9.177    -9.177
        2    -4.366   -14.638    -4.366    -1.482    -4.804     0.000     1.000     0.000    -4.804    -1.921    -6.286    -6.288
        3     7.294   -16.391     7.294    10.642    -4.329     0.000     1.000     0.000    -4.329    -0.981     6.313     6.313
        4     7.294   -16.391     7.294    10.642    -4.329     0.000     1.000     0.000    -4.329    -0.981     6.313     6.313
        5    18.190   -15.320    18.190    21.233    -2.159     0.000     1.000     0.000    -2.159     0.884    19.074    19.070
        6    18.881   -14.721    18.881    21.781    -1.933     0.000     1.000     0.000    -1.933     0.967    19.848    19.839
        7    18.881   -14.721    18.881    21.781    -1.934     0.000     1.000     0.000    -1.934     0.965    19.847    19.841
        8    25.935   -12.822    25.935    28.346    -1.120     0.000     1.000     0.000    -1.120     1.291    27.226    27.204
        9    32.485   -13.540    32.485    35.092    -1.107     0.000     1.000     0.000    -1.107     1.500    33.984    33.990
       10    34.883   -14.627    34.883    37.759    -1.163     0.000     1.000     0.000    -1.163     1.713    36.596    36.618
       11    36.740   -13.659    36.740    39.374    -1.131     0.000     1.000     0.000    -1.131     1.503    38.243    38.248
       12    36.740   -13.659    36.740    39.374    -1.132     0.000     1.000     0.000    -1.132     1.502    38.242    38.250
       13    43.927   -13.901    43.927    46.631    -1.249     0.000     1.000     0.000    -1.249     1.455    45.382    45.380
       14    43.927   -13.901    43.927    46.631    -1.250     0.000     1.000     0.000    -1.250     1.454    45.381    45.383
...


--- !SelfEnergy_ee
iteration_state: {dtset: 2, }
kpoint     : [   0.000,    0.000,    0.000, ]
spin       : 1
KS_gap     :    5.231
QP_gap     :    6.840
Delta_QP_KS:    1.609
data: !SigmaeeData |
     Band     E_DFT   <VxcDFT>   E(N-1)  <Hhartree>   SigX  SigC[E(N-1)]    Z     dSigC/dE  Sig[E(N)]  DeltaE  E(N)_pert E(N)_diago
        1   -12.643   -14.824   -12.643    -9.715    -5.733     0.000     1.000     0.000    -5.733    -2.805   -15.448   -15.448
        2    10.782   -16.749    10.782    14.227    -4.206     0.000     1.000     0.000    -4.206    -0.762    10.021    10.019
        3    10.782   -16.749    10.782    14.227    -4.206     0.000     1.000     0.000    -4.206    -0.762    10.021    10.019
        4    10.782   -16.749    10.782    14.227    -4.206     0.000     1.000     0.000    -4.206    -0.762    10.021    10.020
        5    16.014   -15.243    16.014    19.046    -2.185     0.000     1.000     0.000    -2.185     0.847    16.861    16.860
        6    16.014   -15.243    16.014    19.046    -2.185     0.000     1.000     0.000    -2.185     0.847    16.861    16.860
        7    16.014   -15.243    16.014    19.046    -2.186     0.000     1.000     0.000    -2.186     0.846    16.860    16.862
        8    23.357   -15.643    23.357    26.467    -1.872     0.000     1.000     0.000    -1.872     1.238    24.595    24.595
        9    28.575   -11.695    28.575    30.696    -1.061     0.000     1.000     0.000    -1.061     1.060    29.635    29.636
       10    36.322   -13.873    36.322    38.998    -1.494     0.000     1.000     0.000    -1.494     1.181    37.503    37.503
       11    36.322   -13.873    36.322    38.998    -1.494     0.000     1.000     0.000    -1.494     1.181    37.503    37.503
       12    37.164   -11.412    37.164    39.228    -0.806     0.000     1.000     0.000    -0.806     1.258    38.422    38.423
       13    37.164   -11.412    37.164    39.228    -0.806     0.000     1.000     0.000    -0.806     1.258    38.422    38.423
       14    37.164   -11.412    37.164    39.228    -0.806     0.000     1.000     0.000    -0.806     1.258    38.422    38.423
...


 New Fermi energy :        4.510811E-01 Ha ,    1.227454E+01 eV
 New Exchange energy :    -6.954724E-01 Ha ,   -1.892477E+01 eV

 === QP Band Gaps ===
  >>>> For spin  1
   Minimum direct gap =   6.8401 [eV], located at k-point      :   0.0000  0.0000  0.0000
   Fundamental gap    =   4.5099 [eV], Top of valence bands at :   0.0000  0.0000  0.0000
                                       Bottom of conduction at :   0.5000  0.5000  0.0000

 writing QP data on file : t44o_DS2_QPS

 Convergence of QP corrections
 >>>>> For spin  1 <<<<<
.  kptgw no:  1; Maximum DeltaE = (  -2.610   0.000) for band index:  1
.  kptgw no:  2; Maximum DeltaE = (  -2.426   0.000) for band index:  1
.  kptgw no:  3; Maximum DeltaE = (  -2.032   0.000) for band index:  2
.  kptgw no:  4; Maximum DeltaE = (  -2.005   0.000) for band index:  2
.  kptgw no:  5; Maximum DeltaE = (  -2.372   0.000) for band index:  1
.  kptgw no:  6; Maximum DeltaE = (  -2.805   0.000) for band index:  1

================================================================================
== DATASET  3 ==================================================================
-   mpi_nproc: 1, omp_nthreads: -1 (-1 if OMP is not activated)


--- !DatasetInfo
iteration_state: {dtset: 3, }
dimensions: {natom: 2, nkpt: 6, mband: 14, nsppol: 1, nspinor: 1, nspden: 1, mpw: 92, }
cutoff_energies: {ecut:   8.0, pawecutdg:  40.0, }
electrons: {nelect:   8.00000000E+00, charge:   0.00000000E+00, occopt:   1.00000000E+00, tsmear:   1.00000000E-02, }
meta: {optdriver: 4, gwcalctyp: 25, }
...

 mkfilename : getwfk/=0, take file _WFK from output of DATASET   1.

 mkfilename : getqps/=0, take file _QPS from output of DATASET   2.

 Exchange-correlation functional for the present dataset will be:
  GGA: Perdew-Burke-Ernzerhof functional - ixc=11
 Citation for XC functional:
  J.P.Perdew, K.Burke, M.Ernzerhof, PRL 77, 3865 (1996)

 SIGMA: Calculation of the GW corrections 

 Based on a program developped by R.W. Godby, V. Olevano, G. Onida, and L. Reining.
 Incorporated in ABINIT by V. Olevano, G.-M. Rignanese, and M. Torrent.
.Using double precision arithmetic ; gwpc =  8

 Real(R)+Recip(G) space primitive vectors, cartesian coordinates (Bohr,Bohr^-1):
 R(1)=  0.0000000  3.3703265  3.3703265  G(1)= -0.1483536  0.1483536  0.1483536
 R(2)=  3.3703265  0.0000000  3.3703265  G(2)=  0.1483536 -0.1483536  0.1483536
 R(3)=  3.3703265  3.3703265  0.0000000  G(3)=  0.1483536  0.1483536 -0.1483536
 Unit cell volume ucvol=  7.6567759E+01 bohr^3
 Angles (23,13,12)=  6.00000000E+01  6.00000000E+01  6.00000000E+01 degrees
--------------------------------------------------------------------------------

 ==== K-mesh for the wavefunctions ====
 Number of points in the irreducible wedge :     6
 Reduced coordinates and weights : 

     1)    -2.50000000E-01 -2.50000000E-01  0.00000000E+00       0.18750
     2)    -2.50000000E-01  2.50000000E-01  0.00000000E+00       0.37500
     3)     5.00000000E-01  5.00000000E-01  0.00000000E+00       0.09375
     4)    -2.50000000E-01  5.00000000E-01  2.50000000E-01       0.18750
     5)     5.00000000E-01  0.00000000E+00  0.00000000E+00       0.12500
     6)     0.00000000E+00  0.00000000E+00  0.00000000E+00       0.03125

 Together with 48 symmetry operations and time-reversal symmetry 
 yields    32 points in the full Brillouin Zone.


 ==== Q-mesh for screening function ====
 Number of points in the irreducible wedge :     6
 Reduced coordinates and weights : 

     1)     0.00000000E+00  0.00000000E+00  0.00000000E+00       0.03125
     2)     5.00000000E-01  5.00000000E-01  0.00000000E+00       0.09375
     3)     5.00000000E-01  2.50000000E-01  2.50000000E-01       0.37500
     4)     0.00000000E+00  5.00000000E-01  0.00000000E+00       0.12500
     5)     5.00000000E-01 -2.50000000E-01  2.50000000E-01       0.18750
     6)     0.00000000E+00 -2.50000000E-01 -2.50000000E-01       0.18750

 Together with 48 symmetry operations and time-reversal symmetry 
 yields    32 points in the full Brillouin Zone.


 setmesh: FFT mesh size selected  =  12x 12x 12
          total number of points  =     1728

 Number of electrons calculated from density =    8.0000; Expected =    8.0000
 average of density, n =  0.104483
 r_s =    1.3171
 omega_plasma =   31.1801 [eV]


 rdqps: reading QP wavefunctions of the previous step 
        looking for file t44o_DS2_QPS
 Number of iteration(s) already performed:    1

 Number of electrons calculated from density =    8.0000; Expected =    8.0000
 average of density, n =  0.104483
 r_s =    1.3171
 omega_plasma =   31.1801 [eV]


--------------------------------------------------------------------------------

 QP results after the unitary transformation in the KS subspace: 

  Number of electrons    =    8.0000

  QP Band energy    [Ha] = -3.64446286419443E-01
  QP Hartree energy [Ha] =  8.60011492324270E-01

--------------------------------------------------------------------------------

 === KS Band Gaps ===
  >>>> For spin  1
   Minimum direct gap =   5.2314 [eV], located at k-point      :   0.0000  0.0000  0.0000
   Fundamental gap    =   3.1249 [eV], Top of valence bands at :   0.0000  0.0000  0.0000
                                       Bottom of conduction at :   0.5000  0.5000  0.0000
 SIGMA fundamental parameters:
 Hartree-Fock
 number of plane-waves for SigmaX                   65
 number of plane-waves for SigmaC and W              1
 number of plane-waves for wavefunctions            65
 number of bands                                    14
 number of independent spin polarizations            1
 number of spinorial components                      1
 number of k-points in IBZ                           6
 number of q-points in IBZ                           6
 number of symmetry operations                      48
 number of k-points in BZ                           32
 number of q-points in BZ                           32
 number of frequencies for dSigma/dE                 1
 frequency step for dSigma/dE [eV]                0.00
 number of omega for Sigma on real axis              0
 max omega for Sigma on real axis  [eV]           0.00
 zcut for avoiding poles [eV]                     0.10

 matrix elements of self-energy operator (all in [eV])

[...]
                      -2.50000000E-01  2.50000000E-01  5.00000000E-01
                       0.00000000E+00  5.00000000E-01  0.00000000E+00
                       2.50000000E-01  5.00000000E-01  2.50000000E-01
                       5.00000000E-01  5.00000000E-01  5.00000000E-01
                      -2.50000000E-01  5.00000000E-01 -2.50000000E-01
                       0.00000000E+00 -2.50000000E-01  2.50000000E-01
                       2.50000000E-01 -2.50000000E-01  5.00000000E-01
                       5.00000000E-01 -2.50000000E-01 -2.50000000E-01
                       0.00000000E+00  0.00000000E+00  0.00000000E+00
                       2.50000000E-01  0.00000000E+00  2.50000000E-01
                       5.00000000E-01  0.00000000E+00  5.00000000E-01
                      -2.50000000E-01  0.00000000E+00 -2.50000000E-01
                       0.00000000E+00  2.50000000E-01  2.50000000E-01
                       2.50000000E-01  2.50000000E-01  5.00000000E-01
                       5.00000000E-01  2.50000000E-01 -2.50000000E-01
                       0.00000000E+00  5.00000000E-01  5.00000000E-01
                       2.50000000E-01  5.00000000E-01 -2.50000000E-01
                       0.00000000E+00 -2.50000000E-01 -2.50000000E-01
                       0.00000000E+00  0.00000000E+00  5.00000000E-01
                       2.50000000E-01  0.00000000E+00 -2.50000000E-01
                       0.00000000E+00  2.50000000E-01 -2.50000000E-01
         kptrlatt        2   -2    2     -2    2    2     -2   -2    2
          kptrlen      1.34813062E+01
P           mkmem           6
            natom           2
            nband          14
          nbandhf           4
           ndtset          13
            ngfft          15      15      15
             nkpt           6
           nkpthf          32
           npweps1          0
           npweps2         15
           npweps3         15
           npweps4         15
           npweps5         15
           npweps6         15
           npweps7          0
           npweps8         15
           npweps9         15
           npweps10        15
           npweps11        15
           npweps12        15
           npweps13        15
          npwsigx1          0
          npwsigx2         65
          npwsigx3         65
          npwsigx4         65
          npwsigx5         65
          npwsigx6         65
          npwsigx7          0
          npwsigx8         65
          npwsigx9         65
          npwsigx10        65
          npwsigx11        65
          npwsigx12        65
          npwsigx13        65
           npwwfn1          0
           npwwfn2         65
           npwwfn3         65
           npwwfn4         65
           npwwfn5         65
           npwwfn6         65
           npwwfn7          0
           npwwfn8         65
           npwwfn9         65
           npwwfn10        65
           npwwfn11        65
           npwwfn12        65
           npwwfn13        65
            nstep         250
             nsym          48
           ntypat           1
              occ      2.000000  2.000000  2.000000  2.000000  0.000000  0.000000
                       0.000000  0.000000  0.000000  0.000000  0.000000  0.000000
                       0.000000  0.000000
        optdriver1          0
        optdriver2          4
        optdriver3          4
        optdriver4          4
        optdriver5          4
        optdriver6          4
        optdriver7          0
        optdriver8          3
        optdriver9          4
        optdriver10         3
        optdriver11         4
        optdriver12         3
        optdriver13         4
        pawecutdg      4.00000000E+01 Hartree
           prtvol           2
            rprim      0.0000000000E+00  5.0000000000E-01  5.0000000000E-01
                       5.0000000000E-01  0.0000000000E+00  5.0000000000E-01
                       5.0000000000E-01  5.0000000000E-01  0.0000000000E+00
          spgroup         227
           strten1     4.8564641803E-03  4.8564641803E-03  4.8564641803E-03
                       0.0000000000E+00  0.0000000000E+00  0.0000000000E+00
           strten2     0.0000000000E+00  0.0000000000E+00  0.0000000000E+00
                       0.0000000000E+00  0.0000000000E+00  0.0000000000E+00
           strten3     0.0000000000E+00  0.0000000000E+00  0.0000000000E+00
                       0.0000000000E+00  0.0000000000E+00  0.0000000000E+00
           strten4     0.0000000000E+00  0.0000000000E+00  0.0000000000E+00
                       0.0000000000E+00  0.0000000000E+00  0.0000000000E+00
           strten5     0.0000000000E+00  0.0000000000E+00  0.0000000000E+00
                       0.0000000000E+00  0.0000000000E+00  0.0000000000E+00
           strten6     0.0000000000E+00  0.0000000000E+00  0.0000000000E+00
                       0.0000000000E+00  0.0000000000E+00  0.0000000000E+00
           strten7     5.5281582854E-03  5.5281582854E-03  5.5281582854E-03
                       0.0000000000E+00  0.0000000000E+00  0.0000000000E+00
           strten8     0.0000000000E+00  0.0000000000E+00  0.0000000000E+00
                       0.0000000000E+00  0.0000000000E+00  0.0000000000E+00
           strten9     0.0000000000E+00  0.0000000000E+00  0.0000000000E+00
                       0.0000000000E+00  0.0000000000E+00  0.0000000000E+00
           strten10    0.0000000000E+00  0.0000000000E+00  0.0000000000E+00
                       0.0000000000E+00  0.0000000000E+00  0.0000000000E+00
           strten11    0.0000000000E+00  0.0000000000E+00  0.0000000000E+00
                       0.0000000000E+00  0.0000000000E+00  0.0000000000E+00
           strten12    0.0000000000E+00  0.0000000000E+00  0.0000000000E+00
                       0.0000000000E+00  0.0000000000E+00  0.0000000000E+00
           strten13    0.0000000000E+00  0.0000000000E+00  0.0000000000E+00
                       0.0000000000E+00  0.0000000000E+00  0.0000000000E+00
           symrel      1  0  0   0  1  0   0  0  1      -1  0  0   0 -1  0   0  0 -1
                       0 -1  1   0 -1  0   1 -1  0       0  1 -1   0  1  0  -1  1  0
                      -1  0  0  -1  0  1  -1  1  0       1  0  0   1  0 -1   1 -1  0
                       0  1 -1   1  0 -1   0  0 -1       0 -1  1  -1  0  1   0  0  1
                      -1  0  0  -1  1  0  -1  0  1       1  0  0   1 -1  0   1  0 -1
                       0 -1  1   1 -1  0   0 -1  0       0  1 -1  -1  1  0   0  1  0
                       1  0  0   0  0  1   0  1  0      -1  0  0   0  0 -1   0 -1  0
                       0  1 -1   0  0 -1   1  0 -1       0 -1  1   0  0  1  -1  0  1
                      -1  0  1  -1  1  0  -1  0  0       1  0 -1   1 -1  0   1  0  0
                       0 -1  0   1 -1  0   0 -1  1       0  1  0  -1  1  0   0  1 -1
                       1  0 -1   0  0 -1   0  1 -1      -1  0  1   0  0  1   0 -1  1
                       0  1  0   0  0  1   1  0  0       0 -1  0   0  0 -1  -1  0  0
                       1  0 -1   0  1 -1   0  0 -1      -1  0  1   0 -1  1   0  0  1
                       0 -1  0   0 -1  1   1 -1  0       0  1  0   0  1 -1  -1  1  0
                      -1  0  1  -1  0  0  -1  1  0       1  0 -1   1  0  0   1 -1  0
                       0  1  0   1  0  0   0  0  1       0 -1  0  -1  0  0   0  0 -1
                       0  0 -1   0  1 -1   1  0 -1       0  0  1   0 -1  1  -1  0  1
                       1 -1  0   0 -1  1   0 -1  0      -1  1  0   0  1 -1   0  1  0
                       0  0  1   1  0  0   0  1  0       0  0 -1  -1  0  0   0 -1  0
                      -1  1  0  -1  0  0  -1  0  1       1 -1  0   1  0  0   1  0 -1
                       0  0  1   0  1  0   1  0  0       0  0 -1   0 -1  0  -1  0  0
                       1 -1  0   0 -1  0   0 -1  1      -1  1  0   0  1  0   0  1 -1
                       0  0 -1   1  0 -1   0  1 -1       0  0  1  -1  0  1   0 -1  1
                      -1  1  0  -1  0  1  -1  0  0       1 -1  0   1  0 -1   1  0  0
         symsigma        0
            tnons      0.0000000  0.0000000  0.0000000     0.2500000  0.2500000  0.2500000
                       0.0000000  0.0000000  0.0000000     0.2500000  0.2500000  0.2500000
                       0.0000000  0.0000000  0.0000000     0.2500000  0.2500000  0.2500000
                       0.0000000  0.0000000  0.0000000     0.2500000  0.2500000  0.2500000
                       0.0000000  0.0000000  0.0000000     0.2500000  0.2500000  0.2500000
                       0.0000000  0.0000000  0.0000000     0.2500000  0.2500000  0.2500000
                       0.0000000  0.0000000  0.0000000     0.2500000  0.2500000  0.2500000
                       0.0000000  0.0000000  0.0000000     0.2500000  0.2500000  0.2500000
                       0.0000000  0.0000000  0.0000000     0.2500000  0.2500000  0.2500000
                       0.0000000  0.0000000  0.0000000     0.2500000  0.2500000  0.2500000
                       0.0000000  0.0000000  0.0000000     0.2500000  0.2500000  0.2500000
                       0.0000000  0.0000000  0.0000000     0.2500000  0.2500000  0.2500000
                       0.0000000  0.0000000  0.0000000     0.2500000  0.2500000  0.2500000
                       0.0000000  0.0000000  0.0000000     0.2500000  0.2500000  0.2500000
                       0.0000000  0.0000000  0.0000000     0.2500000  0.2500000  0.2500000
                       0.0000000  0.0000000  0.0000000     0.2500000  0.2500000  0.2500000
                       0.0000000  0.0000000  0.0000000     0.2500000  0.2500000  0.2500000
                       0.0000000  0.0000000  0.0000000     0.2500000  0.2500000  0.2500000
                       0.0000000  0.0000000  0.0000000     0.2500000  0.2500000  0.2500000
                       0.0000000  0.0000000  0.0000000     0.2500000  0.2500000  0.2500000
                       0.0000000  0.0000000  0.0000000     0.2500000  0.2500000  0.2500000
                       0.0000000  0.0000000  0.0000000     0.2500000  0.2500000  0.2500000
                       0.0000000  0.0000000  0.0000000     0.2500000  0.2500000  0.2500000
                       0.0000000  0.0000000  0.0000000     0.2500000  0.2500000  0.2500000
           tolvrs      1.00000000E-15
            typat      1  1
          usefock1          0
          usefock2          1
          usefock3          1
          usefock4          1
          usefock5          1
          usefock6          1
          usefock7          1
          usefock8          0
          usefock9          0
          usefock10         0
          usefock11         0
          usefock12         0
          usefock13         1
              wtk        0.18750    0.37500    0.09375    0.18750    0.12500    0.03125
           xangst      0.0000000000E+00  0.0000000000E+00  0.0000000000E+00
                       8.9174999628E-01  8.9174999628E-01  8.9174999628E-01
            xcart      0.0000000000E+00  0.0000000000E+00  0.0000000000E+00
                       1.6851632720E+00  1.6851632720E+00  1.6851632720E+00
             xred      0.0000000000E+00  0.0000000000E+00  0.0000000000E+00
                       2.5000000000E-01  2.5000000000E-01  2.5000000000E-01
            znucl        6.00000

================================================================================

- Total cpu        time (s,m,h):         45.0        0.75      0.013
- Total wall clock time (s,m,h):         53.5        0.89      0.015
-
- For major independent code sections, cpu and wall times (sec),
-  as well as % of the time and number of calls for node 0-
-<BEGIN_TIMER mpi_nprocs = 1, omp_nthreads = 1, mpi_rank = 0>
- cpu_time =           45.0, wall_time =           53.5
-
- routine                        cpu     %       wall     %      number of calls  Gflops    Speedup Efficacity
-                                                                  (-1=no count)
- fourdp                        16.984  37.7     17.225  32.2         294168      -1.00        0.99       0.99
- sigma/=fourdp                 10.369  23.0     17.174  32.1              8      -1.00        0.60       0.60
- HF_getghc_main                 7.573  16.8      7.567  14.1         350196      -1.00        1.00       1.00
- ewald                          1.626   3.6      1.633   3.1             19      -1.00        1.00       1.00
- pspini                         1.542   3.4      1.550   2.9             13      -1.00        0.99       0.99
- invars2                        1.079   2.4      1.091   2.0             13      -1.00        0.99       0.99
- fourwf%(pot)                   0.581   1.3      0.602   1.1           6949      -1.00        0.96       0.96
- xc:pot/=fourdp                 0.469   1.0      0.468   0.9             78      -1.00        1.00       1.00
- others (119)                   1.033   2.3      1.035   1.9             -1      -1.00        1.00       1.00
-<END_TIMER>
-
- subtotal                      41.256  91.7     48.345  90.4                                  0.85       0.85

- For major independent code sections, cpu and wall times (sec),
- as well as % of the total time and number of calls 

-<BEGIN_TIMER mpi_nprocs = 1, omp_nthreads = 1, mpi_rank = world>
- cpu_time =          45.0, wall_time =          53.5
-
- routine                         cpu     %       wall     %      number of calls Gflops    Speedup Efficacity
-                                                                  (-1=no count)
- fourdp                        16.984  37.7     17.225  32.2         294168      -1.00        0.99       0.99
- sigma/=fourdp                 10.369  23.0     17.174  32.1              8      -1.00        0.60       0.60
- HF_getghc_main                 7.573  16.8      7.567  14.1         350196      -1.00        1.00       1.00
- ewald                          1.626   3.6      1.633   3.1             19      -1.00        1.00       1.00
- pspini                         1.542   3.4      1.550   2.9             13      -1.00        0.99       0.99
- invars2                        1.079   2.4      1.091   2.0             13      -1.00        0.99       0.99
- fourwf%(pot)                   0.581   1.3      0.602   1.1           6949      -1.00        0.96       0.96
- xc:pot/=fourdp                 0.469   1.0      0.468   0.9             78      -1.00        1.00       1.00
- others (119)                   1.033   2.3      1.035   1.9             -1      -1.00        1.00       1.00
-<END_TIMER>

- subtotal                      41.256  91.7     48.345  90.4                                  0.85       0.85

================================================================================

 Suggested references for the acknowledgment of ABINIT usage.

 The users of ABINIT have little formal obligations with respect to the ABINIT group
 (those specified in the GNU General Public License, http://www.gnu.org/copyleft/gpl.txt).
 However, it is common practice in the scientific literature,
 to acknowledge the efforts of people that have made the research possible.
 In this spirit, please find below suggested citations of work written by ABINIT developers,
 corresponding to implementations inside of ABINIT that you have used in the present run.
 Note also that it will be of great value to readers of publications presenting these results,
 to read papers enabling them to understand the theoretical formalism and details
 of the ABINIT implementation.
 For information on why they are suggested, see also https://docs.abinit.org/theory/acknowledgments.
-
- [1] Effect of self-consistency on quasiparticles in solids
- F. Bruneval, N. Vast, L. Reining, Phys. Rev. B 74, 045102 (2006).
- Comment: in case gwcalctyp >= 10.
- DOI and bibtex: see https://docs.abinit.org/theory/bibliography/#bruneval2006
-
- [2] Libxc: A library of exchange and correlation functionals for density functional theory.
- M.A.L. Marques, M.J.T. Oliveira, T. Burnus, Computer Physics Communications 183, 2227 (2012).
- Comment: to be cited when LibXC is used (negative value of ixc)
- Strong suggestion to cite this paper.
- DOI and bibtex: see https://docs.abinit.org/theory/bibliography/#marques2012
-
- [3] The Abinit project: Impact, environment and recent developments.
- Computer Phys. Comm. 248, 107042 (2020).
- X.Gonze, B. Amadon, G. Antonius, F.Arnardi, L.Baguet, J.-M.Beuken,
- J.Bieder, F.Bottin, J.Bouchet, E.Bousquet, N.Brouwer, F.Bruneval,
- G.Brunin, T.Cavignac, J.-B. Charraud, Wei Chen, M.Cote, S.Cottenier,
- J.Denier, G.Geneste, Ph.Ghosez, M.Giantomassi, Y.Gillet, O.Gingras,
- D.R.Hamann, G.Hautier, Xu He, N.Helbig, N.Holzwarth, Y.Jia, F.Jollet,
- W.Lafargue-Dit-Hauret, K.Lejaeghere, M.A.L.Marques, A.Martin, C.Martins,
- H.P.C. Miranda, F.Naccarato, K. Persson, G.Petretto, V.Planes, Y.Pouillon,
- S.Prokhorenko, F.Ricci, G.-M.Rignanese, A.H.Romero, M.M.Schmitt, M.Torrent,
- M.J.van Setten, B.Van Troeye, M.J.Verstraete, G.Zerah and J.W.Zwanzig
- Comment: the fifth generic paper describing the ABINIT project.
- Note that a version of this paper, that is not formatted for Computer Phys. Comm. 
- is available at https://www.abinit.org/sites/default/files/ABINIT20.pdf .
- The licence allows the authors to put it on the Web.
- DOI and bibtex: see https://docs.abinit.org/theory/bibliography/#gonze2020
-
- [4] Optimized norm-conserving Vanderbilt pseudopotentials.
- D.R. Hamann, Phys. Rev. B 88, 085117 (2013).
- Comment: Some pseudopotential generated using the ONCVPSP code were used.
- DOI and bibtex: see https://docs.abinit.org/theory/bibliography/#hamann2013
-
- [5] Recent developments in the ABINIT software package.
- Computer Phys. Comm. 205, 106 (2016).
- X.Gonze, F.Jollet, F.Abreu Araujo, D.Adams, B.Amadon, T.Applencourt,
- C.Audouze, J.-M.Beuken, J.Bieder, A.Bokhanchuk, E.Bousquet, F.Bruneval
- D.Caliste, M.Cote, F.Dahm, F.Da Pieve, M.Delaveau, M.Di Gennaro,
- B.Dorado, C.Espejo, G.Geneste, L.Genovese, A.Gerossier, M.Giantomassi,
- Y.Gillet, D.R.Hamann, L.He, G.Jomard, J.Laflamme Janssen, S.Le Roux,
- A.Levitt, A.Lherbier, F.Liu, I.Lukacevic, A.Martin, C.Martins,
- M.J.T.Oliveira, S.Ponce, Y.Pouillon, T.Rangel, G.-M.Rignanese,
- A.H.Romero, B.Rousseau, O.Rubel, A.A.Shukri, M.Stankovski, M.Torrent,
- M.J.Van Setten, B.Van Troeye, M.J.Verstraete, D.Waroquier, J.Wiktor,
- B.Xu, A.Zhou, J.W.Zwanziger.
- Comment: the fourth generic paper describing the ABINIT project.
- Note that a version of this paper, that is not formatted for Computer Phys. Comm. 
- is available at https://www.abinit.org/sites/default/files/ABINIT16.pdf .
- The licence allows the authors to put it on the Web.
- DOI and bibtex: see https://docs.abinit.org/theory/bibliography/#gonze2016
-
- [6] ABINIT: First-principles approach of materials and nanosystem properties.
- Computer Phys. Comm. 180, 2582-2615 (2009).
- X. Gonze, B. Amadon, P.-M. Anglade, J.-M. Beuken, F. Bottin, P. Boulanger, F. Bruneval,
- D. Caliste, R. Caracas, M. Cote, T. Deutsch, L. Genovese, Ph. Ghosez, M. Giantomassi
- S. Goedecker, D.R. Hamann, P. Hermet, F. Jollet, G. Jomard, S. Leroux, M. Mancini, S. Mazevet,
- M.J.T. Oliveira, G. Onida, Y. Pouillon, T. Rangel, G.-M. Rignanese, D. Sangalli, R. Shaltaf,
- M. Torrent, M.J. Verstraete, G. Zerah, J.W. Zwanziger
- Comment: the third generic paper describing the ABINIT project.
- Note that a version of this paper, that is not formatted for Computer Phys. Comm. 
- is available at https://www.abinit.org/sites/default/files/ABINIT_CPC_v10.pdf .
- The licence allows the authors to put it on the Web.
- DOI and bibtex: see https://docs.abinit.org/theory/bibliography/#gonze2009
-
- Proc.   0 individual time (sec): cpu=         45.0  wall=         53.5

================================================================================

 Calculation completed.
.Delivered  35 WARNINGs and 101 COMMENTs to log file.
+Overall time at end (sec) : cpu=         45.0  wall=         53.5
