
.Version 9.0.0 of ABINIT 
.(MPI version, prepared for a x86_64_linux_gnu9.2 computer) 

.Copyright (C) 1998-2020 ABINIT group . 
 ABINIT comes with ABSOLUTELY NO WARRANTY.
 It is free software, and you are welcome to redistribute it
 under certain conditions (GNU General Public License,
 see ~abinit/COPYING or http://www.gnu.org/copyleft/gpl.txt).

 ABINIT is a project of the Universite Catholique de Louvain,
 Corning Inc. and other collaborators, see ~abinit/doc/developers/contributors.txt .
 Please read https://docs.abinit.org/theory/acknowledgments for suggested
 acknowledgments of the ABINIT effort.
 For more information, see https://www.abinit.org .

.Starting date : Mon 10 Feb 2020.
- ( at 02h14 )
  
- input  file    -> /home/gmatteo/git_repos/abinit/_abiref_gnu9.2_openmpi/tests/Test_suite/libxc_t68/t68.in
- output file    -> t68.out
- root for input  files -> t68i
- root for output files -> t68o


 DATASET    1 : space group P4 m m (# 99); Bravais tP (primitive tetrag.)
================================================================================
 Values of the parameters that define the memory need for DATASET  1.
     intxc =       0    ionmov =       2      iscf =       7    lmnmax =       4
     lnmax =       4     mgfft =      32  mpssoang =       2    mqgrid =    3001
     natom =       2  nloc_mem =       1    nspden =       2   nspinor =       1
    nsppol =       2      nsym =       8    n1xccc =    2501    ntypat =       2
    occopt =       1   xclevel =       2
-    mband =           4        mffmem =           1         mkmem =           1
       mpw =        1207          nfft =       23328          nkpt =           1
================================================================================
P This job should need less than                      13.607 Mbytes of memory.
  Rough estimation (10% accuracy) of disk space for files :
_ WF disk file :      0.149 Mbytes ; DEN or POT disk file :      0.358 Mbytes.
================================================================================


 DATASET    2 : space group P4 m m (# 99); Bravais tP (primitive tetrag.)
================================================================================
 Values of the parameters that define the memory need for DATASET  2.
     intxc =       0    ionmov =       2      iscf =       7    lmnmax =       4
     lnmax =       4     mgfft =      32  mpssoang =       2    mqgrid =    3001
     natom =       2  nloc_mem =       1    nspden =       2   nspinor =       1
    nsppol =       2      nsym =       8    n1xccc =    2501    ntypat =       2
    occopt =       1   xclevel =       2
-    mband =           4        mffmem =           1         mkmem =           1
       mpw =        1207          nfft =       23328          nkpt =           1
================================================================================
P This job should need less than                      13.607 Mbytes of memory.
  Rough estimation (10% accuracy) of disk space for files :
_ WF disk file :      0.149 Mbytes ; DEN or POT disk file :      0.358 Mbytes.
================================================================================


 DATASET    3 : space group P4 m m (# 99); Bravais tP (primitive tetrag.)
================================================================================
 Values of the parameters that define the memory need for DATASET  3.
     intxc =       0    ionmov =       2      iscf =       7    lmnmax =       4
     lnmax =       4     mgfft =      32  mpssoang =       2    mqgrid =    3001
     natom =       2  nloc_mem =       1    nspden =       2   nspinor =       1
    nsppol =       2      nsym =       8    n1xccc =    2501    ntypat =       2
    occopt =       1   xclevel =       2
-    mband =           4        mffmem =           1         mkmem =           1
       mpw =        1207          nfft =       23328          nkpt =           1
================================================================================
P This job should need less than                      13.607 Mbytes of memory.
  Rough estimation (10% accuracy) of disk space for files :
_ WF disk file :      0.149 Mbytes ; DEN or POT disk file :      0.358 Mbytes.
================================================================================

--------------------------------------------------------------------------------
------------- Echo of variables that govern the present computation ------------
--------------------------------------------------------------------------------
-
- outvars: echo of selected default values                                      
-   iomode0 =  0 , fftalg0 =312 , wfoptalg0 =  0
-
- outvars: echo of global parameters not present in the input file              
-  max_nthreads =    0
-
 -outvars: echo values of preprocessed input variables --------
            acell      9.4486306644E+00  7.5589045315E+00  7.5589045315E+00 Bohr
              amu      1.20110000E+01  1.00794000E+00
           diemac      1.00000000E+00
           diemix      5.00000000E-01
             ecut      1.30000000E+01 Hartree
-          fftalg         312
           getwfk1          0
           getwfk2          1
           getwfk3          2
          getxred1          0
          getxred2          1
          getxred3          2
           ionmov           2
           istwfk        1
              ixc1         11
              ixc2         41
              ixc3       -428
           jdtset        1    2    3
         kptns_hf2     0.00000000E+00  0.00000000E+00  0.00000000E+00
         kptns_hf3     0.00000000E+00  0.00000000E+00  0.00000000E+00
         kptrlatt        1    0    0      0    1    0      0    0    1
          kptrlen      7.55890453E+00
P           mkmem           1
            natom           2
            nband           4
          nbandhf           3
           ndtset           3
            ngfft          32      27      27
             nkpt           1
           nkpthf           1
           nspden           2
           nsppol           2
            nstep          25
             nsym           8
            ntime          15
           ntypat           2
              occ      1.000000  1.000000  1.000000  0.000000
                       1.000000  1.000000  0.000000  0.000000
        optforces           1
          spgroup          99
   spinmagntarget      1.00000000E+00
           symrel      1  0  0   0  1  0   0  0  1       1  0  0   0  1  0   0  0 -1
                       1  0  0   0 -1  0   0  0 -1       1  0  0   0 -1  0   0  0  1
                       1  0  0   0  0  1   0  1  0       1  0  0   0  0  1   0 -1  0
                       1  0  0   0  0 -1   0 -1  0       1  0  0   0  0 -1   0  1  0
           tolrff      2.00000000E-02
            typat      1  2
          usefock1          0
          usefock2          1
          usefock3          1
           xangst     -5.6200000000E-01  0.0000000000E+00  0.0000000000E+00
                       5.6200000000E-01  0.0000000000E+00  0.0000000000E+00
            xcart     -1.0620260867E+00  0.0000000000E+00  0.0000000000E+00
                       1.0620260867E+00  0.0000000000E+00  0.0000000000E+00
             xred     -1.1240000000E-01  0.0000000000E+00  0.0000000000E+00
                       1.1240000000E-01  0.0000000000E+00  0.0000000000E+00
            znucl        6.00000    1.00000

================================================================================

 chkinp: Checking input parameters for consistency, jdtset=   1.

 chkinp: Checking input parameters for consistency, jdtset=   2.

 chkinp: Checking input parameters for consistency, jdtset=   3.

================================================================================
== DATASET  1 ==================================================================
-   nproc =    1

 Exchange-correlation functional for the present dataset will be:
  GGA: Perdew-Burke-Ernzerhof functional - ixc=11
 Citation for XC functional:
  J.P.Perdew, K.Burke, M.Ernzerhof, PRL 77, 3865 (1996)

 Real(R)+Recip(G) space primitive vectors, cartesian coordinates (Bohr,Bohr^-1):
 R(1)=  9.4486307  0.0000000  0.0000000  G(1)=  0.1058354  0.0000000  0.0000000
 R(2)=  0.0000000  7.5589045  0.0000000  G(2)=  0.0000000  0.1322943  0.0000000
 R(3)=  0.0000000  0.0000000  7.5589045  G(3)=  0.0000000  0.0000000  0.1322943
 Unit cell volume ucvol=  5.3986677E+02 bohr^3
 Angles (23,13,12)=  9.00000000E+01  9.00000000E+01  9.00000000E+01 degrees

 getcut: wavevector=  0.0000  0.0000  0.0000  ngfft=  32  27  27
         ecut(hartree)=     13.000   => boxcut(ratio)=   2.08662

--- Pseudopotential description ------------------------------------------------
- pspini: atom type   1  psp file is /home/gmatteo/git_repos/abinit/tests/Psps_for_tests/C.psp8
- pspatm: opening atomic psp file    /home/gmatteo/git_repos/abinit/tests/Psps_for_tests/C.psp8
- C     ONCVPSP-3.2.3  r_core=   1.51078   1.70218
-  6.00000   4.00000    160922                znucl, zion, pspdat
    8   11    1    4       600   0.00000      pspcod,pspxc,lmax,lloc,mmax,r2well
    5.99000000000000    4.00000000000000    0.00000000000000   rchrg,fchrg,qchrg
     nproj     2     2
     extension_switch     1
  pspatm : epsatm=    6.54852399
         --- l  ekb(1:nproj) -->
             0    5.385069    0.619074
             1   -3.489168   -1.040664
 pspatm: atomic psp has been read  and splines computed

- pspini: atom type   2  psp file is /home/gmatteo/git_repos/abinit/tests/Psps_for_tests/H.psp8
- pspatm: opening atomic psp file    /home/gmatteo/git_repos/abinit/tests/Psps_for_tests/H.psp8
- H     ONCVPSP  r_core=  1.01  0.71
-  1.00000   1.00000    161003                znucl, zion, pspdat
    8   11    1    4       300   0.00000      pspcod,pspxc,lmax,lloc,mmax,r2well
    2.99000000000000    0.00000000000000    0.00000000000000   rchrg,fchrg,qchrg
     nproj     2     1
     extension_switch     1
  pspatm : epsatm=    0.36200384
         --- l  ekb(1:nproj) -->
             0   -7.905942   -0.865230
             1   -6.853045
 pspatm: atomic psp has been read  and splines computed

   3.45526392E+01                                ecore*ucvol(ha*bohr**3)
--------------------------------------------------------------------------------

_setup2: Arith. and geom. avg. npw (full set) are    1207.000    1207.000

================================================================================

=== [ionmov= 2] Broyden-Fletcher-Goldfard-Shanno method (forces)            
================================================================================

--- Iteration: ( 1/15) Internal Cycle: (1/1)
--------------------------------------------------------------------------------

---SELF-CONSISTENT-FIELD CONVERGENCE--------------------------------------------

     iter   Etot(hartree)      deltaE(h)  residm     vres2    diffor    maxfor
 ETOT  1  -6.3045386077735    -6.305E+00 2.847E-02 1.026E+02 8.118E-03 8.118E-03
 ETOT  2  -6.3287365942810    -2.420E-02 2.043E-06 3.178E+01 9.362E-03 1.244E-03
 ETOT  3  -6.3296256696995    -8.891E-04 2.075E-05 1.157E+01 5.717E-03 4.473E-03
 ETOT  4  -6.3300134092348    -3.877E-04 3.640E-05 4.909E-01 3.805E-03 8.278E-03
 ETOT  5  -6.3300302932062    -1.688E-05 9.119E-07 7.627E-02 2.165E-05 8.300E-03
 ETOT  6  -6.3300320259938    -1.733E-06 1.517E-07 7.533E-03 2.748E-05 8.327E-03

 At SCF step    6, forces are sufficiently converged : 
  for the second time, max diff in force=  2.748E-05 is less than < tolrff=  2.000E-02 times max force

 Cartesian components of stress tensor (hartree/bohr^3)
  sigma(1 1)=  4.59659960E-05  sigma(3 2)=  0.00000000E+00
  sigma(2 2)=  1.95285104E-04  sigma(3 1)=  0.00000000E+00
  sigma(3 3)=  1.95285104E-04  sigma(2 1)=  0.00000000E+00


--- !ResultsGS
comment   : Summary of ground state results
natom     :        2
nsppol    :        2
nspinor   :        1
nspden    :        2
nelect    :  5.000000000000000E+000
charge    :  0.000000000000000E+000
abc       : [ 9.000000000000000E+001,  9.000000000000000E+001,  9.000000000000000E+001, ]
alpha_beta_gamma_angles: [ 9.000000000000000E+001,  9.000000000000000E+001,  9.000000000000000E+001, ]
cutoff_energies: {"ecut":  1.300000000000000E+001, "pawecutdg": -1.000000000000000E+000, }
convergence: {
    "deltae": -1.732787646702150E-006, "res2":  7.532738830484463E-003, 
    "residm":  1.516621960205184E-007, "diffor":  2.747572962841054E-005, 
}
etotal    : -6.330032025993815E+000
entropy   :  0.000000000000000E+000
fermie    : -1.509403118278613E-001
stress_tensor: !CartTensor
- [ 4.596599603496453E-005,  0.000000000000000E+000,  0.000000000000000E+000, ]
- [ 0.000000000000000E+000,  1.952851035247107E-004,  0.000000000000000E+000, ]
- [ 0.000000000000000E+000,  0.000000000000000E+000,  1.952851035247107E-004, ]
cartesian_forces: !CartForces
- [-8.327305253721834E-003, -0.000000000000000E+000, -0.000000000000000E+000, ]
- [ 8.327305253721834E-003, -0.000000000000000E+000, -0.000000000000000E+000, ]
...

 Integrated electronic and magnetization densities in atomic spheres:
 ---------------------------------------------------------------------
 Radius=ratsph(iatom), smearing ratsm=  0.0000. Diff(up-dn)=approximate z local magnetic moment.
 Atom    Radius    up_density   dn_density  Total(up+dn)  Diff(up-dn)
    1   2.00000     2.010152     1.260263      3.270415     0.749888
    2   2.00000     1.039264     0.845138      1.884402     0.194126
 ---------------------------------------------------------------------
  Sum:              3.049416     2.105401      5.154817     0.944015
 Total magnetization (from the atomic spheres):             0.944015
 Total magnetization (exact up - dn):                       1.000000

---OUTPUT-----------------------------------------------------------------------

 Cartesian coordinates (xcart) [bohr]
 -1.06202608668173E+00  0.00000000000000E+00  0.00000000000000E+00
  1.06202608668173E+00  0.00000000000000E+00  0.00000000000000E+00
 Reduced coordinates (xred)
 -1.12400000000000E-01  0.00000000000000E+00  0.00000000000000E+00
  1.12400000000000E-01  0.00000000000000E+00  0.00000000000000E+00
 Cartesian forces (fcart) [Ha/bohr]; max,rms= 8.32731E-03 4.80777E-03 (free atoms)
 -8.32730525372183E-03 -0.00000000000000E+00 -0.00000000000000E+00
  8.32730525372183E-03 -0.00000000000000E+00 -0.00000000000000E+00
 Reduced forces (fred)
  7.86816317723703E-02  0.00000000000000E+00  0.00000000000000E+00
 -7.86816317723703E-02 -0.00000000000000E+00 -0.00000000000000E+00
 Total energy (etotal) [Ha]= -6.33003202599382E+00

--- Iteration: ( 2/15) Internal Cycle: (1/1)
--------------------------------------------------------------------------------

---SELF-CONSISTENT-FIELD CONVERGENCE--------------------------------------------

     iter   Etot(hartree)      deltaE(h)  residm     vres2    diffor    maxfor
 ETOT  1  -6.3301236616112    -6.330E+00 3.041E-09 8.493E+00 4.605E-03 3.723E-03
 ETOT  2  -6.3301286201894    -4.959E-06 2.152E-11 2.140E+00 5.719E-04 3.151E-03
 ETOT  3  -6.3301287678966    -1.477E-07 2.730E-08 1.188E-02 9.849E-05 3.249E-03
 ETOT  4  -6.3301287795920    -1.170E-08 1.574E-09 1.473E-03 3.246E-05 3.282E-03
 ETOT  5  -6.3301287797429    -1.508E-10 1.638E-11 9.062E-06 1.144E-05 3.293E-03

 At SCF step    5, forces are sufficiently converged : 
  for the second time, max diff in force=  1.144E-05 is less than < tolrff=  2.000E-02 times max force

 Cartesian components of stress tensor (hartree/bohr^3)
  sigma(1 1)=  6.08787886E-05  sigma(3 2)=  0.00000000E+00
  sigma(2 2)=  1.95617071E-04  sigma(3 1)=  0.00000000E+00
  sigma(3 3)=  1.95617071E-04  sigma(2 1)=  0.00000000E+00


--- !ResultsGS
comment   : Summary of ground state results
natom     :        2
nsppol    :        2
nspinor   :        1
nspden    :        2
nelect    :  5.000000000000000E+000
charge    :  0.000000000000000E+000
abc       : [ 9.000000000000000E+001,  9.000000000000000E+001,  9.000000000000000E+001, ]
alpha_beta_gamma_angles: [ 9.000000000000000E+001,  9.000000000000000E+001,  9.000000000000000E+001, ]
cutoff_energies: {"ecut":  1.300000000000000E+001, "pawecutdg": -1.000000000000000E+000, }
convergence: {
    "deltae": -1.508446700881905E-010, "res2":  9.061703197792767E-006, 
    "residm":  1.638186185615977E-011, "diffor":  1.143919336903066E-005, 
}
etotal    : -6.330128779742883E+000
entropy   :  0.000000000000000E+000
fermie    : -1.508329517776681E-001
stress_tensor: !CartTensor
- [ 6.087878861301613E-005,  0.000000000000000E+000,  0.000000000000000E+000, ]
- [ 0.000000000000000E+000,  1.956170707862348E-004,  0.000000000000000E+000, ]
- [ 0.000000000000000E+000,  0.000000000000000E+000,  1.956170707862348E-004, ]
cartesian_forces: !CartForces
- [-3.293109429451819E-003, -0.000000000000000E+000, -0.000000000000000E+000, ]
- [ 3.293109429451819E-003, -0.000000000000000E+000, -0.000000000000000E+000, ]
...

 Integrated electronic and magnetization densities in atomic spheres:
 ---------------------------------------------------------------------
 Radius=ratsph(iatom), smearing ratsm=  0.0000. Diff(up-dn)=approximate z local magnetic moment.
 Atom    Radius    up_density   dn_density  Total(up+dn)  Diff(up-dn)
    1   2.00000     2.004900     1.254185      3.259085     0.750715
    2   2.00000     1.025588     0.839307      1.864894     0.186281
 ---------------------------------------------------------------------
  Sum:              3.030487     2.093491      5.123979     0.936996
 Total magnetization (from the atomic spheres):             0.936996
 Total magnetization (exact up - dn):                       1.000000

---OUTPUT-----------------------------------------------------------------------

 Cartesian coordinates (xcart) [bohr]
 -1.07035339193545E+00  0.00000000000000E+00  0.00000000000000E+00
  1.07035339193545E+00  0.00000000000000E+00  0.00000000000000E+00
 Reduced coordinates (xred)
 -1.13281324029848E-01  0.00000000000000E+00  0.00000000000000E+00
  1.13281324029848E-01  0.00000000000000E+00  0.00000000000000E+00
 Cartesian forces (fcart) [Ha/bohr]; max,rms= 3.29311E-03 1.90128E-03 (free atoms)
 -3.29310942945182E-03 -0.00000000000000E+00 -0.00000000000000E+00
  3.29310942945182E-03 -0.00000000000000E+00 -0.00000000000000E+00
 Reduced forces (fred)
  3.11153747364362E-02  0.00000000000000E+00  0.00000000000000E+00
 -3.11153747364362E-02 -0.00000000000000E+00 -0.00000000000000E+00
 Total energy (etotal) [Ha]= -6.33012877974288E+00

 Difference of energy with previous step (new-old):
           Absolute (Ha)=-9.67537E-05
           Relative     =-1.52848E-05

--- Iteration: ( 3/15) Internal Cycle: (1/1)
--------------------------------------------------------------------------------

---SELF-CONSISTENT-FIELD CONVERGENCE--------------------------------------------

     iter   Etot(hartree)      deltaE(h)  residm     vres2    diffor    maxfor
 ETOT  1  -6.3301449484469    -6.330E+00 1.434E-09 5.311E+00 2.967E-03 3.259E-04
 ETOT  2  -6.3301470780764    -2.130E-06 8.561E-12 1.355E+00 3.471E-04 2.112E-05
 ETOT  3  -6.3301471359850    -5.791E-08 9.805E-09 5.211E-03 9.628E-05 7.516E-05
 ETOT  4  -6.3301471403367    -4.352E-09 5.855E-10 6.608E-04 1.677E-05 9.193E-05
 ETOT  5  -6.3301471403669    -3.024E-11 5.695E-12 4.152E-06 7.288E-06 9.922E-05
 ETOT  6  -6.3301471404442    -7.733E-11 8.981E-12 7.877E-08 2.812E-06 9.640E-05
 ETOT  7  -6.3301471404447    -4.645E-13 3.962E-15 8.528E-09 1.814E-07 9.659E-05
 ETOT  8  -6.3301471404448    -1.146E-13 9.158E-15 3.382E-10 1.860E-08 9.660E-05

 At SCF step    8, forces are sufficiently converged : 
  for the second time, max diff in force=  1.860E-08 is less than < tolrff=  2.000E-02 times max force

 Cartesian components of stress tensor (hartree/bohr^3)
  sigma(1 1)=  7.04457673E-05  sigma(3 2)=  0.00000000E+00
  sigma(2 2)=  1.95587819E-04  sigma(3 1)=  0.00000000E+00
  sigma(3 3)=  1.95587819E-04  sigma(2 1)=  0.00000000E+00


--- !ResultsGS
comment   : Summary of ground state results
natom     :        2
nsppol    :        2
nspinor   :        1
nspden    :        2
nelect    :  5.000000000000000E+000
charge    :  0.000000000000000E+000
abc       : [ 9.000000000000000E+001,  9.000000000000000E+001,  9.000000000000000E+001, ]
alpha_beta_gamma_angles: [ 9.000000000000000E+001,  9.000000000000000E+001,  9.000000000000000E+001, ]
cutoff_energies: {"ecut":  1.300000000000000E+001, "pawecutdg": -1.000000000000000E+000, }
convergence: {
    "deltae": -1.145750161413162E-013, "res2":  3.381926033819806E-010, 
    "residm":  9.157695239819377E-015, "diffor":  1.859899752485188E-008, 
}
etotal    : -6.330147140444820E+000
entropy   :  0.000000000000000E+000
fermie    : -1.507239224711951E-001
stress_tensor: !CartTensor
- [ 7.044576733792938E-005,  0.000000000000000E+000,  0.000000000000000E+000, ]
- [ 0.000000000000000E+000,  1.955878186677653E-004,  0.000000000000000E+000, ]
- [ 0.000000000000000E+000,  0.000000000000000E+000,  1.955878186677653E-004, ]
cartesian_forces: !CartForces
- [-9.660385794047253E-005, -0.000000000000000E+000, -0.000000000000000E+000, ]
- [ 9.660385794047253E-005, -0.000000000000000E+000, -0.000000000000000E+000, ]
...

 Integrated electronic and magnetization densities in atomic spheres:
 ---------------------------------------------------------------------
 Radius=ratsph(iatom), smearing ratsm=  0.0000. Diff(up-dn)=approximate z local magnetic moment.
 Atom    Radius    up_density   dn_density  Total(up+dn)  Diff(up-dn)
    1   2.00000     1.993340     1.241917      3.235258     0.751423
    2   2.00000     1.012900     0.833621      1.846522     0.179279
 ---------------------------------------------------------------------
  Sum:              3.006241     2.075539      5.081779     0.930702
 Total magnetization (from the atomic spheres):             0.930702
 Total magnetization (exact up - dn):                       1.000000

---OUTPUT-----------------------------------------------------------------------

 Cartesian coordinates (xcart) [bohr]
 -1.07580068250781E+00  0.00000000000000E+00  0.00000000000000E+00
  1.07580068250781E+00  0.00000000000000E+00  0.00000000000000E+00
 Reduced coordinates (xred)
 -1.13857840433740E-01  0.00000000000000E+00  0.00000000000000E+00
  1.13857840433740E-01  0.00000000000000E+00  0.00000000000000E+00
 Cartesian forces (fcart) [Ha/bohr]; max,rms= 9.66039E-05 5.57743E-05 (free atoms)
 -9.66038579404725E-05 -0.00000000000000E+00 -0.00000000000000E+00
  9.66038579404725E-05 -0.00000000000000E+00 -0.00000000000000E+00
 Reduced forces (fred)
  9.12774174438416E-04  0.00000000000000E+00  0.00000000000000E+00
 -9.12774174438416E-04 -0.00000000000000E+00 -0.00000000000000E+00
 Total energy (etotal) [Ha]= -6.33014714044482E+00

 Difference of energy with previous step (new-old):
           Absolute (Ha)=-1.83607E-05
           Relative     =-2.90052E-06

--- Iteration: ( 4/15) Internal Cycle: (1/1)
--------------------------------------------------------------------------------

---SELF-CONSISTENT-FIELD CONVERGENCE--------------------------------------------

     iter   Etot(hartree)      deltaE(h)  residm     vres2    diffor    maxfor
 ETOT  1  -6.3301471546348    -6.330E+00 1.330E-12 2.247E-02 8.855E-05 8.055E-06
 ETOT  2  -6.3301471565415    -1.907E-09 7.479E-15 5.315E-03 1.025E-05 2.190E-06
 ETOT  3  -6.3301471565960    -5.451E-11 8.718E-12 4.539E-06 2.907E-06 7.173E-07
 ETOT  4  -6.3301471565992    -3.190E-12 4.297E-13 5.249E-07 5.910E-07 1.308E-06
 ETOT  5  -6.3301471565992    -1.243E-14 3.248E-15 2.935E-09 2.415E-07 1.550E-06
 ETOT  6  -6.3301471565994    -1.954E-13 6.480E-15 6.502E-11 7.412E-08 1.476E-06
 ETOT  7  -6.3301471565996    -1.892E-13 5.897E-18 6.059E-12 5.191E-09 1.481E-06
 ETOT  8  -6.3301471565994     1.945E-13 4.253E-18 2.067E-13 3.388E-10 1.481E-06

 At SCF step    8, forces are sufficiently converged : 
  for the second time, max diff in force=  3.388E-10 is less than < tolrff=  2.000E-02 times max force

 Cartesian components of stress tensor (hartree/bohr^3)
  sigma(1 1)=  7.07320772E-05  sigma(3 2)=  0.00000000E+00
  sigma(2 2)=  1.95587330E-04  sigma(3 1)=  0.00000000E+00
  sigma(3 3)=  1.95587330E-04  sigma(2 1)=  0.00000000E+00


--- !ResultsGS
comment   : Summary of ground state results
natom     :        2
nsppol    :        2
nspinor   :        1
nspden    :        2
nelect    :  5.000000000000000E+000
charge    :  0.000000000000000E+000
abc       : [ 9.000000000000000E+001,  9.000000000000000E+001,  9.000000000000000E+001, ]
alpha_beta_gamma_angles: [ 9.000000000000000E+001,  9.000000000000000E+001,  9.000000000000000E+001, ]
cutoff_energies: {"ecut":  1.300000000000000E+001, "pawecutdg": -1.000000000000000E+000, }
convergence: {
    "deltae":  1.945110739143274E-013, "res2":  2.066513483454221E-013, 
    "residm":  4.253433727674850E-018, "diffor":  3.387726753819925E-010, 
}
etotal    : -6.330147156599422E+000
entropy   :  0.000000000000000E+000
fermie    : -1.507205593200176E-001
stress_tensor: !CartTensor
- [ 7.073207724275252E-005,  0.000000000000000E+000,  0.000000000000000E+000, ]
- [ 0.000000000000000E+000,  1.955873301352741E-004,  0.000000000000000E+000, ]
- [ 0.000000000000000E+000,  0.000000000000000E+000,  1.955873301352741E-004, ]
cartesian_forces: !CartForces
- [-1.481209103428337E-006, -0.000000000000000E+000, -0.000000000000000E+000, ]
- [ 1.481209103428337E-006, -0.000000000000000E+000, -0.000000000000000E+000, ]
...

 Integrated electronic and magnetization densities in atomic spheres:
 ---------------------------------------------------------------------
 Radius=ratsph(iatom), smearing ratsm=  0.0000. Diff(up-dn)=approximate z local magnetic moment.
 Atom    Radius    up_density   dn_density  Total(up+dn)  Diff(up-dn)
    1   2.00000     1.993293     1.241862      3.235154     0.751431
    2   2.00000     1.012782     0.833568      1.846350     0.179213
 ---------------------------------------------------------------------
  Sum:              3.006075     2.075430      5.081505     0.930644
 Total magnetization (from the atomic spheres):             0.930644
 Total magnetization (exact up - dn):                       1.000000

---OUTPUT-----------------------------------------------------------------------

 Cartesian coordinates (xcart) [bohr]
 -1.07596530893278E+00  0.00000000000000E+00  0.00000000000000E+00
  1.07596530893278E+00  0.00000000000000E+00  0.00000000000000E+00
 Reduced coordinates (xred)
 -1.13875263744145E-01  0.00000000000000E+00  0.00000000000000E+00
  1.13875263744145E-01  0.00000000000000E+00  0.00000000000000E+00
 Cartesian forces (fcart) [Ha/bohr]; max,rms= 1.48121E-06 8.55176E-07 (free atoms)
 -1.48120910342834E-06 -0.00000000000000E+00 -0.00000000000000E+00
  1.48120910342834E-06 -0.00000000000000E+00 -0.00000000000000E+00
 Reduced forces (fred)
  1.39953977550832E-05  0.00000000000000E+00  0.00000000000000E+00
 -1.39953977550832E-05 -0.00000000000000E+00 -0.00000000000000E+00
 Total energy (etotal) [Ha]= -6.33014715659942E+00

 Difference of energy with previous step (new-old):
           Absolute (Ha)=-1.61546E-08
           Relative     =-2.55201E-09

 At Broyd/MD step   4, gradients are converged : 
  max grad (force/stress) = 1.4812E-06 < tolmxf= 5.0000E-05 ha/bohr (free atoms)

================================================================================

 ----iterations are completed or convergence reached----

 Mean square residual over all n,k,spin=   17.184E-19; max=  42.534E-19
 reduced coordinates (array xred) for    2 atoms
      -0.113875263744      0.000000000000      0.000000000000
       0.113875263744      0.000000000000      0.000000000000
 rms dE/dt=  9.4075E-06; max dE/dt=  2.2340E-05; dE/dt below (all hartree)
    1       0.000022340103      0.000000000000      0.000000000000
    2      -0.000005650692      0.000000000000      0.000000000000

 cartesian coordinates (angstrom) at end:
    1     -0.56937631872072     0.00000000000000     0.00000000000000
    2      0.56937631872072     0.00000000000000     0.00000000000000

 cartesian forces (hartree/bohr) at end:
    1     -0.00000148120910    -0.00000000000000    -0.00000000000000
    2      0.00000148120910    -0.00000000000000    -0.00000000000000
 frms,max,avg= 8.5517647E-07 1.4812091E-06  -8.832E-07  0.000E+00  0.000E+00 h/b

 cartesian forces (eV/Angstrom) at end:
    1     -0.00007616682812    -0.00000000000000    -0.00000000000000
    2      0.00007616682812    -0.00000000000000    -0.00000000000000
 frms,max,avg= 4.3974939E-05 7.6166828E-05  -4.541E-05  0.000E+00  0.000E+00 e/A
 length scales=  9.448630664428  7.558904531543  7.558904531543 bohr
              =  5.000000000000  4.000000000000  4.000000000000 angstroms
 prteigrs : about to open file t68o_DS1_EIG
 Fermi (or HOMO) energy (hartree) =  -0.15072   Average Vxc (hartree)=  -0.15036
 Eigenvalues (hartree) for nkpt=   1  k points, SPIN UP:
 kpt#   1, nband=  4, wtk=  1.00000, kpt=  0.0000  0.0000  0.0000 (reduced coord)
  -0.54928   -0.23447   -0.15072   -0.15072
 Eigenvalues (hartree) for nkpt=   1  k points, SPIN DOWN:
 kpt#   1, nband=  4, wtk=  1.00000, kpt=  0.0000  0.0000  0.0000 (reduced coord)
  -0.50175   -0.21267   -0.07195   -0.07195

--- !EnergyTerms
comment             : Components of total free energy in Hartree
kinetic             :  3.84092182418304E+00
hartree             :  2.58463374635384E+00
xc                  : -2.25083738868702E+00
Ewald energy        : -2.38926034478681E+00
psp_core            :  6.40021599824447E-02
local_psp           : -7.83124707881023E+00
non_local_psp       : -3.48360074834690E-01
total_energy        : -6.33014715659942E+00
total_energy_eV     : -1.72252064168514E+02
band_energy         : -1.64889051105643E+00
...

 rms coord change=  8.5174E-04   atom, delta coord (reduced):
     1       -0.001475263744      0.000000000000      0.000000000000
     2        0.001475263744      0.000000000000      0.000000000000

 Cartesian components of stress tensor (hartree/bohr^3)
  sigma(1 1)=  7.07320772E-05  sigma(3 2)=  0.00000000E+00
  sigma(2 2)=  1.95587330E-04  sigma(3 1)=  0.00000000E+00
  sigma(3 3)=  1.95587330E-04  sigma(2 1)=  0.00000000E+00

-Cartesian components of stress tensor (GPa)         [Pressure= -4.5299E+00 GPa]
- sigma(1 1)=  2.08100921E+00  sigma(3 2)=  0.00000000E+00
- sigma(2 2)=  5.75437695E+00  sigma(3 1)=  0.00000000E+00
- sigma(3 3)=  5.75437695E+00  sigma(2 1)=  0.00000000E+00

================================================================================
== DATASET  2 ==================================================================
-   nproc =    1

 mkfilename : getwfk/=0, take file _WFK from output of DATASET   1.

 find_getdtset : getxred/=0, take data from output of dataset with index  1.

 Exchange-correlation functional for the present dataset will be:
  PBE0 with alpha=0.25

 Real(R)+Recip(G) space primitive vectors, cartesian coordinates (Bohr,Bohr^-1):
 R(1)=  9.4486307  0.0000000  0.0000000  G(1)=  0.1058354  0.0000000  0.0000000
 R(2)=  0.0000000  7.5589045  0.0000000  G(2)=  0.0000000  0.1322943  0.0000000
 R(3)=  0.0000000  0.0000000  7.5589045  G(3)=  0.0000000  0.0000000  0.1322943
 Unit cell volume ucvol=  5.3986677E+02 bohr^3
 Angles (23,13,12)=  9.00000000E+01  9.00000000E+01  9.00000000E+01 degrees

 getcut: wavevector=  0.0000  0.0000  0.0000  ngfft=  32  27  27
         ecut(hartree)=     13.000   => boxcut(ratio)=   2.08662

--- Pseudopotential description ------------------------------------------------
- pspini: atom type   1  psp file is /home/gmatteo/git_repos/abinit/tests/Psps_for_tests/C.psp8
- pspatm: opening atomic psp file    /home/gmatteo/git_repos/abinit/tests/Psps_for_tests/C.psp8
- C     ONCVPSP-3.2.3  r_core=   1.51078   1.70218
-  6.00000   4.00000    160922                znucl, zion, pspdat
    8   11    1    4       600   0.00000      pspcod,pspxc,lmax,lloc,mmax,r2well
    5.99000000000000    4.00000000000000    0.00000000000000   rchrg,fchrg,qchrg
     nproj     2     2
     extension_switch     1
  pspatm : epsatm=    6.54852399
         --- l  ekb(1:nproj) -->
             0    5.385069    0.619074
             1   -3.489168   -1.040664
 pspatm: atomic psp has been read  and splines computed

- pspini: atom type   2  psp file is /home/gmatteo/git_repos/abinit/tests/Psps_for_tests/H.psp8
- pspatm: opening atomic psp file    /home/gmatteo/git_repos/abinit/tests/Psps_for_tests/H.psp8
- H     ONCVPSP  r_core=  1.01  0.71
-  1.00000   1.00000    161003                znucl, zion, pspdat
    8   11    1    4       300   0.00000      pspcod,pspxc,lmax,lloc,mmax,r2well
    2.99000000000000    0.00000000000000    0.00000000000000   rchrg,fchrg,qchrg
     nproj     2     1
     extension_switch     1
  pspatm : epsatm=    0.36200384
         --- l  ekb(1:nproj) -->
             0   -7.905942   -0.865230
             1   -6.853045
 pspatm: atomic psp has been read  and splines computed

--------------------------------------------------------------------------------

-inwffil : will read wavefunctions from disk file t68o_DS1_WFK
_setup2: Arith. and geom. avg. npw (full set) are    1207.000    1207.000

================================================================================

=== [ionmov= 2] Broyden-Fletcher-Goldfard-Shanno method (forces)            
================================================================================

--- Iteration: ( 1/15) Internal Cycle: (1/1)
--------------------------------------------------------------------------------

---SELF-CONSISTENT-FIELD CONVERGENCE--------------------------------------------

     iter   Etot(hartree)      deltaE(h)  residm     vres2    diffor    maxfor
 ETOT  1  -6.3484180905705    -6.348E+00 5.989E-09 7.627E-01 3.956E-03 3.956E-03
 ETOT  2  -6.3484928668415    -7.478E-05 7.152E-11 3.836E-01 4.258E-04 4.382E-03
 ETOT  3  -6.3484953340545    -2.467E-06 7.826E-08 1.964E-02 4.556E-04 4.837E-03
 ETOT  4  -6.3484970210328    -1.687E-06 2.096E-09 1.824E-03 1.238E-04 4.714E-03
 ETOT  5  -6.3484971583084    -1.373E-07 4.143E-09 1.294E-03 2.201E-04 4.494E-03
 ETOT  6  -6.3484971675116    -9.203E-09 3.557E-09 6.746E-04 1.837E-04 4.677E-03
 ETOT  7  -6.3484972462942    -7.878E-08 1.785E-10 1.847E-04 3.318E-05 4.644E-03
 ETOT  8  -6.3484972861527    -3.986E-08 5.063E-10 2.745E-05 6.125E-05 4.583E-03

 At SCF step    8, forces are sufficiently converged : 
  for the second time, max diff in force=  6.125E-05 is less than < tolrff=  2.000E-02 times max force

 Cartesian components of stress tensor (hartree/bohr^3)
  sigma(1 1)=  5.22487440E-05  sigma(3 2)=  0.00000000E+00
  sigma(2 2)=  2.51234504E-04  sigma(3 1)=  0.00000000E+00
  sigma(3 3)=  2.51234504E-04  sigma(2 1)=  0.00000000E+00


--- !ResultsGS
comment   : Summary of ground state results
natom     :        2
nsppol    :        2
nspinor   :        1
nspden    :        2
nelect    :  5.000000000000000E+000
charge    :  0.000000000000000E+000
abc       : [ 9.000000000000000E+001,  9.000000000000000E+001,  9.000000000000000E+001, ]
alpha_beta_gamma_angles: [ 9.000000000000000E+001,  9.000000000000000E+001,  9.000000000000000E+001, ]
cutoff_energies: {"ecut":  1.300000000000000E+001, "pawecutdg": -1.000000000000000E+000, }
convergence: {
    "deltae": -3.985848628929034E-008, "res2":  2.744792895961785E-005, 
    "residm":  5.062913633804811E-010, "diffor":  6.125494988306127E-005, 
}
etotal    : -6.348497286152689E+000
entropy   :  0.000000000000000E+000
fermie    : -2.280992409297463E-001
stress_tensor: !CartTensor
- [ 5.224874400539918E-005,  0.000000000000000E+000,  0.000000000000000E+000, ]
- [ 0.000000000000000E+000,  2.512345041450143E-004,  0.000000000000000E+000, ]
- [ 0.000000000000000E+000,  0.000000000000000E+000,  2.512345041450143E-004, ]
cartesian_forces: !CartForces
- [ 4.582888549734689E-003, -0.000000000000000E+000, -0.000000000000000E+000, ]
- [-4.582888549734689E-003, -0.000000000000000E+000, -0.000000000000000E+000, ]
...

 Integrated electronic and magnetization densities in atomic spheres:
 ---------------------------------------------------------------------
 Radius=ratsph(iatom), smearing ratsm=  0.0000. Diff(up-dn)=approximate z local magnetic moment.
 Atom    Radius    up_density   dn_density  Total(up+dn)  Diff(up-dn)
    1   2.00000     1.996789     1.233876      3.230665     0.762912
    2   2.00000     1.011554     0.832901      1.844455     0.178653
 ---------------------------------------------------------------------
  Sum:              3.008343     2.066777      5.075120     0.941566
 Total magnetization (from the atomic spheres):             0.941566
 Total magnetization (exact up - dn):                       1.000000

---OUTPUT-----------------------------------------------------------------------

 Cartesian coordinates (xcart) [bohr]
 -1.07596530893278E+00  0.00000000000000E+00  0.00000000000000E+00
  1.07596530893278E+00  0.00000000000000E+00  0.00000000000000E+00
 Reduced coordinates (xred)
 -1.13875263744145E-01  0.00000000000000E+00  0.00000000000000E+00
  1.13875263744145E-01  0.00000000000000E+00  0.00000000000000E+00
 Cartesian forces (fcart) [Ha/bohr]; max,rms= 4.58289E-03 2.64593E-03 (free atoms)
  4.58288854973469E-03 -0.00000000000000E+00 -0.00000000000000E+00
 -4.58288854973469E-03 -0.00000000000000E+00 -0.00000000000000E+00
 Reduced forces (fred)
 -4.33020212826801E-02 -0.00000000000000E+00 -0.00000000000000E+00
  4.33020212826801E-02  0.00000000000000E+00  0.00000000000000E+00
 Total energy (etotal) [Ha]= -6.34849728615269E+00

--- Iteration: ( 2/15) Internal Cycle: (1/1)
--------------------------------------------------------------------------------

---SELF-CONSISTENT-FIELD CONVERGENCE--------------------------------------------

     iter   Etot(hartree)      deltaE(h)  residm     vres2    diffor    maxfor
 ETOT  1  -6.3485147889040    -6.349E+00 6.313E-10 2.825E+00 4.566E-03 1.737E-05
 ETOT  2  -6.3485263293580    -1.154E-05 6.036E-12 7.256E-01 1.680E-03 1.698E-03
 ETOT  3  -6.3485267883151    -4.590E-07 1.514E-08 1.997E-03 7.664E-05 1.774E-03
 ETOT  4  -6.3485269821564    -1.938E-07 9.391E-10 6.313E-04 6.180E-05 1.836E-03
 ETOT  5  -6.3485270062273    -2.407E-08 4.500E-10 4.713E-05 8.291E-05 1.919E-03
 ETOT  6  -6.3485270155253    -9.298E-09 8.140E-11 7.987E-06 1.353E-05 1.905E-03
 ETOT  7  -6.3485270158877    -3.623E-10 2.191E-11 1.692E-06 6.043E-06 1.899E-03

 At SCF step    7, forces are sufficiently converged : 
  for the second time, max diff in force=  6.043E-06 is less than < tolrff=  2.000E-02 times max force

 Cartesian components of stress tensor (hartree/bohr^3)
  sigma(1 1)=  4.39427475E-05  sigma(3 2)=  0.00000000E+00
  sigma(2 2)=  2.51345234E-04  sigma(3 1)=  0.00000000E+00
  sigma(3 3)=  2.51345234E-04  sigma(2 1)=  0.00000000E+00


--- !ResultsGS
comment   : Summary of ground state results
natom     :        2
nsppol    :        2
nspinor   :        1
nspden    :        2
nelect    :  5.000000000000000E+000
charge    :  0.000000000000000E+000
abc       : [ 9.000000000000000E+001,  9.000000000000000E+001,  9.000000000000000E+001, ]
alpha_beta_gamma_angles: [ 9.000000000000000E+001,  9.000000000000000E+001,  9.000000000000000E+001, ]
cutoff_energies: {"ecut":  1.300000000000000E+001, "pawecutdg": -1.000000000000000E+000, }
convergence: {
    "deltae": -3.623252808893085E-010, "res2":  1.692224923916225E-006, 
    "residm":  2.190996197042571E-011, "diffor":  6.043413222040417E-006, 
}
etotal    : -6.348527015887674E+000
entropy   :  0.000000000000000E+000
fermie    : -2.281929353374901E-001
stress_tensor: !CartTensor
- [ 4.394274745873887E-005,  0.000000000000000E+000,  0.000000000000000E+000, ]
- [ 0.000000000000000E+000,  2.513452340823681E-004,  0.000000000000000E+000, ]
- [ 0.000000000000000E+000,  0.000000000000000E+000,  2.513452340823681E-004, ]
cartesian_forces: !CartForces
- [ 1.899380218985350E-003, -0.000000000000000E+000, -0.000000000000000E+000, ]
- [-1.899380218985350E-003, -0.000000000000000E+000, -0.000000000000000E+000, ]
...

 Integrated electronic and magnetization densities in atomic spheres:
 ---------------------------------------------------------------------
 Radius=ratsph(iatom), smearing ratsm=  0.0000. Diff(up-dn)=approximate z local magnetic moment.
 Atom    Radius    up_density   dn_density  Total(up+dn)  Diff(up-dn)
    1   2.00000     2.008039     1.245790      3.253829     0.762249
    2   2.00000     1.023634     0.838318      1.861952     0.185316
 ---------------------------------------------------------------------
  Sum:              3.031673     2.084108      5.115781     0.947565
 Total magnetization (from the atomic spheres):             0.947565
 Total magnetization (exact up - dn):                       1.000000

---OUTPUT-----------------------------------------------------------------------

 Cartesian coordinates (xcart) [bohr]
 -1.07138242038304E+00  0.00000000000000E+00  0.00000000000000E+00
  1.07138242038304E+00  0.00000000000000E+00  0.00000000000000E+00
 Reduced coordinates (xred)
 -1.13390231710139E-01  0.00000000000000E+00  0.00000000000000E+00
  1.13390231710139E-01  0.00000000000000E+00  0.00000000000000E+00
 Cartesian forces (fcart) [Ha/bohr]; max,rms= 1.89938E-03 1.09661E-03 (free atoms)
  1.89938021898535E-03 -0.00000000000000E+00 -0.00000000000000E+00
 -1.89938021898535E-03 -0.00000000000000E+00 -0.00000000000000E+00
 Reduced forces (fred)
 -1.79465421805134E-02 -0.00000000000000E+00 -0.00000000000000E+00
  1.79465421805134E-02  0.00000000000000E+00  0.00000000000000E+00
 Total energy (etotal) [Ha]= -6.34852701588767E+00

 Difference of energy with previous step (new-old):
           Absolute (Ha)=-2.97297E-05
           Relative     =-4.68295E-06

--- Iteration: ( 3/15) Internal Cycle: (1/1)
--------------------------------------------------------------------------------

---SELF-CONSISTENT-FIELD CONVERGENCE--------------------------------------------

     iter   Etot(hartree)      deltaE(h)  residm     vres2    diffor    maxfor
 ETOT  1  -6.3485269014586    -6.349E+00 3.124E-10 1.786E+00 3.226E-03 1.327E-03
 ETOT  2  -6.3485327521901    -5.851E-06 3.037E-12 4.413E-01 1.173E-03 1.537E-04
 ETOT  3  -6.3485329918950    -2.397E-07 7.084E-09 1.232E-03 3.392E-05 1.197E-04
 ETOT  4  -6.3485330958570    -1.040E-07 7.026E-10 1.967E-04 5.536E-05 6.437E-05
 ETOT  5  -6.3485331048882    -9.031E-09 1.335E-10 2.176E-05 4.593E-05 1.844E-05
 ETOT  6  -6.3485331079203    -3.032E-09 3.342E-11 3.845E-06 6.706E-06 2.515E-05
 ETOT  7  -6.3485331081031    -1.828E-10 7.050E-12 2.677E-07 3.638E-06 2.879E-05
 ETOT  8  -6.3485331081372    -3.412E-11 1.421E-12 3.611E-08 1.399E-06 2.739E-05
 ETOT  9  -6.3485331081414    -4.175E-12 6.353E-14 5.833E-08 1.043E-06 2.843E-05
 ETOT 10  -6.3485331081420    -6.333E-13 1.324E-13 1.264E-08 2.425E-07 2.867E-05
 ETOT 11  -6.3485331081411     9.654E-13 3.629E-15 1.592E-08 6.234E-08 2.874E-05

 At SCF step   11, forces are sufficiently converged : 
  for the second time, max diff in force=  6.234E-08 is less than < tolrff=  2.000E-02 times max force

 Cartesian components of stress tensor (hartree/bohr^3)
  sigma(1 1)=  3.79186947E-05  sigma(3 2)=  0.00000000E+00
  sigma(2 2)=  2.51350432E-04  sigma(3 1)=  0.00000000E+00
  sigma(3 3)=  2.51350432E-04  sigma(2 1)=  0.00000000E+00


--- !ResultsGS
comment   : Summary of ground state results
natom     :        2
nsppol    :        2
nspinor   :        1
nspden    :        2
nelect    :  5.000000000000000E+000
charge    :  0.000000000000000E+000
abc       : [ 9.000000000000000E+001,  9.000000000000000E+001,  9.000000000000000E+001, ]
alpha_beta_gamma_angles: [ 9.000000000000000E+001,  9.000000000000000E+001,  9.000000000000000E+001, ]
cutoff_energies: {"ecut":  1.300000000000000E+001, "pawecutdg": -1.000000000000000E+000, }
convergence: {
    "deltae":  9.654499422140361E-013, "res2":  1.592154565720078E-008, 
    "residm":  3.629110234324553E-015, "diffor":  6.234402619511876E-008, 
}
etotal    : -6.348533108141067E+000
entropy   :  0.000000000000000E+000
fermie    : -2.282589897687477E-001
stress_tensor: !CartTensor
- [ 3.791869468359483E-005,  0.000000000000000E+000,  0.000000000000000E+000, ]
- [ 0.000000000000000E+000,  2.513504324490092E-004,  0.000000000000000E+000, ]
- [ 0.000000000000000E+000,  0.000000000000000E+000,  2.513504324490092E-004, ]
cartesian_forces: !CartForces
- [-2.873512756927054E-005, -0.000000000000000E+000, -0.000000000000000E+000, ]
- [ 2.873512756927055E-005, -0.000000000000000E+000, -0.000000000000000E+000, ]
...

 Integrated electronic and magnetization densities in atomic spheres:
 ---------------------------------------------------------------------
 Radius=ratsph(iatom), smearing ratsm=  0.0000. Diff(up-dn)=approximate z local magnetic moment.
 Atom    Radius    up_density   dn_density  Total(up+dn)  Diff(up-dn)
    1   2.00000     2.009006     1.246952      3.255958     0.762053
    2   2.00000     1.025980     0.839347      1.865326     0.186633
 ---------------------------------------------------------------------
  Sum:              3.034985     2.086299      5.121284     0.948686
 Total magnetization (from the atomic spheres):             0.948686
 Total magnetization (exact up - dn):                       1.000000

---OUTPUT-----------------------------------------------------------------------

 Cartesian coordinates (xcart) [bohr]
 -1.06813866378373E+00  0.00000000000000E+00  0.00000000000000E+00
  1.06813866378373E+00  0.00000000000000E+00  0.00000000000000E+00
 Reduced coordinates (xred)
 -1.13046927297625E-01  0.00000000000000E+00  0.00000000000000E+00
  1.13046927297625E-01  0.00000000000000E+00  0.00000000000000E+00
 Cartesian forces (fcart) [Ha/bohr]; max,rms= 2.87351E-05 1.65902E-05 (free atoms)
 -2.87351275692705E-05 -0.00000000000000E+00 -0.00000000000000E+00
  2.87351275692706E-05 -0.00000000000000E+00 -0.00000000000000E+00
 Reduced forces (fred)
  2.71507607497266E-04  0.00000000000000E+00  0.00000000000000E+00
 -2.71507607497266E-04 -0.00000000000000E+00 -0.00000000000000E+00
 Total energy (etotal) [Ha]= -6.34853310814107E+00

 Difference of energy with previous step (new-old):
           Absolute (Ha)=-6.09225E-06
           Relative     =-9.59632E-07

 At Broyd/MD step   3, gradients are converged : 
  max grad (force/stress) = 2.8735E-05 < tolmxf= 5.0000E-05 ha/bohr (free atoms)

================================================================================

 ----iterations are completed or convergence reached----

 Mean square residual over all n,k,spin=   12.450E-16; max=  36.291E-16
 reduced coordinates (array xred) for    2 atoms
      -0.113046927298      0.000000000000      0.000000000000
       0.113046927298      0.000000000000      0.000000000000
 rms dE/dt=  6.0384E-04; max dE/dt=  0.0000E+00; dE/dt below (all hartree)
    1      -0.000738517121      0.000000000000      0.000000000000
    2      -0.001281532336      0.000000000000      0.000000000000

 cartesian coordinates (angstrom) at end:
    1     -0.56523463648813     0.00000000000000     0.00000000000000
    2      0.56523463648813     0.00000000000000     0.00000000000000

 cartesian forces (hartree/bohr) at end:
    1     -0.00002873512757    -0.00000000000000    -0.00000000000000
    2      0.00002873512757    -0.00000000000000    -0.00000000000000
 frms,max,avg= 1.6590234E-05 2.8735128E-05   1.069E-04  0.000E+00  0.000E+00 h/b

 cartesian forces (eV/Angstrom) at end:
    1     -0.00147761954570    -0.00000000000000    -0.00000000000000
    2      0.00147761954570    -0.00000000000000    -0.00000000000000
 frms,max,avg= 8.5310404E-04 1.4776195E-03   5.497E-03  0.000E+00  0.000E+00 e/A
 length scales=  9.448630664428  7.558904531543  7.558904531543 bohr
              =  5.000000000000  4.000000000000  4.000000000000 angstroms
 prteigrs : about to open file t68o_DS2_EIG
 Fermi (or HOMO) energy (hartree) =  -0.22826   Average Vxc (hartree)=  -0.11636
 Eigenvalues (hartree) for nkpt=   1  k points, SPIN UP:
 kpt#   1, nband=  4, wtk=  1.00000, kpt=  0.0000  0.0000  0.0000 (reduced coord)
  -0.63490   -0.29462   -0.22826   -0.07742
 Eigenvalues (hartree) for nkpt=   1  k points, SPIN DOWN:
 kpt#   1, nband=  4, wtk=  1.00000, kpt=  0.0000  0.0000  0.0000 (reduced coord)
  -0.57821   -0.26999   -0.01734   -0.01734

--- !EnergyTerms
comment             : Components of total free energy in Hartree
kinetic             :  3.83060488686138E+00
hartree             :  2.58624502110584E+00
xc                  : -1.81706663474785E+00
Ewald energy        : -2.37619988196486E+00
psp_core            :  6.40021599824447E-02
local_psp           : -7.83731134611923E+00
non_local_psp+x     : -7.98807313258777E-01
total_energy        : -6.34853310814107E+00
...


--- !EnergyTermsDC
comment             : '"Double-counting" decomposition of free energy'
band_energy         : -2.005981573154755E+000
Ewald energy        : -2.376199881964861E+000
psp_core            :  6.400215998244474E-002
xc_dc               : -2.030349429525289E+000
total_energy_dc     : -6.348528724662462E+000
...

 rms coord change=  4.7824E-04   atom, delta coord (reduced):
     1        0.000828336447      0.000000000000      0.000000000000
     2       -0.000828336447      0.000000000000      0.000000000000

 Cartesian components of stress tensor (hartree/bohr^3)
  sigma(1 1)=  3.79186947E-05  sigma(3 2)=  0.00000000E+00
  sigma(2 2)=  2.51350432E-04  sigma(3 1)=  0.00000000E+00
  sigma(3 3)=  2.51350432E-04  sigma(2 1)=  0.00000000E+00

-Cartesian components of stress tensor (GPa)         [Pressure= -5.3019E+00 GPa]
- sigma(1 1)=  1.11560633E+00  sigma(3 2)=  0.00000000E+00
- sigma(2 2)=  7.39498379E+00  sigma(3 1)=  0.00000000E+00
- sigma(3 3)=  7.39498379E+00  sigma(2 1)=  0.00000000E+00

================================================================================
== DATASET  3 ==================================================================
-   nproc =    1

 mkfilename : getwfk/=0, take file _WFK from output of DATASET   2.

 find_getdtset : getxred/=0, take data from output of dataset with index  2.

 Real(R)+Recip(G) space primitive vectors, cartesian coordinates (Bohr,Bohr^-1):
 R(1)=  9.4486307  0.0000000  0.0000000  G(1)=  0.1058354  0.0000000  0.0000000
 R(2)=  0.0000000  7.5589045  0.0000000  G(2)=  0.0000000  0.1322943  0.0000000
 R(3)=  0.0000000  0.0000000  7.5589045  G(3)=  0.0000000  0.0000000  0.1322943
 Unit cell volume ucvol=  5.3986677E+02 bohr^3
 Angles (23,13,12)=  9.00000000E+01  9.00000000E+01  9.00000000E+01 degrees

 getcut: wavevector=  0.0000  0.0000  0.0000  ngfft=  32  27  27
         ecut(hartree)=     13.000   => boxcut(ratio)=   2.08662

--- Pseudopotential description ------------------------------------------------
- pspini: atom type   1  psp file is /home/gmatteo/git_repos/abinit/tests/Psps_for_tests/C.psp8
- pspatm: opening atomic psp file    /home/gmatteo/git_repos/abinit/tests/Psps_for_tests/C.psp8
- C     ONCVPSP-3.2.3  r_core=   1.51078   1.70218
-  6.00000   4.00000    160922                znucl, zion, pspdat
    8   11    1    4       600   0.00000      pspcod,pspxc,lmax,lloc,mmax,r2well
    5.99000000000000    4.00000000000000    0.00000000000000   rchrg,fchrg,qchrg
     nproj     2     2
     extension_switch     1
  pspatm : epsatm=    6.54852399
         --- l  ekb(1:nproj) -->
             0    5.385069    0.619074
             1   -3.489168   -1.040664
 pspatm: atomic psp has been read  and splines computed

- pspini: atom type   2  psp file is /home/gmatteo/git_repos/abinit/tests/Psps_for_tests/H.psp8
- pspatm: opening atomic psp file    /home/gmatteo/git_repos/abinit/tests/Psps_for_tests/H.psp8
- H     ONCVPSP  r_core=  1.01  0.71
-  1.00000   1.00000    161003                znucl, zion, pspdat
    8   11    1    4       300   0.00000      pspcod,pspxc,lmax,lloc,mmax,r2well
    2.99000000000000    0.00000000000000    0.00000000000000   rchrg,fchrg,qchrg
     nproj     2     1
     extension_switch     1
  pspatm : epsatm=    0.36200384
         --- l  ekb(1:nproj) -->
             0   -7.905942   -0.865230
             1   -6.853045
 pspatm: atomic psp has been read  and splines computed

--------------------------------------------------------------------------------

-inwffil : will read wavefunctions from disk file t68o_DS2_WFK
_setup2: Arith. and geom. avg. npw (full set) are    1207.000    1207.000

================================================================================

=== [ionmov= 2] Broyden-Fletcher-Goldfard-Shanno method (forces)            
================================================================================

--- Iteration: ( 1/15) Internal Cycle: (1/1)
--------------------------------------------------------------------------------

---SELF-CONSISTENT-FIELD CONVERGENCE--------------------------------------------

     iter   Etot(hartree)      deltaE(h)  residm     vres2    diffor    maxfor
 ETOT  1  -6.5134833429874    -6.513E+00 3.750E-10 1.431E-01 6.780E-05 6.780E-05
 ETOT  2  -6.5134977671952    -1.442E-05 6.476E-12 7.810E-02 2.837E-04 3.515E-04
 ETOT  3  -6.5134986172705    -8.501E-07 5.414E-09 3.310E-03 2.815E-04 6.330E-04
 ETOT  4  -6.5134989094209    -2.922E-07 1.693E-09 2.290E-03 5.436E-05 5.787E-04
 ETOT  5  -6.5134989073365     2.084E-09 5.525E-10 7.990E-04 6.775E-05 5.109E-04
 ETOT  6  -6.5134989148744    -7.538E-09 1.060E-09 2.575E-04 9.083E-05 6.017E-04
 ETOT  7  -6.5134989266105    -1.174E-08 2.969E-11 5.316E-05 9.599E-06 5.921E-04
 ETOT  8  -6.5134989346949    -8.084E-09 1.327E-10 3.989E-05 2.562E-05 5.665E-04
 ETOT  9  -6.5134989363894    -1.694E-09 6.321E-12 2.751E-05 5.312E-06 5.612E-04
 ETOT 10  -6.5134989362385     1.509E-10 2.100E-12 1.501E-05 6.208E-06 5.550E-04

 At SCF step   10, forces are sufficiently converged : 
  for the second time, max diff in force=  6.208E-06 is less than < tolrff=  2.000E-02 times max force

 Cartesian components of stress tensor (hartree/bohr^3)
  sigma(1 1)=  4.52126153E-04  sigma(3 2)=  0.00000000E+00
  sigma(2 2)=  6.73764485E-04  sigma(3 1)=  0.00000000E+00
  sigma(3 3)=  6.73764485E-04  sigma(2 1)=  0.00000000E+00


--- !ResultsGS
comment   : Summary of ground state results
natom     :        2
nsppol    :        2
nspinor   :        1
nspden    :        2
nelect    :  5.000000000000000E+000
charge    :  0.000000000000000E+000
abc       : [ 9.000000000000000E+001,  9.000000000000000E+001,  9.000000000000000E+001, ]
alpha_beta_gamma_angles: [ 9.000000000000000E+001,  9.000000000000000E+001,  9.000000000000000E+001, ]
cutoff_energies: {"ecut":  1.300000000000000E+001, "pawecutdg": -1.000000000000000E+000, }
convergence: {
    "deltae":  1.508864144739164E-010, "res2":  1.501320216556981E-005, 
    "residm":  2.100467091763385E-012, "diffor":  6.207886411451554E-006, 
}
etotal    : -6.513498936238514E+000
entropy   :  0.000000000000000E+000
fermie    : -2.773037779908903E-001
stress_tensor: !CartTensor
- [ 4.521261533938605E-004,  0.000000000000000E+000,  0.000000000000000E+000, ]
- [ 0.000000000000000E+000,  6.737644845520490E-004,  0.000000000000000E+000, ]
- [ 0.000000000000000E+000,  0.000000000000000E+000,  6.737644845520491E-004, ]
cartesian_forces: !CartForces
- [-5.549997917445862E-004, -0.000000000000000E+000, -0.000000000000000E+000, ]
- [ 5.549997917445862E-004, -0.000000000000000E+000, -0.000000000000000E+000, ]
...

 Integrated electronic and magnetization densities in atomic spheres:
 ---------------------------------------------------------------------
 Radius=ratsph(iatom), smearing ratsm=  0.0000. Diff(up-dn)=approximate z local magnetic moment.
 Atom    Radius    up_density   dn_density  Total(up+dn)  Diff(up-dn)
    1   2.00000     2.009470     1.249654      3.259124     0.759816
    2   2.00000     1.027196     0.840354      1.867550     0.186841
 ---------------------------------------------------------------------
  Sum:              3.036666     2.090009      5.126674     0.946657
 Total magnetization (from the atomic spheres):             0.946657
 Total magnetization (exact up - dn):                       1.000000

---OUTPUT-----------------------------------------------------------------------

 Cartesian coordinates (xcart) [bohr]
 -1.06813866378373E+00  0.00000000000000E+00  0.00000000000000E+00
  1.06813866378373E+00  0.00000000000000E+00  0.00000000000000E+00
 Reduced coordinates (xred)
 -1.13046927297625E-01  0.00000000000000E+00  0.00000000000000E+00
  1.13046927297625E-01  0.00000000000000E+00  0.00000000000000E+00
 Cartesian forces (fcart) [Ha/bohr]; max,rms= 5.55000E-04 3.20429E-04 (free atoms)
 -5.54999791744586E-04 -0.00000000000000E+00 -0.00000000000000E+00
  5.54999791744586E-04 -0.00000000000000E+00 -0.00000000000000E+00
 Reduced forces (fred)
  5.24398805102917E-03  0.00000000000000E+00  0.00000000000000E+00
 -5.24398805102917E-03 -0.00000000000000E+00 -0.00000000000000E+00
 Total energy (etotal) [Ha]= -6.51349893623851E+00

--- Iteration: ( 2/15) Internal Cycle: (1/1)
--------------------------------------------------------------------------------

---SELF-CONSISTENT-FIELD CONVERGENCE--------------------------------------------

     iter   Etot(hartree)      deltaE(h)  residm     vres2    diffor    maxfor
 ETOT  1  -6.5134991875950    -6.513E+00 9.824E-12 2.421E-01 6.074E-04 5.240E-05
 ETOT  2  -6.5134993613656    -1.738E-07 1.810E-13 5.516E-02 2.431E-04 1.907E-04
 ETOT  3  -6.5134993683167    -6.951E-09 2.117E-10 1.380E-04 2.401E-05 2.147E-04
 ETOT  4  -6.5134993701139    -1.797E-09 2.400E-11 2.039E-05 1.007E-05 2.248E-04
 ETOT  5  -6.5134993701290    -1.505E-11 5.206E-12 1.123E-06 6.856E-06 2.317E-04
 ETOT  6  -6.5134993702219    -9.292E-11 3.185E-12 1.902E-07 3.860E-06 2.278E-04
 ETOT  7  -6.5134993702276    -5.683E-12 7.139E-15 1.285E-08 1.143E-07 2.277E-04

 At SCF step    7, forces are sufficiently converged : 
  for the second time, max diff in force=  1.143E-07 is less than < tolrff=  2.000E-02 times max force

 Cartesian components of stress tensor (hartree/bohr^3)
  sigma(1 1)=  4.53172272E-04  sigma(3 2)=  0.00000000E+00
  sigma(2 2)=  6.73792842E-04  sigma(3 1)=  0.00000000E+00
  sigma(3 3)=  6.73792842E-04  sigma(2 1)=  0.00000000E+00


--- !ResultsGS
comment   : Summary of ground state results
natom     :        2
nsppol    :        2
nspinor   :        1
nspden    :        2
nelect    :  5.000000000000000E+000
charge    :  0.000000000000000E+000
abc       : [ 9.000000000000000E+001,  9.000000000000000E+001,  9.000000000000000E+001, ]
alpha_beta_gamma_angles: [ 9.000000000000000E+001,  9.000000000000000E+001,  9.000000000000000E+001, ]
cutoff_energies: {"ecut":  1.300000000000000E+001, "pawecutdg": -1.000000000000000E+000, }
convergence: {
    "deltae": -5.683453707661101E-012, "res2":  1.285057990710795E-008, 
    "residm":  7.139080090621954E-015, "diffor":  1.142965730432564E-007, 
}
etotal    : -6.513499370227566E+000
entropy   :  0.000000000000000E+000
fermie    : -2.772858187598585E-001
stress_tensor: !CartTensor
- [ 4.531722717397308E-004,  0.000000000000000E+000,  0.000000000000000E+000, ]
- [ 0.000000000000000E+000,  6.737928420890478E-004,  0.000000000000000E+000, ]
- [ 0.000000000000000E+000,  0.000000000000000E+000,  6.737928420890478E-004, ]
cartesian_forces: !CartForces
- [-2.276846934189271E-004, -0.000000000000000E+000, -0.000000000000000E+000, ]
- [ 2.276846934189271E-004, -0.000000000000000E+000, -0.000000000000000E+000, ]
...

 Integrated electronic and magnetization densities in atomic spheres:
 ---------------------------------------------------------------------
 Radius=ratsph(iatom), smearing ratsm=  0.0000. Diff(up-dn)=approximate z local magnetic moment.
 Atom    Radius    up_density   dn_density  Total(up+dn)  Diff(up-dn)
    1   2.00000     2.009285     1.249461      3.258746     0.759824
    2   2.00000     1.026798     0.840176      1.866974     0.186622
 ---------------------------------------------------------------------
  Sum:              3.036083     2.089637      5.125720     0.946446
 Total magnetization (from the atomic spheres):             0.946446
 Total magnetization (exact up - dn):                       1.000000

---OUTPUT-----------------------------------------------------------------------

 Cartesian coordinates (xcart) [bohr]
 -1.06869366357547E+00  0.00000000000000E+00  0.00000000000000E+00
  1.06869366357547E+00  0.00000000000000E+00  0.00000000000000E+00
 Reduced coordinates (xred)
 -1.13105665945738E-01  0.00000000000000E+00  0.00000000000000E+00
  1.13105665945738E-01  0.00000000000000E+00  0.00000000000000E+00
 Cartesian forces (fcart) [Ha/bohr]; max,rms= 2.27685E-04 1.31454E-04 (free atoms)
 -2.27684693418927E-04 -0.00000000000000E+00 -0.00000000000000E+00
  2.27684693418927E-04 -0.00000000000000E+00 -0.00000000000000E+00
 Reduced forces (fred)
  2.15130857605901E-03  0.00000000000000E+00  0.00000000000000E+00
 -2.15130857605901E-03 -0.00000000000000E+00 -0.00000000000000E+00
 Total energy (etotal) [Ha]= -6.51349937022757E+00

 Difference of energy with previous step (new-old):
           Absolute (Ha)=-4.33989E-07
           Relative     =-6.66292E-08

--- Iteration: ( 3/15) Internal Cycle: (1/1)
--------------------------------------------------------------------------------

---SELF-CONSISTENT-FIELD CONVERGENCE--------------------------------------------

     iter   Etot(hartree)      deltaE(h)  residm     vres2    diffor    maxfor
 ETOT  1  -6.5134993688664    -6.513E+00 4.882E-12 1.223E-01 4.251E-04 1.974E-04
 ETOT  2  -6.5134994521230    -8.326E-08 8.529E-14 2.771E-02 1.696E-04 2.780E-05
 ETOT  3  -6.5134994554556    -3.333E-09 1.074E-10 6.094E-05 1.773E-05 1.006E-05
 ETOT  4  -6.5134994562688    -8.132E-10 1.014E-11 9.406E-06 6.419E-06 3.646E-06
 ETOT  5  -6.5134994563035    -3.464E-11 2.700E-12 5.599E-07 4.812E-06 1.166E-06
 ETOT  6  -6.5134994563530    -4.954E-11 1.285E-12 9.044E-08 2.477E-06 1.312E-06
 ETOT  7  -6.5134994563580    -5.055E-12 1.710E-14 1.021E-08 2.625E-07 1.574E-06
 ETOT  8  -6.5134994563642    -6.119E-12 8.650E-14 4.023E-09 5.918E-07 9.823E-07
 ETOT  9  -6.5134994563661    -1.972E-12 2.850E-15 6.079E-10 9.034E-08 1.073E-06
 ETOT 10  -6.5134994563660     1.412E-13 2.406E-15 2.290E-11 9.610E-08 1.169E-06
 ETOT 11  -6.5134994563660    -5.151E-14 4.336E-16 8.302E-11 4.339E-08 1.212E-06
 ETOT 12  -6.5134994563662    -1.519E-13 8.395E-17 4.290E-11 1.263E-08 1.199E-06
 ETOT 13  -6.5134994563661     1.013E-13 2.114E-17 1.143E-10 7.056E-09 1.207E-06

 At SCF step   13, forces are sufficiently converged : 
  for the second time, max diff in force=  7.056E-09 is less than < tolrff=  2.000E-02 times max force

 Cartesian components of stress tensor (hartree/bohr^3)
  sigma(1 1)=  4.53886003E-04  sigma(3 2)=  0.00000000E+00
  sigma(2 2)=  6.73796405E-04  sigma(3 1)=  0.00000000E+00
  sigma(3 3)=  6.73796405E-04  sigma(2 1)=  0.00000000E+00


--- !ResultsGS
comment   : Summary of ground state results
natom     :        2
nsppol    :        2
nspinor   :        1
nspden    :        2
nelect    :  5.000000000000000E+000
charge    :  0.000000000000000E+000
abc       : [ 9.000000000000000E+001,  9.000000000000000E+001,  9.000000000000000E+001, ]
alpha_beta_gamma_angles: [ 9.000000000000000E+001,  9.000000000000000E+001,  9.000000000000000E+001, ]
cutoff_energies: {"ecut":  1.300000000000000E+001, "pawecutdg": -1.000000000000000E+000, }
convergence: {
    "deltae":  1.012523398458143E-013, "res2":  1.143411952888792E-010, 
    "residm":  2.114288923382999E-017, "diffor":  7.055772977600933E-009, 
}
etotal    : -6.513499456366096E+000
entropy   :  0.000000000000000E+000
fermie    : -2.772779832786736E-001
stress_tensor: !CartTensor
- [ 4.538860027641454E-004,  0.000000000000000E+000,  0.000000000000000E+000, ]
- [ 0.000000000000000E+000,  6.737964052839798E-004,  0.000000000000000E+000, ]
- [ 0.000000000000000E+000,  0.000000000000000E+000,  6.737964052839797E-004, ]
cartesian_forces: !CartForces
- [ 1.206519297447886E-006, -0.000000000000000E+000, -0.000000000000000E+000, ]
- [-1.206519297447886E-006, -0.000000000000000E+000, -0.000000000000000E+000, ]
...

 Integrated electronic and magnetization densities in atomic spheres:
 ---------------------------------------------------------------------
 Radius=ratsph(iatom), smearing ratsm=  0.0000. Diff(up-dn)=approximate z local magnetic moment.
 Atom    Radius    up_density   dn_density  Total(up+dn)  Diff(up-dn)
    1   2.00000     2.009168     1.249323      3.258491     0.759845
    2   2.00000     1.026519     0.840054      1.866574     0.186465
 ---------------------------------------------------------------------
  Sum:              3.035687     2.089377      5.125064     0.946310
 Total magnetization (from the atomic spheres):             0.946310
 Total magnetization (exact up - dn):                       1.000000

---OUTPUT-----------------------------------------------------------------------

 Cartesian coordinates (xcart) [bohr]
 -1.06907972874044E+00  0.00000000000000E+00  0.00000000000000E+00
  1.06907972874044E+00  0.00000000000000E+00  0.00000000000000E+00
 Reduced coordinates (xred)
 -1.13146525323004E-01  0.00000000000000E+00  0.00000000000000E+00
  1.13146525323004E-01  0.00000000000000E+00  0.00000000000000E+00
 Cartesian forces (fcart) [Ha/bohr]; max,rms= 1.20652E-06 6.96584E-07 (free atoms)
  1.20651929744789E-06 -0.00000000000000E+00 -0.00000000000000E+00
 -1.20651929744789E-06 -0.00000000000000E+00 -0.00000000000000E+00
 Reduced forces (fred)
 -1.13999552310905E-05 -0.00000000000000E+00 -0.00000000000000E+00
  1.13999552310905E-05  0.00000000000000E+00  0.00000000000000E+00
 Total energy (etotal) [Ha]= -6.51349945636610E+00

 Difference of energy with previous step (new-old):
           Absolute (Ha)=-8.61385E-08
           Relative     =-1.32246E-08

 At Broyd/MD step   3, gradients are converged : 
  max grad (force/stress) = 1.2065E-06 < tolmxf= 5.0000E-05 ha/bohr (free atoms)

================================================================================

 ----iterations are completed or convergence reached----

 Mean square residual over all n,k,spin=   97.299E-19; max=  21.143E-18
 reduced coordinates (array xred) for    2 atoms
      -0.113146525323      0.000000000000      0.000000000000
       0.113146525323      0.000000000000      0.000000000000
 rms dE/dt=  4.7128E-04; max dE/dt=  0.0000E+00; dE/dt below (all hartree)
    1      -0.000827595132      0.000000000000      0.000000000000
    2      -0.000804795222      0.000000000000      0.000000000000

 cartesian coordinates (angstrom) at end:
    1     -0.56573262661502     0.00000000000000     0.00000000000000
    2      0.56573262661502     0.00000000000000     0.00000000000000

 cartesian forces (hartree/bohr) at end:
    1      0.00000120651930    -0.00000000000000    -0.00000000000000
    2     -0.00000120651930    -0.00000000000000    -0.00000000000000
 frms,max,avg= 6.9658424E-07 1.2065193E-06   8.638E-05  0.000E+00  0.000E+00 h/b

 cartesian forces (eV/Angstrom) at end:
    1      0.00006204171156    -0.00000000000000    -0.00000000000000
    2     -0.00006204171156    -0.00000000000000    -0.00000000000000
 frms,max,avg= 3.5819799E-05 6.2041712E-05   4.442E-03  0.000E+00  0.000E+00 e/A
 length scales=  9.448630664428  7.558904531543  7.558904531543 bohr
              =  5.000000000000  4.000000000000  4.000000000000 angstroms
 prteigrs : about to open file t68o_DS3_EIG
 Fermi (or HOMO) energy (hartree) =  -0.27728   Average Vxc (hartree)=  -0.12964
 Eigenvalues (hartree) for nkpt=   1  k points, SPIN UP:
 kpt#   1, nband=  4, wtk=  1.00000, kpt=  0.0000  0.0000  0.0000 (reduced coord)
  -0.68436   -0.34579   -0.27728   -0.09441
 Eigenvalues (hartree) for nkpt=   1  k points, SPIN DOWN:
 kpt#   1, nband=  4, wtk=  1.00000, kpt=  0.0000  0.0000  0.0000 (reduced coord)
  -0.62664   -0.32080   -0.03274   -0.03274

--- !EnergyTerms
comment             : Components of total free energy in Hartree
kinetic             :  3.83463652840413E+00
hartree             :  2.59019605005454E+00
xc                  : -1.89432181624980E+00
Ewald energy        : -2.37778116640162E+00
psp_core            :  6.40021599824447E-02
local_psp           : -7.84393134313653E+00
non_local_psp+x     : -8.86299869019258E-01
total_energy        : -6.51349945636610E+00
...


--- !EnergyTermsDC
comment             : '"Double-counting" decomposition of free energy'
band_energy         : -2.254871506943350E+000
Ewald energy        : -2.377781166401621E+000
psp_core            :  6.400215998244474E-002
xc_dc               : -1.944849209660777E+000
total_energy_dc     : -6.513499723023303E+000
...

 rms coord change=  5.7503E-05   atom, delta coord (reduced):
     1       -0.000099598025      0.000000000000      0.000000000000
     2        0.000099598025      0.000000000000      0.000000000000

 Cartesian components of stress tensor (hartree/bohr^3)
  sigma(1 1)=  4.53886003E-04  sigma(3 2)=  0.00000000E+00
  sigma(2 2)=  6.73796405E-04  sigma(3 1)=  0.00000000E+00
  sigma(3 3)=  6.73796405E-04  sigma(2 1)=  0.00000000E+00

-Cartesian components of stress tensor (GPa)         [Pressure= -1.7667E+01 GPa]
- sigma(1 1)=  1.33537850E+01  sigma(3 2)=  0.00000000E+00
- sigma(2 2)=  1.98237713E+01  sigma(3 1)=  0.00000000E+00
- sigma(3 3)=  1.98237713E+01  sigma(2 1)=  0.00000000E+00

== END DATASET(S) ==============================================================
================================================================================
  
 -outvars: echo values of variables after computation  --------
            acell      9.4486306644E+00  7.5589045315E+00  7.5589045315E+00 Bohr
              amu      1.20110000E+01  1.00794000E+00
           diemac      1.00000000E+00
           diemix      5.00000000E-01
             ecut      1.30000000E+01 Hartree
           etotal1    -6.3301471566E+00
           etotal2    -6.3485331081E+00
           etotal3    -6.5134994564E+00
            fcart1    -1.4812091034E-06 -0.0000000000E+00 -0.0000000000E+00
                       1.4812091034E-06 -0.0000000000E+00 -0.0000000000E+00
            fcart2    -2.8735127569E-05 -0.0000000000E+00 -0.0000000000E+00
                       2.8735127569E-05 -0.0000000000E+00 -0.0000000000E+00
            fcart3     1.2065192974E-06 -0.0000000000E+00 -0.0000000000E+00
                      -1.2065192974E-06 -0.0000000000E+00 -0.0000000000E+00
-          fftalg         312
           getwfk1          0
           getwfk2          1
           getwfk3          2
          getxred1          0
          getxred2          1
          getxred3          2
           ionmov           2
           istwfk        1
              ixc1         11
              ixc2         41
              ixc3       -428
           jdtset        1    2    3
         kptns_hf2     0.00000000E+00  0.00000000E+00  0.00000000E+00
         kptns_hf3     0.00000000E+00  0.00000000E+00  0.00000000E+00
         kptrlatt        1    0    0      0    1    0      0    0    1
          kptrlen      7.55890453E+00
P           mkmem           1
            natom           2
            nband           4
          nbandhf           3
           ndtset           3
            ngfft          32      27      27
             nkpt           1
           nkpthf           1
           nspden           2
           nsppol           2
            nstep          25
             nsym           8
            ntime          15
           ntypat           2
              occ      1.000000  1.000000  1.000000  0.000000
                       1.000000  1.000000  0.000000  0.000000
        optforces           1
          spgroup          99
   spinmagntarget      1.00000000E+00
           strten1     7.0732077243E-05  1.9558733014E-04  1.9558733014E-04
                       0.0000000000E+00  0.0000000000E+00  0.0000000000E+00
           strten2     3.7918694684E-05  2.5135043245E-04  2.5135043245E-04
                       0.0000000000E+00  0.0000000000E+00  0.0000000000E+00
           strten3     4.5388600276E-04  6.7379640528E-04  6.7379640528E-04
                       0.0000000000E+00  0.0000000000E+00  0.0000000000E+00
           symrel      1  0  0   0  1  0   0  0  1       1  0  0   0  1  0   0  0 -1
                       1  0  0   0 -1  0   0  0 -1       1  0  0   0 -1  0   0  0  1
                       1  0  0   0  0  1   0  1  0       1  0  0   0  0  1   0 -1  0
                       1  0  0   0  0 -1   0 -1  0       1  0  0   0  0 -1   0  1  0
           tolrff      2.00000000E-02
            typat      1  2
          usefock1          0
          usefock2          1
          usefock3          1
           xangst1    -5.6937631872E-01  0.0000000000E+00  0.0000000000E+00
                       5.6937631872E-01  0.0000000000E+00  0.0000000000E+00
           xangst2    -5.6523463649E-01  0.0000000000E+00  0.0000000000E+00
                       5.6523463649E-01  0.0000000000E+00  0.0000000000E+00
           xangst3    -5.6573262662E-01  0.0000000000E+00  0.0000000000E+00
                       5.6573262662E-01  0.0000000000E+00  0.0000000000E+00
            xcart1    -1.0759653089E+00  0.0000000000E+00  0.0000000000E+00
                       1.0759653089E+00  0.0000000000E+00  0.0000000000E+00
            xcart2    -1.0681386638E+00  0.0000000000E+00  0.0000000000E+00
                       1.0681386638E+00  0.0000000000E+00  0.0000000000E+00
            xcart3    -1.0690797287E+00  0.0000000000E+00  0.0000000000E+00
                       1.0690797287E+00  0.0000000000E+00  0.0000000000E+00
             xred1    -1.1387526374E-01  0.0000000000E+00  0.0000000000E+00
                       1.1387526374E-01  0.0000000000E+00  0.0000000000E+00
             xred2    -1.1304692730E-01  0.0000000000E+00  0.0000000000E+00
                       1.1304692730E-01  0.0000000000E+00  0.0000000000E+00
             xred3    -1.1314652532E-01  0.0000000000E+00  0.0000000000E+00
                       1.1314652532E-01  0.0000000000E+00  0.0000000000E+00
            znucl        6.00000    1.00000

================================================================================


- Timing analysis has been suppressed with timopt=0



================================================================================

 Suggested references for the acknowledgment of ABINIT usage.

 The users of ABINIT have little formal obligations with respect to the ABINIT group
 (those specified in the GNU General Public License, http://www.gnu.org/copyleft/gpl.txt).
 However, it is common practice in the scientific literature,
 to acknowledge the efforts of people that have made the research possible.
 In this spirit, please find below suggested citations of work written by ABINIT developers,
 corresponding to implementations inside of ABINIT that you have used in the present run.
 Note also that it will be of great value to readers of publications presenting these results,
 to read papers enabling them to understand the theoretical formalism and details
 of the ABINIT implementation.
 For information on why they are suggested, see also https://docs.abinit.org/theory/acknowledgments.
-
- [1] Libxc: A library of exchange and correlation functionals for density functional theory.
- M.A.L. Marques, M.J.T. Oliveira, T. Burnus, Computer Physics Communications 183, 2227 (2012).
- Comment: to be cited when LibXC is used (negative value of ixc)
- Strong suggestion to cite this paper.
- DOI and bibtex: see https://docs.abinit.org/theory/bibliography/#marques2012
-
- [2] The Abinit project: Impact, environment and recent developments.
- Computer Phys. Comm. 248, 107042 (2020).
- X.Gonze, B. Amadon, G. Antonius, F.Arnardi, L.Baguet, J.-M.Beuken,
- J.Bieder, F.Bottin, J.Bouchet, E.Bousquet, N.Brouwer, F.Bruneval,
- G.Brunin, T.Cavignac, J.-B. Charraud, Wei Chen, M.Cote, S.Cottenier,
- J.Denier, G.Geneste, Ph.Ghosez, M.Giantomassi, Y.Gillet, O.Gingras,
- D.R.Hamann, G.Hautier, Xu He, N.Helbig, N.Holzwarth, Y.Jia, F.Jollet,
- W.Lafargue-Dit-Hauret, K.Lejaeghere, M.A.L.Marques, A.Martin, C.Martins,
- H.P.C. Miranda, F.Naccarato, K. Persson, G.Petretto, V.Planes, Y.Pouillon,
- S.Prokhorenko, F.Ricci, G.-M.Rignanese, A.H.Romero, M.M.Schmitt, M.Torrent,
- M.J.van Setten, B.Van Troeye, M.J.Verstraete, G.Zerah and J.W.Zwanzig
- Comment: the fifth generic paper describing the ABINIT project.
- Note that a version of this paper, that is not formatted for Computer Phys. Comm. 
- is available at https://www.abinit.org/sites/default/files/ABINIT20.pdf .
- The licence allows the authors to put it on the Web.
- DOI and bibtex: see https://docs.abinit.org/theory/bibliography/#gonze2020
-
- [3] Optimized norm-conserving Vanderbilt pseudopotentials.
- D.R. Hamann, Phys. Rev. B 88, 085117 (2013).
- Comment: Some pseudopotential generated using the ONCVPSP code were used.
- DOI and bibtex: see https://docs.abinit.org/theory/bibliography/#hamann2013
-
- [4] Recent developments in the ABINIT software package.
- Computer Phys. Comm. 205, 106 (2016).
- X.Gonze, F.Jollet, F.Abreu Araujo, D.Adams, B.Amadon, T.Applencourt,
- C.Audouze, J.-M.Beuken, J.Bieder, A.Bokhanchuk, E.Bousquet, F.Bruneval
- D.Caliste, M.Cote, F.Dahm, F.Da Pieve, M.Delaveau, M.Di Gennaro,
- B.Dorado, C.Espejo, G.Geneste, L.Genovese, A.Gerossier, M.Giantomassi,
- Y.Gillet, D.R.Hamann, L.He, G.Jomard, J.Laflamme Janssen, S.Le Roux,
- A.Levitt, A.Lherbier, F.Liu, I.Lukacevic, A.Martin, C.Martins,
- M.J.T.Oliveira, S.Ponce, Y.Pouillon, T.Rangel, G.-M.Rignanese,
- A.H.Romero, B.Rousseau, O.Rubel, A.A.Shukri, M.Stankovski, M.Torrent,
- M.J.Van Setten, B.Van Troeye, M.J.Verstraete, D.Waroquier, J.Wiktor,
- B.Xu, A.Zhou, J.W.Zwanziger.
- Comment: the fourth generic paper describing the ABINIT project.
- Note that a version of this paper, that is not formatted for Computer Phys. Comm. 
- is available at https://www.abinit.org/sites/default/files/ABINIT16.pdf .
- The licence allows the authors to put it on the Web.
- DOI and bibtex: see https://docs.abinit.org/theory/bibliography/#gonze2016
-
- [5] ABINIT: First-principles approach of materials and nanosystem properties.
- Computer Phys. Comm. 180, 2582-2615 (2009).
- X. Gonze, B. Amadon, P.-M. Anglade, J.-M. Beuken, F. Bottin, P. Boulanger, F. Bruneval,
- D. Caliste, R. Caracas, M. Cote, T. Deutsch, L. Genovese, Ph. Ghosez, M. Giantomassi
- S. Goedecker, D.R. Hamann, P. Hermet, F. Jollet, G. Jomard, S. Leroux, M. Mancini, S. Mazevet,
- M.J.T. Oliveira, G. Onida, Y. Pouillon, T. Rangel, G.-M. Rignanese, D. Sangalli, R. Shaltaf,
- M. Torrent, M.J. Verstraete, G. Zerah, J.W. Zwanziger
- Comment: the third generic paper describing the ABINIT project.
- Note that a version of this paper, that is not formatted for Computer Phys. Comm. 
- is available at https://www.abinit.org/sites/default/files/ABINIT_CPC_v10.pdf .
- The licence allows the authors to put it on the Web.
- DOI and bibtex: see https://docs.abinit.org/theory/bibliography/#gonze2009
-
- Proc.   0 individual time (sec): cpu=         25.4  wall=         25.6

================================================================================

 Calculation completed.
.Delivered   6 WARNINGs and   3 COMMENTs to log file.
+Overall time at end (sec) : cpu=         25.4  wall=         25.6
