
.Version 8.11.12 of ABINIT 
.(MPI version, prepared for a x86_64_linux_gnu9.2 computer) 

.Copyright (C) 1998-2019 ABINIT group . 
 ABINIT comes with ABSOLUTELY NO WARRANTY.
 It is free software, and you are welcome to redistribute it
 under certain conditions (GNU General Public License,
 see ~abinit/COPYING or http://www.gnu.org/copyleft/gpl.txt).

 ABINIT is a project of the Universite Catholique de Louvain,
 Corning Inc. and other collaborators, see ~abinit/doc/developers/contributors.txt .
 Please read https://docs.abinit.org/theory/acknowledgments for suggested
 acknowledgments of the ABINIT effort.
 For more information, see https://www.abinit.org .

.Starting date : Mon 25 Nov 2019.
- ( at 08h18 )
  
- input  file    -> t69.in
- output file    -> t69.out
- root for input  files -> t69i
- root for output files -> t69o

- inpspheads : Reading pseudopotential header in XML form from /home/buildbot/bb/ABINIT/abiref_gnu_9.2_openmpi/trunk__gonze3/tests/Psps_for_tests/C.xml
- inpspheads : Reading pseudopotential header in XML form from /home/buildbot/bb/ABINIT/abiref_gnu_9.2_openmpi/trunk__gonze3/tests/Psps_for_tests/H4.GGA_X_PBE+GGA_C_PBE-paw.xml

 DATASET    1 : space group P4 m m (# 99); Bravais tP (primitive tetrag.)
================================================================================
 Values of the parameters that define the memory need for DATASET  1.
     intxc =       0    ionmov =       2      iscf =      17    lmnmax =       8
     lnmax =       4     mgfft =      32  mpssoang =       2    mqgrid =    3001
     natom =       2  nloc_mem =       2    nspden =       2   nspinor =       1
    nsppol =       2      nsym =       8    n1xccc =       1    ntypat =       2
    occopt =       1   xclevel =       2
-    mband =           4        mffmem =           1         mkmem =           1
       mpw =        1207          nfft =       23328          nkpt =           1
 PAW method is used; the additional fine FFT grid is defined by:
   mgfftf=        54    nfftf =    109350
================================================================================
P This job should need less than                      50.131 Mbytes of memory.
  Rough estimation (10% accuracy) of disk space for files :
_ WF disk file :      0.149 Mbytes ; DEN or POT disk file :      1.671 Mbytes.
================================================================================


 DATASET    2 : space group P4 m m (# 99); Bravais tP (primitive tetrag.)
================================================================================
 Values of the parameters that define the memory need for DATASET  2.
     intxc =       0    ionmov =       2      iscf =      17    lmnmax =       8
     lnmax =       4     mgfft =      32  mpssoang =       2    mqgrid =    3001
     natom =       2  nloc_mem =       2    nspden =       2   nspinor =       1
    nsppol =       2      nsym =       8    n1xccc =       1    ntypat =       2
    occopt =       1   xclevel =       2
-    mband =           4        mffmem =           1         mkmem =           1
       mpw =        1207          nfft =       23328          nkpt =           1
 PAW method is used; the additional fine FFT grid is defined by:
   mgfftf=        54    nfftf =    109350
================================================================================
P This job should need less than                      50.131 Mbytes of memory.
  Rough estimation (10% accuracy) of disk space for files :
_ WF disk file :      0.149 Mbytes ; DEN or POT disk file :      1.671 Mbytes.
================================================================================


 DATASET    3 : space group P4 m m (# 99); Bravais tP (primitive tetrag.)
================================================================================
 Values of the parameters that define the memory need for DATASET  3.
     intxc =       0    ionmov =       2      iscf =      17    lmnmax =       8
     lnmax =       4     mgfft =      32  mpssoang =       2    mqgrid =    3001
     natom =       2  nloc_mem =       2    nspden =       2   nspinor =       1
    nsppol =       2      nsym =       8    n1xccc =       1    ntypat =       2
    occopt =       1   xclevel =       2
-    mband =           4        mffmem =           1         mkmem =           1
       mpw =        1207          nfft =       23328          nkpt =           1
 PAW method is used; the additional fine FFT grid is defined by:
   mgfftf=        54    nfftf =    109350
================================================================================
P This job should need less than                      50.131 Mbytes of memory.
  Rough estimation (10% accuracy) of disk space for files :
_ WF disk file :      0.149 Mbytes ; DEN or POT disk file :      1.671 Mbytes.
================================================================================

--------------------------------------------------------------------------------
------------- Echo of variables that govern the present computation ------------
--------------------------------------------------------------------------------
-
- outvars: echo of selected default values                                      
-   iomode0 =  0 , fftalg0 =312 , wfoptalg0 = 10
-
- outvars: echo of global parameters not present in the input file              
-  max_nthreads =    0
-
 -outvars: echo values of preprocessed input variables --------
            acell      9.4486306644E+00  7.5589045315E+00  7.5589045315E+00 Bohr
              amu      1.20110000E+01  1.00794000E+00
           diemac      1.00000000E+00
           diemix      5.00000000E-01
             ecut      1.30000000E+01 Hartree
-          fftalg         312
           getwfk1          0
           getwfk2          1
           getwfk3          2
          getxred1          0
          getxred2          1
          getxred3          2
           ionmov           2
           istwfk        1
              ixc1    -101130
              ixc2         41
              ixc3       -428
           jdtset        1    2    3
         kptns_hf2     0.00000000E+00  0.00000000E+00  0.00000000E+00
         kptns_hf3     0.00000000E+00  0.00000000E+00  0.00000000E+00
         kptrlatt        1    0    0      0    1    0      0    0    1
          kptrlen      7.55890453E+00
P           mkmem           1
            natom           2
            nband           4
          nbandhf           3
           ndtset           3
            ngfft          32      27      27
          ngfftdg          54      45      45
             nkpt           1
           nkpthf           1
           nspden           2
           nsppol           2
            nstep1         10
            nstep2         10
            nstep3         15
             nsym           8
            ntime          15
           ntypat           2
              occ      1.000000  1.000000  1.000000  0.000000
                       1.000000  1.000000  0.000000  0.000000
        optforces           1
        pawecutdg      3.50000000E+01 Hartree
          spgroup          99
   spinmagntarget      1.00000000E+00
           symrel      1  0  0   0  1  0   0  0  1       1  0  0   0  1  0   0  0 -1
                       1  0  0   0 -1  0   0  0 -1       1  0  0   0 -1  0   0  0  1
                       1  0  0   0  0  1   0  1  0       1  0  0   0  0  1   0 -1  0
                       1  0  0   0  0 -1   0 -1  0       1  0  0   0  0 -1   0  1  0
           tolrff1     5.00000000E-03
           tolrff2     5.00000000E-03
           tolrff3     0.00000000E+00
           tolvrs1     0.00000000E+00
           tolvrs2     0.00000000E+00
           tolvrs3     1.00000000E-20
            typat      1  2
          usefock1          0
          usefock2          1
          usefock3          1
           useylm           1
           xangst     -5.6200000000E-01  0.0000000000E+00  0.0000000000E+00
                       5.6200000000E-01  0.0000000000E+00  0.0000000000E+00
            xcart     -1.0620260867E+00  0.0000000000E+00  0.0000000000E+00
                       1.0620260867E+00  0.0000000000E+00  0.0000000000E+00
             xred     -1.1240000000E-01  0.0000000000E+00  0.0000000000E+00
                       1.1240000000E-01  0.0000000000E+00  0.0000000000E+00
            znucl        6.00000    1.00000

================================================================================

 chkinp: Checking input parameters for consistency, jdtset=   1.

 chkinp: Checking input parameters for consistency, jdtset=   2.

 chkinp: Checking input parameters for consistency, jdtset=   3.

================================================================================
== DATASET  1 ==================================================================
-   nproc =    1

 Real(R)+Recip(G) space primitive vectors, cartesian coordinates (Bohr,Bohr^-1):
 R(1)=  9.4486307  0.0000000  0.0000000  G(1)=  0.1058354  0.0000000  0.0000000
 R(2)=  0.0000000  7.5589045  0.0000000  G(2)=  0.0000000  0.1322943  0.0000000
 R(3)=  0.0000000  0.0000000  7.5589045  G(3)=  0.0000000  0.0000000  0.1322943
 Unit cell volume ucvol=  5.3986677E+02 bohr^3
 Angles (23,13,12)=  9.00000000E+01  9.00000000E+01  9.00000000E+01 degrees

 Coarse grid specifications (used for wave-functions):

 getcut: wavevector=  0.0000  0.0000  0.0000  ngfft=  32  27  27
         ecut(hartree)=     13.000   => boxcut(ratio)=   2.08662

 Fine grid specifications (used for densities):

 getcut: wavevector=  0.0000  0.0000  0.0000  ngfft=  54  45  45
         ecut(hartree)=     35.000   => boxcut(ratio)=   2.14598

--- Pseudopotential description ------------------------------------------------
- pspini: atom type   1  psp file is /home/buildbot/bb/ABINIT/abiref_gnu_9.2_openmpi/trunk__gonze3/tests/Psps_for_tests/C.xml
- pspatm: opening atomic psp file    /home/buildbot/bb/ABINIT/abiref_gnu_9.2_openmpi/trunk__gonze3/tests/Psps_for_tests/C.xml
- pspatm : Reading pseudopotential header in XML form from /home/buildbot/bb/ABINIT/abiref_gnu_9.2_openmpi/trunk__gonze3/tests/Psps_for_tests/C.xml
 Pseudopotential format is: paw10
 basis_size (lnmax)=  4 (lmn_size=  8), orbitals=   0   0   1   1
 Spheres core radius: rc_sph= 1.50736703
 1 radial meshes are used:
  - mesh 1: r(i)=AA*[exp(BB*(i-1))-1], size=2001 , AA= 0.94549E-03 BB= 0.56729E-02
 Shapefunction is SIN type: shapef(r)=[sin(pi*r/rshp)/(pi*r/rshp)]**2
 Radius for shape functions =  1.30052589
 mmax= 2001
 Radial grid used for partial waves is grid 1
 Radial grid used for projectors is grid 1
 Radial grid used for (t)core density is grid 1
 Radial grid used for Vloc is grid 1
 Radial grid used for pseudo valence density is grid 1
 Mesh size for Vloc has been set to 1756 to avoid numerical noise.
 Compensation charge density is not taken into account in XC energy/potential
 pspatm: atomic psp has been read  and splines computed

- pspini: atom type   2  psp file is /home/buildbot/bb/ABINIT/abiref_gnu_9.2_openmpi/trunk__gonze3/tests/Psps_for_tests/H4.GGA_X_PBE+GGA_C_PBE-paw.xml
- pspatm: opening atomic psp file    /home/buildbot/bb/ABINIT/abiref_gnu_9.2_openmpi/trunk__gonze3/tests/Psps_for_tests/H4.GGA_X_PBE+GGA_C_PBE-paw.xml
- pspatm : Reading pseudopotential header in XML form from /home/buildbot/bb/ABINIT/abiref_gnu_9.2_openmpi/trunk__gonze3/tests/Psps_for_tests/H4.GGA_X_PBE+GGA_C_PBE-paw.xml
 Pseudopotential format is: paw10
 basis_size (lnmax)=  2 (lmn_size=  2), orbitals=   0   0
 Spheres core radius: rc_sph= 0.89889493
 1 radial meshes are used:
  - mesh 1: r(i)=AA*[exp(BB*(i-1))-1], size=1500 , AA= 0.63034E-02 BB= 0.63034E-02
 Shapefunction is SIN type: shapef(r)=[sin(pi*r/rshp)/(pi*r/rshp)]**2
 Radius for shape functions =  0.79672474
 mmax= 1500
 Radial grid used for partial waves is grid 1
 Radial grid used for projectors is grid 1
 Radial grid used for (t)core density is grid 1
 Radial grid used for Vloc is grid 1
 Radial grid used for pseudo valence density is grid 1
 Mesh size for Vloc has been set to 1280 to avoid numerical noise.
 Compensation charge density is not taken into account in XC energy/potential
 pspatm: atomic psp has been read  and splines computed

   2.22361832E+01                                ecore*ucvol(ha*bohr**3)
--------------------------------------------------------------------------------

_setup2: Arith. and geom. avg. npw (full set) are    1207.000    1207.000

================================================================================

=== [ionmov= 2] Broyden-Fletcher-Goldfard-Shanno method (forces)            
================================================================================

--- Iteration: ( 1/15) Internal Cycle: (1/1)
--------------------------------------------------------------------------------

---SELF-CONSISTENT-FIELD CONVERGENCE--------------------------------------------

     iter   Etot(hartree)      deltaE(h)  residm     nres2    diffor    maxfor
 ETOT  1  -6.0737550206647    -6.074E+00 1.038E-02 8.757E+00 1.319E-03 1.319E-03
 ETOT  2  -6.0785626128056    -4.808E-03 4.656E-06 1.918E+00 1.108E-02 1.240E-02
 ETOT  3  -6.0802223529515    -1.660E-03 4.281E-04 4.549E-02 1.355E-02 1.147E-03
 ETOT  4  -6.0806405296061    -4.182E-04 4.981E-06 1.888E-02 3.386E-03 4.533E-03
 ETOT  5  -6.0806322089627     8.321E-06 7.308E-06 9.391E-04 9.317E-04 3.601E-03
 ETOT  6  -6.0806417155128    -9.507E-06 2.011E-07 9.638E-05 2.079E-04 3.394E-03
 ETOT  7  -6.0806416985393     1.697E-08 4.568E-08 7.681E-06 3.563E-05 3.358E-03
 ETOT  8  -6.0806417592381    -6.070E-08 2.762E-09 1.821E-06 2.332E-05 3.381E-03
 ETOT  9  -6.0806417449373     1.430E-08 4.730E-10 2.901E-07 2.023E-06 3.379E-03
 ETOT 10  -6.0806417385918     6.345E-09 6.208E-11 1.072E-08 1.504E-06 3.378E-03

 At SCF step   10, forces are sufficiently converged : 
  for the second time, max diff in force=  1.504E-06 is less than < tolrff=  5.000E-03 times max force

 Cartesian components of stress tensor (hartree/bohr^3)
  sigma(1 1)= -6.82054475E-05  sigma(3 2)=  0.00000000E+00
  sigma(2 2)=  8.40980768E-05  sigma(3 1)=  0.00000000E+00
  sigma(3 3)=  8.40980768E-05  sigma(2 1)=  0.00000000E+00

 Integrated electronic and magnetization densities in atomic spheres:
 ---------------------------------------------------------------------
 Radius=ratsph(iatom), smearing ratsm=  0.0000. Diff(up-dn)=approximate z local magnetic moment.
 Atom    Radius    up_density   dn_density  Total(up+dn)  Diff(up-dn)
    1   1.50737     1.351648     0.814068      2.165716     0.537580
    2   0.89889     0.220007     0.226107      0.446114    -0.006100
 ---------------------------------------------------------------------
  Sum:              1.571655     1.040175      2.611829     0.531480
 Total magnetization (from the atomic spheres):             0.531480
 Total magnetization (exact up - dn):                       1.000002

 PAW TEST:
 ==== Compensation charge inside spheres ============
 The following values must be close to each other ...
 Compensation charge over spherical meshes =      0.060378465811164
 Compensation charge over fine fft grid    =      0.060371254800475

 ==== Results concerning PAW augmentation regions ====

 Total pseudopotential strength Dij (hartree):
 Atom #  1 - Spin component 1
   0.44838  -4.51800   0.00000   0.00000   0.00043   0.00000   0.00000   0.00009
  -4.51800  43.74638   0.00000   0.00000  -0.00593   0.00000   0.00000   0.00931
   0.00000   0.00000  -0.14717   0.00000   0.00000   0.64434   0.00000   0.00000
   0.00000   0.00000   0.00000  -0.14717   0.00000   0.00000   0.64434   0.00000
   0.00043  -0.00593   0.00000   0.00000  -0.14576   0.00000   0.00000   0.63345
   0.00000   0.00000   0.64434   0.00000   0.00000  -0.17137   0.00000   0.00000
   0.00000   0.00000   0.00000   0.64434   0.00000   0.00000  -0.17137   0.00000
   0.00009   0.00931   0.00000   0.00000   0.63345   0.00000   0.00000  -0.09294
 Atom #  1 - Spin component 2
   0.44761  -4.51276   0.00000   0.00000   0.00054   0.00000   0.00000  -0.00066
  -4.51276  43.69530   0.00000   0.00000  -0.00677   0.00000   0.00000   0.01527
   0.00000   0.00000  -0.14137   0.00000   0.00000   0.60320   0.00000   0.00000
   0.00000   0.00000   0.00000  -0.14137   0.00000   0.00000   0.60320   0.00000
   0.00054  -0.00677   0.00000   0.00000  -0.14344   0.00000   0.00000   0.61455
   0.00000   0.00000   0.60320   0.00000   0.00000   0.09804   0.00000   0.00000
   0.00000   0.00000   0.00000   0.60320   0.00000   0.00000   0.09804   0.00000
  -0.00066   0.01527   0.00000   0.00000   0.61455   0.00000   0.00000   0.03601
 Atom #  2 - Spin component 1
  -0.01838  -0.00729
  -0.00729   0.66741
 Atom #  2 - Spin component 2
  -0.01847  -0.00774
  -0.00774   0.66527


 Augmentation waves occupancies Rhoij:
 Atom #  1 - Spin component 1
   0.94869   0.00135   0.00000   0.00000  -0.03183   0.00000   0.00000   0.00406
   0.00135   0.00002   0.00000   0.00000   0.00416   0.00000   0.00000   0.00008
   0.00000   0.00000   0.56034   0.00000   0.00000   0.00193   0.00000   0.00000
   0.00000   0.00000   0.00000   0.56034   0.00000   0.00000   0.00193   0.00000
  -0.03183   0.00416   0.00000   0.00000   0.82532   0.00000   0.00000   0.01402
   0.00000   0.00000   0.00193   0.00000   0.00000   0.00001   0.00000   0.00000
   0.00000   0.00000   0.00000   0.00193   0.00000   0.00000   0.00001   0.00000
   0.00406   0.00008   0.00000   0.00000   0.01402   0.00000   0.00000   0.00026
 Atom #  1 - Spin component 2
   0.90529   0.00207   0.00000   0.00000  -0.04270   0.00000   0.00000   0.00404
   0.00207   0.00002   0.00000   0.00000   0.00390   0.00000   0.00000   0.00008
   0.00000   0.00000   0.00000   0.00000   0.00000   0.00000   0.00000   0.00000
   0.00000   0.00000   0.00000   0.00000   0.00000   0.00000   0.00000   0.00000
  -0.04270   0.00390   0.00000   0.00000   0.80747   0.00000   0.00000   0.01456
   0.00000   0.00000   0.00000   0.00000   0.00000   0.00000   0.00000   0.00000
   0.00000   0.00000   0.00000   0.00000   0.00000   0.00000   0.00000   0.00000
   0.00404   0.00008   0.00000   0.00000   0.01456   0.00000   0.00000   0.00029
 Atom #  2 - Spin component 1
   0.96806  -0.02376
  -0.02376   0.00062
 Atom #  2 - Spin component 2
   1.01364  -0.02426
  -0.02426   0.00061



---OUTPUT-----------------------------------------------------------------------

 Cartesian coordinates (xcart) [bohr]
 -1.06202608668173E+00  0.00000000000000E+00  0.00000000000000E+00
  1.06202608668173E+00  0.00000000000000E+00  0.00000000000000E+00
 Reduced coordinates (xred)
 -1.12400000000000E-01  0.00000000000000E+00  0.00000000000000E+00
  1.12400000000000E-01  0.00000000000000E+00  0.00000000000000E+00
 Cartesian forces (fcart) [Ha/bohr]; max,rms= 3.37771E-03 1.95012E-03 (free atoms)
 -3.37771144359676E-03 -0.00000000000000E+00 -0.00000000000000E+00
  3.37771144359676E-03 -0.00000000000000E+00 -0.00000000000000E+00
 Reduced forces (fred)
  3.19147479215584E-02  0.00000000000000E+00  0.00000000000000E+00
 -3.19147479215584E-02 -0.00000000000000E+00 -0.00000000000000E+00
 Total energy (etotal) [Ha]= -6.08064173859179E+00

--- Iteration: ( 2/15) Internal Cycle: (1/1)
--------------------------------------------------------------------------------

---SELF-CONSISTENT-FIELD CONVERGENCE--------------------------------------------

     iter   Etot(hartree)      deltaE(h)  residm     nres2    diffor    maxfor
 ETOT  1  -6.0806575894320    -6.081E+00 3.183E-08 7.819E-04 1.878E-03 1.500E-03
 ETOT  2  -6.0806577033644    -1.139E-07 3.099E-11 1.808E-04 5.985E-05 1.440E-03
 ETOT  3  -6.0806577965852    -9.322E-08 8.509E-09 1.010E-06 1.248E-05 1.427E-03
 ETOT  4  -6.0806577828861     1.370E-08 1.410E-10 3.436E-07 2.390E-06 1.430E-03
 ETOT  5  -6.0806577792892     3.597E-09 1.837E-11 7.316E-08 1.459E-06 1.431E-03

 At SCF step    5, forces are sufficiently converged : 
  for the second time, max diff in force=  1.459E-06 is less than < tolrff=  5.000E-03 times max force

 Cartesian components of stress tensor (hartree/bohr^3)
  sigma(1 1)= -6.18581373E-05  sigma(3 2)=  0.00000000E+00
  sigma(2 2)=  8.41717816E-05  sigma(3 1)=  0.00000000E+00
  sigma(3 3)=  8.41717816E-05  sigma(2 1)=  0.00000000E+00

 Integrated electronic and magnetization densities in atomic spheres:
 ---------------------------------------------------------------------
 Radius=ratsph(iatom), smearing ratsm=  0.0000. Diff(up-dn)=approximate z local magnetic moment.
 Atom    Radius    up_density   dn_density  Total(up+dn)  Diff(up-dn)
    1   1.50737     1.351005     0.813252      2.164257     0.537754
    2   0.89889     0.219416     0.225568      0.444985    -0.006152
 ---------------------------------------------------------------------
  Sum:              1.570422     1.038820      2.609242     0.531602
 Total magnetization (from the atomic spheres):             0.531602
 Total magnetization (exact up - dn):                       1.000002

 PAW TEST:
 ==== Compensation charge inside spheres ============
 The following values must be close to each other ...
 Compensation charge over spherical meshes =      0.060063115431229
 Compensation charge over fine fft grid    =      0.060060201569144

 ==== Results concerning PAW augmentation regions ====

 Total pseudopotential strength Dij (hartree):
 Atom #  1 - Spin component 1
   0.44840  -4.51817   0.00000   0.00000   0.00043   0.00000   0.00000   0.00007
  -4.51817  43.74858   0.00000   0.00000  -0.00593   0.00000   0.00000   0.00944
   0.00000   0.00000  -0.14718   0.00000   0.00000   0.64440   0.00000   0.00000
   0.00000   0.00000   0.00000  -0.14718   0.00000   0.00000   0.64440   0.00000
   0.00043  -0.00593   0.00000   0.00000  -0.14576   0.00000   0.00000   0.63347
   0.00000   0.00000   0.64440   0.00000   0.00000  -0.17186   0.00000   0.00000
   0.00000   0.00000   0.00000   0.64440   0.00000   0.00000  -0.17186   0.00000
   0.00007   0.00944   0.00000   0.00000   0.63347   0.00000   0.00000  -0.09320
 Atom #  1 - Spin component 2
   0.44763  -4.51293   0.00000   0.00000   0.00054   0.00000   0.00000  -0.00069
  -4.51293  43.69760   0.00000   0.00000  -0.00678   0.00000   0.00000   0.01546
   0.00000   0.00000  -0.14137   0.00000   0.00000   0.60325   0.00000   0.00000
   0.00000   0.00000   0.00000  -0.14137   0.00000   0.00000   0.60325   0.00000
   0.00054  -0.00678   0.00000   0.00000  -0.14345   0.00000   0.00000   0.61456
   0.00000   0.00000   0.60325   0.00000   0.00000   0.09758   0.00000   0.00000
   0.00000   0.00000   0.00000   0.60325   0.00000   0.00000   0.09758   0.00000
  -0.00069   0.01546   0.00000   0.00000   0.61456   0.00000   0.00000   0.03582
 Atom #  2 - Spin component 1
  -0.01837  -0.00724
  -0.00724   0.66763
 Atom #  2 - Spin component 2
  -0.01846  -0.00769
  -0.00769   0.66548


 Augmentation waves occupancies Rhoij:
 Atom #  1 - Spin component 1
   0.94858   0.00132   0.00000   0.00000  -0.03279   0.00000   0.00000   0.00400
   0.00132   0.00002   0.00000   0.00000   0.00415   0.00000   0.00000   0.00008
   0.00000   0.00000   0.56031   0.00000   0.00000   0.00192   0.00000   0.00000
   0.00000   0.00000   0.00000   0.56031   0.00000   0.00000   0.00192   0.00000
  -0.03279   0.00415   0.00000   0.00000   0.82256   0.00000   0.00000   0.01393
   0.00000   0.00000   0.00192   0.00000   0.00000   0.00001   0.00000   0.00000
   0.00000   0.00000   0.00000   0.00192   0.00000   0.00000   0.00001   0.00000
   0.00400   0.00008   0.00000   0.00000   0.01393   0.00000   0.00000   0.00026
 Atom #  1 - Spin component 2
   0.90518   0.00204   0.00000   0.00000  -0.04383   0.00000   0.00000   0.00398
   0.00204   0.00002   0.00000   0.00000   0.00389   0.00000   0.00000   0.00008
   0.00000   0.00000   0.00000   0.00000   0.00000  -0.00000   0.00000   0.00000
   0.00000   0.00000   0.00000   0.00000   0.00000   0.00000  -0.00000   0.00000
  -0.04383   0.00389   0.00000   0.00000   0.80459   0.00000   0.00000   0.01447
   0.00000   0.00000  -0.00000   0.00000   0.00000   0.00000   0.00000   0.00000
   0.00000   0.00000   0.00000  -0.00000   0.00000   0.00000   0.00000   0.00000
   0.00398   0.00008   0.00000   0.00000   0.01447   0.00000   0.00000   0.00029
 Atom #  2 - Spin component 1
   0.96351  -0.02362
  -0.02362   0.00062
 Atom #  2 - Spin component 2
   1.00916  -0.02412
  -0.02412   0.00061



---OUTPUT-----------------------------------------------------------------------

 Cartesian coordinates (xcart) [bohr]
 -1.06540379812533E+00  0.00000000000000E+00  0.00000000000000E+00
  1.06540379812533E+00  0.00000000000000E+00  0.00000000000000E+00
 Reduced coordinates (xred)
 -1.12757481582629E-01  0.00000000000000E+00  0.00000000000000E+00
  1.12757481582629E-01  0.00000000000000E+00  0.00000000000000E+00
 Cartesian forces (fcart) [Ha/bohr]; max,rms= 1.43134E-03 8.26385E-04 (free atoms)
 -1.43134124396152E-03 -0.00000000000000E+00 -0.00000000000000E+00
  1.43134124396152E-03 -0.00000000000000E+00 -0.00000000000000E+00
 Reduced forces (fred)
  1.35242147689556E-02  0.00000000000000E+00  0.00000000000000E+00
 -1.35242147689556E-02 -0.00000000000000E+00 -0.00000000000000E+00
 Total energy (etotal) [Ha]= -6.08065777928920E+00

 Difference of energy with previous step (new-old):
           Absolute (Ha)=-1.60407E-05
           Relative     =-2.63799E-06

--- Iteration: ( 3/15) Internal Cycle: (1/1)
--------------------------------------------------------------------------------

---SELF-CONSISTENT-FIELD CONVERGENCE--------------------------------------------

     iter   Etot(hartree)      deltaE(h)  residm     nres2    diffor    maxfor
 ETOT  1  -6.0806611902359    -6.081E+00 1.740E-08 4.168E-04 1.356E-03 7.531E-05
 ETOT  2  -6.0806612410129    -5.078E-08 1.594E-11 9.658E-05 4.143E-05 3.388E-05
 ETOT  3  -6.0806612788702    -3.786E-08 4.524E-09 5.390E-07 7.416E-06 2.646E-05
 ETOT  4  -6.0806612711828     7.687E-09 7.418E-11 1.834E-07 1.949E-06 2.841E-05
 ETOT  5  -6.0806612695353     1.648E-09 9.897E-12 3.846E-08 9.907E-07 2.940E-05
 ETOT  6  -6.0806612688092     7.261E-10 6.239E-13 3.105E-09 1.302E-07 2.953E-05
 ETOT  7  -6.0806612687204     8.872E-11 7.805E-14 5.803E-10 2.757E-07 2.981E-05
 ETOT  8  -6.0806612686267     9.371E-11 1.425E-14 1.272E-10 2.549E-08 2.978E-05
 ETOT  9  -6.0806612685951     3.167E-11 4.758E-16 3.153E-11 2.680E-08 2.981E-05

 At SCF step    9, forces are sufficiently converged : 
  for the second time, max diff in force=  2.680E-08 is less than < tolrff=  5.000E-03 times max force

 Cartesian components of stress tensor (hartree/bohr^3)
  sigma(1 1)= -5.72615354E-05  sigma(3 2)=  0.00000000E+00
  sigma(2 2)=  8.42388859E-05  sigma(3 1)=  0.00000000E+00
  sigma(3 3)=  8.42388859E-05  sigma(2 1)=  0.00000000E+00

 Integrated electronic and magnetization densities in atomic spheres:
 ---------------------------------------------------------------------
 Radius=ratsph(iatom), smearing ratsm=  0.0000. Diff(up-dn)=approximate z local magnetic moment.
 Atom    Radius    up_density   dn_density  Total(up+dn)  Diff(up-dn)
    1   1.50737     1.348871     0.811016      2.159887     0.537855
    2   0.89889     0.218983     0.225172      0.444155    -0.006189
 ---------------------------------------------------------------------
  Sum:              1.567854     1.036188      2.604042     0.531666
 Total magnetization (from the atomic spheres):             0.531666
 Total magnetization (exact up - dn):                       1.000002

 PAW TEST:
 ==== Compensation charge inside spheres ============
 The following values must be close to each other ...
 Compensation charge over spherical meshes =      0.059838580664650
 Compensation charge over fine fft grid    =      0.059831554571514

 ==== Results concerning PAW augmentation regions ====

 Total pseudopotential strength Dij (hartree):
 Atom #  1 - Spin component 1
   0.44841  -4.51831   0.00000   0.00000   0.00043   0.00000   0.00000   0.00006
  -4.51831  43.75025   0.00000   0.00000  -0.00593   0.00000   0.00000   0.00954
   0.00000   0.00000  -0.14718   0.00000   0.00000   0.64445   0.00000   0.00000
   0.00000   0.00000   0.00000  -0.14718   0.00000   0.00000   0.64445   0.00000
   0.00043  -0.00593   0.00000   0.00000  -0.14576   0.00000   0.00000   0.63349
   0.00000   0.00000   0.64445   0.00000   0.00000  -0.17225   0.00000   0.00000
   0.00000   0.00000   0.00000   0.64445   0.00000   0.00000  -0.17225   0.00000
   0.00006   0.00954   0.00000   0.00000   0.63349   0.00000   0.00000  -0.09341
 Atom #  1 - Spin component 2
   0.44764  -4.51306   0.00000   0.00000   0.00054   0.00000   0.00000  -0.00071
  -4.51306  43.69928   0.00000   0.00000  -0.00679   0.00000   0.00000   0.01559
   0.00000   0.00000  -0.14138   0.00000   0.00000   0.60330   0.00000   0.00000
   0.00000   0.00000   0.00000  -0.14138   0.00000   0.00000   0.60330   0.00000
   0.00054  -0.00679   0.00000   0.00000  -0.14345   0.00000   0.00000   0.61458
   0.00000   0.00000   0.60330   0.00000   0.00000   0.09721   0.00000   0.00000
   0.00000   0.00000   0.00000   0.60330   0.00000   0.00000   0.09721   0.00000
  -0.00071   0.01559   0.00000   0.00000   0.61458   0.00000   0.00000   0.03565
 Atom #  2 - Spin component 1
  -0.01836  -0.00721
  -0.00721   0.66778
 Atom #  2 - Spin component 2
  -0.01846  -0.00766
  -0.00766   0.66562


 Augmentation waves occupancies Rhoij:
 Atom #  1 - Spin component 1
   0.94850   0.00131   0.00000   0.00000  -0.03349   0.00000   0.00000   0.00396
   0.00131   0.00002   0.00000   0.00000   0.00414   0.00000   0.00000   0.00008
   0.00000   0.00000   0.56030   0.00000   0.00000   0.00192   0.00000   0.00000
   0.00000   0.00000   0.00000   0.56030   0.00000   0.00000   0.00192   0.00000
  -0.03349   0.00414   0.00000   0.00000   0.82053   0.00000   0.00000   0.01387
   0.00000   0.00000   0.00192   0.00000   0.00000   0.00001   0.00000   0.00000
   0.00000   0.00000   0.00000   0.00192   0.00000   0.00000   0.00001   0.00000
   0.00396   0.00008   0.00000   0.00000   0.01387   0.00000   0.00000   0.00026
 Atom #  1 - Spin component 2
   0.90510   0.00203   0.00000   0.00000  -0.04466   0.00000   0.00000   0.00394
   0.00203   0.00002   0.00000   0.00000   0.00388   0.00000   0.00000   0.00008
   0.00000   0.00000   0.00000   0.00000   0.00000   0.00000   0.00000   0.00000
   0.00000   0.00000   0.00000   0.00000   0.00000   0.00000   0.00000   0.00000
  -0.04466   0.00388   0.00000   0.00000   0.80249   0.00000   0.00000   0.01440
   0.00000   0.00000   0.00000   0.00000   0.00000   0.00000   0.00000   0.00000
   0.00000   0.00000   0.00000   0.00000   0.00000   0.00000   0.00000   0.00000
   0.00394   0.00008   0.00000   0.00000   0.01440   0.00000   0.00000   0.00028
 Atom #  2 - Spin component 1
   0.96020  -0.02352
  -0.02352   0.00061
 Atom #  2 - Spin component 2
   1.00589  -0.02402
  -0.02402   0.00061



---OUTPUT-----------------------------------------------------------------------

 Cartesian coordinates (xcart) [bohr]
 -1.06788773345291E+00  0.00000000000000E+00  0.00000000000000E+00
  1.06788773345291E+00  0.00000000000000E+00  0.00000000000000E+00
 Reduced coordinates (xred)
 -1.13020369975222E-01  0.00000000000000E+00  0.00000000000000E+00
  1.13020369975222E-01  0.00000000000000E+00  0.00000000000000E+00
 Cartesian forces (fcart) [Ha/bohr]; max,rms= 2.98085E-05 1.72099E-05 (free atoms)
 -2.98084609819826E-05 -0.00000000000000E+00 -0.00000000000000E+00
  2.98084609819826E-05 -0.00000000000000E+00 -0.00000000000000E+00
 Reduced forces (fred)
  2.81649138493773E-04  0.00000000000000E+00  0.00000000000000E+00
 -2.81649138493773E-04 -0.00000000000000E+00 -0.00000000000000E+00
 Total energy (etotal) [Ha]= -6.08066126859506E+00

 Difference of energy with previous step (new-old):
           Absolute (Ha)=-3.48931E-06
           Relative     =-5.73837E-07

 At Broyd/MD step   3, gradients are converged : 
  max grad (force/stress) = 2.9808E-05 < tolmxf= 5.0000E-05 ha/bohr (free atoms)

================================================================================

 ----iterations are completed or convergence reached----

 Mean square residual over all n,k,spin=   10.863E-17; max=  47.575E-17
 reduced coordinates (array xred) for    2 atoms
      -0.113020369975      0.000000000000      0.000000000000
       0.113020369975      0.000000000000      0.000000000000
 rms dE/dt=  9.5161E-04; max dE/dt=  0.0000E+00; dE/dt below (all hartree)
    1      -0.001342352100      0.000000000000      0.000000000000
    2      -0.001905650377      0.000000000000      0.000000000000

 cartesian coordinates (angstrom) at end:
    1     -0.56510184987611     0.00000000000000     0.00000000000000
    2      0.56510184987611     0.00000000000000     0.00000000000000

 cartesian forces (hartree/bohr) at end:
    1     -0.00002980846098    -0.00000000000000    -0.00000000000000
    2      0.00002980846098    -0.00000000000000    -0.00000000000000
 frms,max,avg= 1.7209923E-05 2.9808461E-05   1.719E-04  0.000E+00  0.000E+00 h/b

 cartesian forces (eV/Angstrom) at end:
    1     -0.00153281256428    -0.00000000000000    -0.00000000000000
    2      0.00153281256428    -0.00000000000000    -0.00000000000000
 frms,max,avg= 8.8496975E-04 1.5328126E-03   8.838E-03  0.000E+00  0.000E+00 e/A
 length scales=  9.448630664428  7.558904531543  7.558904531543 bohr
              =  5.000000000000  4.000000000000  4.000000000000 angstroms
 prteigrs : about to open file t69o_DS1_EIG
 Fermi (or HOMO) energy (hartree) =  -0.14576   Average Vxc (hartree)=  -0.15348
 Eigenvalues (hartree) for nkpt=   1  k points, SPIN UP:
 kpt#   1, nband=  4, wtk=  1.00000, kpt=  0.0000  0.0000  0.0000 (reduced coord)
  -0.54387   -0.23083   -0.14576   -0.14576
 Eigenvalues (hartree) for nkpt=   1  k points, SPIN DOWN:
 kpt#   1, nband=  4, wtk=  1.00000, kpt=  0.0000  0.0000  0.0000 (reduced coord)
  -0.49911   -0.21000   -0.07376   -0.07376

--------------------------------------------------------------------------------
 Components of total free energy (in Hartree) :

    Kinetic energy  =  3.45557849042726E+00
    Hartree energy  =  2.62506581423318E+00
    XC energy       = -2.32034035861330E+00
    Ewald energy    = -2.37577773290940E+00
    PspCore energy  =  4.11882793594244E-02
    Loc. psp. energy= -8.43932426727486E+00
    Spherical terms =  9.32948334569623E-01
    >>>>>>>>> Etotal= -6.08066144020806E+00

 "Double-counting" decomposition of free energy:
    Band energy     = -1.62956168138242E+00
    Ewald energy    =-2.37577773290940E+00
    PspCore energy  =  4.11882793594244E-02
    Dble-C XC-energy= -2.52206125105550E+00
    Spherical terms =  4.05551117392837E-01
    >>>> Etotal (DC)= -6.08066126859506E+00

  >Total energy in eV           = -1.65463212572202E+02
  >Total DC energy in eV        = -1.65463207902375E+02
--------------------------------------------------------------------------------


 rms coord change=  3.5817E-04   atom, delta coord (reduced):
     1       -0.000620369975      0.000000000000      0.000000000000
     2        0.000620369975      0.000000000000      0.000000000000

 Cartesian components of stress tensor (hartree/bohr^3)
  sigma(1 1)= -5.72615354E-05  sigma(3 2)=  0.00000000E+00
  sigma(2 2)=  8.42388859E-05  sigma(3 1)=  0.00000000E+00
  sigma(3 3)=  8.42388859E-05  sigma(2 1)=  0.00000000E+00

-Cartesian components of stress tensor (GPa)         [Pressure= -1.0907E+00 GPa]
- sigma(1 1)= -1.68469225E+00  sigma(3 2)=  0.00000000E+00
- sigma(2 2)=  2.47839317E+00  sigma(3 1)=  0.00000000E+00
- sigma(3 3)=  2.47839317E+00  sigma(2 1)=  0.00000000E+00

================================================================================
== DATASET  2 ==================================================================
-   nproc =    1

 mkfilename : getwfk/=0, take file _WFK from output of DATASET   1.

 find_getdtset : getxred/=0, take data from output of dataset with index  1.

 Exchange-correlation functional for the present dataset will be:
  PBE0 with alpha=0.25

 Real(R)+Recip(G) space primitive vectors, cartesian coordinates (Bohr,Bohr^-1):
 R(1)=  9.4486307  0.0000000  0.0000000  G(1)=  0.1058354  0.0000000  0.0000000
 R(2)=  0.0000000  7.5589045  0.0000000  G(2)=  0.0000000  0.1322943  0.0000000
 R(3)=  0.0000000  0.0000000  7.5589045  G(3)=  0.0000000  0.0000000  0.1322943
 Unit cell volume ucvol=  5.3986677E+02 bohr^3
 Angles (23,13,12)=  9.00000000E+01  9.00000000E+01  9.00000000E+01 degrees

 Coarse grid specifications (used for wave-functions):

 getcut: wavevector=  0.0000  0.0000  0.0000  ngfft=  32  27  27
         ecut(hartree)=     13.000   => boxcut(ratio)=   2.08662

 Fine grid specifications (used for densities):

 getcut: wavevector=  0.0000  0.0000  0.0000  ngfft=  54  45  45
         ecut(hartree)=     35.000   => boxcut(ratio)=   2.14598

--- Pseudopotential description ------------------------------------------------
- pspini: atom type   1  psp file is /home/buildbot/bb/ABINIT/abiref_gnu_9.2_openmpi/trunk__gonze3/tests/Psps_for_tests/C.xml
- pspatm: opening atomic psp file    /home/buildbot/bb/ABINIT/abiref_gnu_9.2_openmpi/trunk__gonze3/tests/Psps_for_tests/C.xml
- pspatm : Reading pseudopotential header in XML form from /home/buildbot/bb/ABINIT/abiref_gnu_9.2_openmpi/trunk__gonze3/tests/Psps_for_tests/C.xml
 Pseudopotential format is: paw10
 basis_size (lnmax)=  4 (lmn_size=  8), orbitals=   0   0   1   1
 Spheres core radius: rc_sph= 1.50736703
 1 radial meshes are used:
  - mesh 1: r(i)=AA*[exp(BB*(i-1))-1], size=2001 , AA= 0.94549E-03 BB= 0.56729E-02
 Shapefunction is SIN type: shapef(r)=[sin(pi*r/rshp)/(pi*r/rshp)]**2
 Radius for shape functions =  1.30052589
 mmax= 2001
 Radial grid used for partial waves is grid 1
 Radial grid used for projectors is grid 1
 Radial grid used for (t)core density is grid 1
 Radial grid used for Vloc is grid 1
 Radial grid used for pseudo valence density is grid 1
 Mesh size for Vloc has been set to 1756 to avoid numerical noise.
 Compensation charge density is not taken into account in XC energy/potential
 pspatm: atomic psp has been read  and splines computed

- pspini: atom type   2  psp file is /home/buildbot/bb/ABINIT/abiref_gnu_9.2_openmpi/trunk__gonze3/tests/Psps_for_tests/H4.GGA_X_PBE+GGA_C_PBE-paw.xml
- pspatm: opening atomic psp file    /home/buildbot/bb/ABINIT/abiref_gnu_9.2_openmpi/trunk__gonze3/tests/Psps_for_tests/H4.GGA_X_PBE+GGA_C_PBE-paw.xml
- pspatm : Reading pseudopotential header in XML form from /home/buildbot/bb/ABINIT/abiref_gnu_9.2_openmpi/trunk__gonze3/tests/Psps_for_tests/H4.GGA_X_PBE+GGA_C_PBE-paw.xml
 Pseudopotential format is: paw10
 basis_size (lnmax)=  2 (lmn_size=  2), orbitals=   0   0
 Spheres core radius: rc_sph= 0.89889493
 1 radial meshes are used:
  - mesh 1: r(i)=AA*[exp(BB*(i-1))-1], size=1500 , AA= 0.63034E-02 BB= 0.63034E-02
 Shapefunction is SIN type: shapef(r)=[sin(pi*r/rshp)/(pi*r/rshp)]**2
 Radius for shape functions =  0.79672474
 mmax= 1500
 Radial grid used for partial waves is grid 1
 Radial grid used for projectors is grid 1
 Radial grid used for (t)core density is grid 1
 Radial grid used for Vloc is grid 1
 Radial grid used for pseudo valence density is grid 1
 Mesh size for Vloc has been set to 1280 to avoid numerical noise.
 Compensation charge density is not taken into account in XC energy/potential
 pspatm: atomic psp has been read  and splines computed

--------------------------------------------------------------------------------

-inwffil : will read wavefunctions from disk file t69o_DS1_WFK
_setup2: Arith. and geom. avg. npw (full set) are    1207.000    1207.000

================================================================================

=== [ionmov= 2] Broyden-Fletcher-Goldfard-Shanno method (forces)            
================================================================================

--- Iteration: ( 1/15) Internal Cycle: (1/1)
--------------------------------------------------------------------------------

---SELF-CONSISTENT-FIELD CONVERGENCE--------------------------------------------

     iter   Etot(hartree)      deltaE(h)  residm     nres2    diffor    maxfor
 ETOT  1  -6.0886680079371    -6.089E+00 2.235E-08 1.277E-02 5.067E-03 5.067E-03
 ETOT  2  -6.0887147070980    -4.670E-05 1.224E-10 2.601E-03 8.422E-06 5.075E-03
 ETOT  3  -6.0887142646729     4.424E-07 1.673E-07 2.511E-04 1.225E-04 5.198E-03
 ETOT  4  -6.0887144996173    -2.349E-07 2.593E-08 1.145E-04 2.547E-05 5.172E-03
 ETOT  5  -6.0887142552106     2.444E-07 1.252E-09 2.076E-05 1.760E-05 5.155E-03

 At SCF step    5, forces are sufficiently converged : 
  for the second time, max diff in force=  1.760E-05 is less than < tolrff=  5.000E-03 times max force

 Cartesian components of stress tensor (hartree/bohr^3)
  sigma(1 1)= -7.27450260E-05  sigma(3 2)=  0.00000000E+00
  sigma(2 2)=  1.38849022E-04  sigma(3 1)=  0.00000000E+00
  sigma(3 3)=  1.38849022E-04  sigma(2 1)=  0.00000000E+00

 Integrated electronic and magnetization densities in atomic spheres:
 ---------------------------------------------------------------------
 Radius=ratsph(iatom), smearing ratsm=  0.0000. Diff(up-dn)=approximate z local magnetic moment.
 Atom    Radius    up_density   dn_density  Total(up+dn)  Diff(up-dn)
    1   1.50737     1.348266     0.802428      2.150694     0.545838
    2   0.89889     0.218102     0.224629      0.442731    -0.006527
 ---------------------------------------------------------------------
  Sum:              1.566368     1.027057      2.593425     0.539311
 Total magnetization (from the atomic spheres):             0.539311
 Total magnetization (exact up - dn):                       1.000002

 PAW TEST:
 ==== Compensation charge inside spheres ============
 The following values must be close to each other ...
 Compensation charge over spherical meshes =      0.059854886720252
 Compensation charge over fine fft grid    =      0.059842862371536

 ==== Results concerning PAW augmentation regions ====

 Total pseudopotential strength Dij (hartree):
 Atom #  1 - Spin component 1
   0.43476  -4.35437   0.00000   0.00000   0.00042   0.00000   0.00000   0.00021
  -4.35437  41.74494   0.00000   0.00000  -0.00600   0.00000   0.00000   0.00929
   0.00000   0.00000  -0.13781   0.00000   0.00000   0.56790   0.00000   0.00000
   0.00000   0.00000   0.00000  -0.13781   0.00000   0.00000   0.56790   0.00000
   0.00042  -0.00600   0.00000   0.00000  -0.13627   0.00000   0.00000   0.55507
   0.00000   0.00000   0.56790   0.00000   0.00000   0.37384   0.00000   0.00000
   0.00000   0.00000   0.00000   0.56790   0.00000   0.00000   0.37384   0.00000
   0.00021   0.00929   0.00000   0.00000   0.55507   0.00000   0.00000   0.46188
 Atom #  1 - Spin component 2
   0.43392  -4.34767   0.00000   0.00000   0.00049   0.00000   0.00000  -0.00030
  -4.34767  41.67834   0.00000   0.00000  -0.00661   0.00000   0.00000   0.01344
   0.00000   0.00000  -0.13348   0.00000   0.00000   0.53954   0.00000   0.00000
   0.00000   0.00000   0.00000  -0.13348   0.00000   0.00000   0.53954   0.00000
   0.00049  -0.00661   0.00000   0.00000  -0.13443   0.00000   0.00000   0.54168
   0.00000   0.00000   0.53954   0.00000   0.00000   0.57913   0.00000   0.00000
   0.00000   0.00000   0.00000   0.53954   0.00000   0.00000   0.57913   0.00000
  -0.00030   0.01344   0.00000   0.00000   0.54168   0.00000   0.00000   0.56389
 Atom #  2 - Spin component 1
  -0.01655   0.00387
   0.00387   0.72445
 Atom #  2 - Spin component 2
  -0.01663   0.00354
   0.00354   0.72276


 Augmentation waves occupancies Rhoij:
 Atom #  1 - Spin component 1
   0.95855   0.00235   0.00000   0.00000  -0.03524   0.00000   0.00000   0.00418
   0.00235   0.00003   0.00000   0.00000   0.00415   0.00000   0.00000   0.00009
   0.00000   0.00000   0.56731   0.00000   0.00000   0.00259   0.00000   0.00000
   0.00000   0.00000   0.00000   0.56731   0.00000   0.00000   0.00259   0.00000
  -0.03524   0.00415   0.00000   0.00000   0.82976   0.00000   0.00000   0.01554
   0.00000   0.00000   0.00259   0.00000   0.00000   0.00001   0.00000   0.00000
   0.00000   0.00000   0.00000   0.00259   0.00000   0.00000   0.00001   0.00000
   0.00418   0.00009   0.00000   0.00000   0.01554   0.00000   0.00000   0.00032
 Atom #  1 - Spin component 2
   0.90979   0.00328   0.00000   0.00000  -0.04454   0.00000   0.00000   0.00415
   0.00328   0.00003   0.00000   0.00000   0.00380   0.00000   0.00000   0.00009
   0.00000   0.00000   0.00000   0.00000   0.00000  -0.00000   0.00000   0.00000
   0.00000   0.00000   0.00000   0.00000   0.00000   0.00000  -0.00000   0.00000
  -0.04454   0.00380   0.00000   0.00000   0.80630   0.00000   0.00000   0.01596
   0.00000   0.00000  -0.00000   0.00000   0.00000   0.00000   0.00000   0.00000
   0.00000   0.00000   0.00000  -0.00000   0.00000   0.00000   0.00000   0.00000
   0.00415   0.00009   0.00000   0.00000   0.01596   0.00000   0.00000   0.00034
 Atom #  2 - Spin component 1
   0.95941  -0.02439
  -0.02439   0.00065
 Atom #  2 - Spin component 2
   1.00622  -0.02485
  -0.02485   0.00064



---OUTPUT-----------------------------------------------------------------------

 Cartesian coordinates (xcart) [bohr]
 -1.06788773345291E+00  0.00000000000000E+00  0.00000000000000E+00
  1.06788773345291E+00  0.00000000000000E+00  0.00000000000000E+00
 Reduced coordinates (xred)
 -1.13020369975222E-01  0.00000000000000E+00  0.00000000000000E+00
  1.13020369975222E-01  0.00000000000000E+00  0.00000000000000E+00
 Cartesian forces (fcart) [Ha/bohr]; max,rms= 5.15471E-03 2.97608E-03 (free atoms)
  5.15471385547819E-03 -0.00000000000000E+00 -0.00000000000000E+00
 -5.15471385547819E-03 -0.00000000000000E+00 -0.00000000000000E+00
 Reduced forces (fred)
 -4.87049874012242E-02 -0.00000000000000E+00 -0.00000000000000E+00
  4.87049874012242E-02  0.00000000000000E+00  0.00000000000000E+00
 Total energy (etotal) [Ha]= -6.08871425521060E+00

--- Iteration: ( 2/15) Internal Cycle: (1/1)
--------------------------------------------------------------------------------

---SELF-CONSISTENT-FIELD CONVERGENCE--------------------------------------------

     iter   Etot(hartree)      deltaE(h)  residm     nres2    diffor    maxfor
 ETOT  1  -6.0887423479584    -6.089E+00 9.124E-08 1.574E-03 5.211E-03 5.624E-05
 ETOT  2  -6.0887524458115    -1.010E-05 1.553E-10 4.955E-04 2.267E-03 2.211E-03
 ETOT  3  -6.0887527444803    -2.987E-07 4.795E-08 1.613E-05 7.465E-05 2.286E-03
 ETOT  4  -6.0887527734859    -2.901E-08 5.618E-10 2.360E-06 4.286E-05 2.243E-03
 ETOT  5  -6.0887527902622    -1.678E-08 2.384E-10 5.309E-07 5.376E-06 2.248E-03
 ETOT  6  -6.0887527985552    -8.293E-09 6.451E-11 2.123E-07 7.618E-06 2.240E-03

 At SCF step    6, forces are sufficiently converged : 
  for the second time, max diff in force=  7.618E-06 is less than < tolrff=  5.000E-03 times max force

 Cartesian components of stress tensor (hartree/bohr^3)
  sigma(1 1)= -8.17455958E-05  sigma(3 2)=  0.00000000E+00
  sigma(2 2)=  1.39598722E-04  sigma(3 1)=  0.00000000E+00
  sigma(3 3)=  1.39598722E-04  sigma(2 1)=  0.00000000E+00

 Integrated electronic and magnetization densities in atomic spheres:
 ---------------------------------------------------------------------
 Radius=ratsph(iatom), smearing ratsm=  0.0000. Diff(up-dn)=approximate z local magnetic moment.
 Atom    Radius    up_density   dn_density  Total(up+dn)  Diff(up-dn)
    1   1.50737     1.351322     0.805433      2.156755     0.545889
    2   0.89889     0.218960     0.225456      0.444416    -0.006496
 ---------------------------------------------------------------------
  Sum:              1.570283     1.030889      2.601172     0.539394
 Total magnetization (from the atomic spheres):             0.539394
 Total magnetization (exact up - dn):                       1.000002

 PAW TEST:
 ==== Compensation charge inside spheres ============
 The following values must be close to each other ...
 Compensation charge over spherical meshes =      0.060368437315513
 Compensation charge over fine fft grid    =      0.060354545037556

 ==== Results concerning PAW augmentation regions ====

 Total pseudopotential strength Dij (hartree):
 Atom #  1 - Spin component 1
   0.43475  -4.35426   0.00000   0.00000   0.00042   0.00000   0.00000   0.00024
  -4.35426  41.74361   0.00000   0.00000  -0.00599   0.00000   0.00000   0.00906
   0.00000   0.00000  -0.13782   0.00000   0.00000   0.56790   0.00000   0.00000
   0.00000   0.00000   0.00000  -0.13782   0.00000   0.00000   0.56790   0.00000
   0.00042  -0.00599   0.00000   0.00000  -0.13628   0.00000   0.00000   0.55510
   0.00000   0.00000   0.56790   0.00000   0.00000   0.37388   0.00000   0.00000
   0.00000   0.00000   0.00000   0.56790   0.00000   0.00000   0.37388   0.00000
   0.00024   0.00906   0.00000   0.00000   0.55510   0.00000   0.00000   0.46168
 Atom #  1 - Spin component 2
   0.43391  -4.34752   0.00000   0.00000   0.00049   0.00000   0.00000  -0.00026
  -4.34752  41.67635   0.00000   0.00000  -0.00660   0.00000   0.00000   0.01315
   0.00000   0.00000  -0.13348   0.00000   0.00000   0.53953   0.00000   0.00000
   0.00000   0.00000   0.00000  -0.13348   0.00000   0.00000   0.53953   0.00000
   0.00049  -0.00660   0.00000   0.00000  -0.13444   0.00000   0.00000   0.54169
   0.00000   0.00000   0.53953   0.00000   0.00000   0.57922   0.00000   0.00000
   0.00000   0.00000   0.00000   0.53953   0.00000   0.00000   0.57922   0.00000
  -0.00026   0.01315   0.00000   0.00000   0.54169   0.00000   0.00000   0.56383
 Atom #  2 - Spin component 1
  -0.01656   0.00383
   0.00383   0.72424
 Atom #  2 - Spin component 2
  -0.01664   0.00349
   0.00349   0.72253


 Augmentation waves occupancies Rhoij:
 Atom #  1 - Spin component 1
   0.95884   0.00238   0.00000   0.00000  -0.03375   0.00000   0.00000   0.00427
   0.00238   0.00003   0.00000   0.00000   0.00417   0.00000   0.00000   0.00009
   0.00000   0.00000   0.56742   0.00000   0.00000   0.00260   0.00000   0.00000
   0.00000   0.00000   0.00000   0.56742   0.00000   0.00000   0.00260   0.00000
  -0.03375   0.00417   0.00000   0.00000   0.83429   0.00000   0.00000   0.01566
   0.00000   0.00000   0.00260   0.00000   0.00000   0.00001   0.00000   0.00000
   0.00000   0.00000   0.00000   0.00260   0.00000   0.00000   0.00001   0.00000
   0.00427   0.00009   0.00000   0.00000   0.01566   0.00000   0.00000   0.00032
 Atom #  1 - Spin component 2
   0.91001   0.00331   0.00000   0.00000  -0.04273   0.00000   0.00000   0.00424
   0.00331   0.00003   0.00000   0.00000   0.00382   0.00000   0.00000   0.00010
   0.00000   0.00000   0.00000   0.00000   0.00000   0.00000   0.00000   0.00000
   0.00000   0.00000   0.00000   0.00000   0.00000   0.00000   0.00000   0.00000
  -0.04273   0.00382   0.00000   0.00000   0.81077   0.00000   0.00000   0.01609
   0.00000   0.00000   0.00000   0.00000   0.00000   0.00000   0.00000   0.00000
   0.00000   0.00000   0.00000   0.00000   0.00000   0.00000   0.00000   0.00000
   0.00424   0.00010   0.00000   0.00000   0.01609   0.00000   0.00000   0.00035
 Atom #  2 - Spin component 1
   0.96618  -0.02460
  -0.02460   0.00066
 Atom #  2 - Spin component 2
   1.01308  -0.02505
  -0.02505   0.00065



---OUTPUT-----------------------------------------------------------------------

 Cartesian coordinates (xcart) [bohr]
 -1.06273301959743E+00  0.00000000000000E+00  0.00000000000000E+00
  1.06273301959743E+00  0.00000000000000E+00  0.00000000000000E+00
 Reduced coordinates (xred)
 -1.12474818557398E-01  0.00000000000000E+00  0.00000000000000E+00
  1.12474818557398E-01  0.00000000000000E+00  0.00000000000000E+00
 Cartesian forces (fcart) [Ha/bohr]; max,rms= 2.24049E-03 1.29355E-03 (free atoms)
  2.24049347926835E-03 -0.00000000000000E+00 -0.00000000000000E+00
 -2.24049347926835E-03 -0.00000000000000E+00 -0.00000000000000E+00
 Reduced forces (fred)
 -2.11695953916664E-02 -0.00000000000000E+00 -0.00000000000000E+00
  2.11695953916664E-02  0.00000000000000E+00  0.00000000000000E+00
 Total energy (etotal) [Ha]= -6.08875279855517E+00

 Difference of energy with previous step (new-old):
           Absolute (Ha)=-3.85433E-05
           Relative     =-6.33027E-06

--- Iteration: ( 3/15) Internal Cycle: (1/1)
--------------------------------------------------------------------------------

---SELF-CONSISTENT-FIELD CONVERGENCE--------------------------------------------

     iter   Etot(hartree)      deltaE(h)  residm     nres2    diffor    maxfor
 ETOT  1  -6.0887551640681    -6.089E+00 5.467E-08 9.081E-04 4.107E-03 1.867E-03
 ETOT  2  -6.0887613428999    -6.179E-06 7.437E-11 2.994E-04 1.754E-03 1.124E-04
 ETOT  3  -6.0887615011923    -1.583E-07 4.013E-08 5.396E-06 6.918E-05 4.327E-05
 ETOT  4  -6.0887615383373    -3.715E-08 2.754E-11 1.231E-06 5.206E-05 9.533E-05
 ETOT  5  -6.0887615467982    -8.461E-09 1.564E-11 1.592E-07 5.113E-06 9.022E-05
 ETOT  6  -6.0887615526685    -5.870E-09 3.103E-12 6.674E-08 3.104E-07 8.991E-05
 ETOT  7  -6.0887615542250    -1.557E-09 2.858E-11 2.215E-08 2.711E-08 8.993E-05

 At SCF step    7, forces are sufficiently converged : 
  for the second time, max diff in force=  2.711E-08 is less than < tolrff=  5.000E-03 times max force

 Cartesian components of stress tensor (hartree/bohr^3)
  sigma(1 1)= -8.94415397E-05  sigma(3 2)=  0.00000000E+00
  sigma(2 2)=  1.39577706E-04  sigma(3 1)=  0.00000000E+00
  sigma(3 3)=  1.39577706E-04  sigma(2 1)=  0.00000000E+00

 Integrated electronic and magnetization densities in atomic spheres:
 ---------------------------------------------------------------------
 Radius=ratsph(iatom), smearing ratsm=  0.0000. Diff(up-dn)=approximate z local magnetic moment.
 Atom    Radius    up_density   dn_density  Total(up+dn)  Diff(up-dn)
    1   1.50737     1.356022     0.810242      2.166264     0.545780
    2   0.89889     0.219671     0.226105      0.445776    -0.006433
 ---------------------------------------------------------------------
  Sum:              1.575693     1.036347      2.612040     0.539346
 Total magnetization (from the atomic spheres):             0.539346
 Total magnetization (exact up - dn):                       1.000002

 PAW TEST:
 ==== Compensation charge inside spheres ============
 The following values must be close to each other ...
 Compensation charge over spherical meshes =      0.060729149322038
 Compensation charge over fine fft grid    =      0.060719140788929

 ==== Results concerning PAW augmentation regions ====

 Total pseudopotential strength Dij (hartree):
 Atom #  1 - Spin component 1
   0.43474  -4.35408   0.00000   0.00000   0.00042   0.00000   0.00000   0.00027
  -4.35408  41.74117   0.00000   0.00000  -0.00598   0.00000   0.00000   0.00888
   0.00000   0.00000  -0.13781   0.00000   0.00000   0.56782   0.00000   0.00000
   0.00000   0.00000   0.00000  -0.13781   0.00000   0.00000   0.56782   0.00000
   0.00042  -0.00598   0.00000   0.00000  -0.13628   0.00000   0.00000   0.55504
   0.00000   0.00000   0.56782   0.00000   0.00000   0.37451   0.00000   0.00000
   0.00000   0.00000   0.00000   0.56782   0.00000   0.00000   0.37451   0.00000
   0.00027   0.00888   0.00000   0.00000   0.55504   0.00000   0.00000   0.46214
 Atom #  1 - Spin component 2
   0.43389  -4.34733   0.00000   0.00000   0.00049   0.00000   0.00000  -0.00023
  -4.34733  41.67388   0.00000   0.00000  -0.00659   0.00000   0.00000   0.01293
   0.00000   0.00000  -0.13347   0.00000   0.00000   0.53944   0.00000   0.00000
   0.00000   0.00000   0.00000  -0.13347   0.00000   0.00000   0.53944   0.00000
   0.00049  -0.00659   0.00000   0.00000  -0.13443   0.00000   0.00000   0.54163
   0.00000   0.00000   0.53944   0.00000   0.00000   0.57981   0.00000   0.00000
   0.00000   0.00000   0.00000   0.53944   0.00000   0.00000   0.57981   0.00000
  -0.00023   0.01293   0.00000   0.00000   0.54163   0.00000   0.00000   0.56424
 Atom #  2 - Spin component 1
  -0.01657   0.00379
   0.00379   0.72404
 Atom #  2 - Spin component 2
  -0.01665   0.00345
   0.00345   0.72234


 Augmentation waves occupancies Rhoij:
 Atom #  1 - Spin component 1
   0.95902   0.00240   0.00000   0.00000  -0.03255   0.00000   0.00000   0.00434
   0.00240   0.00003   0.00000   0.00000   0.00418   0.00000   0.00000   0.00009
   0.00000   0.00000   0.56744   0.00000   0.00000   0.00261   0.00000   0.00000
   0.00000   0.00000   0.00000   0.56744   0.00000   0.00000   0.00261   0.00000
  -0.03255   0.00418   0.00000   0.00000   0.83758   0.00000   0.00000   0.01576
   0.00000   0.00000   0.00261   0.00000   0.00000   0.00001   0.00000   0.00000
   0.00000   0.00000   0.00000   0.00261   0.00000   0.00000   0.00001   0.00000
   0.00434   0.00009   0.00000   0.00000   0.01576   0.00000   0.00000   0.00032
 Atom #  1 - Spin component 2
   0.91020   0.00333   0.00000   0.00000  -0.04131   0.00000   0.00000   0.00431
   0.00333   0.00003   0.00000   0.00000   0.00383   0.00000   0.00000   0.00010
   0.00000   0.00000   0.00000   0.00000   0.00000   0.00000   0.00000   0.00000
   0.00000   0.00000   0.00000   0.00000   0.00000   0.00000   0.00000   0.00000
  -0.04131   0.00383   0.00000   0.00000   0.81419   0.00000   0.00000   0.01620
   0.00000   0.00000   0.00000   0.00000   0.00000   0.00000   0.00000   0.00000
   0.00000   0.00000   0.00000   0.00000   0.00000   0.00000   0.00000   0.00000
   0.00431   0.00010   0.00000   0.00000   0.01620   0.00000   0.00000   0.00035
 Atom #  2 - Spin component 1
   0.97169  -0.02477
  -0.02477   0.00067
 Atom #  2 - Spin component 2
   1.01849  -0.02521
  -0.02521   0.00065



---OUTPUT-----------------------------------------------------------------------

 Cartesian coordinates (xcart) [bohr]
 -1.05877000332214E+00  0.00000000000000E+00  0.00000000000000E+00
  1.05877000332214E+00  0.00000000000000E+00  0.00000000000000E+00
 Reduced coordinates (xred)
 -1.12055390979367E-01  0.00000000000000E+00  0.00000000000000E+00
  1.12055390979367E-01  0.00000000000000E+00  0.00000000000000E+00
 Cartesian forces (fcart) [Ha/bohr]; max,rms= 8.99324E-05 5.19225E-05 (free atoms)
 -8.99324466917248E-05 -0.00000000000000E+00 -0.00000000000000E+00
  8.99324466917248E-05 -0.00000000000000E+00 -0.00000000000000E+00
 Reduced forces (fred)
  8.49738473538487E-04  0.00000000000000E+00  0.00000000000000E+00
 -8.49738473538487E-04 -0.00000000000000E+00 -0.00000000000000E+00
 Total energy (etotal) [Ha]= -6.08876155422503E+00

 Difference of energy with previous step (new-old):
           Absolute (Ha)=-8.75567E-06
           Relative     =-1.43801E-06

--- Iteration: ( 4/15) Internal Cycle: (1/1)
--------------------------------------------------------------------------------

---SELF-CONSISTENT-FIELD CONVERGENCE--------------------------------------------

     iter   Etot(hartree)      deltaE(h)  residm     nres2    diffor    maxfor
 ETOT  1  -6.0887615566348    -6.089E+00 8.025E-11 1.413E-06 1.681E-04 7.813E-05
 ETOT  2  -6.0887615635619    -6.927E-09 4.022E-14 4.644E-07 6.979E-05 8.339E-06
 ETOT  3  -6.0887615609918     2.570E-09 8.037E-11 1.961E-09 6.294E-06 2.045E-06
 ETOT  4  -6.0887615607951     1.967E-10 1.267E-13 2.259E-09 2.412E-06 4.458E-06
 ETOT  5  -6.0887615607854     9.658E-12 3.690E-14 1.169E-09 1.486E-07 4.606E-06
 ETOT  6  -6.0887615607329     5.256E-11 3.875E-13 2.960E-11 1.742E-07 4.432E-06
 ETOT  7  -6.0887615607190     1.390E-11 2.533E-14 3.053E-11 2.743E-07 4.158E-06
 ETOT  8  -6.0887615607064     1.252E-11 9.335E-15 1.245E-12 7.098E-08 4.087E-06
 ETOT  9  -6.0887615607050     1.390E-12 2.442E-16 5.563E-13 3.204E-08 4.119E-06
 ETOT 10  -6.0887615607026     2.412E-12 5.734E-17 2.157E-13 1.470E-09 4.120E-06

 Cartesian components of stress tensor (hartree/bohr^3)
  sigma(1 1)= -8.90880485E-05  sigma(3 2)=  0.00000000E+00
  sigma(2 2)=  1.39616907E-04  sigma(3 1)=  0.00000000E+00
  sigma(3 3)=  1.39616907E-04  sigma(2 1)=  0.00000000E+00

 Integrated electronic and magnetization densities in atomic spheres:
 ---------------------------------------------------------------------
 Radius=ratsph(iatom), smearing ratsm=  0.0000. Diff(up-dn)=approximate z local magnetic moment.
 Atom    Radius    up_density   dn_density  Total(up+dn)  Diff(up-dn)
    1   1.50737     1.355997     0.810210      2.166207     0.545787
    2   0.89889     0.219644     0.226079      0.445723    -0.006434
 ---------------------------------------------------------------------
  Sum:              1.575642     1.036289      2.611930     0.539353
 Total magnetization (from the atomic spheres):             0.539353
 Total magnetization (exact up - dn):                       1.000002

 PAW TEST:
 ==== Compensation charge inside spheres ============
 The following values must be close to each other ...
 Compensation charge over spherical meshes =      0.060714509916125
 Compensation charge over fine fft grid    =      0.060706437051670

 ==== Results concerning PAW augmentation regions ====

 Total pseudopotential strength Dij (hartree):
 Atom #  1 - Spin component 1
   0.43474  -4.35409   0.00000   0.00000   0.00042   0.00000   0.00000   0.00027
  -4.35409  41.74135   0.00000   0.00000  -0.00598   0.00000   0.00000   0.00889
   0.00000   0.00000  -0.13781   0.00000   0.00000   0.56782   0.00000   0.00000
   0.00000   0.00000   0.00000  -0.13781   0.00000   0.00000   0.56782   0.00000
   0.00042  -0.00598   0.00000   0.00000  -0.13628   0.00000   0.00000   0.55505
   0.00000   0.00000   0.56782   0.00000   0.00000   0.37445   0.00000   0.00000
   0.00000   0.00000   0.00000   0.56782   0.00000   0.00000   0.37445   0.00000
   0.00027   0.00889   0.00000   0.00000   0.55505   0.00000   0.00000   0.46209
 Atom #  1 - Spin component 2
   0.43389  -4.34734   0.00000   0.00000   0.00049   0.00000   0.00000  -0.00023
  -4.34734  41.67406   0.00000   0.00000  -0.00659   0.00000   0.00000   0.01294
   0.00000   0.00000  -0.13347   0.00000   0.00000   0.53945   0.00000   0.00000
   0.00000   0.00000   0.00000  -0.13347   0.00000   0.00000   0.53945   0.00000
   0.00049  -0.00659   0.00000   0.00000  -0.13443   0.00000   0.00000   0.54164
   0.00000   0.00000   0.53945   0.00000   0.00000   0.57976   0.00000   0.00000
   0.00000   0.00000   0.00000   0.53945   0.00000   0.00000   0.57976   0.00000
  -0.00023   0.01294   0.00000   0.00000   0.54164   0.00000   0.00000   0.56419
 Atom #  2 - Spin component 1
  -0.01657   0.00379
   0.00379   0.72405
 Atom #  2 - Spin component 2
  -0.01665   0.00346
   0.00346   0.72234


 Augmentation waves occupancies Rhoij:
 Atom #  1 - Spin component 1
   0.95901   0.00240   0.00000   0.00000  -0.03260   0.00000   0.00000   0.00434
   0.00240   0.00003   0.00000   0.00000   0.00418   0.00000   0.00000   0.00009
   0.00000   0.00000   0.56744   0.00000   0.00000   0.00261   0.00000   0.00000
   0.00000   0.00000   0.00000   0.56744   0.00000   0.00000   0.00261   0.00000
  -0.03260   0.00418   0.00000   0.00000   0.83746   0.00000   0.00000   0.01576
   0.00000   0.00000   0.00261   0.00000   0.00000   0.00001   0.00000   0.00000
   0.00000   0.00000   0.00000   0.00261   0.00000   0.00000   0.00001   0.00000
   0.00434   0.00009   0.00000   0.00000   0.01576   0.00000   0.00000   0.00032
 Atom #  1 - Spin component 2
   0.91019   0.00333   0.00000   0.00000  -0.04137   0.00000   0.00000   0.00431
   0.00333   0.00003   0.00000   0.00000   0.00383   0.00000   0.00000   0.00010
   0.00000   0.00000   0.00000   0.00000   0.00000   0.00000   0.00000   0.00000
   0.00000   0.00000   0.00000   0.00000   0.00000   0.00000   0.00000   0.00000
  -0.04137   0.00383   0.00000   0.00000   0.81406   0.00000   0.00000   0.01619
   0.00000   0.00000   0.00000   0.00000   0.00000   0.00000   0.00000   0.00000
   0.00000   0.00000   0.00000   0.00000   0.00000   0.00000   0.00000   0.00000
   0.00431   0.00010   0.00000   0.00000   0.01619   0.00000   0.00000   0.00035
 Atom #  2 - Spin component 1
   0.97147  -0.02476
  -0.02476   0.00067
 Atom #  2 - Spin component 2
   1.01827  -0.02520
  -0.02520   0.00065



---OUTPUT-----------------------------------------------------------------------

 Cartesian coordinates (xcart) [bohr]
 -1.05892293834829E+00  0.00000000000000E+00  0.00000000000000E+00
  1.05892293834829E+00  0.00000000000000E+00  0.00000000000000E+00
 Reduced coordinates (xred)
 -1.12071576925413E-01  0.00000000000000E+00  0.00000000000000E+00
  1.12071576925413E-01  0.00000000000000E+00  0.00000000000000E+00
 Cartesian forces (fcart) [Ha/bohr]; max,rms= 4.12012E-06 2.37875E-06 (free atoms)
  4.12011798131689E-06 -0.00000000000000E+00 -0.00000000000000E+00
 -4.12011798131689E-06 -0.00000000000000E+00 -0.00000000000000E+00
 Reduced forces (fred)
 -3.89294730993328E-05 -0.00000000000000E+00 -0.00000000000000E+00
  3.89294730993328E-05  0.00000000000000E+00  0.00000000000000E+00
 Total energy (etotal) [Ha]= -6.08876156070264E+00

 Difference of energy with previous step (new-old):
           Absolute (Ha)=-6.47760E-09
           Relative     =-1.06386E-09

 At Broyd/MD step   4, gradients are converged : 
  max grad (force/stress) = 4.1201E-06 < tolmxf= 5.0000E-05 ha/bohr (free atoms)

================================================================================

 ----iterations are completed or convergence reached----

 Mean square residual over all n,k,spin=   26.188E-18; max=  57.337E-18
 reduced coordinates (array xred) for    2 atoms
      -0.112071576925      0.000000000000      0.000000000000
       0.112071576925      0.000000000000      0.000000000000
 rms dE/dt=  6.2684E-04; max dE/dt=  0.0000E+00; dE/dt below (all hartree)
    1      -0.001123944586      0.000000000000      0.000000000000
    2      -0.001046085639      0.000000000000      0.000000000000

 cartesian coordinates (angstrom) at end:
    1     -0.56035788462707     0.00000000000000     0.00000000000000
    2      0.56035788462707     0.00000000000000     0.00000000000000

 cartesian forces (hartree/bohr) at end:
    1      0.00000412011798    -0.00000000000000    -0.00000000000000
    2     -0.00000412011798    -0.00000000000000    -0.00000000000000
 frms,max,avg= 2.3787512E-06 4.1201180E-06   1.148E-04  0.000E+00  0.000E+00 h/b

 cartesian forces (eV/Angstrom) at end:
    1      0.00021186496719    -0.00000000000000    -0.00000000000000
    2     -0.00021186496719    -0.00000000000000    -0.00000000000000
 frms,max,avg= 1.2232030E-04 2.1186497E-04   5.905E-03  0.000E+00  0.000E+00 e/A
 length scales=  9.448630664428  7.558904531543  7.558904531543 bohr
              =  5.000000000000  4.000000000000  4.000000000000 angstroms
 prteigrs : about to open file t69o_DS2_EIG
 Fermi (or HOMO) energy (hartree) =  -0.22412   Average Vxc (hartree)=  -0.11806
 Eigenvalues (hartree) for nkpt=   1  k points, SPIN UP:
 kpt#   1, nband=  4, wtk=  1.00000, kpt=  0.0000  0.0000  0.0000 (reduced coord)
  -0.62869   -0.29154   -0.22412   -0.07220
 Eigenvalues (hartree) for nkpt=   1  k points, SPIN DOWN:
 kpt#   1, nband=  4, wtk=  1.00000, kpt=  0.0000  0.0000  0.0000 (reduced coord)
  -0.57504   -0.26824   -0.01522   -0.01522

--------------------------------------------------------------------------------
 Components of total free energy (in Hartree) :

    Kinetic energy  =  3.45292474080086E+00
    Hartree energy  =  2.62767208445549E+00
    XC energy       = -2.23007528121512E+00
    Ewald energy    = -2.36055451738758E+00
    PspCore energy  =  4.11882793594244E-02
    Loc. psp. energy= -8.44228543380460E+00
    Spherical terms =  8.22368522584909E-01
    >>>>>>>>> Etotal= -6.08876160520661E+00

 "Double-counting" decomposition of free energy:
    Band energy     = -1.98763212133339E+00
    Ewald energy    =-2.36055451738758E+00
    PspCore energy  =  4.11882793594244E-02
    Dble-C XC-energy= -2.08953527800090E+00
    Spherical terms =  3.07772076659812E-01
    >>>> Etotal (DC)= -6.08876156070264E+00

  >Total energy in eV           = -1.65683629271307E+02
  >Total DC energy in eV        = -1.65683628060292E+02
--------------------------------------------------------------------------------


 rms coord change=  5.4779E-04   atom, delta coord (reduced):
     1        0.000948793050      0.000000000000      0.000000000000
     2       -0.000948793050      0.000000000000      0.000000000000

 Cartesian components of stress tensor (hartree/bohr^3)
  sigma(1 1)= -8.90880485E-05  sigma(3 2)=  0.00000000E+00
  sigma(2 2)=  1.39616907E-04  sigma(3 1)=  0.00000000E+00
  sigma(3 3)=  1.39616907E-04  sigma(2 1)=  0.00000000E+00

-Cartesian components of stress tensor (GPa)         [Pressure= -1.8648E+00 GPa]
- sigma(1 1)= -2.62106044E+00  sigma(3 2)=  0.00000000E+00
- sigma(2 2)=  4.10767052E+00  sigma(3 1)=  0.00000000E+00
- sigma(3 3)=  4.10767052E+00  sigma(2 1)=  0.00000000E+00

================================================================================
== DATASET  3 ==================================================================
-   nproc =    1

 mkfilename : getwfk/=0, take file _WFK from output of DATASET   2.

 find_getdtset : getxred/=0, take data from output of dataset with index  2.

 Real(R)+Recip(G) space primitive vectors, cartesian coordinates (Bohr,Bohr^-1):
 R(1)=  9.4486307  0.0000000  0.0000000  G(1)=  0.1058354  0.0000000  0.0000000
 R(2)=  0.0000000  7.5589045  0.0000000  G(2)=  0.0000000  0.1322943  0.0000000
 R(3)=  0.0000000  0.0000000  7.5589045  G(3)=  0.0000000  0.0000000  0.1322943
 Unit cell volume ucvol=  5.3986677E+02 bohr^3
 Angles (23,13,12)=  9.00000000E+01  9.00000000E+01  9.00000000E+01 degrees

 Coarse grid specifications (used for wave-functions):

 getcut: wavevector=  0.0000  0.0000  0.0000  ngfft=  32  27  27
         ecut(hartree)=     13.000   => boxcut(ratio)=   2.08662

 Fine grid specifications (used for densities):

 getcut: wavevector=  0.0000  0.0000  0.0000  ngfft=  54  45  45
         ecut(hartree)=     35.000   => boxcut(ratio)=   2.14598

--- Pseudopotential description ------------------------------------------------
- pspini: atom type   1  psp file is /home/buildbot/bb/ABINIT/abiref_gnu_9.2_openmpi/trunk__gonze3/tests/Psps_for_tests/C.xml
- pspatm: opening atomic psp file    /home/buildbot/bb/ABINIT/abiref_gnu_9.2_openmpi/trunk__gonze3/tests/Psps_for_tests/C.xml
- pspatm : Reading pseudopotential header in XML form from /home/buildbot/bb/ABINIT/abiref_gnu_9.2_openmpi/trunk__gonze3/tests/Psps_for_tests/C.xml
 Pseudopotential format is: paw10
 basis_size (lnmax)=  4 (lmn_size=  8), orbitals=   0   0   1   1
 Spheres core radius: rc_sph= 1.50736703
 1 radial meshes are used:
  - mesh 1: r(i)=AA*[exp(BB*(i-1))-1], size=2001 , AA= 0.94549E-03 BB= 0.56729E-02
 Shapefunction is SIN type: shapef(r)=[sin(pi*r/rshp)/(pi*r/rshp)]**2
 Radius for shape functions =  1.30052589
 mmax= 2001
 Radial grid used for partial waves is grid 1
 Radial grid used for projectors is grid 1
 Radial grid used for (t)core density is grid 1
 Radial grid used for Vloc is grid 1
 Radial grid used for pseudo valence density is grid 1
 Mesh size for Vloc has been set to 1756 to avoid numerical noise.
 Compensation charge density is not taken into account in XC energy/potential
 pspatm: atomic psp has been read  and splines computed

- pspini: atom type   2  psp file is /home/buildbot/bb/ABINIT/abiref_gnu_9.2_openmpi/trunk__gonze3/tests/Psps_for_tests/H4.GGA_X_PBE+GGA_C_PBE-paw.xml
- pspatm: opening atomic psp file    /home/buildbot/bb/ABINIT/abiref_gnu_9.2_openmpi/trunk__gonze3/tests/Psps_for_tests/H4.GGA_X_PBE+GGA_C_PBE-paw.xml
- pspatm : Reading pseudopotential header in XML form from /home/buildbot/bb/ABINIT/abiref_gnu_9.2_openmpi/trunk__gonze3/tests/Psps_for_tests/H4.GGA_X_PBE+GGA_C_PBE-paw.xml
 Pseudopotential format is: paw10
 basis_size (lnmax)=  2 (lmn_size=  2), orbitals=   0   0
 Spheres core radius: rc_sph= 0.89889493
 1 radial meshes are used:
  - mesh 1: r(i)=AA*[exp(BB*(i-1))-1], size=1500 , AA= 0.63034E-02 BB= 0.63034E-02
 Shapefunction is SIN type: shapef(r)=[sin(pi*r/rshp)/(pi*r/rshp)]**2
 Radius for shape functions =  0.79672474
 mmax= 1500
 Radial grid used for partial waves is grid 1
 Radial grid used for projectors is grid 1
 Radial grid used for (t)core density is grid 1
 Radial grid used for Vloc is grid 1
 Radial grid used for pseudo valence density is grid 1
 Mesh size for Vloc has been set to 1280 to avoid numerical noise.
 Compensation charge density is not taken into account in XC energy/potential
 pspatm: atomic psp has been read  and splines computed

--------------------------------------------------------------------------------

-inwffil : will read wavefunctions from disk file t69o_DS2_WFK
_setup2: Arith. and geom. avg. npw (full set) are    1207.000    1207.000

================================================================================

=== [ionmov= 2] Broyden-Fletcher-Goldfard-Shanno method (forces)            
================================================================================

--- Iteration: ( 1/15) Internal Cycle: (1/1)
--------------------------------------------------------------------------------

---SELF-CONSISTENT-FIELD CONVERGENCE--------------------------------------------

     iter   Etot(hartree)      deltaE(h)  residm     nres2    diffor    maxfor
 ETOT  1  -6.2540987263678    -6.254E+00 3.555E-09 1.216E-03 1.664E-04 1.664E-04
 ETOT  2  -6.2541075718522    -8.845E-06 4.009E-13 2.638E-04 1.495E-04 3.159E-04
 ETOT  3  -6.2541078244346    -2.526E-07 3.454E-09 4.939E-05 1.909E-04 5.068E-04
 ETOT  4  -6.2541076253773     1.991E-07 4.970E-09 2.524E-05 1.086E-05 4.960E-04
 ETOT  5  -6.2541075926203     3.276E-08 5.925E-10 2.435E-06 1.055E-05 5.065E-04
 ETOT  6  -6.2541076644957    -7.188E-08 3.335E-09 9.124E-06 4.266E-05 5.492E-04
 ETOT  7  -6.2541076089475     5.555E-08 4.171E-10 5.354E-07 1.878E-05 5.304E-04
 ETOT  8  -6.2541076175391    -8.592E-09 8.490E-12 9.643E-07 5.159E-07 5.309E-04
 ETOT  9  -6.2541076165744     9.647E-10 1.819E-10 7.137E-08 2.971E-06 5.279E-04
 ETOT 10  -6.2541076087178     7.857E-09 3.991E-12 6.059E-08 1.475E-06 5.265E-04
 ETOT 11  -6.2541076088204    -1.026E-10 5.427E-12 1.204E-07 1.408E-06 5.251E-04
 ETOT 12  -6.2541076100602    -1.240E-09 4.577E-12 7.467E-08 1.103E-06 5.262E-04
 ETOT 13  -6.2541076114770    -1.417E-09 4.364E-12 3.623E-08 1.613E-07 5.260E-04
 ETOT 14  -6.2541076119290    -4.519E-10 9.996E-13 1.589E-08 5.007E-08 5.260E-04
 ETOT 15  -6.2541076123830    -4.541E-10 6.095E-13 5.658E-09 1.479E-07 5.261E-04

 Cartesian components of stress tensor (hartree/bohr^3)
  sigma(1 1)=  3.25604738E-04  sigma(3 2)=  0.00000000E+00
  sigma(2 2)=  5.62142423E-04  sigma(3 1)=  0.00000000E+00
  sigma(3 3)=  5.62142423E-04  sigma(2 1)=  0.00000000E+00


 scprqt:  WARNING -
  nstep=   15 was not enough SCF cycles to converge;
  density residual=  5.658E-09 exceeds tolvrs=  1.000E-20

 Integrated electronic and magnetization densities in atomic spheres:
 ---------------------------------------------------------------------
 Radius=ratsph(iatom), smearing ratsm=  0.0000. Diff(up-dn)=approximate z local magnetic moment.
 Atom    Radius    up_density   dn_density  Total(up+dn)  Diff(up-dn)
    1   1.50737     1.358137     0.811952      2.170088     0.546185
    2   0.89889     0.219742     0.226442      0.446184    -0.006700
 ---------------------------------------------------------------------
  Sum:              1.577879     1.038394      2.616273     0.539485
 Total magnetization (from the atomic spheres):             0.539485
 Total magnetization (exact up - dn):                       1.000002

 PAW TEST:
 ==== Compensation charge inside spheres ============
 The following values must be close to each other ...
 Compensation charge over spherical meshes =      0.060537414620952
 Compensation charge over fine fft grid    =      0.060529981654305

 ==== Results concerning PAW augmentation regions ====

 Total pseudopotential strength Dij (hartree):
 Atom #  1 - Spin component 1
   0.43523  -4.35903   0.00000   0.00000   0.00045   0.00000   0.00000   0.00015
  -4.35903  41.80335   0.00000   0.00000  -0.00632   0.00000   0.00000   0.01028
   0.00000   0.00000  -0.13950   0.00000   0.00000   0.58064   0.00000   0.00000
   0.00000   0.00000   0.00000  -0.13950   0.00000   0.00000   0.58064   0.00000
   0.00045  -0.00632   0.00000   0.00000  -0.13797   0.00000   0.00000   0.56784
   0.00000   0.00000   0.58064   0.00000   0.00000   0.28453   0.00000   0.00000
   0.00000   0.00000   0.00000   0.58064   0.00000   0.00000   0.28453   0.00000
   0.00015   0.01028   0.00000   0.00000   0.56784   0.00000   0.00000   0.37239
 Atom #  1 - Spin component 2
   0.43520  -4.36278   0.00000   0.00000   0.00054   0.00000   0.00000  -0.00048
  -4.36278  41.85606   0.00000   0.00000  -0.00714   0.00000   0.00000   0.01595
   0.00000   0.00000  -0.13421   0.00000   0.00000   0.54533   0.00000   0.00000
   0.00000   0.00000   0.00000  -0.13421   0.00000   0.00000   0.54533   0.00000
   0.00054  -0.00714   0.00000   0.00000  -0.13538   0.00000   0.00000   0.54896
   0.00000   0.00000   0.54533   0.00000   0.00000   0.53668   0.00000   0.00000
   0.00000   0.00000   0.00000   0.54533   0.00000   0.00000   0.53668   0.00000
  -0.00048   0.01595   0.00000   0.00000   0.54896   0.00000   0.00000   0.51100
 Atom #  2 - Spin component 1
  -0.01668   0.00219
   0.00219   0.71390
 Atom #  2 - Spin component 2
  -0.01675   0.00189
   0.00189   0.71242


 Augmentation waves occupancies Rhoij:
 Atom #  1 - Spin component 1
   0.96180   0.00232   0.00000   0.00000  -0.03214   0.00000   0.00000   0.00437
   0.00232   0.00003   0.00000   0.00000   0.00419   0.00000   0.00000   0.00009
   0.00000   0.00000   0.56699   0.00000   0.00000   0.00235   0.00000   0.00000
   0.00000   0.00000   0.00000   0.56699   0.00000   0.00000   0.00235   0.00000
  -0.03214   0.00419   0.00000   0.00000   0.83458   0.00000   0.00000   0.01561
   0.00000   0.00000   0.00235   0.00000   0.00000   0.00001   0.00000   0.00000
   0.00000   0.00000   0.00000   0.00235   0.00000   0.00000   0.00001   0.00000
   0.00437   0.00009   0.00000   0.00000   0.01561   0.00000   0.00000   0.00032
 Atom #  1 - Spin component 2
   0.91270   0.00322   0.00000   0.00000  -0.04199   0.00000   0.00000   0.00434
   0.00322   0.00003   0.00000   0.00000   0.00385   0.00000   0.00000   0.00010
   0.00000   0.00000   0.00000   0.00000   0.00000  -0.00000   0.00000   0.00000
   0.00000   0.00000   0.00000   0.00000   0.00000   0.00000  -0.00000   0.00000
  -0.04199   0.00385   0.00000   0.00000   0.81271   0.00000   0.00000   0.01607
   0.00000   0.00000  -0.00000   0.00000   0.00000   0.00000   0.00000   0.00000
   0.00000   0.00000   0.00000  -0.00000   0.00000   0.00000   0.00000   0.00000
   0.00434   0.00010   0.00000   0.00000   0.01607   0.00000   0.00000   0.00035
 Atom #  2 - Spin component 1
   0.97140  -0.02466
  -0.02466   0.00066
 Atom #  2 - Spin component 2
   1.01944  -0.02513
  -0.02513   0.00065



---OUTPUT-----------------------------------------------------------------------

 Cartesian coordinates (xcart) [bohr]
 -1.05892293834829E+00  0.00000000000000E+00  0.00000000000000E+00
  1.05892293834829E+00  0.00000000000000E+00  0.00000000000000E+00
 Reduced coordinates (xred)
 -1.12071576925413E-01  0.00000000000000E+00  0.00000000000000E+00
  1.12071576925413E-01  0.00000000000000E+00  0.00000000000000E+00
 Cartesian forces (fcart) [Ha/bohr]; max,rms= 5.26105E-04 3.03747E-04 (free atoms)
 -5.26105496123692E-04 -0.00000000000000E+00 -0.00000000000000E+00
  5.26105496123692E-04 -0.00000000000000E+00 -0.00000000000000E+00
 Reduced forces (fred)
  4.97097652339853E-03  0.00000000000000E+00  0.00000000000000E+00
 -4.97097652339853E-03 -0.00000000000000E+00 -0.00000000000000E+00
 Total energy (etotal) [Ha]= -6.25410761238304E+00

--- Iteration: ( 2/15) Internal Cycle: (1/1)
--------------------------------------------------------------------------------

---SELF-CONSISTENT-FIELD CONVERGENCE--------------------------------------------

     iter   Etot(hartree)      deltaE(h)  residm     nres2    diffor    maxfor
[...]
 ETOT  8  -6.2541080280887     1.899E-11 2.022E-14 1.552E-11 1.515E-07 5.130E-07
 ETOT  9  -6.2541080280215     6.724E-11 4.330E-16 3.006E-12 5.596E-08 4.570E-07
 ETOT 10  -6.2541080280213     2.069E-13 5.312E-17 2.859E-13 5.858E-09 4.512E-07
 ETOT 11  -6.2541080280249    -3.562E-12 4.061E-17 2.235E-13 3.967E-09 4.552E-07
 ETOT 12  -6.2541080280133     1.151E-11 1.559E-16 1.615E-13 5.157E-09 4.500E-07
 ETOT 13  -6.2541080280200    -6.645E-12 1.629E-17 5.289E-15 4.316E-09 4.543E-07
 ETOT 14  -6.2541080280171     2.879E-12 9.718E-19 1.173E-15 9.283E-11 4.544E-07
 ETOT 15  -6.2541080280185    -1.361E-12 5.883E-19 1.178E-15 5.422E-11 4.544E-07

 Cartesian components of stress tensor (hartree/bohr^3)
  sigma(1 1)=  3.27329432E-04  sigma(3 2)=  0.00000000E+00
  sigma(2 2)=  5.62150250E-04  sigma(3 1)=  0.00000000E+00
  sigma(3 3)=  5.62150250E-04  sigma(2 1)=  0.00000000E+00


 scprqt:  WARNING -
  nstep=   15 was not enough SCF cycles to converge;
  density residual=  1.178E-15 exceeds tolvrs=  1.000E-20

 Integrated electronic and magnetization densities in atomic spheres:
 ---------------------------------------------------------------------
 Radius=ratsph(iatom), smearing ratsm=  0.0000. Diff(up-dn)=approximate z local magnetic moment.
 Atom    Radius    up_density   dn_density  Total(up+dn)  Diff(up-dn)
    1   1.50737     1.357956     0.811724      2.169681     0.546232
    2   0.89889     0.219585     0.226299      0.445884    -0.006714
 ---------------------------------------------------------------------
  Sum:              1.577541     1.038023      2.615565     0.539518
 Total magnetization (from the atomic spheres):             0.539518
 Total magnetization (exact up - dn):                       1.000002

 PAW TEST:
 ==== Compensation charge inside spheres ============
 The following values must be close to each other ...
 Compensation charge over spherical meshes =      0.060454884427592
 Compensation charge over fine fft grid    =      0.060446924685727

 ==== Results concerning PAW augmentation regions ====

 Total pseudopotential strength Dij (hartree):
 Atom #  1 - Spin component 1
   0.43523  -4.35908   0.00000   0.00000   0.00045   0.00000   0.00000   0.00015
  -4.35908  41.80393   0.00000   0.00000  -0.00632   0.00000   0.00000   0.01032
   0.00000   0.00000  -0.13950   0.00000   0.00000   0.58066   0.00000   0.00000
   0.00000   0.00000   0.00000  -0.13950   0.00000   0.00000   0.58066   0.00000
   0.00045  -0.00632   0.00000   0.00000  -0.13797   0.00000   0.00000   0.56785
   0.00000   0.00000   0.58066   0.00000   0.00000   0.28439   0.00000   0.00000
   0.00000   0.00000   0.00000   0.58066   0.00000   0.00000   0.28439   0.00000
   0.00015   0.01032   0.00000   0.00000   0.56785   0.00000   0.00000   0.37229
 Atom #  1 - Spin component 2
   0.43520  -4.36282   0.00000   0.00000   0.00054   0.00000   0.00000  -0.00049
  -4.36282  41.85669   0.00000   0.00000  -0.00715   0.00000   0.00000   0.01601
   0.00000   0.00000  -0.13421   0.00000   0.00000   0.54535   0.00000   0.00000
   0.00000   0.00000   0.00000  -0.13421   0.00000   0.00000   0.54535   0.00000
   0.00054  -0.00715   0.00000   0.00000  -0.13538   0.00000   0.00000   0.54897
   0.00000   0.00000   0.54535   0.00000   0.00000   0.53656   0.00000   0.00000
   0.00000   0.00000   0.00000   0.54535   0.00000   0.00000   0.53656   0.00000
  -0.00049   0.01601   0.00000   0.00000   0.54897   0.00000   0.00000   0.51093
 Atom #  2 - Spin component 1
  -0.01668   0.00220
   0.00220   0.71393
 Atom #  2 - Spin component 2
  -0.01675   0.00190
   0.00190   0.71246


 Augmentation waves occupancies Rhoij:
 Atom #  1 - Spin component 1
   0.96176   0.00232   0.00000   0.00000  -0.03240   0.00000   0.00000   0.00436
   0.00232   0.00003   0.00000   0.00000   0.00419   0.00000   0.00000   0.00009
   0.00000   0.00000   0.56698   0.00000   0.00000   0.00235   0.00000   0.00000
   0.00000   0.00000   0.00000   0.56698   0.00000   0.00000   0.00235   0.00000
  -0.03240   0.00419   0.00000   0.00000   0.83384   0.00000   0.00000   0.01559
   0.00000   0.00000   0.00235   0.00000   0.00000   0.00001   0.00000   0.00000
   0.00000   0.00000   0.00000   0.00235   0.00000   0.00000   0.00001   0.00000
   0.00436   0.00009   0.00000   0.00000   0.01559   0.00000   0.00000   0.00032
 Atom #  1 - Spin component 2
   0.91267   0.00321   0.00000   0.00000  -0.04231   0.00000   0.00000   0.00433
   0.00321   0.00003   0.00000   0.00000   0.00385   0.00000   0.00000   0.00010
   0.00000   0.00000   0.00000   0.00000   0.00000   0.00000   0.00000   0.00000
   0.00000   0.00000   0.00000   0.00000   0.00000   0.00000   0.00000   0.00000
  -0.04231   0.00385   0.00000   0.00000   0.81194   0.00000   0.00000   0.01605
   0.00000   0.00000   0.00000   0.00000   0.00000   0.00000   0.00000   0.00000
   0.00000   0.00000   0.00000   0.00000   0.00000   0.00000   0.00000   0.00000
   0.00433   0.00010   0.00000   0.00000   0.01605   0.00000   0.00000   0.00035
 Atom #  2 - Spin component 1
   0.97017  -0.02462
  -0.02462   0.00066
 Atom #  2 - Spin component 2
   1.01823  -0.02509
  -0.02509   0.00065



---OUTPUT-----------------------------------------------------------------------

 Cartesian coordinates (xcart) [bohr]
 -1.05980682222639E+00  0.00000000000000E+00  0.00000000000000E+00
  1.05980682222639E+00  0.00000000000000E+00  0.00000000000000E+00
 Reduced coordinates (xred)
 -1.12165123166080E-01  0.00000000000000E+00  0.00000000000000E+00
  1.12165123166080E-01  0.00000000000000E+00  0.00000000000000E+00
 Cartesian forces (fcart) [Ha/bohr]; max,rms= 4.54354E-07 2.62322E-07 (free atoms)
 -4.54354188699562E-07 -0.00000000000000E+00 -0.00000000000000E+00
  4.54354188699562E-07 -0.00000000000000E+00 -0.00000000000000E+00
 Reduced forces (fred)
  4.29302491985808E-06  0.00000000000000E+00  0.00000000000000E+00
 -4.29302491985808E-06 -0.00000000000000E+00 -0.00000000000000E+00
 Total energy (etotal) [Ha]= -6.25410802801847E+00

 Difference of energy with previous step (new-old):
           Absolute (Ha)=-4.99882E-08
           Relative     =-7.99286E-09

 At Broyd/MD step   3, gradients are converged : 
  max grad (force/stress) = 4.5435E-07 < tolmxf= 5.0000E-05 ha/bohr (free atoms)

================================================================================

 ----iterations are completed or convergence reached----

 Mean square residual over all n,k,spin=   20.953E-20; max=  58.828E-20
 reduced coordinates (array xred) for    2 atoms
      -0.112165123166      0.000000000000      0.000000000000
       0.112165123166      0.000000000000      0.000000000000
 rms dE/dt=  5.3728E-04; max dE/dt=  0.0000E+00; dE/dt below (all hartree)
    1      -0.000926298665      0.000000000000      0.000000000000
    2      -0.000934884715      0.000000000000      0.000000000000

 cartesian coordinates (angstrom) at end:
    1     -0.56082561583040     0.00000000000000     0.00000000000000
    2      0.56082561583040     0.00000000000000     0.00000000000000

 cartesian forces (hartree/bohr) at end:
    1     -0.00000045435419    -0.00000000000000    -0.00000000000000
    2      0.00000045435419    -0.00000000000000    -0.00000000000000
 frms,max,avg= 2.6232151E-07 4.5435419E-07   9.849E-05  0.000E+00  0.000E+00 h/b

 cartesian forces (eV/Angstrom) at end:
    1     -0.00002336382980    -0.00000000000000    -0.00000000000000
    2      0.00002336382980    -0.00000000000000    -0.00000000000000
 frms,max,avg= 1.3489113E-05 2.3363830E-05   5.065E-03  0.000E+00  0.000E+00 e/A
 length scales=  9.448630664428  7.558904531543  7.558904531543 bohr
              =  5.000000000000  4.000000000000  4.000000000000 angstroms
 prteigrs : about to open file t69o_DS3_EIG
 Fermi (or HOMO) energy (hartree) =  -0.27360   Average Vxc (hartree)=  -0.13154
 Eigenvalues (hartree) for nkpt=   1  k points, SPIN UP:
 kpt#   1, nband=  4, wtk=  1.00000, kpt=  0.0000  0.0000  0.0000 (reduced coord)
  -0.67799   -0.34289   -0.27360   -0.08946
 Eigenvalues (hartree) for nkpt=   1  k points, SPIN DOWN:
 kpt#   1, nband=  4, wtk=  1.00000, kpt=  0.0000  0.0000  0.0000 (reduced coord)
  -0.62350   -0.31867   -0.03087   -0.03087

--------------------------------------------------------------------------------
 Components of total free energy (in Hartree) :

    Kinetic energy  =  3.45742814384409E+00
    Hartree energy  =  2.63194755396231E+00
    XC energy       = -2.40495913513242E+00
    Ewald energy    = -2.36206776832925E+00
    PspCore energy  =  4.11882793594244E-02
    Loc. psp. energy= -8.45113211964561E+00
    Spherical terms =  8.33487008579423E-01
    >>>>>>>>> Etotal= -6.25410803736203E+00

 "Double-counting" decomposition of free energy:
    Band energy     = -2.23665061767484E+00
    Ewald energy    =-2.36206776832925E+00
    PspCore energy  =  4.11882793594244E-02
    Dble-C XC-energy= -2.01407446076668E+00
    Spherical terms =  3.17496539392879E-01
    >>>> Etotal (DC)= -6.25410802801847E+00

  >Total energy in eV           = -1.70182934506569E+02
  >Total DC energy in eV        = -1.70182934252318E+02
--------------------------------------------------------------------------------


 rms coord change=  5.4009E-05   atom, delta coord (reduced):
     1       -0.000093546241      0.000000000000      0.000000000000
     2        0.000093546241      0.000000000000      0.000000000000

 Cartesian components of stress tensor (hartree/bohr^3)
  sigma(1 1)=  3.27329432E-04  sigma(3 2)=  0.00000000E+00
  sigma(2 2)=  5.62150250E-04  sigma(3 1)=  0.00000000E+00
  sigma(3 3)=  5.62150250E-04  sigma(2 1)=  0.00000000E+00

-Cartesian components of stress tensor (GPa)         [Pressure= -1.4236E+01 GPa]
- sigma(1 1)=  9.63036275E+00  sigma(3 2)=  0.00000000E+00
- sigma(2 2)=  1.65390286E+01  sigma(3 1)=  0.00000000E+00
- sigma(3 3)=  1.65390286E+01  sigma(2 1)=  0.00000000E+00

== END DATASET(S) ==============================================================
================================================================================
  
 -outvars: echo values of variables after computation  --------
            acell      9.4486306644E+00  7.5589045315E+00  7.5589045315E+00 Bohr
              amu      1.20110000E+01  1.00794000E+00
           diemac      1.00000000E+00
           diemix      5.00000000E-01
             ecut      1.30000000E+01 Hartree
           etotal1    -6.0806612686E+00
           etotal2    -6.0887615607E+00
           etotal3    -6.2541080280E+00
            fcart1    -2.9808460982E-05 -0.0000000000E+00 -0.0000000000E+00
                       2.9808460982E-05 -0.0000000000E+00 -0.0000000000E+00
            fcart2     4.1201179813E-06 -0.0000000000E+00 -0.0000000000E+00
                      -4.1201179813E-06 -0.0000000000E+00 -0.0000000000E+00
            fcart3    -4.5435418870E-07 -0.0000000000E+00 -0.0000000000E+00
                       4.5435418870E-07 -0.0000000000E+00 -0.0000000000E+00
-          fftalg         312
           getwfk1          0
           getwfk2          1
           getwfk3          2
          getxred1          0
          getxred2          1
          getxred3          2
           ionmov           2
           istwfk        1
              ixc1    -101130
              ixc2         41
              ixc3       -428
           jdtset        1    2    3
         kptns_hf2     0.00000000E+00  0.00000000E+00  0.00000000E+00
         kptns_hf3     0.00000000E+00  0.00000000E+00  0.00000000E+00
         kptrlatt        1    0    0      0    1    0      0    0    1
          kptrlen      7.55890453E+00
P           mkmem           1
            natom           2
            nband           4
          nbandhf           3
           ndtset           3
            ngfft          32      27      27
          ngfftdg          54      45      45
             nkpt           1
           nkpthf           1
           nspden           2
           nsppol           2
            nstep1         10
            nstep2         10
            nstep3         15
             nsym           8
            ntime          15
           ntypat           2
              occ      1.000000  1.000000  1.000000  0.000000
                       1.000000  1.000000  0.000000  0.000000
        optforces           1
        pawecutdg      3.50000000E+01 Hartree
          spgroup          99
   spinmagntarget      1.00000000E+00
           strten1    -5.7261535371E-05  8.4238885916E-05  8.4238885916E-05
                       0.0000000000E+00  0.0000000000E+00  0.0000000000E+00
           strten2    -8.9088048527E-05  1.3961690683E-04  1.3961690683E-04
                       0.0000000000E+00  0.0000000000E+00  0.0000000000E+00
           strten3     3.2732943191E-04  5.6215025045E-04  5.6215025045E-04
                       0.0000000000E+00  0.0000000000E+00  0.0000000000E+00
           symrel      1  0  0   0  1  0   0  0  1       1  0  0   0  1  0   0  0 -1
                       1  0  0   0 -1  0   0  0 -1       1  0  0   0 -1  0   0  0  1
                       1  0  0   0  0  1   0  1  0       1  0  0   0  0  1   0 -1  0
                       1  0  0   0  0 -1   0 -1  0       1  0  0   0  0 -1   0  1  0
           tolrff1     5.00000000E-03
           tolrff2     5.00000000E-03
           tolrff3     0.00000000E+00
           tolvrs1     0.00000000E+00
           tolvrs2     0.00000000E+00
           tolvrs3     1.00000000E-20
            typat      1  2
          usefock1          0
          usefock2          1
          usefock3          1
           useylm           1
           xangst1    -5.6510184988E-01  0.0000000000E+00  0.0000000000E+00
                       5.6510184988E-01  0.0000000000E+00  0.0000000000E+00
           xangst2    -5.6035788463E-01  0.0000000000E+00  0.0000000000E+00
                       5.6035788463E-01  0.0000000000E+00  0.0000000000E+00
           xangst3    -5.6082561583E-01  0.0000000000E+00  0.0000000000E+00
                       5.6082561583E-01  0.0000000000E+00  0.0000000000E+00
            xcart1    -1.0678877335E+00  0.0000000000E+00  0.0000000000E+00
                       1.0678877335E+00  0.0000000000E+00  0.0000000000E+00
            xcart2    -1.0589229383E+00  0.0000000000E+00  0.0000000000E+00
                       1.0589229383E+00  0.0000000000E+00  0.0000000000E+00
            xcart3    -1.0598068222E+00  0.0000000000E+00  0.0000000000E+00
                       1.0598068222E+00  0.0000000000E+00  0.0000000000E+00
             xred1    -1.1302036998E-01  0.0000000000E+00  0.0000000000E+00
                       1.1302036998E-01  0.0000000000E+00  0.0000000000E+00
             xred2    -1.1207157693E-01  0.0000000000E+00  0.0000000000E+00
                       1.1207157693E-01  0.0000000000E+00  0.0000000000E+00
             xred3    -1.1216512317E-01  0.0000000000E+00  0.0000000000E+00
                       1.1216512317E-01  0.0000000000E+00  0.0000000000E+00
            znucl        6.00000    1.00000

================================================================================


- Timing analysis has been suppressed with timopt=0



================================================================================

 Suggested references for the acknowledgment of ABINIT usage.

 The users of ABINIT have little formal obligations with respect to the ABINIT group
 (those specified in the GNU General Public License, http://www.gnu.org/copyleft/gpl.txt).
 However, it is common practice in the scientific literature,
 to acknowledge the efforts of people that have made the research possible.
 In this spirit, please find below suggested citations of work written by ABINIT developers,
 corresponding to implementations inside of ABINIT that you have used in the present run.
 Note also that it will be of great value to readers of publications presenting these results,
 to read papers enabling them to understand the theoretical formalism and details
 of the ABINIT implementation.
 For information on why they are suggested, see also https://docs.abinit.org/theory/acknowledgments.
-
- [1] Implementation of the Projector Augmented-Wave Method in the ABINIT code.
- M. Torrent, F. Jollet, F. Bottin, G. Zerah, and X. Gonze Comput. Mat. Science 42, 337, (2008).
- Comment: PAW calculations. Strong suggestion to cite this paper.
- DOI and bibtex: see https://docs.abinit.org/theory/bibliography/#torrent2008
-
- [2] Libxc: A library of exchange and correlation functionals for density functional theory.
- M.A.L. Marques, M.J.T. Oliveira, T. Burnus, Computer Physics Communications 183, 2227 (2012).
- Comment: to be cited when LibXC is used (negative value of ixc)
- Strong suggestion to cite this paper.
- DOI and bibtex: see https://docs.abinit.org/theory/bibliography/#marques2012
-
- [3] Recent developments in the ABINIT software package.
- Computer Phys. Comm. 205, 106 (2016).
- X.Gonze, F.Jollet, F.Abreu Araujo, D.Adams, B.Amadon, T.Applencourt,
- C.Audouze, J.-M.Beuken, J.Bieder, A.Bokhanchuk, E.Bousquet, F.Bruneval
- D.Caliste, M.Cote, F.Dahm, F.Da Pieve, M.Delaveau, M.Di Gennaro,
- B.Dorado, C.Espejo, G.Geneste, L.Genovese, A.Gerossier, M.Giantomassi,
- Y.Gillet, D.R.Hamann, L.He, G.Jomard, J.Laflamme Janssen, S.Le Roux,
- A.Levitt, A.Lherbier, F.Liu, I.Lukacevic, A.Martin, C.Martins,
- M.J.T.Oliveira, S.Ponce, Y.Pouillon, T.Rangel, G.-M.Rignanese,
- A.H.Romero, B.Rousseau, O.Rubel, A.A.Shukri, M.Stankovski, M.Torrent,
- M.J.Van Setten, B.Van Troeye, M.J.Verstraete, D.Waroquier, J.Wiktor,
- B.Xu, A.Zhou, J.W.Zwanziger.
- Comment: the fourth generic paper describing the ABINIT project.
- Note that a version of this paper, that is not formatted for Computer Phys. Comm. 
- is available at https://www.abinit.org/about/ABINIT16.pdf .
- The licence allows the authors to put it on the Web.
- DOI and bibtex: see https://docs.abinit.org/theory/bibliography/#gonze2016
-
- [4] ABINIT: First-principles approach of materials and nanosystem properties.
- Computer Phys. Comm. 180, 2582-2615 (2009).
- X. Gonze, B. Amadon, P.-M. Anglade, J.-M. Beuken, F. Bottin, P. Boulanger, F. Bruneval,
- D. Caliste, R. Caracas, M. Cote, T. Deutsch, L. Genovese, Ph. Ghosez, M. Giantomassi
- S. Goedecker, D.R. Hamann, P. Hermet, F. Jollet, G. Jomard, S. Leroux, M. Mancini, S. Mazevet,
- M.J.T. Oliveira, G. Onida, Y. Pouillon, T. Rangel, G.-M. Rignanese, D. Sangalli, R. Shaltaf,
- M. Torrent, M.J. Verstraete, G. Zerah, J.W. Zwanziger
- Comment: the third generic paper describing the ABINIT project.
- Note that a version of this paper, that is not formatted for Computer Phys. Comm. 
- is available at https://www.abinit.org/about/ABINIT_CPC_v10.pdf .
- The licence allows the authors to put it on the Web.
- DOI and bibtex: see https://docs.abinit.org/theory/bibliography/#gonze2009
-
- [5] A brief introduction to the ABINIT software package.
- Z. Kristallogr. 220, 558-562 (2005).
- X. Gonze, G.-M. Rignanese, M. Verstraete, J.-M. Beuken, Y. Pouillon, R. Caracas, F. Jollet,
- M. Torrent, G. Zerah, M. Mikami, Ph. Ghosez, M. Veithen, J.-Y. Raty, V. Olevano, F. Bruneval,
- L. Reining, R. Godby, G. Onida, D.R. Hamann, and D.C. Allan.
- Comment: the second generic paper describing the ABINIT project. Note that this paper
- should be cited especially if you are using the GW part of ABINIT, as several authors
- of this part are not in the list of authors of the first or third paper.
- The .pdf of the latter paper is available at https://www.abinit.org/about/zfk_0505-06_558-562.pdf.
- Note that it should not redistributed (Copyright by Oldenburg Wissenshaftverlag,
- the licence allows the authors to put it on the Web).
- DOI and bibtex: see https://docs.abinit.org/theory/bibliography/#gonze2005
-
- Proc.   0 individual time (sec): cpu=        115.5  wall=        116.3

================================================================================

 Calculation completed.
.Delivered 118 WARNINGs and   3 COMMENTs to log file.
+Overall time at end (sec) : cpu=        115.5  wall=        116.3
