
.Version 8.5.3 of ABINIT 
.(MPI version, prepared for a x86_64_linux_gnu6.3 computer) 

.Copyright (C) 1998-2017 ABINIT group . 
 ABINIT comes with ABSOLUTELY NO WARRANTY.
 It is free software, and you are welcome to redistribute it
 under certain conditions (GNU General Public License,
 see ~abinit/COPYING or http://www.gnu.org/copyleft/gpl.txt).

 ABINIT is a project of the Universite Catholique de Louvain,
 Corning Inc. and other collaborators, see ~abinit/doc/developers/contributors.txt .
 Please read ~abinit/doc/users/acknowledgments.html for suggested
 acknowledgments of the ABINIT effort.
 For more information, see http://www.abinit.org .

.Starting date : Fri 15 Sep 2017.
- ( at 10h56 )
  
- input  file    -> t70.in
- output file    -> t70.out
- root for input  files -> t70i
- root for output files -> t70o

- inpspheads : Reading pseudopotential header in XML form from /cea/dsku/u-basque/hal1/home/abinit/abinit/REPOSITORY/GONZE/ace_2/tests/Psps_for_tests/C.xml
- inpspheads : Reading pseudopotential header in XML form from /cea/dsku/u-basque/hal1/home/abinit/abinit/REPOSITORY/GONZE/ace_2/tests/Psps_for_tests/H4.GGA_X_PBE+GGA_C_PBE-paw.xml

 DATASET    1 : space group P4 m m (# 99); Bravais tP (primitive tetrag.)
================================================================================
 Values of the parameters that define the memory need for DATASET  1.
     intxc =       0    ionmov =       2      iscf =      17    lmnmax =       8
     lnmax =       4     mgfft =      32  mpssoang =       2    mqgrid =    3001
     natom =       2  nloc_mem =       2    nspden =       1   nspinor =       1
    nsppol =       1      nsym =       8    n1xccc =       1    ntypat =       2
    occopt =       7   xclevel =       2
-    mband =           4        mffmem =           1         mkmem =           1
       mpw =        1207          nfft =       23328          nkpt =           1
 PAW method is used; the additional fine FFT grid is defined by:
   mgfftf=        54    nfftf =    109350
================================================================================
P This job should need less than                      32.033 Mbytes of memory.
  Rough estimation (10% accuracy) of disk space for files :
_ WF disk file :      0.076 Mbytes ; DEN or POT disk file :      0.836 Mbytes.
================================================================================


 DATASET    2 : space group P4 m m (# 99); Bravais tP (primitive tetrag.)
================================================================================
 Values of the parameters that define the memory need for DATASET  2.
     intxc =       0    ionmov =       2      iscf =      17    lmnmax =       8
     lnmax =       4     mgfft =      32  mpssoang =       2    mqgrid =    3001
     natom =       2  nloc_mem =       2    nspden =       1   nspinor =       1
    nsppol =       1      nsym =       8    n1xccc =       1    ntypat =       2
    occopt =       7   xclevel =       2
-    mband =           4        mffmem =           1         mkmem =           1
       mpw =        1207          nfft =       23328          nkpt =           1
 PAW method is used; the additional fine FFT grid is defined by:
   mgfftf=        54    nfftf =    109350
================================================================================
P This job should need less than                      32.033 Mbytes of memory.
  Rough estimation (10% accuracy) of disk space for files :
_ WF disk file :      0.076 Mbytes ; DEN or POT disk file :      0.836 Mbytes.
================================================================================


 DATASET    3 : space group P4 m m (# 99); Bravais tP (primitive tetrag.)
================================================================================
 Values of the parameters that define the memory need for DATASET  3.
     intxc =       0    ionmov =       2      iscf =      17    lmnmax =       8
     lnmax =       4     mgfft =      32  mpssoang =       2    mqgrid =    3001
     natom =       2  nloc_mem =       2    nspden =       1   nspinor =       1
    nsppol =       1      nsym =       8    n1xccc =       1    ntypat =       2
    occopt =       7   xclevel =       2
-    mband =           4        mffmem =           1         mkmem =           1
       mpw =        1207          nfft =       23328          nkpt =           1
 PAW method is used; the additional fine FFT grid is defined by:
   mgfftf=        54    nfftf =    109350
================================================================================
P This job should need less than                      32.033 Mbytes of memory.
  Rough estimation (10% accuracy) of disk space for files :
_ WF disk file :      0.076 Mbytes ; DEN or POT disk file :      0.836 Mbytes.
================================================================================

--------------------------------------------------------------------------------
------------- Echo of variables that govern the present computation ------------
--------------------------------------------------------------------------------
-
- outvars: echo of selected default values                                      
-   iomode0 =  0 , fftalg0 =312 , wfoptalg0 = 10
-
- outvars: echo of global parameters not present in the input file              
-  max_nthreads =    1
-
 -outvars: echo values of preprocessed input variables --------
            acell      9.4486306644E+00  7.5589045315E+00  7.5589045315E+00 Bohr
              amu      1.20110000E+01  1.00794000E+00
           diemac      1.00000000E+00
           diemix      5.00000000E-01
             ecut      1.30000000E+01 Hartree
-          fftalg         312
           getwfk1          0
           getwfk2          1
           getwfk3          2
          getxred1          0
          getxred2          1
          getxred3          2
           ionmov           2
           istwfk        1
              ixc1    -101130
              ixc2         41
              ixc3       -428
           jdtset        1    2    3
         kptrlatt        1    0    0      0    1    0      0    0    1
          kptrlen      7.55890453E+00
P           mkmem           1
            natom           2
            nband           4
          nbandhf1          0
          nbandhf2         19
          nbandhf3         19
           ndtset           3
            ngfft          32      27      27
          ngfftdg          54      45      45
             nkpt           1
           nkpthf1          0
           nkpthf2          1
           nkpthf3          1
            nstep           6
             nsym           8
            ntime          15
           ntypat           2
              occ      2.000000  2.000000  1.000000  0.000000
           occopt           7
        optforces           1
        optstress           0
        pawecutdg      3.50000000E+01 Hartree
          spgroup          99
           symrel      1  0  0   0  1  0   0  0  1       1  0  0   0  1  0   0  0 -1
                       1  0  0   0 -1  0   0  0 -1       1  0  0   0 -1  0   0  0  1
                       1  0  0   0  0  1   0  1  0       1  0  0   0  0  1   0 -1  0
                       1  0  0   0  0 -1   0 -1  0       1  0  0   0  0 -1   0  1  0
           tolrff      2.00000000E-02
            typat      1  2
           userie        1729
           useylm           1
           xangst     -5.6200000000E-01  0.0000000000E+00  0.0000000000E+00
                       5.6200000000E-01  0.0000000000E+00  0.0000000000E+00
            xcart     -1.0620260867E+00  0.0000000000E+00  0.0000000000E+00
                       1.0620260867E+00  0.0000000000E+00  0.0000000000E+00
             xred     -1.1240000000E-01  0.0000000000E+00  0.0000000000E+00
                       1.1240000000E-01  0.0000000000E+00  0.0000000000E+00
            znucl        6.00000    1.00000

================================================================================

 chkinp: Checking input parameters for consistency, jdtset=   1.

 chkinp: Checking input parameters for consistency, jdtset=   2.

 chkinp: Checking input parameters for consistency, jdtset=   3.

================================================================================
== DATASET  1 ==================================================================
-   nproc =    1

 Real(R)+Recip(G) space primitive vectors, cartesian coordinates (Bohr,Bohr^-1):
 R(1)=  9.4486307  0.0000000  0.0000000  G(1)=  0.1058354  0.0000000  0.0000000
 R(2)=  0.0000000  7.5589045  0.0000000  G(2)=  0.0000000  0.1322943  0.0000000
 R(3)=  0.0000000  0.0000000  7.5589045  G(3)=  0.0000000  0.0000000  0.1322943
 Unit cell volume ucvol=  5.3986677E+02 bohr^3
 Angles (23,13,12)=  9.00000000E+01  9.00000000E+01  9.00000000E+01 degrees

 Coarse grid specifications (used for wave-functions):

 getcut: wavevector=  0.0000  0.0000  0.0000  ngfft=  32  27  27
         ecut(hartree)=     13.000   => boxcut(ratio)=   2.08662

 Fine grid specifications (used for densities):

 getcut: wavevector=  0.0000  0.0000  0.0000  ngfft=  54  45  45
         ecut(hartree)=     35.000   => boxcut(ratio)=   2.14598

--- Pseudopotential description ------------------------------------------------
- pspini: atom type   1  psp file is /cea/dsku/u-basque/hal1/home/abinit/abinit/REPOSITORY/GONZE/ace_2/tests/Psps_for_tests/C.xml
- pspatm: opening atomic psp file    /cea/dsku/u-basque/hal1/home/abinit/abinit/REPOSITORY/GONZE/ace_2/tests/Psps_for_tests/C.xml
- pspatm : Reading pseudopotential header in XML form from /cea/dsku/u-basque/hal1/home/abinit/abinit/REPOSITORY/GONZE/ace_2/tests/Psps_for_tests/C.xml
 Pseudopotential format is: paw10
 basis_size (lnmax)=  4 (lmn_size=  8), orbitals=   0   0   1   1
 Spheres core radius: rc_sph= 1.50736703
 1 radial meshes are used:
  - mesh 1: r(i)=AA*[exp(BB*(i-1))-1], size=2001 , AA= 0.94549E-03 BB= 0.56729E-02
 Shapefunction is SIN type: shapef(r)=[sin(pi*r/rshp)/(pi*r/rshp)]**2
 Radius for shape functions =  1.30052589
 mmax= 2001
 Radial grid used for partial waves is grid 1
 Radial grid used for projectors is grid 1
 Radial grid used for (t)core density is grid 1
 Radial grid used for Vloc is grid 1
 Radial grid used for pseudo valence density is grid 1
 Mesh size for Vloc has been set to 1756 to avoid numerical noise.
 Compensation charge density is not taken into account in XC energy/potential
 pspatm: atomic psp has been read  and splines computed

- pspini: atom type   2  psp file is /cea/dsku/u-basque/hal1/home/abinit/abinit/REPOSITORY/GONZE/ace_2/tests/Psps_for_tests/H4.GGA_X_PBE+GGA_C_PBE-paw.xml
- pspatm: opening atomic psp file    /cea/dsku/u-basque/hal1/home/abinit/abinit/REPOSITORY/GONZE/ace_2/tests/Psps_for_tests/H4.GGA_X_PBE+GGA_C_PBE-paw.xml
- pspatm : Reading pseudopotential header in XML form from /cea/dsku/u-basque/hal1/home/abinit/abinit/REPOSITORY/GONZE/ace_2/tests/Psps_for_tests/H4.GGA_X_PBE+GGA_C_PBE-paw.xml
 Pseudopotential format is: paw10
 basis_size (lnmax)=  2 (lmn_size=  2), orbitals=   0   0
 Spheres core radius: rc_sph= 0.89889493
 1 radial meshes are used:
  - mesh 1: r(i)=AA*[exp(BB*(i-1))-1], size=1500 , AA= 0.63034E-02 BB= 0.63034E-02
 Shapefunction is SIN type: shapef(r)=[sin(pi*r/rshp)/(pi*r/rshp)]**2
 Radius for shape functions =  0.79672474
 mmax= 1500
 Radial grid used for partial waves is grid 1
 Radial grid used for projectors is grid 1
 Radial grid used for (t)core density is grid 1
 Radial grid used for Vloc is grid 1
 Radial grid used for pseudo valence density is grid 1
 Mesh size for Vloc has been set to 1280 to avoid numerical noise.
 Compensation charge density is not taken into account in XC energy/potential
 pspatm: atomic psp has been read  and splines computed

   2.22361832E+01                                ecore*ucvol(ha*bohr**3)
--------------------------------------------------------------------------------

_setup2: Arith. and geom. avg. npw (full set) are    1207.000    1207.000

================================================================================

=== [ionmov= 2] Broyden-Fletcher-Goldfard-Shanno method (forces)            
================================================================================

--- Iteration: ( 1/15) Internal Cycle: (1/1)
--------------------------------------------------------------------------------

---SELF-CONSISTENT-FIELD CONVERGENCE--------------------------------------------

     iter   Etot(hartree)      deltaE(h)  residm     nres2    diffor    maxfor
 ETOT  1  -6.0823610518225    -6.082E+00 1.038E-02 5.880E+00 1.194E-03 1.194E-03
 ETOT  2  -6.0753971410461     6.964E-03 2.889E-06 1.466E+00 1.056E-02 1.176E-02
 ETOT  3  -6.0718241099428     3.573E-03 2.108E-04 6.602E-02 1.117E-02 5.855E-04
 ETOT  4  -6.0718488037857    -2.469E-05 1.733E-06 4.236E-03 4.406E-03 3.820E-03
 ETOT  5  -6.0718331452599     1.566E-05 1.665E-06 2.934E-04 2.749E-04 3.545E-03
 ETOT  6  -6.0718347442116    -1.599E-06 4.871E-08 2.284E-05 2.236E-05 3.523E-03
 Integrated electronic density in atomic spheres:
 ------------------------------------------------
 Atom  Sphere_radius  Integrated_density
    1        1.50737          2.16005354
    2        0.89889          0.44525552

 PAW TEST:
 ==== Compensation charge inside spheres ============
 The following values must be close to each other ...
 Compensation charge over spherical meshes =      0.057505983326145
 Compensation charge over fine fft grid    =      0.057572928937847

 ==== Results concerning PAW augmentation regions ====

 Total pseudopotential strength Dij (hartree):
 Atom #  1
   0.44824  -4.51825   0.00000   0.00000   0.00048   0.00000   0.00000  -0.00024
  -4.51825  43.75784   0.00000   0.00000  -0.00632   0.00000   0.00000   0.01213
   0.00000   0.00000  -0.14458   0.00000   0.00000   0.62613   0.00000   0.00000
   0.00000   0.00000   0.00000  -0.14458   0.00000   0.00000   0.62613   0.00000
   0.00048  -0.00632   0.00000   0.00000  -0.14478   0.00000   0.00000   0.62561
   0.00000   0.00000   0.62613   0.00000   0.00000  -0.05253   0.00000   0.00000
   0.00000   0.00000   0.00000   0.62613   0.00000   0.00000  -0.05253   0.00000
  -0.00024   0.01213   0.00000   0.00000   0.62561   0.00000   0.00000  -0.04034
 Atom #  2
  -0.01844  -0.00757
  -0.00757   0.66601


 Augmentation waves occupancies Rhoij:
 Atom #  1
   1.86398   0.00330   0.00000   0.00000  -0.07319   0.00000   0.00000   0.00815
   0.00330   0.00005   0.00000   0.00000   0.00814   0.00000   0.00000   0.00016
   0.00000   0.00000   0.54814   0.00000   0.00000   0.00228   0.00000   0.00000
   0.00000   0.00000   0.00000   0.54814   0.00000   0.00000   0.00228   0.00000
  -0.07319   0.00814   0.00000   0.00000   1.63578   0.00000   0.00000   0.02843
   0.00000   0.00000   0.00228   0.00000   0.00000   0.00001   0.00000   0.00000
   0.00000   0.00000   0.00000   0.00228   0.00000   0.00000   0.00001   0.00000
   0.00815   0.00016   0.00000   0.00000   0.02843   0.00000   0.00000   0.00054
 Atom #  2
   1.97656  -0.04792
  -0.04792   0.00123



---OUTPUT-----------------------------------------------------------------------

 Cartesian coordinates (xcart) [bohr]
 -1.06202608668173E+00  0.00000000000000E+00  0.00000000000000E+00
  1.06202608668173E+00  0.00000000000000E+00  0.00000000000000E+00
 Reduced coordinates (xred)
 -1.12400000000000E-01  0.00000000000000E+00  0.00000000000000E+00
  1.12400000000000E-01  0.00000000000000E+00  0.00000000000000E+00
 Cartesian forces (fcart) [Ha/bohr]; max,rms= 3.52282E-03 2.03390E-03 (free atoms)
 -3.52281551032714E-03 -0.00000000000000E+00 -0.00000000000000E+00
  3.52281551032714E-03 -0.00000000000000E+00 -0.00000000000000E+00
 Reduced forces (fred)
  3.32857826560004E-02  0.00000000000000E+00  0.00000000000000E+00
 -3.32857826560004E-02 -0.00000000000000E+00 -0.00000000000000E+00
 Total energy (etotal) [Ha]= -6.07183474421157E+00

--- Iteration: ( 2/15) Internal Cycle: (1/1)
--------------------------------------------------------------------------------

---SELF-CONSISTENT-FIELD CONVERGENCE--------------------------------------------

     iter   Etot(hartree)      deltaE(h)  residm     nres2    diffor    maxfor
 ETOT  1  -6.0718524794102    -6.072E+00 2.229E-08 6.893E-04 1.892E-03 1.631E-03
 ETOT  2  -6.0718525711746    -9.176E-08 7.228E-12 1.576E-04 7.255E-05 1.559E-03
 ETOT  3  -6.0718527073533    -1.362E-07 9.570E-09 9.964E-07 1.948E-05 1.539E-03
 ETOT  4  -6.0718527081277    -7.744E-10 1.970E-10 3.413E-07 3.092E-06 1.542E-03

 At SCF step    4, forces are sufficiently converged : 
  for the second time, max diff in force=  3.092E-06 is less than < tolrff=  2.000E-02 times max force
 Integrated electronic density in atomic spheres:
 ------------------------------------------------
 Atom  Sphere_radius  Integrated_density
    1        1.50737          2.15357635
    2        0.89889          0.44405058

 PAW TEST:
 ==== Compensation charge inside spheres ============
 The following values must be close to each other ...
 Compensation charge over spherical meshes =      0.057274928424359
 Compensation charge over fine fft grid    =      0.057277141408146

 ==== Results concerning PAW augmentation regions ====

 Total pseudopotential strength Dij (hartree):
 Atom #  1
   0.44825  -4.51835   0.00000   0.00000   0.00048   0.00000   0.00000  -0.00028
  -4.51835  43.75924   0.00000   0.00000  -0.00632   0.00000   0.00000   0.01235
   0.00000   0.00000  -0.14458   0.00000   0.00000   0.62617   0.00000   0.00000
   0.00000   0.00000   0.00000  -0.14458   0.00000   0.00000   0.62617   0.00000
   0.00048  -0.00632   0.00000   0.00000  -0.14478   0.00000   0.00000   0.62562
   0.00000   0.00000   0.62617   0.00000   0.00000  -0.05286   0.00000   0.00000
   0.00000   0.00000   0.00000   0.62617   0.00000   0.00000  -0.05286   0.00000
  -0.00028   0.01235   0.00000   0.00000   0.62562   0.00000   0.00000  -0.04047
 Atom #  2
  -0.01842  -0.00751
  -0.00751   0.66631


 Augmentation waves occupancies Rhoij:
 Atom #  1
   1.86357   0.00326   0.00000   0.00000  -0.07539   0.00000   0.00000   0.00802
   0.00326   0.00005   0.00000   0.00000   0.00811   0.00000   0.00000   0.00016
   0.00000   0.00000   0.54810   0.00000   0.00000   0.00227   0.00000   0.00000
   0.00000   0.00000   0.00000   0.54810   0.00000   0.00000   0.00227   0.00000
  -0.07539   0.00811   0.00000   0.00000   1.62996   0.00000   0.00000   0.02823
   0.00000   0.00000   0.00227   0.00000   0.00000   0.00001   0.00000   0.00000
   0.00000   0.00000   0.00000   0.00227   0.00000   0.00000   0.00001   0.00000
   0.00802   0.00016   0.00000   0.00000   0.02823   0.00000   0.00000   0.00054
 Atom #  2
   1.96700  -0.04762
  -0.04762   0.00123



---OUTPUT-----------------------------------------------------------------------

 Cartesian coordinates (xcart) [bohr]
 -1.06554890219206E+00  0.00000000000000E+00  0.00000000000000E+00
  1.06554890219206E+00  0.00000000000000E+00  0.00000000000000E+00
 Reduced coordinates (xred)
 -1.12772838735626E-01  0.00000000000000E+00  0.00000000000000E+00
  1.12772838735626E-01  0.00000000000000E+00  0.00000000000000E+00
 Cartesian forces (fcart) [Ha/bohr]; max,rms= 1.54225E-03 8.90420E-04 (free atoms)
 -1.54225255026890E-03 -0.00000000000000E+00 -0.00000000000000E+00
  1.54225255026890E-03 -0.00000000000000E+00 -0.00000000000000E+00
 Reduced forces (fred)
  1.45721747387634E-02  0.00000000000000E+00  0.00000000000000E+00
 -1.45721747387634E-02 -0.00000000000000E+00 -0.00000000000000E+00
 Total energy (etotal) [Ha]= -6.07185270812774E+00

 Difference of energy with previous step (new-old):
           Absolute (Ha)=-1.79639E-05
           Relative     =-2.95856E-06

--- Iteration: ( 3/15) Internal Cycle: (1/1)
--------------------------------------------------------------------------------

---SELF-CONSISTENT-FIELD CONVERGENCE--------------------------------------------

     iter   Etot(hartree)      deltaE(h)  residm     nres2    diffor    maxfor
 ETOT  1  -6.0718566605419    -6.072E+00 1.371E-08 4.042E-04 1.499E-03 4.339E-05
 ETOT  2  -6.0718567567168    -9.617E-08 3.429E-12 9.368E-05 4.499E-05 1.598E-06
 ETOT  3  -6.0718568346821    -7.797E-08 4.735E-09 5.192E-07 9.744E-06 1.134E-05
 ETOT  4  -6.0718568353371    -6.551E-10 9.390E-11 1.864E-07 2.812E-06 8.530E-06
 ETOT  5  -6.0718568356451    -3.079E-10 1.169E-11 3.889E-08 1.345E-06 7.184E-06
 ETOT  6  -6.0718568356541    -9.056E-12 4.143E-13 3.125E-09 1.694E-07 7.015E-06

 scprqt:  WARNING -
  nstep=    6 was not enough SCF cycles to converge;
  maximum force difference=  1.694E-07 exceeds tolrff*maxfor=  1.403E-07

 Integrated electronic density in atomic spheres:
 ------------------------------------------------
 Atom  Sphere_radius  Integrated_density
    1        1.50737          2.15396429
    2        0.89889          0.44312788

 PAW TEST:
 ==== Compensation charge inside spheres ============
 The following values must be close to each other ...
 Compensation charge over spherical meshes =      0.057028327770849
 Compensation charge over fine fft grid    =      0.057022286463927

 ==== Results concerning PAW augmentation regions ====

 Total pseudopotential strength Dij (hartree):
 Atom #  1
   0.44826  -4.51850   0.00000   0.00000   0.00048   0.00000   0.00000  -0.00029
  -4.51850  43.76107   0.00000   0.00000  -0.00632   0.00000   0.00000   0.01247
   0.00000   0.00000  -0.14459   0.00000   0.00000   0.62622   0.00000   0.00000
   0.00000   0.00000   0.00000  -0.14459   0.00000   0.00000   0.62622   0.00000
   0.00048  -0.00632   0.00000   0.00000  -0.14478   0.00000   0.00000   0.62564
   0.00000   0.00000   0.62622   0.00000   0.00000  -0.05327   0.00000   0.00000
   0.00000   0.00000   0.00000   0.62622   0.00000   0.00000  -0.05327   0.00000
  -0.00029   0.01247   0.00000   0.00000   0.62564   0.00000   0.00000  -0.04066
 Atom #  2
  -0.01842  -0.00748
  -0.00748   0.66648


 Augmentation waves occupancies Rhoij:
 Atom #  1
   1.86340   0.00322   0.00000   0.00000  -0.07704   0.00000   0.00000   0.00793
   0.00322   0.00005   0.00000   0.00000   0.00809   0.00000   0.00000   0.00016
   0.00000   0.00000   0.54808   0.00000   0.00000   0.00227   0.00000   0.00000
   0.00000   0.00000   0.00000   0.54808   0.00000   0.00000   0.00227   0.00000
  -0.07704   0.00809   0.00000   0.00000   1.62539   0.00000   0.00000   0.02809
   0.00000   0.00000   0.00227   0.00000   0.00000   0.00001   0.00000   0.00000
   0.00000   0.00000   0.00000   0.00227   0.00000   0.00000   0.00001   0.00000
   0.00793   0.00016   0.00000   0.00000   0.02809   0.00000   0.00000   0.00053
 Atom #  2
   1.95971  -0.04740
  -0.04740   0.00122



---OUTPUT-----------------------------------------------------------------------

 Cartesian coordinates (xcart) [bohr]
 -1.06829209759382E+00  0.00000000000000E+00  0.00000000000000E+00
  1.06829209759382E+00  0.00000000000000E+00  0.00000000000000E+00
 Reduced coordinates (xred)
 -1.13063166032691E-01  0.00000000000000E+00  0.00000000000000E+00
  1.13063166032691E-01  0.00000000000000E+00  0.00000000000000E+00
 Cartesian forces (fcart) [Ha/bohr]; max,rms= 7.01505E-06 4.05014E-06 (free atoms)
  7.01505412549703E-06 -0.00000000000000E+00 -0.00000000000000E+00
 -7.01505412549703E-06 -0.00000000000000E+00 -0.00000000000000E+00
 Reduced forces (fred)
 -6.62826555227949E-05 -0.00000000000000E+00 -0.00000000000000E+00
  6.62826555227949E-05  0.00000000000000E+00  0.00000000000000E+00
 Total energy (etotal) [Ha]= -6.07185683565413E+00

 Difference of energy with previous step (new-old):
           Absolute (Ha)=-4.12753E-06
           Relative     =-6.79780E-07

 At Broyd/MD step   3, gradients are converged : 
  max grad (force/stress) = 7.0151E-06 < tolmxf= 5.0000E-05 ha/bohr (free atoms)

================================================================================

 ----iterations are completed or convergence reached----

 Mean square residual over all n,k,spin=   1.6442E-13; max=  4.1425E-13
 reduced coordinates (array xred) for    2 atoms
      -0.113063166033      0.000000000000      0.000000000000
       0.113063166033      0.000000000000      0.000000000000
 rms dE/dt=  1.0207E-03; max dE/dt=  0.0000E+00; dE/dt below (all hartree)
    1      -0.001832877376      0.000000000000      0.000000000000
    2      -0.001700312065      0.000000000000      0.000000000000

 cartesian coordinates (angstrom) at end:
    1     -0.56531583016345     0.00000000000000     0.00000000000000
    2      0.56531583016345     0.00000000000000     0.00000000000000

 cartesian forces (hartree/bohr) at end:
    1      0.00000701505413    -0.00000000000000    -0.00000000000000
    2     -0.00000701505413    -0.00000000000000    -0.00000000000000
 frms,max,avg= 4.0501434E-06 7.0150541E-06   1.870E-04  0.000E+00  0.000E+00 h/b

 cartesian forces (eV/Angstrom) at end:
    1      0.00036072855654    -0.00000000000000    -0.00000000000000
    2     -0.00036072855654    -0.00000000000000    -0.00000000000000
 frms,max,avg= 2.0826673E-04 3.6072856E-04   9.614E-03  0.000E+00  0.000E+00 e/A
 length scales=  9.448630664428  7.558904531543  7.558904531543 bohr
              =  5.000000000000  4.000000000000  4.000000000000 angstroms
 prteigrs : about to open file t70o_DS1_EIG
 Fermi (or HOMO) energy (hartree) =  -0.12048   Average Vxc (hartree)=  -0.15432
 Eigenvalues (hartree) for nkpt=   1  k points:
 kpt#   1, nband=  4, wtk=  1.00000, kpt=  0.0000  0.0000  0.0000 (reduced coord)
  -0.52498   -0.22274   -0.11571   -0.11571
      occupation numbers for kpt#   1
   2.00000    2.00000    0.50000    0.50000

--------------------------------------------------------------------------------
 Components of total free energy (in Hartree) :

    Kinetic energy  =  3.43971800861841E+00
    Hartree energy  =  2.61664656142058E+00
    XC energy       = -2.30171203919390E+00
    Ewald energy    = -2.37645790382846E+00
    PspCore energy  =  4.11882793594249E-02
    Loc. psp. energy= -8.42033340708246E+00
    Spherical terms =  9.38083743797146E-01
    >>>>> Internal E= -6.06286675690925E+00

    -kT*entropy     = -8.98807877788736E-03
    >>>>>>>>> Etotal= -6.07185483568713E+00

 "Double-counting" decomposition of free energy:
    Band energy     = -1.61114750547549E+00
    Ewald energy    = -2.37645790382846E+00
    PspCore energy  =  4.11882793594249E-02
    Dble-C XC-energy= -2.52033083729537E+00
    Spherical terms =  4.03879210363653E-01
    >>>>> Internal E= -6.06286875687624E+00

    -kT*entropy     = -8.98807877788736E-03
    >>>> Etotal (DC)= -6.07185683565413E+00

  >Total energy in eV           = -1.65223572676080E+02
  >Total DC energy in eV        = -1.65223627097950E+02
--------------------------------------------------------------------------------
 rms coord change=  3.8288E-04   atom, delta coord (reduced):
     1       -0.000663166033      0.000000000000      0.000000000000
     2        0.000663166033      0.000000000000      0.000000000000

================================================================================
== DATASET  2 ==================================================================
-   nproc =    1

 mkfilename : getwfk/=0, take file _WFK from output of DATASET   1.

 find_getdtset : getxred/=0, take data from output of dataset with index  1.

 Exchange-correlation functional for the present dataset will be:
  PBE0 with alpha=0.25

 Real(R)+Recip(G) space primitive vectors, cartesian coordinates (Bohr,Bohr^-1):
 R(1)=  9.4486307  0.0000000  0.0000000  G(1)=  0.1058354  0.0000000  0.0000000
 R(2)=  0.0000000  7.5589045  0.0000000  G(2)=  0.0000000  0.1322943  0.0000000
 R(3)=  0.0000000  0.0000000  7.5589045  G(3)=  0.0000000  0.0000000  0.1322943
 Unit cell volume ucvol=  5.3986677E+02 bohr^3
 Angles (23,13,12)=  9.00000000E+01  9.00000000E+01  9.00000000E+01 degrees

 Coarse grid specifications (used for wave-functions):

 getcut: wavevector=  0.0000  0.0000  0.0000  ngfft=  32  27  27
         ecut(hartree)=     13.000   => boxcut(ratio)=   2.08662

 Fine grid specifications (used for densities):

 getcut: wavevector=  0.0000  0.0000  0.0000  ngfft=  54  45  45
         ecut(hartree)=     35.000   => boxcut(ratio)=   2.14598

--- Pseudopotential description ------------------------------------------------
- pspini: atom type   1  psp file is /cea/dsku/u-basque/hal1/home/abinit/abinit/REPOSITORY/GONZE/ace_2/tests/Psps_for_tests/C.xml
- pspatm: opening atomic psp file    /cea/dsku/u-basque/hal1/home/abinit/abinit/REPOSITORY/GONZE/ace_2/tests/Psps_for_tests/C.xml
- pspatm : Reading pseudopotential header in XML form from /cea/dsku/u-basque/hal1/home/abinit/abinit/REPOSITORY/GONZE/ace_2/tests/Psps_for_tests/C.xml
 Pseudopotential format is: paw10
 basis_size (lnmax)=  4 (lmn_size=  8), orbitals=   0   0   1   1
 Spheres core radius: rc_sph= 1.50736703
 1 radial meshes are used:
  - mesh 1: r(i)=AA*[exp(BB*(i-1))-1], size=2001 , AA= 0.94549E-03 BB= 0.56729E-02
 Shapefunction is SIN type: shapef(r)=[sin(pi*r/rshp)/(pi*r/rshp)]**2
 Radius for shape functions =  1.30052589
 mmax= 2001
 Radial grid used for partial waves is grid 1
 Radial grid used for projectors is grid 1
 Radial grid used for (t)core density is grid 1
 Radial grid used for Vloc is grid 1
 Radial grid used for pseudo valence density is grid 1
 Mesh size for Vloc has been set to 1756 to avoid numerical noise.
 Compensation charge density is not taken into account in XC energy/potential
 pspatm: atomic psp has been read  and splines computed

- pspini: atom type   2  psp file is /cea/dsku/u-basque/hal1/home/abinit/abinit/REPOSITORY/GONZE/ace_2/tests/Psps_for_tests/H4.GGA_X_PBE+GGA_C_PBE-paw.xml
- pspatm: opening atomic psp file    /cea/dsku/u-basque/hal1/home/abinit/abinit/REPOSITORY/GONZE/ace_2/tests/Psps_for_tests/H4.GGA_X_PBE+GGA_C_PBE-paw.xml
- pspatm : Reading pseudopotential header in XML form from /cea/dsku/u-basque/hal1/home/abinit/abinit/REPOSITORY/GONZE/ace_2/tests/Psps_for_tests/H4.GGA_X_PBE+GGA_C_PBE-paw.xml
 Pseudopotential format is: paw10
 basis_size (lnmax)=  2 (lmn_size=  2), orbitals=   0   0
 Spheres core radius: rc_sph= 0.89889493
 1 radial meshes are used:
  - mesh 1: r(i)=AA*[exp(BB*(i-1))-1], size=1500 , AA= 0.63034E-02 BB= 0.63034E-02
 Shapefunction is SIN type: shapef(r)=[sin(pi*r/rshp)/(pi*r/rshp)]**2
 Radius for shape functions =  0.79672474
 mmax= 1500
 Radial grid used for partial waves is grid 1
 Radial grid used for projectors is grid 1
 Radial grid used for (t)core density is grid 1
 Radial grid used for Vloc is grid 1
 Radial grid used for pseudo valence density is grid 1
 Mesh size for Vloc has been set to 1280 to avoid numerical noise.
 Compensation charge density is not taken into account in XC energy/potential
 pspatm: atomic psp has been read  and splines computed

--------------------------------------------------------------------------------

-inwffil : will read wavefunctions from disk file t70o_DS1_WFK
_setup2: Arith. and geom. avg. npw (full set) are    1207.000    1207.000

================================================================================

=== [ionmov= 2] Broyden-Fletcher-Goldfard-Shanno method (forces)            
================================================================================

--- Iteration: ( 1/15) Internal Cycle: (1/1)
--------------------------------------------------------------------------------

---SELF-CONSISTENT-FIELD CONVERGENCE--------------------------------------------

     iter   Etot(hartree)      deltaE(h)  residm     nres2    diffor    maxfor
 ETOT  1  -6.0283777177035    -6.028E+00 6.603E-09 4.320E-02 4.761E-03 4.761E-03
 ETOT  2  -6.0269123055518     1.465E-03 2.127E-10 5.660E-03 7.574E-04 5.518E-03
 ETOT  3  -6.0273451735032    -4.329E-04 7.399E-08 8.197E-04 4.765E-04 5.995E-03
 ETOT  4  -6.0273443898000     7.837E-07 2.014E-07 1.991E-04 8.637E-05 5.908E-03
 ETOT  5  -6.0273436049474     7.849E-07 4.091E-08 4.294E-05 1.336E-04 6.042E-03
 ETOT  6  -6.0273436559852    -5.104E-08 8.476E-10 3.445E-05 2.241E-05 6.065E-03
 Integrated electronic density in atomic spheres:
 ------------------------------------------------
 Atom  Sphere_radius  Integrated_density
    1        1.50737          2.13301888
    2        0.89889          0.44073484

 PAW TEST:
 ==== Compensation charge inside spheres ============
 The following values must be close to each other ...
 Compensation charge over spherical meshes =      0.053326358036674
 Compensation charge over fine fft grid    =      0.053421710468663

 ==== Results concerning PAW augmentation regions ====

 Total pseudopotential strength Dij (hartree):
 Atom #  1
   0.43534  -4.36501   0.00000   0.00000   0.00043   0.00000   0.00000  -0.00003
  -4.36501  41.88611   0.00000   0.00000  -0.00606   0.00000   0.00000   0.01141
   0.00000   0.00000  -0.13669   0.00000   0.00000   0.56043   0.00000   0.00000
   0.00000   0.00000   0.00000  -0.13669   0.00000   0.00000   0.56043   0.00000
   0.00043  -0.00606   0.00000   0.00000  -0.13644   0.00000   0.00000   0.55380
   0.00000   0.00000   0.56043   0.00000   0.00000   0.41798   0.00000   0.00000
   0.00000   0.00000   0.00000   0.56043   0.00000   0.00000   0.41798   0.00000
  -0.00003   0.01141   0.00000   0.00000   0.55380   0.00000   0.00000   0.45519
 Atom #  2
  -0.01671   0.00367
   0.00367   0.72104


 Augmentation waves occupancies Rhoij:
 Atom #  1
   1.88295   0.00541   0.00000   0.00000  -0.07995   0.00000   0.00000   0.00849
   0.00541   0.00006   0.00000   0.00000   0.00804   0.00000   0.00000   0.00018
   0.00000   0.00000   0.53874   0.00000   0.00000   0.00404   0.00000   0.00000
   0.00000   0.00000   0.00000   0.53874   0.00000   0.00000   0.00404   0.00000
  -0.07995   0.00804   0.00000   0.00000   1.65146   0.00000   0.00000   0.03101
   0.00000   0.00000   0.00404   0.00000   0.00000   0.00003   0.00000   0.00000
   0.00000   0.00000   0.00000   0.00404   0.00000   0.00000   0.00003   0.00000
   0.00849   0.00018   0.00000   0.00000   0.03101   0.00000   0.00000   0.00064
 Atom #  2
   1.95361  -0.04908
  -0.04908   0.00130



---OUTPUT-----------------------------------------------------------------------

 Cartesian coordinates (xcart) [bohr]
 -1.06829209759382E+00  0.00000000000000E+00  0.00000000000000E+00
  1.06829209759382E+00  0.00000000000000E+00  0.00000000000000E+00
 Reduced coordinates (xred)
 -1.13063166032691E-01  0.00000000000000E+00  0.00000000000000E+00
  1.13063166032691E-01  0.00000000000000E+00  0.00000000000000E+00
 Cartesian forces (fcart) [Ha/bohr]; max,rms= 6.06453E-03 3.50136E-03 (free atoms)
  6.06453148596321E-03 -0.00000000000000E+00 -0.00000000000000E+00
 -6.06453148596321E-03 -0.00000000000000E+00 -0.00000000000000E+00
 Reduced forces (fred)
 -5.73015181636624E-02 -0.00000000000000E+00 -0.00000000000000E+00
  5.73015181636624E-02  0.00000000000000E+00  0.00000000000000E+00
 Total energy (etotal) [Ha]= -6.02734365598520E+00

--- Iteration: ( 2/15) Internal Cycle: (1/1)
--------------------------------------------------------------------------------

---SELF-CONSISTENT-FIELD CONVERGENCE--------------------------------------------

     iter   Etot(hartree)      deltaE(h)  residm     nres2    diffor    maxfor
 ETOT  1  -6.0271964452444    -6.027E+00 1.071E-07 1.587E-03 5.152E-03 9.123E-04
 ETOT  2  -6.0273917856548    -1.953E-04 6.168E-11 5.118E-04 1.689E-03 2.601E-03
 ETOT  3  -6.0273952664928    -3.481E-06 9.530E-08 8.554E-06 5.472E-05 2.547E-03
 ETOT  4  -6.0273953353105    -6.882E-08 2.366E-09 2.335E-06 7.438E-05 2.472E-03
 ETOT  5  -6.0274077808019    -1.245E-05 3.611E-09 2.061E-06 2.625E-05 2.498E-03
 ETOT  6  -6.0322275364723    -4.820E-03 1.251E-07 3.170E-04 1.403E-04 2.639E-03

 scprqt:  WARNING -
  nstep=    6 was not enough SCF cycles to converge;
  maximum force difference=  1.403E-04 exceeds tolrff*maxfor=  5.277E-05

 Integrated electronic density in atomic spheres:
 ------------------------------------------------
 Atom  Sphere_radius  Integrated_density
    1        1.50737          2.14200047
    2        0.89889          0.44283609

 PAW TEST:
 ==== Compensation charge inside spheres ============
 The following values must be close to each other ...
 Compensation charge over spherical meshes =      0.053956548035186
 Compensation charge over fine fft grid    =      0.054648930383836

 ==== Results concerning PAW augmentation regions ====

 Total pseudopotential strength Dij (hartree):
 Atom #  1
   0.43528  -4.36433   0.00000   0.00000   0.00043   0.00000   0.00000   0.00001
  -4.36433  41.87736   0.00000   0.00000  -0.00606   0.00000   0.00000   0.01110
   0.00000   0.00000  -0.13664   0.00000   0.00000   0.56004   0.00000   0.00000
   0.00000   0.00000   0.00000  -0.13664   0.00000   0.00000   0.56004   0.00000
   0.00043  -0.00606   0.00000   0.00000  -0.13640   0.00000   0.00000   0.55344
   0.00000   0.00000   0.56004   0.00000   0.00000   0.42072   0.00000   0.00000
   0.00000   0.00000   0.00000   0.56004   0.00000   0.00000   0.42072   0.00000
   0.00001   0.01110   0.00000   0.00000   0.55344   0.00000   0.00000   0.45769
 Atom #  2
  -0.01672   0.00362
   0.00362   0.72077


 Augmentation waves occupancies Rhoij:
 Atom #  1
   1.88328   0.00552   0.00000   0.00000  -0.07612   0.00000   0.00000   0.00869
   0.00552   0.00006   0.00000   0.00000   0.00808   0.00000   0.00000   0.00018
   0.00000   0.00000   0.54152   0.00000   0.00000   0.00388   0.00000   0.00000
   0.00000   0.00000   0.00000   0.54152   0.00000   0.00000   0.00388   0.00000
  -0.07612   0.00808   0.00000   0.00000   1.66107   0.00000   0.00000   0.03135
   0.00000   0.00000   0.00388   0.00000   0.00000   0.00003   0.00000   0.00000
   0.00000   0.00000   0.00000   0.00388   0.00000   0.00000   0.00003   0.00000
   0.00869   0.00018   0.00000   0.00000   0.03135   0.00000   0.00000   0.00065
 Atom #  2
   1.97043  -0.04959
  -0.04959   0.00131



---OUTPUT-----------------------------------------------------------------------

 Cartesian coordinates (xcart) [bohr]
 -1.06222756610786E+00  0.00000000000000E+00  0.00000000000000E+00
  1.06222756610786E+00  0.00000000000000E+00  0.00000000000000E+00
 Reduced coordinates (xred)
 -1.12421323664061E-01  0.00000000000000E+00  0.00000000000000E+00
  1.12421323664061E-01  0.00000000000000E+00  0.00000000000000E+00
 Cartesian forces (fcart) [Ha/bohr]; max,rms= 2.63869E-03 1.52345E-03 (free atoms)
  2.63869423302708E-03 -0.00000000000000E+00 -0.00000000000000E+00
 -2.63869423302708E-03 -0.00000000000000E+00 -0.00000000000000E+00
 Reduced forces (fred)
 -2.49320472442296E-02 -0.00000000000000E+00 -0.00000000000000E+00
  2.49320472442296E-02  0.00000000000000E+00  0.00000000000000E+00
 Total energy (etotal) [Ha]= -6.03222753647234E+00

 Difference of energy with previous step (new-old):
           Absolute (Ha)=-4.88388E-03
           Relative     =-8.09959E-04

--- Iteration: ( 3/15) Internal Cycle: (1/1)
--------------------------------------------------------------------------------

---SELF-CONSISTENT-FIELD CONVERGENCE--------------------------------------------

     iter   Etot(hartree)      deltaE(h)  residm     nres2    diffor    maxfor
 ETOT  1  -6.0422593135271    -6.042E+00 6.471E-08 1.142E-03 4.068E-03 1.430E-03
 ETOT  2  -6.0425758058852    -3.165E-04 4.568E-11 3.617E-04 1.266E-03 1.634E-04
 ETOT  3  -6.0425476130872     2.819E-05 6.560E-08 1.052E-05 6.925E-05 2.327E-04
 ETOT  4  -6.0425476690320    -5.594E-08 2.184E-10 1.941E-06 7.176E-05 3.044E-04
 ETOT  5  -6.0425476889296    -1.990E-08 3.237E-11 2.404E-07 6.634E-06 2.978E-04
 ETOT  6  -6.0425476951299    -6.200E-09 2.414E-11 7.050E-08 3.782E-07 2.982E-04
 Integrated electronic density in atomic spheres:
 ------------------------------------------------
 Atom  Sphere_radius  Integrated_density
    1        1.50737          2.15271429
    2        0.89889          0.44943514

 PAW TEST:
 ==== Compensation charge inside spheres ============
 The following values must be close to each other ...
 Compensation charge over spherical meshes =      0.055791746180458
 Compensation charge over fine fft grid    =      0.055781494666916

 ==== Results concerning PAW augmentation regions ====

 Total pseudopotential strength Dij (hartree):
 Atom #  1
   0.43505  -4.36139   0.00000   0.00000   0.00043   0.00000   0.00000   0.00006
  -4.36139  41.84066   0.00000   0.00000  -0.00603   0.00000   0.00000   0.01073
   0.00000   0.00000  -0.13643   0.00000   0.00000   0.55846   0.00000   0.00000
   0.00000   0.00000   0.00000  -0.13643   0.00000   0.00000   0.55846   0.00000
   0.00043  -0.00603   0.00000   0.00000  -0.13621   0.00000   0.00000   0.55191
   0.00000   0.00000   0.55846   0.00000   0.00000   0.43212   0.00000   0.00000
   0.00000   0.00000   0.00000   0.55846   0.00000   0.00000   0.43212   0.00000
   0.00006   0.01073   0.00000   0.00000   0.55191   0.00000   0.00000   0.46857
 Atom #  2
  -0.01673   0.00361
   0.00361   0.72072


 Augmentation waves occupancies Rhoij:
 Atom #  1
   1.88274   0.00571   0.00000   0.00000  -0.07292   0.00000   0.00000   0.00882
   0.00571   0.00006   0.00000   0.00000   0.00808   0.00000   0.00000   0.00019
   0.00000   0.00000   0.54497   0.00000   0.00000   0.00371   0.00000   0.00000
   0.00000   0.00000   0.00000   0.54497   0.00000   0.00000   0.00371   0.00000
  -0.07292   0.00808   0.00000   0.00000   1.66569   0.00000   0.00000   0.03178
   0.00000   0.00000   0.00371   0.00000   0.00000   0.00003   0.00000   0.00000
   0.00000   0.00000   0.00000   0.00371   0.00000   0.00000   0.00003   0.00000
   0.00882   0.00019   0.00000   0.00000   0.03178   0.00000   0.00000   0.00066
 Atom #  2
   1.98551  -0.05000
  -0.05000   0.00132



---OUTPUT-----------------------------------------------------------------------

 Cartesian coordinates (xcart) [bohr]
 -1.05755646147663E+00  0.00000000000000E+00  0.00000000000000E+00
  1.05755646147663E+00  0.00000000000000E+00  0.00000000000000E+00
 Reduced coordinates (xred)
 -1.11926955242104E-01  0.00000000000000E+00  0.00000000000000E+00
  1.11926955242104E-01  0.00000000000000E+00  0.00000000000000E+00
 Cartesian forces (fcart) [Ha/bohr]; max,rms= 2.98178E-04 1.72153E-04 (free atoms)
 -2.98177542651949E-04 -0.00000000000000E+00 -0.00000000000000E+00
  2.98177542651949E-04 -0.00000000000000E+00 -0.00000000000000E+00
 Reduced forces (fred)
  2.81736947294506E-03  0.00000000000000E+00  0.00000000000000E+00
 -2.81736947294506E-03 -0.00000000000000E+00 -0.00000000000000E+00
 Total energy (etotal) [Ha]= -6.04254769512989E+00

 Difference of energy with previous step (new-old):
           Absolute (Ha)=-1.03202E-02
           Relative     =-1.70937E-03

--- Iteration: ( 4/15) Internal Cycle: (1/1)
--------------------------------------------------------------------------------

---SELF-CONSISTENT-FIELD CONVERGENCE--------------------------------------------

     iter   Etot(hartree)      deltaE(h)  residm     nres2    diffor    maxfor
 ETOT  1  -6.0425621315278    -6.043E+00 5.980E-10 1.092E-05 4.355E-04 1.373E-04
 ETOT  2  -6.0425491878206     1.294E-05 2.539E-13 3.433E-06 1.463E-04 8.999E-06
 ETOT  3  -6.0425478262411     1.362E-06 5.560E-10 3.227E-08 3.698E-06 1.270E-05
 ETOT  4  -6.0425478268363    -5.952E-10 6.932E-12 1.711E-08 5.884E-06 6.813E-06
 ETOT  5  -6.0425478269952    -1.589E-10 1.091E-12 4.978E-09 6.437E-07 7.457E-06
 ETOT  6  -6.0425478270033    -8.158E-12 1.508E-12 2.477E-10 8.651E-07 8.322E-06

 scprqt:  WARNING -
  nstep=    6 was not enough SCF cycles to converge;
  maximum force difference=  8.651E-07 exceeds tolrff*maxfor=  1.664E-07

 Integrated electronic density in atomic spheres:
 ------------------------------------------------
 Atom  Sphere_radius  Integrated_density
    1        1.50737          2.15251351
    2        0.89889          0.45020730

 PAW TEST:
 ==== Compensation charge inside spheres ============
 The following values must be close to each other ...
 Compensation charge over spherical meshes =      0.055746981216743
 Compensation charge over fine fft grid    =      0.055738725980056

 ==== Results concerning PAW augmentation regions ====

 Total pseudopotential strength Dij (hartree):
 Atom #  1
   0.43506  -4.36142   0.00000   0.00000   0.00043   0.00000   0.00000   0.00005
  -4.36142  41.84111   0.00000   0.00000  -0.00603   0.00000   0.00000   0.01076
   0.00000   0.00000  -0.13644   0.00000   0.00000   0.55848   0.00000   0.00000
   0.00000   0.00000   0.00000  -0.13644   0.00000   0.00000   0.55848   0.00000
   0.00043  -0.00603   0.00000   0.00000  -0.13621   0.00000   0.00000   0.55193
   0.00000   0.00000   0.55848   0.00000   0.00000   0.43199   0.00000   0.00000
   0.00000   0.00000   0.00000   0.55848   0.00000   0.00000   0.43199   0.00000
   0.00005   0.01076   0.00000   0.00000   0.55193   0.00000   0.00000   0.46846
 Atom #  2
  -0.01672   0.00361
   0.00361   0.72074


 Augmentation waves occupancies Rhoij:
 Atom #  1
   1.88270   0.00571   0.00000   0.00000  -0.07323   0.00000   0.00000   0.00880
   0.00571   0.00006   0.00000   0.00000   0.00808   0.00000   0.00000   0.00019
   0.00000   0.00000   0.54497   0.00000   0.00000   0.00371   0.00000   0.00000
   0.00000   0.00000   0.00000   0.54497   0.00000   0.00000   0.00371   0.00000
  -0.07323   0.00808   0.00000   0.00000   1.66489   0.00000   0.00000   0.03176
   0.00000   0.00000   0.00371   0.00000   0.00000   0.00003   0.00000   0.00000
   0.00000   0.00000   0.00000   0.00371   0.00000   0.00000   0.00003   0.00000
   0.00880   0.00019   0.00000   0.00000   0.03176   0.00000   0.00000   0.00066
 Atom #  2
   1.98420  -0.04996
  -0.04996   0.00132



---OUTPUT-----------------------------------------------------------------------

 Cartesian coordinates (xcart) [bohr]
 -1.05803071388082E+00  0.00000000000000E+00  0.00000000000000E+00
  1.05803071388082E+00  0.00000000000000E+00  0.00000000000000E+00
 Reduced coordinates (xred)
 -1.11977147954787E-01  0.00000000000000E+00  0.00000000000000E+00
  1.11977147954787E-01  0.00000000000000E+00  0.00000000000000E+00
 Cartesian forces (fcart) [Ha/bohr]; max,rms= 8.32164E-06 4.80450E-06 (free atoms)
 -8.32163538874580E-06 -0.00000000000000E+00 -0.00000000000000E+00
  8.32163538874580E-06 -0.00000000000000E+00 -0.00000000000000E+00
 Reduced forces (fred)
  7.86280593122946E-05  0.00000000000000E+00  0.00000000000000E+00
 -7.86280593122946E-05 -0.00000000000000E+00 -0.00000000000000E+00
 Total energy (etotal) [Ha]= -6.04254782700332E+00

 Difference of energy with previous step (new-old):
           Absolute (Ha)=-1.31873E-07
           Relative     =-2.18241E-08

 At Broyd/MD step   4, gradients are converged : 
  max grad (force/stress) = 8.3216E-06 < tolmxf= 5.0000E-05 ha/bohr (free atoms)

================================================================================

 ----iterations are completed or convergence reached----

 Mean square residual over all n,k,spin=   5.8725E-13; max=  1.5083E-12
 reduced coordinates (array xred) for    2 atoms
      -0.111977147955      0.000000000000      0.000000000000
       0.111977147955      0.000000000000      0.000000000000
 rms dE/dt=  6.5614E-04; max dE/dt=  0.0000E+00; dE/dt below (all hartree)
    1      -0.001055115015      0.000000000000      0.000000000000
    2      -0.001212371134      0.000000000000      0.000000000000

 cartesian coordinates (angstrom) at end:
    1     -0.55988573977394     0.00000000000000     0.00000000000000
    2      0.55988573977394     0.00000000000000     0.00000000000000

 cartesian forces (hartree/bohr) at end:
    1     -0.00000832163539    -0.00000000000000    -0.00000000000000
    2      0.00000832163539    -0.00000000000000    -0.00000000000000
 frms,max,avg= 4.8044984E-06 8.3216354E-06   1.200E-04  0.000E+00  0.000E+00 h/b

 cartesian forces (eV/Angstrom) at end:
    1     -0.00042791566082    -0.00000000000000    -0.00000000000000
    2      0.00042791566082    -0.00000000000000    -0.00000000000000
 frms,max,avg= 2.4705722E-04 4.2791566E-04   6.170E-03  0.000E+00  0.000E+00 e/A
 length scales=  9.448630664428  7.558904531543  7.558904531543 bohr
              =  5.000000000000  4.000000000000  4.000000000000 angstroms
 prteigrs : about to open file t70o_DS2_EIG
 Fermi (or HOMO) energy (hartree) =  -0.12510   Average Vxc (hartree)=  -0.11907
 Eigenvalues (hartree) for nkpt=   1  k points:
 kpt#   1, nband=  4, wtk=  1.00000, kpt=  0.0000  0.0000  0.0000 (reduced coord)
  -0.60711   -0.28433   -0.12510   -0.05119
      occupation numbers for kpt#   1
   2.00000    2.00000    1.00000    0.00000

--------------------------------------------------------------------------------
 Components of total free energy (in Hartree) :

    Kinetic energy  =  3.42183714919830E+00
    Hartree energy  =  2.60913017180135E+00
    XC energy       = -2.17363558655592E+00
    Ewald energy    = -2.35902422967440E+00
    PspCore energy  =  4.11882793594249E-02
    Loc. psp. energy= -8.40199226765677E+00
    Spherical terms =  8.25592703702678E-01
    >>>>> Internal E= -6.03690377982533E+00

    -kT*entropy     = -5.64189583547795E-03
    >>>>>>>>> Etotal= -6.04254567566081E+00

 "Double-counting" decomposition of free energy:
    Band energy     = -1.90797608484684E+00
    Ewald energy    = -2.35902422967440E+00
    PspCore energy  =  4.11882793594249E-02
    Dble-C XC-energy= -2.11782952725075E+00
    Spherical terms =  3.06735631244712E-01
    >>>>> Internal E= -6.03690593116784E+00

    -kT*entropy     = -5.64189583547795E-03
    >>>> Etotal (DC)= -6.04254782700332E+00

  >Total energy in eV           = -1.64426029871989E+02
  >Total DC energy in eV        = -1.64426088412996E+02
--------------------------------------------------------------------------------
 rms coord change=  6.2701E-04   atom, delta coord (reduced):
     1        0.001086018078      0.000000000000      0.000000000000
     2       -0.001086018078      0.000000000000      0.000000000000

================================================================================
== DATASET  3 ==================================================================
-   nproc =    1

 mkfilename : getwfk/=0, take file _WFK from output of DATASET   2.

 find_getdtset : getxred/=0, take data from output of dataset with index  2.

 Real(R)+Recip(G) space primitive vectors, cartesian coordinates (Bohr,Bohr^-1):
 R(1)=  9.4486307  0.0000000  0.0000000  G(1)=  0.1058354  0.0000000  0.0000000
 R(2)=  0.0000000  7.5589045  0.0000000  G(2)=  0.0000000  0.1322943  0.0000000
 R(3)=  0.0000000  0.0000000  7.5589045  G(3)=  0.0000000  0.0000000  0.1322943
 Unit cell volume ucvol=  5.3986677E+02 bohr^3
 Angles (23,13,12)=  9.00000000E+01  9.00000000E+01  9.00000000E+01 degrees

 Coarse grid specifications (used for wave-functions):

 getcut: wavevector=  0.0000  0.0000  0.0000  ngfft=  32  27  27
         ecut(hartree)=     13.000   => boxcut(ratio)=   2.08662

 Fine grid specifications (used for densities):

 getcut: wavevector=  0.0000  0.0000  0.0000  ngfft=  54  45  45
         ecut(hartree)=     35.000   => boxcut(ratio)=   2.14598

--- Pseudopotential description ------------------------------------------------
- pspini: atom type   1  psp file is /cea/dsku/u-basque/hal1/home/abinit/abinit/REPOSITORY/GONZE/ace_2/tests/Psps_for_tests/C.xml
- pspatm: opening atomic psp file    /cea/dsku/u-basque/hal1/home/abinit/abinit/REPOSITORY/GONZE/ace_2/tests/Psps_for_tests/C.xml
- pspatm : Reading pseudopotential header in XML form from /cea/dsku/u-basque/hal1/home/abinit/abinit/REPOSITORY/GONZE/ace_2/tests/Psps_for_tests/C.xml
 Pseudopotential format is: paw10
 basis_size (lnmax)=  4 (lmn_size=  8), orbitals=   0   0   1   1
 Spheres core radius: rc_sph= 1.50736703
 1 radial meshes are used:
  - mesh 1: r(i)=AA*[exp(BB*(i-1))-1], size=2001 , AA= 0.94549E-03 BB= 0.56729E-02
 Shapefunction is SIN type: shapef(r)=[sin(pi*r/rshp)/(pi*r/rshp)]**2
 Radius for shape functions =  1.30052589
 mmax= 2001
 Radial grid used for partial waves is grid 1
 Radial grid used for projectors is grid 1
 Radial grid used for (t)core density is grid 1
 Radial grid used for Vloc is grid 1
 Radial grid used for pseudo valence density is grid 1
 Mesh size for Vloc has been set to 1756 to avoid numerical noise.
 Compensation charge density is not taken into account in XC energy/potential
 pspatm: atomic psp has been read  and splines computed

- pspini: atom type   2  psp file is /cea/dsku/u-basque/hal1/home/abinit/abinit/REPOSITORY/GONZE/ace_2/tests/Psps_for_tests/H4.GGA_X_PBE+GGA_C_PBE-paw.xml
- pspatm: opening atomic psp file    /cea/dsku/u-basque/hal1/home/abinit/abinit/REPOSITORY/GONZE/ace_2/tests/Psps_for_tests/H4.GGA_X_PBE+GGA_C_PBE-paw.xml
- pspatm : Reading pseudopotential header in XML form from /cea/dsku/u-basque/hal1/home/abinit/abinit/REPOSITORY/GONZE/ace_2/tests/Psps_for_tests/H4.GGA_X_PBE+GGA_C_PBE-paw.xml
 Pseudopotential format is: paw10
 basis_size (lnmax)=  2 (lmn_size=  2), orbitals=   0   0
 Spheres core radius: rc_sph= 0.89889493
 1 radial meshes are used:
  - mesh 1: r(i)=AA*[exp(BB*(i-1))-1], size=1500 , AA= 0.63034E-02 BB= 0.63034E-02
 Shapefunction is SIN type: shapef(r)=[sin(pi*r/rshp)/(pi*r/rshp)]**2
 Radius for shape functions =  0.79672474
 mmax= 1500
 Radial grid used for partial waves is grid 1
 Radial grid used for projectors is grid 1
 Radial grid used for (t)core density is grid 1
 Radial grid used for Vloc is grid 1
 Radial grid used for pseudo valence density is grid 1
 Mesh size for Vloc has been set to 1280 to avoid numerical noise.
 Compensation charge density is not taken into account in XC energy/potential
 pspatm: atomic psp has been read  and splines computed

--------------------------------------------------------------------------------

-inwffil : will read wavefunctions from disk file t70o_DS2_WFK
_setup2: Arith. and geom. avg. npw (full set) are    1207.000    1207.000

================================================================================

=== [ionmov= 2] Broyden-Fletcher-Goldfard-Shanno method (forces)            
================================================================================

--- Iteration: ( 1/15) Internal Cycle: (1/1)
--------------------------------------------------------------------------------

---SELF-CONSISTENT-FIELD CONVERGENCE--------------------------------------------

     iter   Etot(hartree)      deltaE(h)  residm     nres2    diffor    maxfor
 ETOT  1  -6.1992266498815    -6.199E+00 3.071E-09 7.510E-04 2.751E-04 2.751E-04
 ETOT  2  -6.1994954674434    -2.688E-04 9.468E-13 1.324E-04 1.743E-04 4.493E-04
 ETOT  3  -6.1994764799396     1.899E-05 3.161E-09 1.836E-05 1.404E-04 5.897E-04
 ETOT  4  -6.1994765170817    -3.714E-08 3.333E-09 6.949E-06 4.123E-06 5.938E-04
 ETOT  5  -6.1994764842155     3.287E-08 7.203E-11 4.026E-07 1.080E-05 6.046E-04

 At SCF step    5, forces are sufficiently converged : 
  for the second time, max diff in force=  1.080E-05 is less than < tolrff=  2.000E-02 times max force
 ETOT  6  -6.1994764930141    -8.799E-09 7.870E-10 1.287E-06 1.591E-05 6.205E-04

 scprqt:  WARNING -
  nstep=    6 was not enough SCF cycles to converge;
  maximum force difference=  1.591E-05 exceeds tolrff*maxfor=  1.241E-05

 Integrated electronic density in atomic spheres:
 ------------------------------------------------
 Atom  Sphere_radius  Integrated_density
    1        1.50737          2.15569851
    2        0.89889          0.45059315

 PAW TEST:
 ==== Compensation charge inside spheres ============
 The following values must be close to each other ...
 Compensation charge over spherical meshes =      0.055156717140419
 Compensation charge over fine fft grid    =      0.055116770274829

 ==== Results concerning PAW augmentation regions ====

 Total pseudopotential strength Dij (hartree):
 Atom #  1
   0.43594  -4.37131   0.00000   0.00000   0.00049   0.00000   0.00000  -0.00027
  -4.37131  41.95949   0.00000   0.00000  -0.00676   0.00000   0.00000   0.01462
   0.00000   0.00000  -0.13771   0.00000   0.00000   0.56837   0.00000   0.00000
   0.00000   0.00000   0.00000  -0.13771   0.00000   0.00000   0.56837   0.00000
   0.00049  -0.00676   0.00000   0.00000  -0.13762   0.00000   0.00000   0.56271
   0.00000   0.00000   0.56837   0.00000   0.00000   0.36176   0.00000   0.00000
   0.00000   0.00000   0.00000   0.56837   0.00000   0.00000   0.36176   0.00000
  -0.00027   0.01462   0.00000   0.00000   0.56271   0.00000   0.00000   0.39225
 Atom #  2
  -0.01683   0.00202
   0.00202   0.71064


 Augmentation waves occupancies Rhoij:
 Atom #  1
   1.88791   0.00538   0.00000   0.00000  -0.07344   0.00000   0.00000   0.00883
   0.00538   0.00006   0.00000   0.00000   0.00813   0.00000   0.00000   0.00019
   0.00000   0.00000   0.54328   0.00000   0.00000   0.00351   0.00000   0.00000
   0.00000   0.00000   0.00000   0.54328   0.00000   0.00000   0.00351   0.00000
  -0.07344   0.00813   0.00000   0.00000   1.66056   0.00000   0.00000   0.03144
   0.00000   0.00000   0.00351   0.00000   0.00000   0.00002   0.00000   0.00000
   0.00000   0.00000   0.00000   0.00351   0.00000   0.00000   0.00002   0.00000
   0.00883   0.00019   0.00000   0.00000   0.03144   0.00000   0.00000   0.00065
 Atom #  2
   1.98496  -0.04978
  -0.04978   0.00131



---OUTPUT-----------------------------------------------------------------------

 Cartesian coordinates (xcart) [bohr]
 -1.05803071388082E+00  0.00000000000000E+00  0.00000000000000E+00
  1.05803071388082E+00  0.00000000000000E+00  0.00000000000000E+00
 Reduced coordinates (xred)
 -1.11977147954787E-01  0.00000000000000E+00  0.00000000000000E+00
  1.11977147954787E-01  0.00000000000000E+00  0.00000000000000E+00
 Cartesian forces (fcart) [Ha/bohr]; max,rms= 6.20514E-04 3.58254E-04 (free atoms)
 -6.20514002997988E-04 -0.00000000000000E+00 -0.00000000000000E+00
  6.20514002997988E-04 -0.00000000000000E+00 -0.00000000000000E+00
 Reduced forces (fred)
  5.86300763643389E-03  0.00000000000000E+00  0.00000000000000E+00
 -5.86300763643389E-03 -0.00000000000000E+00 -0.00000000000000E+00
 Total energy (etotal) [Ha]= -6.19947649301406E+00

--- Iteration: ( 2/15) Internal Cycle: (1/1)
--------------------------------------------------------------------------------

---SELF-CONSISTENT-FIELD CONVERGENCE--------------------------------------------

     iter   Etot(hartree)      deltaE(h)  residm     nres2    diffor    maxfor
 ETOT  1  -6.1994880692887    -6.199E+00 1.191E-09 1.921E-05 6.175E-04 2.986E-06
 ETOT  2  -6.1994806723869     7.397E-06 3.014E-13 6.045E-06 2.229E-04 2.259E-04
 ETOT  3  -6.1994769963401     3.676E-06 1.194E-09 4.180E-08 1.689E-05 2.428E-04
 ETOT  4  -6.1994769967466    -4.065E-10 1.828E-11 2.620E-08 9.094E-06 2.337E-04
 ETOT  5  -6.1994769968617    -1.151E-10 6.346E-12 4.361E-09 2.448E-07 2.335E-04
 ETOT  6  -6.1994769969220    -6.025E-11 4.822E-13 4.625E-10 7.270E-07 2.342E-04

 At SCF step    6, forces are sufficiently converged : 
  for the second time, max diff in force=  7.270E-07 is less than < tolrff=  2.000E-02 times max force
 Integrated electronic density in atomic spheres:
 ------------------------------------------------
 Atom  Sphere_radius  Integrated_density
    1        1.50737          2.15551922
    2        0.89889          0.44483249

 PAW TEST:
 ==== Compensation charge inside spheres ============
 The following values must be close to each other ...
 Compensation charge over spherical meshes =      0.055077456708171
 Compensation charge over fine fft grid    =      0.055069127566146

 ==== Results concerning PAW augmentation regions ====

 Total pseudopotential strength Dij (hartree):
 Atom #  1
   0.43595  -4.37142   0.00000   0.00000   0.00049   0.00000   0.00000  -0.00028
  -4.37142  41.96079   0.00000   0.00000  -0.00676   0.00000   0.00000   0.01466
   0.00000   0.00000  -0.13771   0.00000   0.00000   0.56842   0.00000   0.00000
   0.00000   0.00000   0.00000  -0.13771   0.00000   0.00000   0.56842   0.00000
   0.00049  -0.00676   0.00000   0.00000  -0.13763   0.00000   0.00000   0.56276
   0.00000   0.00000   0.56842   0.00000   0.00000   0.36138   0.00000   0.00000
   0.00000   0.00000   0.00000   0.56842   0.00000   0.00000   0.36138   0.00000
  -0.00028   0.01466   0.00000   0.00000   0.56276   0.00000   0.00000   0.39190
 Atom #  2
  -0.01683   0.00202
   0.00202   0.71067


 Augmentation waves occupancies Rhoij:
 Atom #  1
   1.88788   0.00537   0.00000   0.00000  -0.07384   0.00000   0.00000   0.00881
   0.00537   0.00006   0.00000   0.00000   0.00813   0.00000   0.00000   0.00018
   0.00000   0.00000   0.54329   0.00000   0.00000   0.00351   0.00000   0.00000
   0.00000   0.00000   0.00000   0.54329   0.00000   0.00000   0.00351   0.00000
  -0.07384   0.00813   0.00000   0.00000   1.65959   0.00000   0.00000   0.03140
   0.00000   0.00000   0.00351   0.00000   0.00000   0.00002   0.00000   0.00000
   0.00000   0.00000   0.00000   0.00351   0.00000   0.00000   0.00002   0.00000
   0.00881   0.00018   0.00000   0.00000   0.03140   0.00000   0.00000   0.00065
 Atom #  2
   1.98318  -0.04972
  -0.04972   0.00131



---OUTPUT-----------------------------------------------------------------------

 Cartesian coordinates (xcart) [bohr]
 -1.05865122788381E+00  0.00000000000000E+00  0.00000000000000E+00
  1.05865122788381E+00  0.00000000000000E+00  0.00000000000000E+00
 Reduced coordinates (xred)
 -1.12042820328387E-01  0.00000000000000E+00  0.00000000000000E+00
  1.12042820328387E-01  0.00000000000000E+00  0.00000000000000E+00
 Cartesian forces (fcart) [Ha/bohr]; max,rms= 2.34188E-04 1.35208E-04 (free atoms)
 -2.34187642027364E-04 -0.00000000000000E+00 -0.00000000000000E+00
  2.34187642027364E-04 -0.00000000000000E+00 -0.00000000000000E+00
 Reduced forces (fred)
  2.21275253568988E-03  0.00000000000000E+00  0.00000000000000E+00
 -2.21275253568988E-03 -0.00000000000000E+00 -0.00000000000000E+00
 Total energy (etotal) [Ha]= -6.19947699692196E+00

 Difference of energy with previous step (new-old):
           Absolute (Ha)=-5.03908E-07
           Relative     =-8.12823E-08

--- Iteration: ( 3/15) Internal Cycle: (1/1)
--------------------------------------------------------------------------------

---SELF-CONSISTENT-FIELD CONVERGENCE--------------------------------------------

     iter   Etot(hartree)      deltaE(h)  residm     nres2    diffor    maxfor
 ETOT  1  -6.1994878346257    -6.199E+00 4.205E-10 6.828E-06 3.646E-04 1.304E-04
 ETOT  2  -6.1994786020944     9.233E-06 2.215E-13 2.252E-06 1.353E-04 4.899E-06
 ETOT  3  -6.1994771216313     1.480E-06 3.691E-10 1.805E-08 7.363E-06 1.226E-05
 ETOT  4  -6.1994771217617    -1.304E-10 2.482E-12 1.001E-08 5.246E-06 7.015E-06
 ETOT  5  -6.1994771218087    -4.697E-11 7.556E-13 2.349E-09 4.601E-07 7.475E-06
 ETOT  6  -6.1994771218237    -1.500E-11 6.486E-13 1.703E-10 6.608E-07 8.136E-06

 scprqt:  WARNING -
  nstep=    6 was not enough SCF cycles to converge;
  maximum force difference=  6.608E-07 exceeds tolrff*maxfor=  1.627E-07

 Integrated electronic density in atomic spheres:
 ------------------------------------------------
 Atom  Sphere_radius  Integrated_density
    1        1.50737          2.15534940
    2        0.89889          0.44470297

 PAW TEST:
 ==== Compensation charge inside spheres ============
 The following values must be close to each other ...
 Compensation charge over spherical meshes =      0.055041996219892
 Compensation charge over fine fft grid    =      0.055033793782907

 ==== Results concerning PAW augmentation regions ====

 Total pseudopotential strength Dij (hartree):
 Atom #  1
   0.43595  -4.37144   0.00000   0.00000   0.00049   0.00000   0.00000  -0.00028
  -4.37144  41.96106   0.00000   0.00000  -0.00676   0.00000   0.00000   0.01468
   0.00000   0.00000  -0.13771   0.00000   0.00000   0.56843   0.00000   0.00000
   0.00000   0.00000   0.00000  -0.13771   0.00000   0.00000   0.56843   0.00000
   0.00049  -0.00676   0.00000   0.00000  -0.13763   0.00000   0.00000   0.56277
   0.00000   0.00000   0.56843   0.00000   0.00000   0.36133   0.00000   0.00000
   0.00000   0.00000   0.00000   0.56843   0.00000   0.00000   0.36133   0.00000
  -0.00028   0.01468   0.00000   0.00000   0.56277   0.00000   0.00000   0.39186
 Atom #  2
  -0.01683   0.00202
   0.00202   0.71068


 Augmentation waves occupancies Rhoij:
 Atom #  1
   1.88785   0.00537   0.00000   0.00000  -0.07408   0.00000   0.00000   0.00880
   0.00537   0.00006   0.00000   0.00000   0.00813   0.00000   0.00000   0.00018
   0.00000   0.00000   0.54329   0.00000   0.00000   0.00351   0.00000   0.00000
   0.00000   0.00000   0.00000   0.54329   0.00000   0.00000   0.00351   0.00000
  -0.07408   0.00813   0.00000   0.00000   1.65895   0.00000   0.00000   0.03138
   0.00000   0.00000   0.00351   0.00000   0.00000   0.00002   0.00000   0.00000
   0.00000   0.00000   0.00000   0.00351   0.00000   0.00000   0.00002   0.00000
   0.00880   0.00018   0.00000   0.00000   0.03138   0.00000   0.00000   0.00065
 Atom #  2
   1.98214  -0.04969
  -0.04969   0.00131



---OUTPUT-----------------------------------------------------------------------

 Cartesian coordinates (xcart) [bohr]
 -1.05902737801461E+00  0.00000000000000E+00  0.00000000000000E+00
  1.05902737801461E+00  0.00000000000000E+00  0.00000000000000E+00
 Reduced coordinates (xred)
 -1.12082630343631E-01  0.00000000000000E+00  0.00000000000000E+00
  1.12082630343631E-01  0.00000000000000E+00  0.00000000000000E+00
 Cartesian forces (fcart) [Ha/bohr]; max,rms= 8.13604E-06 4.69735E-06 (free atoms)
 -8.13604283352216E-06 -0.00000000000000E+00 -0.00000000000000E+00
  8.13604283352218E-06 -0.00000000000000E+00 -0.00000000000000E+00
 Reduced forces (fred)
  7.68744638039189E-05  0.00000000000000E+00  0.00000000000000E+00
 -7.68744638039190E-05 -0.00000000000000E+00 -0.00000000000000E+00
 Total energy (etotal) [Ha]= -6.19947712182366E+00

 Difference of energy with previous step (new-old):
           Absolute (Ha)=-1.24902E-07
           Relative     =-2.01471E-08

 At Broyd/MD step   3, gradients are converged : 
  max grad (force/stress) = 8.1360E-06 < tolmxf= 5.0000E-05 ha/bohr (free atoms)

================================================================================

 ----iterations are completed or convergence reached----

 Mean square residual over all n,k,spin=   2.5374E-13; max=  6.4861E-13
 reduced coordinates (array xred) for    2 atoms
      -0.112082630344      0.000000000000      0.000000000000
       0.112082630344      0.000000000000      0.000000000000
 rms dE/dt=  4.5009E-04; max dE/dt=  0.0000E+00; dE/dt below (all hartree)
    1      -0.000698911514      0.000000000000      0.000000000000
    2      -0.000852660442      0.000000000000      0.000000000000

 cartesian coordinates (angstrom) at end:
    1     -0.56041315171816     0.00000000000000     0.00000000000000
    2      0.56041315171816     0.00000000000000     0.00000000000000

 cartesian forces (hartree/bohr) at end:
    1     -0.00000813604283    -0.00000000000000    -0.00000000000000
    2      0.00000813604283    -0.00000000000000    -0.00000000000000
 frms,max,avg= 4.6973465E-06 8.1360428E-06   8.211E-05  0.000E+00  0.000E+00 h/b

 cartesian forces (eV/Angstrom) at end:
    1     -0.00041837210872    -0.00000000000000    -0.00000000000000
    2      0.00041837210872    -0.00000000000000    -0.00000000000000
 frms,max,avg= 2.4154725E-04 4.1837211E-04   4.222E-03  0.000E+00  0.000E+00 e/A
 length scales=  9.448630664428  7.558904531543  7.558904531543 bohr
              =  5.000000000000  4.000000000000  4.000000000000 angstroms
 prteigrs : about to open file t70o_DS3_EIG
 Fermi (or HOMO) energy (hartree) =  -0.15797   Average Vxc (hartree)=  -0.13261
 Eigenvalues (hartree) for nkpt=   1  k points:
 kpt#   1, nband=  4, wtk=  1.00000, kpt=  0.0000  0.0000  0.0000 (reduced coord)
  -0.65619   -0.33544   -0.15797   -0.06806
      occupation numbers for kpt#   1
   2.00000    2.00000    1.00000    0.00000

--------------------------------------------------------------------------------
 Components of total free energy (in Hartree) :

    Kinetic energy  =  3.42483723299729E+00
    Hartree energy  =  2.61265959393050E+00
    XC energy       = -2.34043688234409E+00
    Ewald energy    = -2.36073346454219E+00
    PspCore energy  =  4.11882793594249E-02
    Loc. psp. energy= -8.40910789747419E+00
    Spherical terms =  8.37759552162764E-01
    >>>>> Internal E= -6.19383358591050E+00

    -kT*entropy     = -5.64189583547795E-03
    >>>>>>>>> Etotal= -6.19947548174598E+00

 "Double-counting" decomposition of free energy:
    Band energy     = -2.14123407174135E+00
    Ewald energy    = -2.36073346454219E+00
    PspCore energy  =  4.11882793594249E-02
    Dble-C XC-energy= -2.04942826635027E+00
    Spherical terms =  3.16372297286203E-01
    >>>>> Internal E= -6.19383522598818E+00

    -kT*entropy     = -5.64189583547795E-03
    >>>> Etotal (DC)= -6.19947712182366E+00

  >Total energy in eV           = -1.68696307064448E+02
  >Total DC energy in eV        = -1.68696351693232E+02
--------------------------------------------------------------------------------
 rms coord change=  6.0900E-05   atom, delta coord (reduced):
     1       -0.000105482389      0.000000000000      0.000000000000
     2        0.000105482389      0.000000000000      0.000000000000

== END DATASET(S) ==============================================================
================================================================================
  
 -outvars: echo values of variables after computation  --------
            acell      9.4486306644E+00  7.5589045315E+00  7.5589045315E+00 Bohr
              amu      1.20110000E+01  1.00794000E+00
           diemac      1.00000000E+00
           diemix      5.00000000E-01
             ecut      1.30000000E+01 Hartree
           etotal1    -6.0718568357E+00
           etotal2    -6.0425478270E+00
           etotal3    -6.1994771218E+00
            fcart1     7.0150541255E-06 -0.0000000000E+00 -0.0000000000E+00
                      -7.0150541255E-06 -0.0000000000E+00 -0.0000000000E+00
            fcart2    -8.3216353887E-06 -0.0000000000E+00 -0.0000000000E+00
                       8.3216353887E-06 -0.0000000000E+00 -0.0000000000E+00
            fcart3    -8.1360428335E-06 -0.0000000000E+00 -0.0000000000E+00
                       8.1360428335E-06 -0.0000000000E+00 -0.0000000000E+00
-          fftalg         312
           getwfk1          0
           getwfk2          1
           getwfk3          2
          getxred1          0
          getxred2          1
          getxred3          2
           ionmov           2
           istwfk        1
              ixc1    -101130
              ixc2         41
              ixc3       -428
           jdtset        1    2    3
         kptrlatt        1    0    0      0    1    0      0    0    1
          kptrlen      7.55890453E+00
P           mkmem           1
            natom           2
            nband           4
          nbandhf1          0
          nbandhf2         19
          nbandhf3         19
           ndtset           3
            ngfft          32      27      27
          ngfftdg          54      45      45
             nkpt           1
           nkpthf1          0
           nkpthf2          1
           nkpthf3          1
            nstep           6
             nsym           8
            ntime          15
           ntypat           2
              occ1     2.000000  2.000000  0.500000  0.500000
              occ2     2.000000  2.000000  1.000000  0.000000
              occ3     2.000000  2.000000  1.000000  0.000000
           occopt           7
        optforces           1
        optstress           0
        pawecutdg      3.50000000E+01 Hartree
          spgroup          99
           strten1     9.9999999999E+99  9.9999999999E+99  9.9999999999E+99
                       9.9999999999E+99  9.9999999999E+99  9.9999999999E+99
           strten2     9.9999999999E+99  9.9999999999E+99  9.9999999999E+99
                       9.9999999999E+99  9.9999999999E+99  9.9999999999E+99
           strten3     9.9999999999E+99  9.9999999999E+99  9.9999999999E+99
                       9.9999999999E+99  9.9999999999E+99  9.9999999999E+99
           symrel      1  0  0   0  1  0   0  0  1       1  0  0   0  1  0   0  0 -1
                       1  0  0   0 -1  0   0  0 -1       1  0  0   0 -1  0   0  0  1
                       1  0  0   0  0  1   0  1  0       1  0  0   0  0  1   0 -1  0
                       1  0  0   0  0 -1   0 -1  0       1  0  0   0  0 -1   0  1  0
           tolrff      2.00000000E-02
            typat      1  2
           userie        1729
           useylm           1
           xangst1    -5.6531583016E-01  0.0000000000E+00  0.0000000000E+00
                       5.6531583016E-01  0.0000000000E+00  0.0000000000E+00
           xangst2    -5.5988573977E-01  0.0000000000E+00  0.0000000000E+00
                       5.5988573977E-01  0.0000000000E+00  0.0000000000E+00
           xangst3    -5.6041315172E-01  0.0000000000E+00  0.0000000000E+00
                       5.6041315172E-01  0.0000000000E+00  0.0000000000E+00
            xcart1    -1.0682920976E+00  0.0000000000E+00  0.0000000000E+00
                       1.0682920976E+00  0.0000000000E+00  0.0000000000E+00
            xcart2    -1.0580307139E+00  0.0000000000E+00  0.0000000000E+00
                       1.0580307139E+00  0.0000000000E+00  0.0000000000E+00
            xcart3    -1.0590273780E+00  0.0000000000E+00  0.0000000000E+00
                       1.0590273780E+00  0.0000000000E+00  0.0000000000E+00
             xred1    -1.1306316603E-01  0.0000000000E+00  0.0000000000E+00
                       1.1306316603E-01  0.0000000000E+00  0.0000000000E+00
             xred2    -1.1197714795E-01  0.0000000000E+00  0.0000000000E+00
                       1.1197714795E-01  0.0000000000E+00  0.0000000000E+00
             xred3    -1.1208263034E-01  0.0000000000E+00  0.0000000000E+00
                       1.1208263034E-01  0.0000000000E+00  0.0000000000E+00
            znucl        6.00000    1.00000

================================================================================


- Timing analysis has been suppressed with timopt=0



================================================================================

 Suggested references for the acknowledgment of ABINIT usage.

 The users of ABINIT have little formal obligations with respect to the ABINIT group
 (those specified in the GNU General Public License, http://www.gnu.org/copyleft/gpl.txt).
 However, it is common practice in the scientific literature,
 to acknowledge the efforts of people that have made the research possible.
 In this spirit, please find below suggested citations of work written by ABINIT developers,
 corresponding to implementations inside of ABINIT that you have used in the present run.
 Note also that it will be of great value to readers of publications presenting these results,
 to read papers enabling them to understand the theoretical formalism and details
 of the ABINIT implementation.
 For information on why they are suggested, see also http://www.abinit.org/about/?text=acknowledgments.
-
- [1] Implementation of the Projector Augmented-Wave Method in the ABINIT code.
- M. Torrent, F. Jollet, F. Bottin, G. Zerah, and X. Gonze Comput. Mat. Science 42, 337, (2008).
- Comment : PAW calculations. Strong suggestion to cite this paper.
-
- [2] Libxc: A library of exchange and correlation functionals for density functional theory.
- M.A.L. Marques, M.J.T. Oliveira, T. Burnus, Computer Physics Communications 183, 2227 (2012).
- Comment : to be cited when LibXC is used (negative value of ixc)
- Strong suggestion to cite this paper.
-
- [3] Recent developments in the ABINIT software package.
- Computer Phys. Comm. 205, 106 (2016).
- X.Gonze, F.Jollet, F.Abreu Araujo, D.Adams, B.Amadon, T.Applencourt,
- C.Audouze, J.-M.Beuken, J.Bieder, A.Bokhanchuk, E.Bousquet, F.Bruneval
- D.Caliste, M.Cote, F.Dahm, F.Da Pieve, M.Delaveau, M.Di Gennaro,
- B.Dorado, C.Espejo, G.Geneste, L.Genovese, A.Gerossier, M.Giantomassi,
- Y.Gillet, D.R.Hamann, L.He, G.Jomard, J.Laflamme Janssen, S.Le Roux,
- A.Levitt, A.Lherbier, F.Liu, I.Lukacevic, A.Martin, C.Martins,
- M.J.T.Oliveira, S.Ponce, Y.Pouillon, T.Rangel, G.-M.Rignanese,
- A.H.Romero, B.Rousseau, O.Rubel, A.A.Shukri, M.Stankovski, M.Torrent,
- M.J.Van Setten, B.Van Troeye, M.J.Verstraete, D.Waroquier, J.Wiktor,
- B.Xue, A.Zhou, J.W.Zwanziger.
- Comment : the fourth generic paper describing the ABINIT project.
- Note that a version of this paper, that is not formatted for Computer Phys. Comm. 
- is available at http://www.abinit.org/about/ABINIT16.pdf .
- The licence allows the authors to put it on the Web.
-
- [4] ABINIT : First-principles approach of materials and nanosystem properties.
- Computer Phys. Comm. 180, 2582-2615 (2009).
- X. Gonze, B. Amadon, P.-M. Anglade, J.-M. Beuken, F. Bottin, P. Boulanger, F. Bruneval,
- D. Caliste, R. Caracas, M. Cote, T. Deutsch, L. Genovese, Ph. Ghosez, M. Giantomassi
- S. Goedecker, D.R. Hamann, P. Hermet, F. Jollet, G. Jomard, S. Leroux, M. Mancini, S. Mazevet,
- M.J.T. Oliveira, G. Onida, Y. Pouillon, T. Rangel, G.-M. Rignanese, D. Sangalli, R. Shaltaf,
- M. Torrent, M.J. Verstraete, G. Zerah, J.W. Zwanziger
- Comment : the third generic paper describing the ABINIT project.
- Note that a version of this paper, that is not formatted for Computer Phys. Comm. 
- is available at http://www.abinit.org/about/ABINIT_CPC_v10.pdf .
- The licence allows the authors to put it on the Web.
-
- [5] A brief introduction to the ABINIT software package.
- Z. Kristallogr. 220, 558-562 (2005).
- X. Gonze, G.-M. Rignanese, M. Verstraete, J.-M. Beuken, Y. Pouillon, R. Caracas, F. Jollet,
- M. Torrent, G. Zerah, M. Mikami, Ph. Ghosez, M. Veithen, J.-Y. Raty, V. Olevano, F. Bruneval,
- L. Reining, R. Godby, G. Onida, D.R. Hamann, and D.C. Allan.
- Comment : the second generic paper describing the ABINIT project. Note that this paper
- should be cited especially if you are using the GW part of ABINIT, as several authors
- of this part are not in the list of authors of the first or third paper.
- The .pdf of the latter paper is available at http://www.abinit.org/about/zfk_0505-06_558-562.pdf.
- Note that it should not redistributed (Copyright by Oldenburg Wissenshaftverlag,
- the licence allows the authors to put it on the Web).
-
- Proc.   0 individual time (sec): cpu=         73.6  wall=         74.5

================================================================================

 Calculation completed.
.Delivered  87 WARNINGs and   0 COMMENTs to log file.
+Overall time at end (sec) : cpu=         73.6  wall=         74.5
