# YAML support is available, but is disabled for this test.
# Start legacy fldiff comparison report
2
< .Version 9.3.1 of ABINIT 
> .Version 9.9.0 of ABINIT 
3
< .(MPI version, prepared for a x86_64_linux_gnu9.3 computer) 
> .(MPI version, prepared for a x86_64_linux_gnu11.3 computer) 
17
< .Starting date : Tue 10 Nov 2020.
> .Starting date : Thu 17 Nov 2022.
2360
<  -2.18965354699314E-04  2.32845307732805E-05 -0.00000000000000E+00
>  -2.19018812234744E-04  2.32577530846377E-05 -0.00000000000000E+00
2361
<   2.32845307732805E-05 -2.18965354699314E-04 -0.00000000000000E+00
>   2.32577530846377E-05 -2.19018812234744E-04 -0.00000000000000E+00
2362
<   1.95680823926033E-04  1.95680823926033E-04  0.00000000000000E+00
>   1.95761059150106E-04  1.95761059150106E-04  0.00000000000000E+00
2382
<     1      -0.037153215374     -0.036910965488      0.000000000000
>     1      -0.037153252437     -0.036910975871      0.000000000000
2383
<     2      -0.036910965488     -0.037153215374      0.000000000000
>     2      -0.036910975871     -0.037153252437      0.000000000000
2384
<     3      -0.036738569195     -0.036738569195      0.000000000000
>     3      -0.036738472565     -0.036738472565      0.000000000000
2398
<     1      0.00056298251531    -0.00005986693064    -0.00000000000000
>     1      0.00056311996015    -0.00005979808244    -0.00000000000000
2399
<     2     -0.00005986693064     0.00056298251531    -0.00000000000000
>     2     -0.00005979808244     0.00056311996015    -0.00000000000000
2400
<     3     -0.00050311558467    -0.00050311558467    -0.00000000000000
>     3     -0.00050332187771    -0.00050332187771    -0.00000000000000
2401
<  frms,max,avg= 3.5704300E-04 5.6298252E-04   9.496E-02  9.496E-02  0.000E+00 e/A
>  frms,max,avg= 3.5715319E-04 5.6311996E-04   9.496E-02  9.496E-02  0.000E+00 e/A
2416
<  Ewald energy        :  1.41189497323922E+00
>  Ewald energy        :  1.41189500458775E+00
4878
< .Delivered   9 WARNINGs and  12 COMMENTs to log file.
> .Delivered   8 WARNINGs and  13 COMMENTs to log file.
4879
< +Overall time at end (sec) : cpu=         61.3  wall=         61.9
> +Overall time at end (sec) : cpu=         31.1  wall=         33.4
Summary t88.abo: different lines=11, max abs_diff=2.063e-07 (l.2400), max rel_diff=5.753e-04 (l.2398).
