
.Version 9.0.0 of ABINIT 
.(MPI version, prepared for a x86_64_linux_gnu9.2 computer) 

.Copyright (C) 1998-2020 ABINIT group . 
 ABINIT comes with ABSOLUTELY NO WARRANTY.
 It is free software, and you are welcome to redistribute it
 under certain conditions (GNU General Public License,
 see ~abinit/COPYING or http://www.gnu.org/copyleft/gpl.txt).

 ABINIT is a project of the Universite Catholique de Louvain,
 Corning Inc. and other collaborators, see ~abinit/doc/developers/contributors.txt .
 Please read https://docs.abinit.org/theory/acknowledgments for suggested
 acknowledgments of the ABINIT effort.
 For more information, see https://www.abinit.org .

.Starting date : Mon 24 Feb 2020.
- ( at 16h15 )
  
- input  file    -> /home/gmatteo/git_repos/abinit/_abiref_gnu9.2_openmpi/tests/Test_suite/v3_t17/t17.in
- output file    -> t17.out
- root for input  files -> t17i
- root for output files -> t17o


 DATASET    1 : space group P4/m m m (#123); Bravais tP (primitive tetrag.)
================================================================================
 Values of the parameters that define the memory need for DATASET  1.
     intxc =       0    ionmov =       0      iscf =       7    lmnmax =       2
     lnmax =       2     mgfft =      24  mpssoang =       3    mqgrid =    3001
     natom =       2  nloc_mem =       1    nspden =       2   nspinor =       1
    nsppol =       2      nsym =      16    n1xccc =    2501    ntypat =       1
    occopt =       2   xclevel =       2
-    mband =           5        mffmem =           1         mkmem =           1
       mpw =         152          nfft =        6144          nkpt =           1
================================================================================
P This job should need less than                       3.856 Mbytes of memory.
  Rough estimation (10% accuracy) of disk space for files :
_ WF disk file :      0.021 Mbytes ; DEN or POT disk file :      0.096 Mbytes.
================================================================================


 DATASET    2 : space group P4/m m m (#123); Bravais tP (primitive tetrag.)
================================================================================
 Values of the parameters that define the memory need for DATASET  2.
     intxc =       0    ionmov =       0      iscf =       7    lmnmax =       2
     lnmax =       2     mgfft =      24  mpssoang =       3    mqgrid =    3001
     natom =       2  nloc_mem =       1    nspden =       2   nspinor =       1
    nsppol =       2      nsym =      16    n1xccc =    2501    ntypat =       1
    occopt =       2   xclevel =       2
-    mband =           5        mffmem =           1         mkmem =           1
       mpw =         152          nfft =        6144          nkpt =           1
================================================================================
P This job should need less than                       3.856 Mbytes of memory.
  Rough estimation (10% accuracy) of disk space for files :
_ WF disk file :      0.021 Mbytes ; DEN or POT disk file :      0.096 Mbytes.
================================================================================


 DATASET    3 : space group P4/m m m (#123); Bravais tP (primitive tetrag.)
================================================================================
 Values of the parameters that define the memory need for DATASET  3.
     intxc =       0    ionmov =       0      iscf =       7    lmnmax =       2
     lnmax =       2     mgfft =      24  mpssoang =       3    mqgrid =    3001
     natom =       2  nloc_mem =       1    nspden =       2   nspinor =       1
    nsppol =       2      nsym =      16    n1xccc =    2501    ntypat =       1
    occopt =       2   xclevel =       2
-    mband =           5        mffmem =           1         mkmem =           1
       mpw =         152          nfft =        6144          nkpt =           1
================================================================================
P This job should need less than                       3.856 Mbytes of memory.
  Rough estimation (10% accuracy) of disk space for files :
_ WF disk file :      0.021 Mbytes ; DEN or POT disk file :      0.096 Mbytes.
================================================================================


 DATASET    4 : space group P4/m m m (#123); Bravais tP (primitive tetrag.)
================================================================================
 Values of the parameters that define the memory need for DATASET  4 (RF).
     intxc =       0      iscf =       7    lmnmax =       2     lnmax =       2
     mgfft =      24  mpssoang =       3    mqgrid =    3001     natom =       2
  nloc_mem =       1    nspden =       2   nspinor =       1    nsppol =       2
      nsym =      16    n1xccc =    2501    ntypat =       1    occopt =       2
   xclevel =       2
-    mband =           5        mffmem =           1         mkmem =           1
-   mkqmem =           1        mk1mem =           1           mpw =         303
      nfft =        6144          nkpt =           1
================================================================================
P This job should need less than                       2.268 Mbytes of memory.
  Rough estimation (10% accuracy) of disk space for files :
_ WF disk file :      0.039 Mbytes ; DEN or POT disk file :      0.096 Mbytes.
================================================================================

--------------------------------------------------------------------------------
------------- Echo of variables that govern the present computation ------------
--------------------------------------------------------------------------------
-
- outvars: echo of selected default values                                      
-   iomode0 =  0 , fftalg0 =312 , wfoptalg0 =  0
-
- outvars: echo of global parameters not present in the input file              
-  max_nthreads =    0
-
 -outvars: echo values of preprocessed input variables --------
            acell      1.0000000000E+01  6.0000000000E+00  6.0000000000E+00 Bohr
              amu      2.80855000E+01
      chksymtnons           0
           diemac      1.00000000E+00
           diemix      3.33333333E-01
             ecut      7.00000000E+00 Hartree
-          fftalg         312
           getwfk1          0
           getwfk2          1
           getwfk3          1
           getwfk4          1
           istwfk1       2
           istwfk2       2
           istwfk3       2
           istwfk4       1
              ixc          11
           jdtset        1    2    3    4
           kptopt           0
P           mkmem           1
P          mkqmem           1
P          mk1mem           1
            natom           2
            nband           5       3
           ndtset           4
            ngfft          24      16      16
             nkpt           1
             nqpt1          0
             nqpt2          0
             nqpt3          0
             nqpt4          1
           nspden           2
           nsppol           2
            nstep          25
             nsym          16
           ntypat           1
              occ      1.000000  1.000000  1.000000  1.000000  1.000000
                       1.000000  1.000000  1.000000
           occopt           2
        optdriver1          0
        optdriver2          0
        optdriver3          0
        optdriver4          1
          rfatpol1          1       1
          rfatpol2          1       1
          rfatpol3          1       1
          rfatpol4          1       2
            rfdir1          0       0       0
            rfdir2          0       0       0
            rfdir3          0       0       0
            rfdir4          1       0       0
           rfphon1          0
           rfphon2          0
           rfphon3          0
           rfphon4          1
          spgroup         123
           symrel      1  0  0   0  1  0   0  0  1      -1  0  0   0 -1  0   0  0 -1
                      -1  0  0   0 -1  0   0  0  1       1  0  0   0  1  0   0  0 -1
                       1  0  0   0 -1  0   0  0 -1      -1  0  0   0  1  0   0  0  1
                      -1  0  0   0  1  0   0  0 -1       1  0  0   0 -1  0   0  0  1
                       1  0  0   0  0  1   0  1  0      -1  0  0   0  0 -1   0 -1  0
                      -1  0  0   0  0 -1   0  1  0       1  0  0   0  0  1   0 -1  0
                       1  0  0   0  0 -1   0 -1  0      -1  0  0   0  0  1   0  1  0
                      -1  0  0   0  0  1   0 -1  0       1  0  0   0  0 -1   0  1  0
            tnons1     0.0000000  0.0000000  0.0000000     0.0000000  0.0000000  0.0000000
                       0.0000000  0.0000000  0.0000000     0.0000000  0.0000000  0.0000000
                       0.0000000  0.0000000  0.0000000     0.0000000  0.0000000  0.0000000
                       0.0000000  0.0000000  0.0000000     0.0000000  0.0000000  0.0000000
                       0.0000000  0.0000000  0.0000000     0.0000000  0.0000000  0.0000000
                       0.0000000  0.0000000  0.0000000     0.0000000  0.0000000  0.0000000
                       0.0000000  0.0000000  0.0000000     0.0000000  0.0000000  0.0000000
                       0.0000000  0.0000000  0.0000000     0.0000000  0.0000000  0.0000000
            tnons2     0.0000000  0.0000000  0.0000000     0.0000500  0.0000000  0.0000000
                       0.0000500  0.0000000  0.0000000     0.0000000  0.0000000  0.0000000
                       0.0000000  0.0000000  0.0000000     0.0000500  0.0000000  0.0000000
                       0.0000500  0.0000000  0.0000000     0.0000000  0.0000000  0.0000000
                       0.0000000  0.0000000  0.0000000     0.0000500  0.0000000  0.0000000
                       0.0000500  0.0000000  0.0000000     0.0000000  0.0000000  0.0000000
                       0.0000000  0.0000000  0.0000000     0.0000500  0.0000000  0.0000000
                       0.0000500  0.0000000  0.0000000     0.0000000  0.0000000  0.0000000
            tnons3     0.0000000  0.0000000  0.0000000    -0.0000500  0.0000000  0.0000000
                      -0.0000500  0.0000000  0.0000000     0.0000000  0.0000000  0.0000000
                       0.0000000  0.0000000  0.0000000    -0.0000500  0.0000000  0.0000000
                      -0.0000500  0.0000000  0.0000000     0.0000000  0.0000000  0.0000000
                       0.0000000  0.0000000  0.0000000    -0.0000500  0.0000000  0.0000000
                      -0.0000500  0.0000000  0.0000000     0.0000000  0.0000000  0.0000000
                       0.0000000  0.0000000  0.0000000    -0.0000500  0.0000000  0.0000000
                      -0.0000500  0.0000000  0.0000000     0.0000000  0.0000000  0.0000000
            tnons4     0.0000000  0.0000000  0.0000000     0.0000000  0.0000000  0.0000000
                       0.0000000  0.0000000  0.0000000     0.0000000  0.0000000  0.0000000
                       0.0000000  0.0000000  0.0000000     0.0000000  0.0000000  0.0000000
                       0.0000000  0.0000000  0.0000000     0.0000000  0.0000000  0.0000000
                       0.0000000  0.0000000  0.0000000     0.0000000  0.0000000  0.0000000
                       0.0000000  0.0000000  0.0000000     0.0000000  0.0000000  0.0000000
                       0.0000000  0.0000000  0.0000000     0.0000000  0.0000000  0.0000000
                       0.0000000  0.0000000  0.0000000     0.0000000  0.0000000  0.0000000
           tolvrs1     1.00000000E-15
           tolvrs2     1.00000000E-15
           tolvrs3     1.00000000E-15
           tolvrs4     1.00000000E-06
            typat      1  1
           xangst1    -1.1229140366E+00  0.0000000000E+00  0.0000000000E+00
                       1.1229140366E+00  0.0000000000E+00  0.0000000000E+00
           xangst2    -1.1226494480E+00  0.0000000000E+00  0.0000000000E+00
                       1.1229140366E+00  0.0000000000E+00  0.0000000000E+00
           xangst3    -1.1231786252E+00  0.0000000000E+00  0.0000000000E+00
                       1.1229140366E+00  0.0000000000E+00  0.0000000000E+00
           xangst4    -1.1229140366E+00  0.0000000000E+00  0.0000000000E+00
                       1.1229140366E+00  0.0000000000E+00  0.0000000000E+00
            xcart1    -2.1220000000E+00  0.0000000000E+00  0.0000000000E+00
                       2.1220000000E+00  0.0000000000E+00  0.0000000000E+00
            xcart2    -2.1215000000E+00  0.0000000000E+00  0.0000000000E+00
                       2.1220000000E+00  0.0000000000E+00  0.0000000000E+00
            xcart3    -2.1225000000E+00  0.0000000000E+00  0.0000000000E+00
                       2.1220000000E+00  0.0000000000E+00  0.0000000000E+00
            xcart4    -2.1220000000E+00  0.0000000000E+00  0.0000000000E+00
                       2.1220000000E+00  0.0000000000E+00  0.0000000000E+00
             xred1    -2.1220000000E-01  0.0000000000E+00  0.0000000000E+00
                       2.1220000000E-01  0.0000000000E+00  0.0000000000E+00
             xred2    -2.1215000000E-01  0.0000000000E+00  0.0000000000E+00
                       2.1220000000E-01  0.0000000000E+00  0.0000000000E+00
             xred3    -2.1225000000E-01  0.0000000000E+00  0.0000000000E+00
                       2.1220000000E-01  0.0000000000E+00  0.0000000000E+00
             xred4    -2.1220000000E-01  0.0000000000E+00  0.0000000000E+00
                       2.1220000000E-01  0.0000000000E+00  0.0000000000E+00
            znucl       14.00000

================================================================================

 chkinp: Checking input parameters for consistency, jdtset=   1.

 chkinp: Checking input parameters for consistency, jdtset=   2.

 chkinp: Checking input parameters for consistency, jdtset=   3.

 chkinp: Checking input parameters for consistency, jdtset=   4.

================================================================================
== DATASET  1 ==================================================================
-   mpi_nproc: 1, omp_nthreads: -1 (-1 if OMP is not activated)


--- !DatasetInfo
iteration_state: {dtset: 1, }
dimensions: {natom: 2, nkpt: 1, mband: 5, nsppol: 2, nspinor: 1, nspden: 2, mpw: 152, }
cutoff_energies: {ecut:   7.0, pawecutdg:  -1.0, }
electrons: {nelect:   8.00000000E+00, charge:   0.00000000E+00, occopt:   2.00000000E+00, tsmear:   1.00000000E-02, }
meta: {optdriver: 0, ionmov: 0, optcell: 0, iscf: 7, paral_kgb: 0, }
...

 Exchange-correlation functional for the present dataset will be:
  GGA: Perdew-Burke-Ernzerhof functional - ixc=11
 Citation for XC functional:
  J.P.Perdew, K.Burke, M.Ernzerhof, PRL 77, 3865 (1996)

 Real(R)+Recip(G) space primitive vectors, cartesian coordinates (Bohr,Bohr^-1):
 R(1)= 10.0000000  0.0000000  0.0000000  G(1)=  0.1000000  0.0000000  0.0000000
 R(2)=  0.0000000  6.0000000  0.0000000  G(2)=  0.0000000  0.1666667  0.0000000
 R(3)=  0.0000000  0.0000000  6.0000000  G(3)=  0.0000000  0.0000000  0.1666667
 Unit cell volume ucvol=  3.6000000E+02 bohr^3
 Angles (23,13,12)=  9.00000000E+01  9.00000000E+01  9.00000000E+01 degrees

 getcut: wavevector=  0.0000  0.0000  0.0000  ngfft=  24  16  16
         ecut(hartree)=      7.000   => boxcut(ratio)=   2.01510

--- Pseudopotential description ------------------------------------------------
- pspini: atom type   1  psp file is /home/gmatteo/git_repos/abinit/tests/Psps_for_tests/PseudosTM_pwteter/14si.pspnc
- pspatm: opening atomic psp file    /home/gmatteo/git_repos/abinit/tests/Psps_for_tests/PseudosTM_pwteter/14si.pspnc
-  Troullier-Martins psp for element  Si        Thu Oct 27 17:31:21 EDT 1994
- 14.00000   4.00000    940714                znucl, zion, pspdat
    1    1    2    2      2001   0.00000      pspcod,pspxc,lmax,lloc,mmax,r2well
    0   5.907  14.692    1   2.0872718        l,e99.0,e99.9,nproj,rcpsp
   0.00000000   0.00000000   0.00000000   0.00000000     rms, ekb1, ekb2, epsatm
    1   2.617   4.181    1   2.0872718        l,e99.0,e99.9,nproj,rcpsp
   0.00000000   0.00000000   0.00000000   0.00000000     rms, ekb1, ekb2, epsatm
    2   0.000   0.000    0   2.0872718        l,e99.0,e99.9,nproj,rcpsp
   0.00000000   0.00000000   0.00000000   0.00000000     rms, ekb1, ekb2, epsatm
    1.80626423934776    0.22824404341771    1.17378968127746   rchrg,fchrg,qchrg
  pspatm : epsatm=    1.43386982
         --- l  ekb(1:nproj) -->
             0    3.287949
             1    1.849886
 pspatm: atomic psp has been read  and splines computed

   2.29419171E+01                                ecore*ucvol(ha*bohr**3)
--------------------------------------------------------------------------------

_setup2: Arith. and geom. avg. npw (full set) are     303.000     303.000

================================================================================

--- !BeginCycle
iteration_state: {dtset: 1, }
solver: {iscf: 7, nstep: 25, nline: 4, wfoptalg: 0, }
tolerances: {tolvrs: 1.00E-15, }
...

     iter   Etot(hartree)      deltaE(h)  residm     vres2
 ETOT  1  -8.8128194043634    -8.813E+00 9.106E-04 1.244E+01
 ETOT  2  -8.8168815427967    -4.062E-03 4.052E-09 3.597E+00
 ETOT  3  -8.8180750641115    -1.194E-03 3.115E-05 8.594E-01
 ETOT  4  -8.8183816514144    -3.066E-04 1.014E-05 3.677E-02
 ETOT  5  -8.8183992052642    -1.755E-05 2.555E-07 4.006E-03
 ETOT  6  -8.8184001317092    -9.264E-07 9.959E-08 7.407E-04
 ETOT  7  -8.8184003603687    -2.287E-07 1.266E-08 3.598E-05
 ETOT  8  -8.8184003720709    -1.170E-08 1.553E-10 6.254E-06
 ETOT  9  -8.8184003744061    -2.335E-09 1.085E-10 2.516E-07
 ETOT 10  -8.8184003745251    -1.190E-10 4.953E-12 2.383E-09
 ETOT 11  -8.8184003745254    -2.363E-13 1.278E-15 1.109E-09
 ETOT 12  -8.8184003745256    -1.936E-13 4.316E-16 1.506E-11
 ETOT 13  -8.8184003745256    -4.086E-14 6.880E-17 5.342E-12
 ETOT 14  -8.8184003745256     2.842E-14 4.268E-18 3.418E-13
 ETOT 15  -8.8184003745256    -3.375E-14 4.706E-19 7.463E-14
 ETOT 16  -8.8184003745256    -1.776E-14 4.827E-19 1.340E-14
 ETOT 17  -8.8184003745256     4.974E-14 2.683E-19 2.814E-15
 ETOT 18  -8.8184003745255     3.730E-14 2.440E-21 8.188E-16

 At SCF step   18       vres2   =  8.19E-16 < tolvrs=  1.00E-15 =>converged.

 Cartesian components of stress tensor (hartree/bohr^3)
  sigma(1 1)= -1.74784401E-04  sigma(3 2)=  0.00000000E+00
  sigma(2 2)=  6.09372171E-04  sigma(3 1)=  0.00000000E+00
  sigma(3 3)=  6.09372171E-04  sigma(2 1)=  0.00000000E+00


--- !ResultsGS
iteration_state: {dtset: 1, }
comment   : Summary of ground state results
lattice_vectors:
- [ 10.0000000,   0.0000000,   0.0000000, ]
- [  0.0000000,   6.0000000,   0.0000000, ]
- [  0.0000000,   0.0000000,   6.0000000, ]
lattice_lengths: [  10.00000,    6.00000,    6.00000, ]
lattice_angles: [ 90.000,  90.000,  90.000, ] # degrees, (23, 13, 12)
lattice_volume:   3.6000000E+02
convergence: {deltae:  3.730E-14, res2:  8.188E-16, residm:  2.440E-21, diffor: null, }
etotal    :  -8.81840037E+00
entropy   :   0.00000000E+00
fermie    :   1.97172751E-01
cartesian_stress_tensor: # hartree/bohr^3
- [ -1.74784401E-04,   0.00000000E+00,   0.00000000E+00, ]
- [  0.00000000E+00,   6.09372171E-04,   0.00000000E+00, ]
- [  0.00000000E+00,   0.00000000E+00,   6.09372171E-04, ]
pressure_GPa:  -1.0238E+01
xred      :
- [ -2.1220E-01,   0.0000E+00,   0.0000E+00, Si]
- [  2.1220E-01,   0.0000E+00,   0.0000E+00, Si]
cartesian_forces: # hartree/bohr
- [ -3.19457794E-02,  -0.00000000E+00,  -0.00000000E+00, ]
- [  3.19457794E-02,  -0.00000000E+00,  -0.00000000E+00, ]
force_length_stats: {min:   3.19457794E-02, max:   3.19457794E-02, mean:   3.19457794E-02, }
...

 Integrated electronic and magnetization densities in atomic spheres:
 ---------------------------------------------------------------------
 Radius=ratsph(iatom), smearing ratsm=  0.0000. Diff(up-dn)=approximate z local magnetic moment.
 Atom    Radius    up_density   dn_density  Total(up+dn)  Diff(up-dn)
    1   2.00000     1.025473     0.578306      1.603780     0.447167
    2   2.00000     1.025473     0.578306      1.603780     0.447167
 ---------------------------------------------------------------------
  Sum:              2.050946     1.156613      3.207559     0.894334
 Total magnetization (from the atomic spheres):             0.894334
 Total magnetization (exact up - dn):                       2.000000
================================================================================

 ----iterations are completed or convergence reached----

 Mean square residual over all n,k,spin=   90.983E-23; max=  24.404E-22
 reduced coordinates (array xred) for    2 atoms
      -0.212200000000      0.000000000000      0.000000000000
       0.212200000000      0.000000000000      0.000000000000
 rms dE/dt=  1.8444E-01; max dE/dt=  3.1946E-01; dE/dt below (all hartree)
    1       0.319457793985      0.000000000000      0.000000000000
    2      -0.319457793985      0.000000000000      0.000000000000

 cartesian coordinates (angstrom) at end:
    1     -1.12291403662798     0.00000000000000     0.00000000000000
    2      1.12291403662798     0.00000000000000     0.00000000000000

 cartesian forces (hartree/bohr) at end:
    1     -0.03194577939850    -0.00000000000000    -0.00000000000000
    2      0.03194577939850    -0.00000000000000    -0.00000000000000
 frms,max,avg= 1.8443904E-02 3.1945779E-02   0.000E+00  0.000E+00  0.000E+00 h/b

 cartesian forces (eV/Angstrom) at end:
    1     -1.64271788695456    -0.00000000000000    -0.00000000000000
    2      1.64271788695456    -0.00000000000000    -0.00000000000000
 frms,max,avg= 9.4842361E-01 1.6427179E+00   0.000E+00  0.000E+00  0.000E+00 e/A
 length scales= 10.000000000000  6.000000000000  6.000000000000 bohr
              =  5.291772085900  3.175063251540  3.175063251540 angstroms
 prteigrs : about to open file t17o_DS1_EIG
 Fermi (or HOMO) energy (hartree) =   0.19717   Average Vxc (hartree)=  -0.31345
 Eigenvalues (hartree) for nkpt=   1  k points, SPIN UP:
 kpt#   1, nband=  5, wtk=  1.00000, kpt=  0.0000  0.0000  0.0000 (reduced coord)
  -0.27554   -0.09896   -0.02194    0.19717    0.19717
 Eigenvalues (hartree) for nkpt=   1  k points, SPIN DOWN:
 kpt#   1, nband=  3, wtk=  1.00000, kpt=  0.0000  0.0000  0.0000 (reduced coord)
  -0.23613   -0.06191   -0.00234

--- !EnergyTerms
iteration_state     : {dtset: 1, }
comment             : Components of total free energy in Hartree
kinetic             :  2.69793504931792E+00
hartree             :  5.51727070927291E-01
xc                  : -3.39234077817243E+00
Ewald energy        : -7.74556193811080E+00
psp_core            :  6.37275476174552E-02
local_psp           : -2.92309781520831E+00
non_local_psp       :  1.92921048910332E+00
total_energy        : -8.81840037452555E+00
total_energy_eV     : -2.39960877622382E+02
band_energy         : -3.02467336746130E-01
...


 Cartesian components of stress tensor (hartree/bohr^3)
  sigma(1 1)= -1.74784401E-04  sigma(3 2)=  0.00000000E+00
  sigma(2 2)=  6.09372171E-04  sigma(3 1)=  0.00000000E+00
  sigma(3 3)=  6.09372171E-04  sigma(2 1)=  0.00000000E+00

-Cartesian components of stress tensor (GPa)         [Pressure= -1.0238E+01 GPa]
- sigma(1 1)= -5.14233374E+00  sigma(3 2)=  0.00000000E+00
- sigma(2 2)=  1.79283452E+01  sigma(3 1)=  0.00000000E+00
- sigma(3 3)=  1.79283452E+01  sigma(2 1)=  0.00000000E+00

================================================================================
== DATASET  2 ==================================================================
-   mpi_nproc: 1, omp_nthreads: -1 (-1 if OMP is not activated)


--- !DatasetInfo
iteration_state: {dtset: 2, }
dimensions: {natom: 2, nkpt: 1, mband: 5, nsppol: 2, nspinor: 1, nspden: 2, mpw: 152, }
cutoff_energies: {ecut:   7.0, pawecutdg:  -1.0, }
electrons: {nelect:   8.00000000E+00, charge:   0.00000000E+00, occopt:   2.00000000E+00, tsmear:   1.00000000E-02, }
meta: {optdriver: 0, ionmov: 0, optcell: 0, iscf: 7, paral_kgb: 0, }
...

 mkfilename : getwfk/=0, take file _WFK from output of DATASET   1.

 Exchange-correlation functional for the present dataset will be:
  GGA: Perdew-Burke-Ernzerhof functional - ixc=11
 Citation for XC functional:
  J.P.Perdew, K.Burke, M.Ernzerhof, PRL 77, 3865 (1996)

 Real(R)+Recip(G) space primitive vectors, cartesian coordinates (Bohr,Bohr^-1):
 R(1)= 10.0000000  0.0000000  0.0000000  G(1)=  0.1000000  0.0000000  0.0000000
 R(2)=  0.0000000  6.0000000  0.0000000  G(2)=  0.0000000  0.1666667  0.0000000
 R(3)=  0.0000000  0.0000000  6.0000000  G(3)=  0.0000000  0.0000000  0.1666667
 Unit cell volume ucvol=  3.6000000E+02 bohr^3
 Angles (23,13,12)=  9.00000000E+01  9.00000000E+01  9.00000000E+01 degrees

 getcut: wavevector=  0.0000  0.0000  0.0000  ngfft=  24  16  16
         ecut(hartree)=      7.000   => boxcut(ratio)=   2.01510
--------------------------------------------------------------------------------

-inwffil : will read wavefunctions from disk file t17o_DS1_WFK
_setup2: Arith. and geom. avg. npw (full set) are     303.000     303.000

================================================================================

--- !BeginCycle
iteration_state: {dtset: 2, }
solver: {iscf: 7, nstep: 25, nline: 4, wfoptalg: 0, }
tolerances: {tolvrs: 1.00E-15, }
...

     iter   Etot(hartree)      deltaE(h)  residm     vres2
 ETOT  1  -8.8183842341668    -8.818E+00 7.106E-14 4.684E-04
 ETOT  2  -8.8183843816046    -1.474E-07 1.674E-15 2.223E-05
 ETOT  3  -8.8183843884041    -6.800E-09 3.761E-10 5.343E-08
 ETOT  4  -8.8183843884227    -1.853E-11 1.230E-12 5.308E-10
 ETOT  5  -8.8183843884230    -3.109E-13 1.728E-14 2.387E-11
 ETOT  6  -8.8183843884230     5.329E-15 3.098E-16 6.982E-12
 ETOT  7  -8.8183843884230     0.000E+00 1.848E-17 2.976E-13
 ETOT  8  -8.8183843884230     8.882E-15 4.888E-18 1.108E-13
 ETOT  9  -8.8183843884230    -7.105E-15 1.739E-18 3.758E-15
 ETOT 10  -8.8183843884229     2.842E-14 4.721E-20 9.106E-17

 At SCF step   10       vres2   =  9.11E-17 < tolvrs=  1.00E-15 =>converged.

 Cartesian components of stress tensor (hartree/bohr^3)
  sigma(1 1)= -1.75369140E-04  sigma(3 2)=  0.00000000E+00
  sigma(2 2)=  6.09368052E-04  sigma(3 1)=  0.00000000E+00
  sigma(3 3)=  6.09368052E-04  sigma(2 1)=  0.00000000E+00


--- !ResultsGS
iteration_state: {dtset: 2, }
comment   : Summary of ground state results
lattice_vectors:
- [ 10.0000000,   0.0000000,   0.0000000, ]
- [  0.0000000,   6.0000000,   0.0000000, ]
- [  0.0000000,   0.0000000,   6.0000000, ]
lattice_lengths: [  10.00000,    6.00000,    6.00000, ]
lattice_angles: [ 90.000,  90.000,  90.000, ] # degrees, (23, 13, 12)
lattice_volume:   3.6000000E+02
convergence: {deltae:  2.842E-14, res2:  9.106E-17, residm:  4.721E-20, diffor: null, }
etotal    :  -8.81838439E+00
entropy   :   0.00000000E+00
fermie    :   1.97147713E-01
cartesian_stress_tensor: # hartree/bohr^3
- [ -1.75369140E-04,   0.00000000E+00,   0.00000000E+00, ]
- [  0.00000000E+00,   6.09368052E-04,   0.00000000E+00, ]
- [  0.00000000E+00,   0.00000000E+00,   6.09368052E-04, ]
pressure_GPa:  -1.0232E+01
xred      :
- [ -2.1215E-01,   0.0000E+00,   0.0000E+00, Si]
- [  2.1220E-01,   0.0000E+00,   0.0000E+00, Si]
cartesian_forces: # hartree/bohr
- [ -3.19986402E-02,  -0.00000000E+00,  -0.00000000E+00, ]
- [  3.19986402E-02,  -0.00000000E+00,  -0.00000000E+00, ]
force_length_stats: {min:   3.19986402E-02, max:   3.19986402E-02, mean:   3.19986402E-02, }
...

 Integrated electronic and magnetization densities in atomic spheres:
 ---------------------------------------------------------------------
 Radius=ratsph(iatom), smearing ratsm=  0.0000. Diff(up-dn)=approximate z local magnetic moment.
 Atom    Radius    up_density   dn_density  Total(up+dn)  Diff(up-dn)
    1   2.00000     1.025439     0.578314      1.603753     0.447125
    2   2.00000     1.025516     0.578334      1.603851     0.447182
 ---------------------------------------------------------------------
  Sum:              2.050955     1.156648      3.207603     0.894307
 Total magnetization (from the atomic spheres):             0.894307
 Total magnetization (exact up - dn):                       2.000000
================================================================================

 ----iterations are completed or convergence reached----

 Mean square residual over all n,k,spin=   11.663E-21; max=  47.214E-21
 reduced coordinates (array xred) for    2 atoms
      -0.212150000000      0.000000000000      0.000000000000
       0.212200000000      0.000000000000      0.000000000000
 rms dE/dt=  1.8474E-01; max dE/dt=  3.1999E-01; dE/dt below (all hartree)
    1       0.319986401977      0.000000000000      0.000000000000
    2      -0.319986401977      0.000000000000      0.000000000000

 cartesian coordinates (angstrom) at end:
    1     -1.12264944802369     0.00000000000000     0.00000000000000
    2      1.12291403662798     0.00000000000000     0.00000000000000

 cartesian forces (hartree/bohr) at end:
    1     -0.03199864019773    -0.00000000000000    -0.00000000000000
    2      0.03199864019773    -0.00000000000000    -0.00000000000000
 frms,max,avg= 1.8474424E-02 3.1998640E-02   0.000E+00  0.000E+00  0.000E+00 h/b

 cartesian forces (eV/Angstrom) at end:
    1     -1.64543609831294    -0.00000000000000    -0.00000000000000
    2      1.64543609831294    -0.00000000000000    -0.00000000000000
 frms,max,avg= 9.4999297E-01 1.6454361E+00   0.000E+00  0.000E+00  0.000E+00 e/A
 length scales= 10.000000000000  6.000000000000  6.000000000000 bohr
              =  5.291772085900  3.175063251540  3.175063251540 angstroms
 prteigrs : about to open file t17o_DS2_EIG
 Fermi (or HOMO) energy (hartree) =   0.19715   Average Vxc (hartree)=  -0.31345
 Eigenvalues (hartree) for nkpt=   1  k points, SPIN UP:
 kpt#   1, nband=  5, wtk=  1.00000, kpt=  0.0000  0.0000  0.0000 (reduced coord)
  -0.27556   -0.09896   -0.02193    0.19715    0.19715
 Eigenvalues (hartree) for nkpt=   1  k points, SPIN DOWN:
 kpt#   1, nband=  3, wtk=  1.00000, kpt=  0.0000  0.0000  0.0000 (reduced coord)
  -0.23615   -0.06191   -0.00233

--- !EnergyTerms
iteration_state     : {dtset: 2, }
comment             : Components of total free energy in Hartree
kinetic             :  2.69803508085385E+00
hartree             :  5.51920110172379E-01
xc                  : -3.39238335264451E+00
Ewald energy        : -7.74528799411143E+00
psp_core            :  6.37275476174552E-02
local_psp           : -2.92363766785892E+00
non_local_psp       :  1.92924188754825E+00
total_energy        : -8.81838438842293E+00
total_energy_eV     : -2.39960442618408E+02
band_energy         : -3.02540595104965E-01
...


 Cartesian components of stress tensor (hartree/bohr^3)
  sigma(1 1)= -1.75369140E-04  sigma(3 2)=  0.00000000E+00
  sigma(2 2)=  6.09368052E-04  sigma(3 1)=  0.00000000E+00
  sigma(3 3)=  6.09368052E-04  sigma(2 1)=  0.00000000E+00

-Cartesian components of stress tensor (GPa)         [Pressure= -1.0232E+01 GPa]
- sigma(1 1)= -5.15953737E+00  sigma(3 2)=  0.00000000E+00
- sigma(2 2)=  1.79282240E+01  sigma(3 1)=  0.00000000E+00
- sigma(3 3)=  1.79282240E+01  sigma(2 1)=  0.00000000E+00

================================================================================
== DATASET  3 ==================================================================
-   mpi_nproc: 1, omp_nthreads: -1 (-1 if OMP is not activated)


--- !DatasetInfo
iteration_state: {dtset: 3, }
dimensions: {natom: 2, nkpt: 1, mband: 5, nsppol: 2, nspinor: 1, nspden: 2, mpw: 152, }
cutoff_energies: {ecut:   7.0, pawecutdg:  -1.0, }
electrons: {nelect:   8.00000000E+00, charge:   0.00000000E+00, occopt:   2.00000000E+00, tsmear:   1.00000000E-02, }
meta: {optdriver: 0, ionmov: 0, optcell: 0, iscf: 7, paral_kgb: 0, }
...

 mkfilename : getwfk/=0, take file _WFK from output of DATASET   1.

 Exchange-correlation functional for the present dataset will be:
  GGA: Perdew-Burke-Ernzerhof functional - ixc=11
 Citation for XC functional:
  J.P.Perdew, K.Burke, M.Ernzerhof, PRL 77, 3865 (1996)

 Real(R)+Recip(G) space primitive vectors, cartesian coordinates (Bohr,Bohr^-1):
 R(1)= 10.0000000  0.0000000  0.0000000  G(1)=  0.1000000  0.0000000  0.0000000
 R(2)=  0.0000000  6.0000000  0.0000000  G(2)=  0.0000000  0.1666667  0.0000000
 R(3)=  0.0000000  0.0000000  6.0000000  G(3)=  0.0000000  0.0000000  0.1666667
 Unit cell volume ucvol=  3.6000000E+02 bohr^3
 Angles (23,13,12)=  9.00000000E+01  9.00000000E+01  9.00000000E+01 degrees

 getcut: wavevector=  0.0000  0.0000  0.0000  ngfft=  24  16  16
         ecut(hartree)=      7.000   => boxcut(ratio)=   2.01510
--------------------------------------------------------------------------------

-inwffil : will read wavefunctions from disk file t17o_DS1_WFK
_setup2: Arith. and geom. avg. npw (full set) are     303.000     303.000

================================================================================

--- !BeginCycle
iteration_state: {dtset: 3, }
solver: {iscf: 7, nstep: 25, nline: 4, wfoptalg: 0, }
tolerances: {tolvrs: 1.00E-15, }
...

     iter   Etot(hartree)      deltaE(h)  residm     vres2
 ETOT  1  -8.8184161798745    -8.818E+00 7.111E-14 4.687E-04
 ETOT  2  -8.8184163274025    -1.475E-07 1.665E-15 2.220E-05
 ETOT  3  -8.8184163341949    -6.792E-09 3.757E-10 5.348E-08
 ETOT  4  -8.8184163342133    -1.841E-11 1.240E-12 5.271E-10
 ETOT  5  -8.8184163342137    -3.713E-13 1.501E-14 2.483E-11
 ETOT  6  -8.8184163342137    -1.776E-15 5.334E-16 7.017E-12
 ETOT  7  -8.8184163342137     1.776E-15 2.326E-17 2.882E-13
 ETOT  8  -8.8184163342137    -1.421E-14 3.836E-18 9.571E-14
 ETOT  9  -8.8184163342137     3.730E-14 1.452E-18 3.544E-15
 ETOT 10  -8.8184163342137    -3.553E-15 3.933E-20 1.031E-16

 At SCF step   10       vres2   =  1.03E-16 < tolvrs=  1.00E-15 =>converged.

 Cartesian components of stress tensor (hartree/bohr^3)
  sigma(1 1)= -1.74200245E-04  sigma(3 2)=  0.00000000E+00
  sigma(2 2)=  6.09376291E-04  sigma(3 1)=  0.00000000E+00
  sigma(3 3)=  6.09376291E-04  sigma(2 1)=  0.00000000E+00


--- !ResultsGS
iteration_state: {dtset: 3, }
comment   : Summary of ground state results
lattice_vectors:
- [ 10.0000000,   0.0000000,   0.0000000, ]
- [  0.0000000,   6.0000000,   0.0000000, ]
- [  0.0000000,   0.0000000,   6.0000000, ]
lattice_lengths: [  10.00000,    6.00000,    6.00000, ]
lattice_angles: [ 90.000,  90.000,  90.000, ] # degrees, (23, 13, 12)
lattice_volume:   3.6000000E+02
convergence: {deltae: -3.553E-15, res2:  1.031E-16, residm:  3.933E-20, diffor: null, }
etotal    :  -8.81841633E+00
entropy   :   0.00000000E+00
fermie    :   1.97197772E-01
cartesian_stress_tensor: # hartree/bohr^3
- [ -1.74200245E-04,   0.00000000E+00,   0.00000000E+00, ]
- [  0.00000000E+00,   6.09376291E-04,   0.00000000E+00, ]
- [  0.00000000E+00,   0.00000000E+00,   6.09376291E-04, ]
pressure_GPa:  -1.0244E+01
xred      :
- [ -2.1225E-01,   0.0000E+00,   0.0000E+00, Si]
- [  2.1220E-01,   0.0000E+00,   0.0000E+00, Si]
cartesian_forces: # hartree/bohr
- [ -3.18929853E-02,  -0.00000000E+00,  -0.00000000E+00, ]
- [  3.18929853E-02,  -0.00000000E+00,  -0.00000000E+00, ]
force_length_stats: {min:   3.18929853E-02, max:   3.18929853E-02, mean:   3.18929853E-02, }
...

 Integrated electronic and magnetization densities in atomic spheres:
 ---------------------------------------------------------------------
 Radius=ratsph(iatom), smearing ratsm=  0.0000. Diff(up-dn)=approximate z local magnetic moment.
 Atom    Radius    up_density   dn_density  Total(up+dn)  Diff(up-dn)
    1   2.00000     1.025508     0.578299      1.603806     0.447209
    2   2.00000     1.025430     0.578278      1.603709     0.447152
 ---------------------------------------------------------------------
  Sum:              2.050938     1.156577      3.207515     0.894361
 Total magnetization (from the atomic spheres):             0.894361
 Total magnetization (exact up - dn):                       2.000000
================================================================================

 ----iterations are completed or convergence reached----

 Mean square residual over all n,k,spin=   98.572E-22; max=  39.325E-21
 reduced coordinates (array xred) for    2 atoms
      -0.212250000000      0.000000000000      0.000000000000
       0.212200000000      0.000000000000      0.000000000000
 rms dE/dt=  1.8413E-01; max dE/dt=  3.1893E-01; dE/dt below (all hartree)
    1       0.318929853323      0.000000000000      0.000000000000
    2      -0.318929853323      0.000000000000      0.000000000000

 cartesian coordinates (angstrom) at end:
    1     -1.12317862523227     0.00000000000000     0.00000000000000
    2      1.12291403662798     0.00000000000000     0.00000000000000

 cartesian forces (hartree/bohr) at end:
    1     -0.03189298533232    -0.00000000000000    -0.00000000000000
    2      0.03189298533232    -0.00000000000000    -0.00000000000000
 frms,max,avg= 1.8413424E-02 3.1892985E-02   0.000E+00  0.000E+00  0.000E+00 h/b

 cartesian forces (eV/Angstrom) at end:
    1     -1.64000310714705    -0.00000000000000    -0.00000000000000
    2      1.64000310714705    -0.00000000000000    -0.00000000000000
 frms,max,avg= 9.4685624E-01 1.6400031E+00   0.000E+00  0.000E+00  0.000E+00 e/A
 length scales= 10.000000000000  6.000000000000  6.000000000000 bohr
              =  5.291772085900  3.175063251540  3.175063251540 angstroms
 prteigrs : about to open file t17o_DS3_EIG
 Fermi (or HOMO) energy (hartree) =   0.19720   Average Vxc (hartree)=  -0.31345
 Eigenvalues (hartree) for nkpt=   1  k points, SPIN UP:
 kpt#   1, nband=  5, wtk=  1.00000, kpt=  0.0000  0.0000  0.0000 (reduced coord)
  -0.27551   -0.09897   -0.02195    0.19720    0.19720
 Eigenvalues (hartree) for nkpt=   1  k points, SPIN DOWN:
 kpt#   1, nband=  3, wtk=  1.00000, kpt=  0.0000  0.0000  0.0000 (reduced coord)
  -0.23611   -0.06191   -0.00234

--- !EnergyTerms
iteration_state     : {dtset: 3, }
comment             : Components of total free energy in Hartree
kinetic             :  2.69783509145039E+00
hartree             :  5.51534149443188E-01
xc                  : -3.39229823236623E+00
Ewald energy        : -7.74583569100403E+00
psp_core            :  6.37275476174552E-02
local_psp           : -2.92255833159205E+00
non_local_psp       :  1.92917913223761E+00
total_energy        : -8.81841633421367E+00
total_energy_eV     : -2.39961311907582E+02
band_energy         : -3.02394129800507E-01
...


 Cartesian components of stress tensor (hartree/bohr^3)
  sigma(1 1)= -1.74200245E-04  sigma(3 2)=  0.00000000E+00
  sigma(2 2)=  6.09376291E-04  sigma(3 1)=  0.00000000E+00
  sigma(3 3)=  6.09376291E-04  sigma(2 1)=  0.00000000E+00

-Cartesian components of stress tensor (GPa)         [Pressure= -1.0244E+01 GPa]
- sigma(1 1)= -5.12514729E+00  sigma(3 2)=  0.00000000E+00
- sigma(2 2)=  1.79284664E+01  sigma(3 1)=  0.00000000E+00
- sigma(3 3)=  1.79284664E+01  sigma(2 1)=  0.00000000E+00

================================================================================
== DATASET  4 ==================================================================
-   mpi_nproc: 1, omp_nthreads: -1 (-1 if OMP is not activated)


--- !DatasetInfo
iteration_state: {dtset: 4, }
dimensions: {natom: 2, nkpt: 1, mband: 5, nsppol: 2, nspinor: 1, nspden: 2, mpw: 303, }
cutoff_energies: {ecut:   7.0, pawecutdg:  -1.0, }
electrons: {nelect:   8.00000000E+00, charge:   0.00000000E+00, occopt:   2.00000000E+00, tsmear:   1.00000000E-02, }
meta: {optdriver: 1, rfphon: 1, }
...

 mkfilename : getwfk/=0, take file _WFK from output of DATASET   1.

 Exchange-correlation functional for the present dataset will be:
  GGA: Perdew-Burke-Ernzerhof functional - ixc=11
 Citation for XC functional:
  J.P.Perdew, K.Burke, M.Ernzerhof, PRL 77, 3865 (1996)

 Real(R)+Recip(G) space primitive vectors, cartesian coordinates (Bohr,Bohr^-1):
 R(1)= 10.0000000  0.0000000  0.0000000  G(1)=  0.1000000  0.0000000  0.0000000
 R(2)=  0.0000000  6.0000000  0.0000000  G(2)=  0.0000000  0.1666667  0.0000000
 R(3)=  0.0000000  0.0000000  6.0000000  G(3)=  0.0000000  0.0000000  0.1666667
 Unit cell volume ucvol=  3.6000000E+02 bohr^3
 Angles (23,13,12)=  9.00000000E+01  9.00000000E+01  9.00000000E+01 degrees
 setup1 : take into account q-point for computing boxcut.

 getcut: wavevector=  0.0000  0.0000  0.0000  ngfft=  24  16  16
         ecut(hartree)=      7.000   => boxcut(ratio)=   2.01510
--------------------------------------------------------------------------------

-inwffil : will read wavefunctions from disk file t17o_DS1_WFK

 ==>  initialize data related to q vector <== 

 The list of irreducible perturbations for this q vector is:
    1)    idir= 1    ipert=   1

================================================================================

 The perturbation idir=   1  ipert=   2 is
 symmetric of a previously calculated perturbation.
 So, its SCF calculation is not needed.


--------------------------------------------------------------------------------
 Perturbation wavevector (in red.coord.)   0.000000  0.000000  0.000000
 Perturbation : displacement of atom   1   along direction   1
 Found     8 symmetries that leave the perturbation invariant.
 symkpt : not enough symmetry to change the number of k points.

--------------------------------------------------------------------------------

-inwffil : will read wavefunctions from disk file t17o_DS1_WFK
--------------------------------------------------------------------------------

 Initialisation of the first-order wave-functions :
  ireadwf=   0

--- !BeginCycle
iteration_state: {dtset: 4, }
solver: {iscf: 7, nstep: 25, nline: 4, wfoptalg: 0, }
tolerances: {tolvrs: 1.00E-06, }
...

     iter   2DEtotal(Ha)        deltaE(Ha) residm    vres2
-ETOT  1   164.26134056725      2.556E+01 6.768E-02 2.267E+05
 ETOT  2   22.868634371113     -1.414E+02 9.252E-02 1.725E+04
 ETOT  3   12.932184179915     -9.936E+00 7.671E-03 3.155E+03
 ETOT  4   10.581802546480     -2.350E+00 4.016E-04 2.159E+01
 ETOT  5   10.569466298619     -1.234E-02 1.387E-05 4.251E+00
 ETOT  6   10.566066802023     -3.399E-03 1.205E-06 2.136E-01
 ETOT  7   10.565858878968     -2.079E-04 1.566E-07 3.415E-02
 ETOT  8   10.565846936806     -1.194E-05 2.957E-08 2.093E-02
 ETOT  9   10.565831513115     -1.542E-05 1.322E-08 3.563E-04
 ETOT 10   10.565831373600     -1.395E-07 4.222E-10 1.749E-04
 ETOT 11   10.565831242019     -1.316E-07 1.582E-11 4.599E-06
 ETOT 12   10.565831239066     -2.953E-09 5.972E-13 1.389E-07

 At SCF step   12       vres2   =  1.39E-07 < tolvrs=  1.00E-06 =>converged.
================================================================================

 ----iterations are completed or convergence reached----

 Mean square residual over all n,k,spin=   34.238E-14; max=  59.717E-14

 Thirteen components of 2nd-order total energy (hartree) are
 1,2,3: 0th-order hamiltonian combined with 1st-order wavefunctions
     kin0=   1.56881310E+02 eigvalue=  -1.03133723E+01  local=  -1.09634962E+02
 4,5,6: 1st-order hamiltonian combined with 1st and 0th-order wfs
 loc psp =  -1.21475442E+02  Hartree=   5.54855339E+01     xc=  -1.54904561E+01
 note that "loc psp" includes a xc core correction that could be resolved
 7,8,9: eventually, occupation + non-local contributions
    edocc=   0.00000000E+00     enl0=   5.12037692E+01   enl1=  -1.34788342E+02
 1-9 gives the relaxation energy (to be shifted if some occ is /=2.0)
   erelax=  -1.28131961E+02
 10,11,12 Non-relaxation  contributions : frozen-wavefunctions and Ewald
 fr.local=  -2.11580649E+01 fr.nonlo=   8.64218209E+01  Ewald=   7.64424246E+01
 13,14 Frozen wf xc core corrections (1) and (2)
 frxc 1  =  -1.67709152E+01  frxc 2 =   1.37625266E+01
 Resulting in :
 2DEtotal=    0.1056583124E+02 Ha. Also 2DEtotal=    0.287510889646E+03 eV
    (2DErelax=   -1.2813196080E+02 Ha. 2DEnonrelax=    1.3869779204E+02 Ha)
    (  non-var. 2DEtotal :    1.0565900179E+01 Ha)

================================================================================

 ---- first-order wavefunction calculations are completed ----


 ==> Compute Derivative Database <==
  
  2nd-order matrix (non-cartesian coordinates, masses not included,
   asr not included )
     j1       j2             matrix element
  dir pert dir pert     real part     imaginary part
  
   1    1   1    1        10.5659001790         0.0000000000
   1    1   2    1        -0.0000000000         0.0000000000
   1    1   3    1         0.0000000000         0.0000000000
   1    1   1    2       -10.5651897975        -0.0000000000
   1    1   2    2         0.0000000000         0.0000000000
   1    1   3    2         0.0000000000         0.0000000000
   1    1   2    4         0.0000000000         0.0000000000
   1    1   3    4         0.0000000000         0.0000000000
  
   2    1   1    1        -0.0000000000         0.0000000000
   2    1   3    1        -0.0000000000         0.0000000000
   2    1   1    2         0.0000000000         0.0000000000
   2    1   3    2         0.0000000000        -0.0000000000
   2    1   1    4         0.0000000000         0.0000000000
   2    1   3    4         0.0000000000         0.0000000000
  
   3    1   1    1         0.0000000000         0.0000000000
   3    1   2    1        -0.0000000000         0.0000000000
   3    1   1    2         0.0000000000         0.0000000000
   3    1   2    2         0.0000000000        -0.0000000000
   3    1   1    4         0.0000000000         0.0000000000
   3    1   2    4         0.0000000000         0.0000000000
  
   1    2   1    1       -10.5651897975         0.0000000000
   1    2   2    1         0.0000000000        -0.0000000000
   1    2   3    1         0.0000000000        -0.0000000000
   1    2   1    2        10.5659001790         0.0000000000
   1    2   2    2        -0.0000000000         0.0000000000
   1    2   3    2         0.0000000000         0.0000000000
   1    2   2    4         0.0000000000         0.0000000000
   1    2   3    4         0.0000000000         0.0000000000
  
   2    2   1    1         0.0000000000        -0.0000000000
   2    2   3    1         0.0000000000         0.0000000000
   2    2   1    2        -0.0000000000         0.0000000000
   2    2   3    2        -0.0000000000         0.0000000000
   2    2   1    4         0.0000000000         0.0000000000
   2    2   3    4         0.0000000000         0.0000000000
  
   3    2   1    1         0.0000000000        -0.0000000000
   3    2   2    1         0.0000000000         0.0000000000
   3    2   1    2         0.0000000000         0.0000000000
   3    2   2    2        -0.0000000000         0.0000000000
   3    2   1    4         0.0000000000         0.0000000000
   3    2   2    4         0.0000000000         0.0000000000
  
   1    4   2    1         0.0000000000         0.0000000000
   1    4   3    1         0.0000000000         0.0000000000
   1    4   2    2         0.0000000000         0.0000000000
   1    4   3    2         0.0000000000         0.0000000000
   1    4   2    4         0.0000000000         0.0000000000
   1    4   3    4         0.0000000000         0.0000000000
  
   2    4   1    1         0.0000000000         0.0000000000
   2    4   3    1         0.0000000000         0.0000000000
   2    4   1    2         0.0000000000         0.0000000000
   2    4   3    2         0.0000000000         0.0000000000
   2    4   1    4         0.0000000000         0.0000000000
   2    4   3    4         0.0000000000         0.0000000000
  
   3    4   1    1         0.0000000000         0.0000000000
   3    4   2    1         0.0000000000         0.0000000000
   3    4   1    2         0.0000000000         0.0000000000
   3    4   2    2         0.0000000000         0.0000000000
   3    4   1    4         0.0000000000         0.0000000000
   3    4   2    4         0.0000000000         0.0000000000
  
  
  Dynamical matrix, in cartesian coordinates,
   if specified in the inputs, asr has been imposed
     j1       j2             matrix element
  dir pert dir pert     real part    imaginary part
  
   1    1   1    1         0.1056590018         0.0000000000
   1    1   2    1        -0.0000000000         0.0000000000
   1    1   3    1         0.0000000000         0.0000000000
   1    1   1    2        -0.1056518980        -0.0000000000
   1    1   2    2         0.0000000000         0.0000000000
   1    1   3    2         0.0000000000         0.0000000000
  
   2    1   1    1        -0.0000000000         0.0000000000
   2    1   3    1        -0.0000000000         0.0000000000
   2    1   1    2         0.0000000000         0.0000000000
   2    1   3    2         0.0000000000        -0.0000000000
  
   3    1   1    1         0.0000000000         0.0000000000
   3    1   2    1        -0.0000000000         0.0000000000
   3    1   1    2         0.0000000000         0.0000000000
   3    1   2    2         0.0000000000        -0.0000000000
  
   1    2   1    1        -0.1056518980         0.0000000000
   1    2   2    1         0.0000000000        -0.0000000000
   1    2   3    1         0.0000000000        -0.0000000000
   1    2   1    2         0.1056590018         0.0000000000
   1    2   2    2        -0.0000000000         0.0000000000
   1    2   3    2         0.0000000000         0.0000000000
  
   2    2   1    1         0.0000000000        -0.0000000000
   2    2   3    1         0.0000000000         0.0000000000
   2    2   1    2        -0.0000000000         0.0000000000
   2    2   3    2        -0.0000000000         0.0000000000
  
   3    2   1    1         0.0000000000        -0.0000000000
   3    2   2    1         0.0000000000         0.0000000000
   3    2   1    2         0.0000000000         0.0000000000
   3    2   2    2        -0.0000000000         0.0000000000

  Phonon wavevector (reduced coordinates) :  0.00000  0.00000  0.00000
 Phonon energies in Hartree :
   0.000000E+00  0.000000E+00  0.000000E+00  0.000000E+00  1.177944E-05
   2.031608E-03
 Phonon frequencies in cm-1    :
-  0.000000E+00  0.000000E+00  0.000000E+00  0.000000E+00  2.585289E+00
-  4.458863E+02
 chkph3 : WARNING -
  The dynamical matrix was incomplete : phonon frequencies may be wrong ...

== END DATASET(S) ==============================================================
================================================================================
  
 -outvars: echo values of variables after computation  --------
            acell      1.0000000000E+01  6.0000000000E+00  6.0000000000E+00 Bohr
              amu      2.80855000E+01
      chksymbreak           0
           diemac      1.00000000E+00
           diemix      3.33333333E-01
             ecut      7.00000000E+00 Hartree
           etotal1    -8.8184003745E+00
           etotal2    -8.8183843884E+00
           etotal3    -8.8184163342E+00
           etotal4     1.0565831239E+01
            fcart1    -3.1945779399E-02 -0.0000000000E+00 -0.0000000000E+00
                       3.1945779399E-02 -0.0000000000E+00 -0.0000000000E+00
            fcart2    -3.1998640198E-02 -0.0000000000E+00 -0.0000000000E+00
                       3.1998640198E-02 -0.0000000000E+00 -0.0000000000E+00
            fcart3    -3.1892985332E-02 -0.0000000000E+00 -0.0000000000E+00
                       3.1892985332E-02 -0.0000000000E+00 -0.0000000000E+00
            fcart4     0.0000000000E+00  0.0000000000E+00  0.0000000000E+00
                       0.0000000000E+00  0.0000000000E+00  0.0000000000E+00
-          fftalg         312
           getwfk1          0
           getwfk2          1
           getwfk3          1
           getwfk4          1
           istwfk1       2
           istwfk2       2
           istwfk3       2
           istwfk4       1
              ixc          11
           jdtset        1    2    3    4
           kptopt           0
P           mkmem           1
P          mkqmem           1
P          mk1mem           1
            natom           2
            nband           5       3
           ndtset           4
            ngfft          24      16      16
             nkpt           1
             nqpt1          0
             nqpt2          0
             nqpt3          0
             nqpt4          1
           nspden           2
           nsppol           2
            nstep          25
             nsym          16
           ntypat           1
              occ      1.000000  1.000000  1.000000  1.000000  1.000000
                       1.000000  1.000000  1.000000
           occopt           2
        optdriver1          0
        optdriver2          0
        optdriver3          0
        optdriver4          1
          rfatpol1          1       1
          rfatpol2          1       1
          rfatpol3          1       1
          rfatpol4          1       2
            rfdir1          0       0       0
            rfdir2          0       0       0
            rfdir3          0       0       0
            rfdir4          1       0       0
           rfphon1          0
           rfphon2          0
           rfphon3          0
           rfphon4          1
          spgroup         123
           strten1    -1.7478440060E-04  6.0937217110E-04  6.0937217110E-04
                       0.0000000000E+00  0.0000000000E+00  0.0000000000E+00
           strten2    -1.7536914016E-04  6.0936805152E-04  6.0936805152E-04
                       0.0000000000E+00  0.0000000000E+00  0.0000000000E+00
           strten3    -1.7420024486E-04  6.0937629061E-04  6.0937629061E-04
                       0.0000000000E+00  0.0000000000E+00  0.0000000000E+00
           strten4     0.0000000000E+00  0.0000000000E+00  0.0000000000E+00
                       0.0000000000E+00  0.0000000000E+00  0.0000000000E+00
           symrel      1  0  0   0  1  0   0  0  1      -1  0  0   0 -1  0   0  0 -1
                      -1  0  0   0 -1  0   0  0  1       1  0  0   0  1  0   0  0 -1
                       1  0  0   0 -1  0   0  0 -1      -1  0  0   0  1  0   0  0  1
                      -1  0  0   0  1  0   0  0 -1       1  0  0   0 -1  0   0  0  1
                       1  0  0   0  0  1   0  1  0      -1  0  0   0  0 -1   0 -1  0
                      -1  0  0   0  0 -1   0  1  0       1  0  0   0  0  1   0 -1  0
                       1  0  0   0  0 -1   0 -1  0      -1  0  0   0  0  1   0  1  0
                      -1  0  0   0  0  1   0 -1  0       1  0  0   0  0 -1   0  1  0
            tnons1     0.0000000  0.0000000  0.0000000     0.0000000  0.0000000  0.0000000
                       0.0000000  0.0000000  0.0000000     0.0000000  0.0000000  0.0000000
                       0.0000000  0.0000000  0.0000000     0.0000000  0.0000000  0.0000000
                       0.0000000  0.0000000  0.0000000     0.0000000  0.0000000  0.0000000
                       0.0000000  0.0000000  0.0000000     0.0000000  0.0000000  0.0000000
                       0.0000000  0.0000000  0.0000000     0.0000000  0.0000000  0.0000000
                       0.0000000  0.0000000  0.0000000     0.0000000  0.0000000  0.0000000
                       0.0000000  0.0000000  0.0000000     0.0000000  0.0000000  0.0000000
            tnons2     0.0000000  0.0000000  0.0000000     0.0000500  0.0000000  0.0000000
                       0.0000500  0.0000000  0.0000000     0.0000000  0.0000000  0.0000000
                       0.0000000  0.0000000  0.0000000     0.0000500  0.0000000  0.0000000
                       0.0000500  0.0000000  0.0000000     0.0000000  0.0000000  0.0000000
                       0.0000000  0.0000000  0.0000000     0.0000500  0.0000000  0.0000000
                       0.0000500  0.0000000  0.0000000     0.0000000  0.0000000  0.0000000
                       0.0000000  0.0000000  0.0000000     0.0000500  0.0000000  0.0000000
                       0.0000500  0.0000000  0.0000000     0.0000000  0.0000000  0.0000000
            tnons3     0.0000000  0.0000000  0.0000000    -0.0000500  0.0000000  0.0000000
                      -0.0000500  0.0000000  0.0000000     0.0000000  0.0000000  0.0000000
                       0.0000000  0.0000000  0.0000000    -0.0000500  0.0000000  0.0000000
                      -0.0000500  0.0000000  0.0000000     0.0000000  0.0000000  0.0000000
                       0.0000000  0.0000000  0.0000000    -0.0000500  0.0000000  0.0000000
                      -0.0000500  0.0000000  0.0000000     0.0000000  0.0000000  0.0000000
                       0.0000000  0.0000000  0.0000000    -0.0000500  0.0000000  0.0000000
                      -0.0000500  0.0000000  0.0000000     0.0000000  0.0000000  0.0000000
            tnons4     0.0000000  0.0000000  0.0000000     0.0000000  0.0000000  0.0000000
                       0.0000000  0.0000000  0.0000000     0.0000000  0.0000000  0.0000000
                       0.0000000  0.0000000  0.0000000     0.0000000  0.0000000  0.0000000
                       0.0000000  0.0000000  0.0000000     0.0000000  0.0000000  0.0000000
                       0.0000000  0.0000000  0.0000000     0.0000000  0.0000000  0.0000000
                       0.0000000  0.0000000  0.0000000     0.0000000  0.0000000  0.0000000
                       0.0000000  0.0000000  0.0000000     0.0000000  0.0000000  0.0000000
                       0.0000000  0.0000000  0.0000000     0.0000000  0.0000000  0.0000000
           tolvrs1     1.00000000E-15
           tolvrs2     1.00000000E-15
           tolvrs3     1.00000000E-15
           tolvrs4     1.00000000E-06
            typat      1  1
           xangst1    -1.1229140366E+00  0.0000000000E+00  0.0000000000E+00
                       1.1229140366E+00  0.0000000000E+00  0.0000000000E+00
           xangst2    -1.1226494480E+00  0.0000000000E+00  0.0000000000E+00
                       1.1229140366E+00  0.0000000000E+00  0.0000000000E+00
           xangst3    -1.1231786252E+00  0.0000000000E+00  0.0000000000E+00
                       1.1229140366E+00  0.0000000000E+00  0.0000000000E+00
           xangst4    -1.1229140366E+00  0.0000000000E+00  0.0000000000E+00
                       1.1229140366E+00  0.0000000000E+00  0.0000000000E+00
            xcart1    -2.1220000000E+00  0.0000000000E+00  0.0000000000E+00
                       2.1220000000E+00  0.0000000000E+00  0.0000000000E+00
            xcart2    -2.1215000000E+00  0.0000000000E+00  0.0000000000E+00
                       2.1220000000E+00  0.0000000000E+00  0.0000000000E+00
            xcart3    -2.1225000000E+00  0.0000000000E+00  0.0000000000E+00
                       2.1220000000E+00  0.0000000000E+00  0.0000000000E+00
            xcart4    -2.1220000000E+00  0.0000000000E+00  0.0000000000E+00
                       2.1220000000E+00  0.0000000000E+00  0.0000000000E+00
             xred1    -2.1220000000E-01  0.0000000000E+00  0.0000000000E+00
                       2.1220000000E-01  0.0000000000E+00  0.0000000000E+00
             xred2    -2.1215000000E-01  0.0000000000E+00  0.0000000000E+00
                       2.1220000000E-01  0.0000000000E+00  0.0000000000E+00
             xred3    -2.1225000000E-01  0.0000000000E+00  0.0000000000E+00
                       2.1220000000E-01  0.0000000000E+00  0.0000000000E+00
             xred4    -2.1220000000E-01  0.0000000000E+00  0.0000000000E+00
                       2.1220000000E-01  0.0000000000E+00  0.0000000000E+00
            znucl       14.00000

================================================================================


- Timing analysis has been suppressed with timopt=0



================================================================================

 Suggested references for the acknowledgment of ABINIT usage.

 The users of ABINIT have little formal obligations with respect to the ABINIT group
 (those specified in the GNU General Public License, http://www.gnu.org/copyleft/gpl.txt).
 However, it is common practice in the scientific literature,
 to acknowledge the efforts of people that have made the research possible.
 In this spirit, please find below suggested citations of work written by ABINIT developers,
 corresponding to implementations inside of ABINIT that you have used in the present run.
 Note also that it will be of great value to readers of publications presenting these results,
 to read papers enabling them to understand the theoretical formalism and details
 of the ABINIT implementation.
 For information on why they are suggested, see also https://docs.abinit.org/theory/acknowledgments.
-
- [1] The Abinit project: Impact, environment and recent developments.
- Computer Phys. Comm. 248, 107042 (2020).
- X.Gonze, B. Amadon, G. Antonius, F.Arnardi, L.Baguet, J.-M.Beuken,
- J.Bieder, F.Bottin, J.Bouchet, E.Bousquet, N.Brouwer, F.Bruneval,
- G.Brunin, T.Cavignac, J.-B. Charraud, Wei Chen, M.Cote, S.Cottenier,
- J.Denier, G.Geneste, Ph.Ghosez, M.Giantomassi, Y.Gillet, O.Gingras,
- D.R.Hamann, G.Hautier, Xu He, N.Helbig, N.Holzwarth, Y.Jia, F.Jollet,
- W.Lafargue-Dit-Hauret, K.Lejaeghere, M.A.L.Marques, A.Martin, C.Martins,
- H.P.C. Miranda, F.Naccarato, K. Persson, G.Petretto, V.Planes, Y.Pouillon,
- S.Prokhorenko, F.Ricci, G.-M.Rignanese, A.H.Romero, M.M.Schmitt, M.Torrent,
- M.J.van Setten, B.Van Troeye, M.J.Verstraete, G.Zerah and J.W.Zwanzig
- Comment: the fifth generic paper describing the ABINIT project.
- Note that a version of this paper, that is not formatted for Computer Phys. Comm. 
- is available at https://www.abinit.org/sites/default/files/ABINIT20.pdf .
- The licence allows the authors to put it on the Web.
- DOI and bibtex: see https://docs.abinit.org/theory/bibliography/#gonze2020
-
- [2] First-principles responses of solids to atomic displacements and homogeneous electric fields:,
- implementation of a conjugate-gradient algorithm. X. Gonze, Phys. Rev. B55, 10337 (1997).
- Comment: Non-vanishing rfphon and/or rfelfd, in the norm-conserving case.
- DOI and bibtex: see https://docs.abinit.org/theory/bibliography/#gonze1997
-
- [3] Dynamical matrices, Born effective charges, dielectric permittivity tensors, and ,
- interatomic force constants from density-functional perturbation theory,
- X. Gonze and C. Lee, Phys. Rev. B55, 10355 (1997).
- Comment: Non-vanishing rfphon and/or rfelfd, in the norm-conserving case.
- DOI and bibtex: see https://docs.abinit.org/theory/bibliography/#gonze1997a
-
- [4] Recent developments in the ABINIT software package.
- Computer Phys. Comm. 205, 106 (2016).
- X.Gonze, F.Jollet, F.Abreu Araujo, D.Adams, B.Amadon, T.Applencourt,
- C.Audouze, J.-M.Beuken, J.Bieder, A.Bokhanchuk, E.Bousquet, F.Bruneval
- D.Caliste, M.Cote, F.Dahm, F.Da Pieve, M.Delaveau, M.Di Gennaro,
- B.Dorado, C.Espejo, G.Geneste, L.Genovese, A.Gerossier, M.Giantomassi,
- Y.Gillet, D.R.Hamann, L.He, G.Jomard, J.Laflamme Janssen, S.Le Roux,
- A.Levitt, A.Lherbier, F.Liu, I.Lukacevic, A.Martin, C.Martins,
- M.J.T.Oliveira, S.Ponce, Y.Pouillon, T.Rangel, G.-M.Rignanese,
- A.H.Romero, B.Rousseau, O.Rubel, A.A.Shukri, M.Stankovski, M.Torrent,
- M.J.Van Setten, B.Van Troeye, M.J.Verstraete, D.Waroquier, J.Wiktor,
- B.Xu, A.Zhou, J.W.Zwanziger.
- Comment: the fourth generic paper describing the ABINIT project.
- Note that a version of this paper, that is not formatted for Computer Phys. Comm. 
- is available at https://www.abinit.org/sites/default/files/ABINIT16.pdf .
- The licence allows the authors to put it on the Web.
- DOI and bibtex: see https://docs.abinit.org/theory/bibliography/#gonze2016
-
- [5] ABINIT: First-principles approach of materials and nanosystem properties.
- Computer Phys. Comm. 180, 2582-2615 (2009).
- X. Gonze, B. Amadon, P.-M. Anglade, J.-M. Beuken, F. Bottin, P. Boulanger, F. Bruneval,
- D. Caliste, R. Caracas, M. Cote, T. Deutsch, L. Genovese, Ph. Ghosez, M. Giantomassi
- S. Goedecker, D.R. Hamann, P. Hermet, F. Jollet, G. Jomard, S. Leroux, M. Mancini, S. Mazevet,
- M.J.T. Oliveira, G. Onida, Y. Pouillon, T. Rangel, G.-M. Rignanese, D. Sangalli, R. Shaltaf,
- M. Torrent, M.J. Verstraete, G. Zerah, J.W. Zwanziger
- Comment: the third generic paper describing the ABINIT project.
- Note that a version of this paper, that is not formatted for Computer Phys. Comm. 
- is available at https://www.abinit.org/sites/default/files/ABINIT_CPC_v10.pdf .
- The licence allows the authors to put it on the Web.
- DOI and bibtex: see https://docs.abinit.org/theory/bibliography/#gonze2009
-
- Proc.   0 individual time (sec): cpu=          2.6  wall=          3.1

================================================================================

 Calculation completed.
.Delivered  14 WARNINGs and   8 COMMENTs to log file.
+Overall time at end (sec) : cpu=          2.6  wall=          3.1
