
.Version 10.5.8.2 of ABINIT, released Oct 2025.
.(MPI version, prepared for a x86_64_linux_gnu13.2 computer) 

.Copyright (C) 1998-2026 ABINIT group . 
 ABINIT comes with ABSOLUTELY NO WARRANTY.
 It is free software, and you are welcome to redistribute it
 under certain conditions (GNU General Public License,
 see ~abinit/COPYING or http://www.gnu.org/copyleft/gpl.txt).

 ABINIT is a project of the Universite Catholique de Louvain,
 Corning Inc. and other collaborators, see ~abinit/doc/developers/contributors.txt .
 Please read https://docs.abinit.org/theory/acknowledgments for suggested
 acknowledgments of the ABINIT effort.
 For more information, see https://www.abinit.org .

.Starting date : Sat 20 Dec 2025.
- ( at 17h11 )
  
- input  file    -> /home/buildbot/ABINIT3/eos_gnu_13.2_mpich/trunk__codata2022/tests/TestBot_MPI1/v3_t40/t40.abi
- output file    -> t40.abo
- root for input  files -> t40i
- root for output files -> t40o

 Symmetries : space group P4 m m (# 99); Bravais tP (primitive tetrag.)
================================================================================
 Values of the parameters that define the memory need of the present run
     intxc =       0    ionmov =       1      iscf =       7    lmnmax =       2
     lnmax =       2     mgfft =      48  mpssoang =       3    mqgrid =    3001
     natom =       8  nloc_mem =       1    nspden =       1   nspinor =       1
    nsppol =       1      nsym =       8    n1xccc =    2501    ntypat =       1
    occopt =       3   xclevel =       1
-    mband =          20        mffmem =           1         mkmem =           1
       mpw =          88          nfft =        3072          nkpt =           1
================================================================================
P This job should need less than                       2.330 Mbytes of memory.
P Max. in main chain + fourwf.f
P            6 blocks of mpw  integer numbers, for      0.002 Mbytes.
P           69 blocks of mpw  real(dp)  numbers, for      0.046 Mbytes.
P            2 blocks of nfft integer numbers, for      0.023 Mbytes.
P           39 blocks of nfft real(dp)  numbers, for      0.914 Mbytes.
P              Additional     real(dp)  numbers, for      0.368 Mbytes.
P              With residue estimated to be             0.976 Mbytes.
P
P Comparison of the memory needs of different chains
P Main chain + fourwf.f                 2.330 Mbytes.
P Main chain + nonlop.f + opernl.f      2.310 Mbytes.
P XC chain                              2.065 Mbytes.
P mkrho chain                           2.107 Mbytes.
P fourdp chain                          2.079 Mbytes.
- parallel k-point chain                2.018 Mbytes.
P newvtr chain                          2.065 Mbytes.
  Rough estimation (10% accuracy) of disk space for files :
_ WF disk file :      0.029 Mbytes ; DEN or POT disk file :      0.025 Mbytes.
================================================================================

--------------------------------------------------------------------------------
------------- Echo of variables that govern the present computation ------------
--------------------------------------------------------------------------------
-
- outvars: echo of selected default values
-   iomode0 =  0 , fftalg0 =512 , wfoptalg0 =  0
-
- outvars: echo of global parameters not present in the input file
-  max_nthreads =    0
-
 -outvars: echo values of preprocessed input variables --------
            acell      5.0000000000E+00  3.0000000000E+01  5.0000000000E+00 Bohr
              amu      2.80855000E+01
            dtion      3.50000000E+02
             ecut      3.00000000E+00 Hartree
-          fftalg         512
           iatfix        1    2    3    4
           ionmov           1
           istwfk        2
           kptopt           0
P           mkmem           1
           natfix           4
            natom           8
            nband          20
           nconeq           1
            ngfft           8      48       8
             nkpt           1
            nline           6
            nstep         100
             nsym           8
            ntime          10
           ntypat           1
              occ      2.000000  2.000000  2.000000  2.000000  2.000000  2.000000
                       2.000000  2.000000  2.000000  2.000000  2.000000  2.000000
                       2.000000  2.000000  2.000000  2.000000  0.000000  0.000000
                       0.000000  0.000000
           occopt           3
        optforces           1
           prtvol          10
          spgroup          99
           symrel      1  0  0   0  1  0   0  0  1      -1  0  0   0  1  0   0  0  1
                      -1  0  0   0  1  0   0  0 -1       1  0  0   0  1  0   0  0 -1
                       0  0  1   0  1  0   1  0  0       0  0 -1   0  1  0   1  0  0
                       0  0 -1   0  1  0  -1  0  0       0  0  1   0  1  0  -1  0  0
           toldff      1.00000000E-05
           tolmxf      1.00000000E-03
           tsmear      4.00000000E-02 Hartree
            typat      1  1  1  1  1  1  1  1
          wtatcon      0.00000000E+00  0.00000000E+00  0.00000000E+00
                       0.00000000E+00  0.00000000E+00  0.00000000E+00
                       0.00000000E+00  0.00000000E+00  0.00000000E+00
                       0.00000000E+00  0.00000000E+00  0.00000000E+00
                       0.00000000E+00 -1.00000000E+00  0.00000000E+00
                       0.00000000E+00  1.00000000E+00  0.00000000E+00
                       0.00000000E+00  1.00000000E+00  0.00000000E+00
                       0.00000000E+00 -1.00000000E+00  0.00000000E+00
           xangst      0.0000000000E+00  5.2917721054E+00  0.0000000000E+00
                       0.0000000000E+00  6.8793037371E+00  0.0000000000E+00
                       0.0000000000E+00  8.4668353687E+00  0.0000000000E+00
                       0.0000000000E+00  1.0054367000E+01  0.0000000000E+00
                       0.0000000000E+00 -3.1750632633E+00  0.0000000000E+00
                       0.0000000000E+00 -1.0583544211E+00  0.0000000000E+00
                       0.0000000000E+00  3.4396518685E+00  0.0000000000E+00
                       0.0000000000E+00  1.3229430264E+00  0.0000000000E+00
            xcart      0.0000000000E+00  1.0000000000E+01  0.0000000000E+00
                       0.0000000000E+00  1.3000000000E+01  0.0000000000E+00
                       0.0000000000E+00  1.6000000000E+01  0.0000000000E+00
                       0.0000000000E+00  1.9000000000E+01  0.0000000000E+00
                       0.0000000000E+00 -6.0000000000E+00  0.0000000000E+00
                       0.0000000000E+00 -2.0000000000E+00  0.0000000000E+00
                       0.0000000000E+00  6.5000000000E+00  0.0000000000E+00
                       0.0000000000E+00  2.5000000000E+00  0.0000000000E+00
             xred      0.0000000000E+00  3.3333333333E-01  0.0000000000E+00
                       0.0000000000E+00  4.3333333333E-01  0.0000000000E+00
                       0.0000000000E+00  5.3333333333E-01  0.0000000000E+00
                       0.0000000000E+00  6.3333333333E-01  0.0000000000E+00
                       0.0000000000E+00 -2.0000000000E-01  0.0000000000E+00
                       0.0000000000E+00 -6.6666666667E-02  0.0000000000E+00
                       0.0000000000E+00  2.1666666667E-01  0.0000000000E+00
                       0.0000000000E+00  8.3333333333E-02  0.0000000000E+00
            znucl       14.00000

================================================================================

 chkinp: Checking input parameters for consistency.

================================================================================
== DATASET  1 ==================================================================
-   mpi_nproc: 1, omp_nthreads: -1 (-1 if OMP is not activated)


--- !DatasetInfo
iteration_state: {dtset: 1, }
dimensions: {natom: 8, nkpt: 1, mband: 20, nsppol: 1, nspinor: 1, nspden: 1, mpw: 88, }
cutoff_energies: {ecut:   3.0, pawecutdg:  -1.0, }
electrons: {nelect:   3.20000000E+01, charge:   0.00000000E+00, occopt:   3.00000000E+00, tsmear:   4.00000000E-02, }
meta: {optdriver: 0, ionmov: 1, optcell: 0, iscf: 7, paral_kgb: 0, }
...

 Exchange-correlation functional for the present dataset will be:
  LDA: new Teter (4/93) with spin-polarized option - ixc=1
 Citation for XC functional:
  S. Goedecker, M. Teter, J. Huetter, PRB 54, 1703 (1996)

 Real(R)+Recip(G) space primitive vectors, cartesian coordinates (Bohr,Bohr^-1):
 R(1)=  5.0000000  0.0000000  0.0000000  G(1)=  0.2000000  0.0000000  0.0000000
 R(2)=  0.0000000 30.0000000  0.0000000  G(2)=  0.0000000  0.0333333  0.0000000
 R(3)=  0.0000000  0.0000000  5.0000000  G(3)=  0.0000000  0.0000000  0.2000000
 Unit cell volume ucvol=  7.5000000E+02 bohr^3
 Angles (23,13,12)=  9.00000000E+01  9.00000000E+01  9.00000000E+01 degrees

 getcut: wavevector=  0.0000  0.0000  0.0000  ngfft=   8  48   8
         ecut(hartree)=      3.000   => boxcut(ratio)=   2.05208

--- Pseudopotential description ------------------------------------------------
- pspini: atom type   1  psp file is /home/buildbot/ABINIT3/eos_gnu_13.2_mpich/trunk__codata2022/tests/Pspdir/PseudosTM_pwteter/14si.pspnc
- pspatm: opening atomic psp file    /home/buildbot/ABINIT3/eos_gnu_13.2_mpich/trunk__codata2022/tests/Pspdir/PseudosTM_pwteter/14si.pspnc
-  Troullier-Martins psp for element  Si        Thu Oct 27 17:31:21 EDT 1994
- 14.00000   4.00000    940714                znucl, zion, pspdat
    1    1    2    2      2001   0.00000      pspcod,pspxc,lmax,lloc,mmax,r2well
    0   5.907  14.692    1   2.0872718        l,e99.0,e99.9,nproj,rcpsp
   0.00000000   0.00000000   0.00000000   0.00000000     rms, ekb1, ekb2, epsatm
    1   2.617   4.181    1   2.0872718        l,e99.0,e99.9,nproj,rcpsp
   0.00000000   0.00000000   0.00000000   0.00000000     rms, ekb1, ekb2, epsatm
    2   0.000   0.000    0   2.0872718        l,e99.0,e99.9,nproj,rcpsp
   0.00000000   0.00000000   0.00000000   0.00000000     rms, ekb1, ekb2, epsatm
    1.80626423934776    0.22824404341771    1.17378968127746   rchrg,fchrg,qchrg
  pspatm : epsatm=    1.43386982
         --- l  ekb(1:nproj) -->
             0    3.287949
             1    1.849886
 pspatm: atomic psp has been read  and splines computed

   3.67070674E+02                                ecore*ucvol(ha*bohr**3)
--------------------------------------------------------------------------------

P newkpt: treating     20 bands with npw=      88 for ikpt=   1 by node    0
_setup2: Arith. and geom. avg. npw (full set) are     175.000     175.000

================================================================================

=== [ionmov= 1] Molecular dynamics with viscosity (vis= 1.00000E+02)
================================================================================

--- Iteration: ( 1/10) Internal Cycle: (1/4)
--------------------------------------------------------------------------------

---SELF-CONSISTENT-FIELD CONVERGENCE--------------------------------------------

--- !BeginCycle
iteration_state: {dtset: 1, itime: 1, icycle: 1, }
solver: {iscf: 7, nstep: 100, nline: 6, wfoptalg: 0, }
tolerances: {toldff: 1.00E-05, }
...

     iter   Etot(hartree)      deltaE(h)  residm     vres2    diffor    maxfor

 ETOT  1  -25.602997337079    -2.560E+01 2.275E-03 1.786E+04 4.160E-01 4.160E-01

 cartesian forces (ha/bohr); non-corrected avg=  0.00E+00 -1.40E-04  0.00E+00
    1     0.00000000000E+00   -3.93392462926E-01    0.00000000000E+00
    2     0.00000000000E+00   -2.51893818083E-01    0.00000000000E+00
    3     0.00000000000E+00    2.96723417897E-01    0.00000000000E+00
    4     0.00000000000E+00    5.91206894415E-01    0.00000000000E+00
    5     0.00000000000E+00   -4.16046522058E-01    0.00000000000E+00
    6     0.00000000000E+00   -1.45072965791E-01    0.00000000000E+00
    7     0.00000000000E+00    2.37509501398E-02    0.00000000000E+00
    8     0.00000000000E+00    2.94724506407E-01    0.00000000000E+00
 prteigrs : about to open file t40o_TIMA_EIG
 Fermi (or HOMO) energy (hartree) =   0.51070   Average Vxc (hartree)=  -0.40613
 Eigenvalues (hartree) for nkpt=   1  k points:
 kpt#   1, nband= 20, wtk=  1.00000, kpt=  0.0000  0.0000  0.0000 (reduced coord)
  -0.26679   -0.20072   -0.12918   -0.08624   -0.06588   -0.00397    0.04747    0.12838
   0.20483    0.31597    0.37805    0.39931    0.39940    0.47158    0.47186    0.50588
   0.52546    0.53592    0.55745    0.57020
      occupation numbers for kpt#   1
   2.00000    2.00000    2.00000    2.00000    2.00000    1.99999    1.99998    1.99986
   1.99905    1.98474    1.92996    1.88368    1.88343    1.45345    1.45059    1.06017
   0.81759    0.69479    0.47414    0.36857

 ETOT  2  -9.7915048111206     1.581E+01 2.057E-04 5.408E+04 7.035E-01 7.325E-01

 cartesian forces (ha/bohr); non-corrected avg=  0.00E+00 -2.20E-04  0.00E+00
    1     0.00000000000E+00   -1.31741870409E+00    0.00000000000E+00
    2     0.00000000000E+00   -9.12027893808E-01    0.00000000000E+00
    3     0.00000000000E+00    4.14402633396E-01    0.00000000000E+00
    4     0.00000000000E+00    1.82563234111E+00    0.00000000000E+00
    5     0.00000000000E+00   -6.88315274901E-01    0.00000000000E+00
    6     0.00000000000E+00   -7.32537243774E-01    0.00000000000E+00
    7     0.00000000000E+00    7.27243055470E-01    0.00000000000E+00
    8     0.00000000000E+00    6.83021086597E-01    0.00000000000E+00
 prteigrs : about to open file t40o_TIMA_EIG
 Fermi (or HOMO) energy (hartree) =   0.54189   Average Vxc (hartree)=  -0.40941
 Eigenvalues (hartree) for nkpt=   1  k points:
 kpt#   1, nband= 20, wtk=  1.00000, kpt=  0.0000  0.0000  0.0000 (reduced coord)
  -0.20425   -0.18441   -0.11533   -0.05981   -0.04985    0.02207    0.04992    0.15490
   0.17960    0.30940    0.37268    0.48773    0.48792    0.50516    0.50522    0.52316
   0.56493    0.56501    0.56574    0.57389
      occupation numbers for kpt#   1
   2.00000    2.00000    2.00000    2.00000    2.00000    2.00000    1.99999    1.99987
   1.99977    1.99404    1.97132    1.58961    1.58804    1.42939    1.42878    1.23002
   0.71977    0.71884    0.71047    0.62009

 ETOT  3  -32.051941918575    -2.226E+01 7.493E-03 2.660E+03 8.908E-01 2.020E-01

 cartesian forces (ha/bohr); non-corrected avg=  0.00E+00  5.98E-04  0.00E+00
    1     0.00000000000E+00   -4.63874608741E-01    0.00000000000E+00
    2     0.00000000000E+00    6.87966601306E-02    0.00000000000E+00
    3     0.00000000000E+00    1.21500360481E-01    0.00000000000E+00
    4     0.00000000000E+00    5.73207379766E-01    0.00000000000E+00
    5     0.00000000000E+00   -2.02023232259E-01    0.00000000000E+00
    6     0.00000000000E+00    1.37300330381E-02    0.00000000000E+00
    7     0.00000000000E+00   -1.63544928856E-01    0.00000000000E+00
    8     0.00000000000E+00    5.22083364408E-02    0.00000000000E+00
 prteigrs : about to open file t40o_TIMA_EIG
 Fermi (or HOMO) energy (hartree) =   0.55769   Average Vxc (hartree)=  -0.40931
 Eigenvalues (hartree) for nkpt=   1  k points:
 kpt#   1, nband= 20, wtk=  1.00000, kpt=  0.0000  0.0000  0.0000 (reduced coord)
  -0.18702   -0.15123   -0.12749   -0.09402   -0.05684    0.01918    0.03651    0.13185
   0.19041    0.30726    0.39051    0.48172    0.48260    0.52457    0.52502    0.53498
   0.54856    0.59220    0.61271    0.61385
      occupation numbers for kpt#   1
   2.00000    2.00000    2.00000    2.00000    2.00000    2.00000    2.00000    1.99995
   1.99979    1.99619    1.96984    1.73959    1.73456    1.39185    1.38700    1.27642
   1.11363    0.59346    0.40339    0.39435

 ETOT  4  -33.181202789325    -1.129E+00 3.057E-03 3.678E+02 1.199E-01 1.545E-01

 cartesian forces (ha/bohr); non-corrected avg=  0.00E+00  1.20E-03  0.00E+00
    1     0.00000000000E+00   -3.46509584402E-01    0.00000000000E+00
    2     0.00000000000E+00   -3.86819204762E-02    0.00000000000E+00
    3     0.00000000000E+00    5.75580739888E-02    0.00000000000E+00
    4     0.00000000000E+00    5.84376144241E-01    0.00000000000E+00
    5     0.00000000000E+00   -8.21321834947E-02    0.00000000000E+00
    6     0.00000000000E+00    2.61766067749E-02    0.00000000000E+00
    7     0.00000000000E+00   -1.54547963451E-01    0.00000000000E+00
    8     0.00000000000E+00   -4.62391731811E-02    0.00000000000E+00
 prteigrs : about to open file t40o_TIMA_EIG
 Fermi (or HOMO) energy (hartree) =   0.55065   Average Vxc (hartree)=  -0.40973
 Eigenvalues (hartree) for nkpt=   1  k points:
 kpt#   1, nband= 20, wtk=  1.00000, kpt=  0.0000  0.0000  0.0000 (reduced coord)
  -0.18410   -0.14272   -0.13644   -0.09409   -0.05534    0.01726    0.03634    0.13076
   0.19155    0.30702    0.38921    0.48146    0.48157    0.53270    0.53271    0.53539
   0.54894    0.56659    0.57700    0.59394
      occupation numbers for kpt#   1
   2.00000    2.00000    2.00000    2.00000    2.00000    2.00000    1.99999    1.99994
   1.99975    1.99548    1.96528    1.69876    1.69806    1.22067    1.22062    1.18843
   1.02134    0.80340    0.68207    0.50620

 ETOT  5  -33.302681487048    -1.215E-01 4.565E-04 2.033E+02 4.120E-02 1.958E-01

 cartesian forces (ha/bohr); non-corrected avg=  0.00E+00  1.09E-04  0.00E+00
    1     0.00000000000E+00   -3.37914445635E-01    0.00000000000E+00
    2     0.00000000000E+00    2.16878247604E-02    0.00000000000E+00
    3     0.00000000000E+00   -6.71938813648E-03    0.00000000000E+00
    4     0.00000000000E+00    6.27715698540E-01    0.00000000000E+00
    5     0.00000000000E+00   -8.11290501695E-02    0.00000000000E+00
    6     0.00000000000E+00    4.33673420734E-02    0.00000000000E+00
    7     0.00000000000E+00   -1.95752186838E-01    0.00000000000E+00
    8     0.00000000000E+00   -7.12557945951E-02    0.00000000000E+00
 prteigrs : about to open file t40o_TIMA_EIG
 Fermi (or HOMO) energy (hartree) =   0.54516   Average Vxc (hartree)=  -0.41013
 Eigenvalues (hartree) for nkpt=   1  k points:
 kpt#   1, nband= 20, wtk=  1.00000, kpt=  0.0000  0.0000  0.0000 (reduced coord)
  -0.18365   -0.14619   -0.13218   -0.09599   -0.05689    0.01679    0.03722    0.13080
   0.19153    0.30763    0.38801    0.48092    0.48093    0.53321    0.53329    0.53529
   0.54865    0.55459    0.55512    0.58109
      occupation numbers for kpt#   1
   2.00000    2.00000    2.00000    2.00000    2.00000    2.00000    1.99999    1.99994
   1.99971    1.99474    1.96143    1.66573    1.66570    1.14838    1.14733    1.12279
   0.95645    0.88274    0.87619    0.57889

 ETOT  6  -33.386538503594    -8.386E-02 3.978E-05 1.455E+01 1.991E-02 1.802E-01

 cartesian forces (ha/bohr); non-corrected avg=  0.00E+00 -2.86E-05  0.00E+00
    1     0.00000000000E+00   -3.42641627284E-01    0.00000000000E+00
    2     0.00000000000E+00   -1.36817028521E-02    0.00000000000E+00
    3     0.00000000000E+00    5.01253646109E-03    0.00000000000E+00
    4     0.00000000000E+00    6.24364712030E-01    0.00000000000E+00
    5     0.00000000000E+00   -8.51773958259E-02    0.00000000000E+00
    6     0.00000000000E+00    4.36830237458E-02    0.00000000000E+00
    7     0.00000000000E+00   -1.80209982923E-01    0.00000000000E+00
    8     0.00000000000E+00   -5.13495633517E-02    0.00000000000E+00
 prteigrs : about to open file t40o_TIMA_EIG
 Fermi (or HOMO) energy (hartree) =   0.54401   Average Vxc (hartree)=  -0.41004
 Eigenvalues (hartree) for nkpt=   1  k points:
 kpt#   1, nband= 20, wtk=  1.00000, kpt=  0.0000  0.0000  0.0000 (reduced coord)
  -0.18596   -0.14874   -0.12987   -0.09627   -0.05781    0.01781    0.03580    0.13087
   0.19180    0.30810    0.38668    0.47948    0.47948    0.52872    0.52872    0.53386
   0.54869    0.55630    0.55632    0.58093
      occupation numbers for kpt#   1
   2.00000    2.00000    2.00000    2.00000    2.00000    2.00000    1.99999    1.99993
   1.99970    1.99452    1.96159    1.66768    1.66768    1.18883    1.18882    1.12620
   0.94151    0.84753    0.84735    0.56866

 ETOT  7  -33.395066442403    -8.528E-03 7.437E-06 1.666E+00 2.592E-03 1.828E-01

 cartesian forces (ha/bohr); non-corrected avg=  0.00E+00  1.72E-05  0.00E+00
    1     0.00000000000E+00   -3.48325577022E-01    0.00000000000E+00
    2     0.00000000000E+00   -4.56154948122E-04    0.00000000000E+00
    3     0.00000000000E+00    1.23658544244E-02    0.00000000000E+00
    4     0.00000000000E+00    6.13592226281E-01    0.00000000000E+00
    5     0.00000000000E+00   -8.56838847738E-02    0.00000000000E+00
    6     0.00000000000E+00    4.42134263302E-02    0.00000000000E+00
    7     0.00000000000E+00   -1.82801600698E-01    0.00000000000E+00
    8     0.00000000000E+00   -5.29042895939E-02    0.00000000000E+00
 prteigrs : about to open file t40o_TIMA_EIG
 Fermi (or HOMO) energy (hartree) =   0.54384   Average Vxc (hartree)=  -0.41005
 Eigenvalues (hartree) for nkpt=   1  k points:
 kpt#   1, nband= 20, wtk=  1.00000, kpt=  0.0000  0.0000  0.0000 (reduced coord)
  -0.18587   -0.14897   -0.12985   -0.09601   -0.05764    0.01794    0.03646    0.13151
   0.19177    0.30824    0.38723    0.47875    0.47875    0.52843    0.52843    0.53427
   0.54877    0.55608    0.55609    0.58085
      occupation numbers for kpt#   1
   2.00000    2.00000    2.00000    2.00000    2.00000    2.00000    1.99999    1.99993
   1.99970    1.99448    1.96090    1.67155    1.67155    1.19024    1.19024    1.11905
   0.93847    0.84808    0.84807    0.56775

 ETOT  8  -33.395674136659    -6.077E-04 7.893E-07 7.100E-01 1.857E-03 1.829E-01

 cartesian forces (ha/bohr); non-corrected avg=  0.00E+00 -2.33E-06  0.00E+00
    1     0.00000000000E+00   -3.49313485265E-01    0.00000000000E+00
    2     0.00000000000E+00    3.24183123255E-03    0.00000000000E+00
    3     0.00000000000E+00    1.00496262750E-02    0.00000000000E+00
    4     0.00000000000E+00    6.12224826286E-01    0.00000000000E+00
    5     0.00000000000E+00   -8.70540410761E-02    0.00000000000E+00
    6     0.00000000000E+00    4.47573067586E-02    0.00000000000E+00
    7     0.00000000000E+00   -1.82858706023E-01    0.00000000000E+00
    8     0.00000000000E+00   -5.10473581881E-02    0.00000000000E+00
 prteigrs : about to open file t40o_TIMA_EIG
 Fermi (or HOMO) energy (hartree) =   0.54372   Average Vxc (hartree)=  -0.41004
 Eigenvalues (hartree) for nkpt=   1  k points:
 kpt#   1, nband= 20, wtk=  1.00000, kpt=  0.0000  0.0000  0.0000 (reduced coord)
  -0.18655   -0.14925   -0.12928   -0.09577   -0.05789    0.01811    0.03647    0.13168
   0.19198    0.30849    0.38721    0.47783    0.47783    0.52799    0.52799    0.53418
   0.54875    0.55650    0.55650    0.58108
      occupation numbers for kpt#   1
   2.00000    2.00000    2.00000    2.00000    2.00000    2.00000    1.99999    1.99993
   1.99970    1.99443    1.96081    1.67701    1.67701    1.19409    1.19409    1.11858
   0.93713    0.84154    0.84154    0.56414

 ETOT  9  -33.395984738893    -3.106E-04 2.024E-07 5.271E-02 1.083E-03 1.839E-01

 cartesian forces (ha/bohr); non-corrected avg=  0.00E+00  6.38E-07  0.00E+00
    1     0.00000000000E+00   -3.48164921952E-01    0.00000000000E+00
    2     0.00000000000E+00    3.74615410776E-03    0.00000000000E+00
    3     0.00000000000E+00    1.05601849581E-02    0.00000000000E+00
    4     0.00000000000E+00    6.11721051145E-01    0.00000000000E+00
    5     0.00000000000E+00   -8.70558360244E-02    0.00000000000E+00
    6     0.00000000000E+00    4.50099840513E-02    0.00000000000E+00
    7     0.00000000000E+00   -1.83941218181E-01    0.00000000000E+00
    8     0.00000000000E+00   -5.18753981053E-02    0.00000000000E+00
 prteigrs : about to open file t40o_TIMA_EIG
 Fermi (or HOMO) energy (hartree) =   0.54375   Average Vxc (hartree)=  -0.41004
 Eigenvalues (hartree) for nkpt=   1  k points:
 kpt#   1, nband= 20, wtk=  1.00000, kpt=  0.0000  0.0000  0.0000 (reduced coord)
  -0.18641   -0.14907   -0.12942   -0.09578   -0.05788    0.01808    0.03657    0.13169
   0.19196    0.30848    0.38725    0.47790    0.47790    0.52820    0.52820    0.53425
   0.54875    0.55636    0.55636    0.58111
      occupation numbers for kpt#   1
   2.00000    2.00000    2.00000    2.00000    2.00000    2.00000    1.99999    1.99993
   1.99970    1.99444    1.96080    1.67679    1.67679    1.19196    1.19196    1.11818
   0.93767    0.84376    0.84376    0.56427

 ETOT 10  -33.396013260163    -2.852E-05 2.682E-08 1.637E-03 4.187E-04 1.835E-01

 cartesian forces (ha/bohr); non-corrected avg=  0.00E+00 -1.80E-06  0.00E+00
    1     0.00000000000E+00   -3.48939887431E-01    0.00000000000E+00
    2     0.00000000000E+00    4.98956020725E-03    0.00000000000E+00
    3     0.00000000000E+00    9.52102235363E-03    0.00000000000E+00
    4     0.00000000000E+00    6.12251453578E-01    0.00000000000E+00
    5     0.00000000000E+00   -8.67060206559E-02    0.00000000000E+00
    6     0.00000000000E+00    4.46113957931E-02    0.00000000000E+00
    7     0.00000000000E+00   -1.83522470147E-01    0.00000000000E+00
    8     0.00000000000E+00   -5.22050536975E-02    0.00000000000E+00
 prteigrs : about to open file t40o_TIMA_EIG
 Fermi (or HOMO) energy (hartree) =   0.54376   Average Vxc (hartree)=  -0.41005
 Eigenvalues (hartree) for nkpt=   1  k points:
 kpt#   1, nband= 20, wtk=  1.00000, kpt=  0.0000  0.0000  0.0000 (reduced coord)
  -0.18639   -0.14905   -0.12949   -0.09576   -0.05789    0.01805    0.03658    0.13168
   0.19197    0.30847    0.38725    0.47791    0.47791    0.52826    0.52826    0.53426
   0.54873    0.55632    0.55632    0.58109
      occupation numbers for kpt#   1
   2.00000    2.00000    2.00000    2.00000    2.00000    2.00000    1.99999    1.99993
   1.99970    1.99444    1.96080    1.67675    1.67675    1.19131    1.19131    1.11818
   0.93788    0.84423    0.84423    0.56451

 ETOT 11  -33.396013250703     9.460E-09 1.587E-09 1.959E-03 8.030E-05 1.836E-01

 cartesian forces (ha/bohr); non-corrected avg=  0.00E+00 -1.28E-06  0.00E+00
    1     0.00000000000E+00   -3.48796909599E-01    0.00000000000E+00
    2     0.00000000000E+00    4.78850540110E-03    0.00000000000E+00
    3     0.00000000000E+00    9.61735553674E-03    0.00000000000E+00
    4     0.00000000000E+00    6.12224803306E-01    0.00000000000E+00
    5     0.00000000000E+00   -8.67761888160E-02    0.00000000000E+00
    6     0.00000000000E+00    4.46858964379E-02    0.00000000000E+00
    7     0.00000000000E+00   -1.83602773760E-01    0.00000000000E+00
    8     0.00000000000E+00   -5.21406885064E-02    0.00000000000E+00
 prteigrs : about to open file t40o_TIMA_EIG
 Fermi (or HOMO) energy (hartree) =   0.54375   Average Vxc (hartree)=  -0.41005
 Eigenvalues (hartree) for nkpt=   1  k points:
 kpt#   1, nband= 20, wtk=  1.00000, kpt=  0.0000  0.0000  0.0000 (reduced coord)
  -0.18640   -0.14906   -0.12948   -0.09577   -0.05790    0.01805    0.03657    0.13168
   0.19197    0.30847    0.38725    0.47790    0.47790    0.52825    0.52825    0.53425
   0.54873    0.55632    0.55632    0.58108
      occupation numbers for kpt#   1
   2.00000    2.00000    2.00000    2.00000    2.00000    2.00000    1.99999    1.99993
   1.99970    1.99444    1.96080    1.67675    1.67675    1.19137    1.19137    1.11816
   0.93784    0.84417    0.84417    0.56456

 ETOT 12  -33.396014133180    -8.825E-07 3.009E-10 1.517E-05 5.625E-05 1.836E-01

 cartesian forces (ha/bohr); non-corrected avg=  0.00E+00 -1.49E-06  0.00E+00
    1     0.00000000000E+00   -3.48764620171E-01    0.00000000000E+00
    2     0.00000000000E+00    4.74137292946E-03    0.00000000000E+00
    3     0.00000000000E+00    9.59704781414E-03    0.00000000000E+00
    4     0.00000000000E+00    6.12294003142E-01    0.00000000000E+00
    5     0.00000000000E+00   -8.67369608919E-02    0.00000000000E+00
    6     0.00000000000E+00    4.46562104164E-02    0.00000000000E+00
    7     0.00000000000E+00   -1.83590112274E-01    0.00000000000E+00
    8     0.00000000000E+00   -5.21969409652E-02    0.00000000000E+00
 prteigrs : about to open file t40o_TIMA_EIG
 Fermi (or HOMO) energy (hartree) =   0.54375   Average Vxc (hartree)=  -0.41005
 Eigenvalues (hartree) for nkpt=   1  k points:
 kpt#   1, nband= 20, wtk=  1.00000, kpt=  0.0000  0.0000  0.0000 (reduced coord)
  -0.18639   -0.14905   -0.12950   -0.09577   -0.05789    0.01805    0.03657    0.13168
   0.19197    0.30847    0.38725    0.47792    0.47792    0.52826    0.52826    0.53425
   0.54873    0.55630    0.55630    0.58107
      occupation numbers for kpt#   1
   2.00000    2.00000    2.00000    2.00000    2.00000    2.00000    1.99999    1.99993
   1.99970    1.99444    1.96080    1.67666    1.67666    1.19125    1.19125    1.11815
   0.93784    0.84435    0.84435    0.56464

 ETOT 13  -33.396014139096    -5.915E-09 1.992E-11 4.232E-06 5.683E-06 1.836E-01

 cartesian forces (ha/bohr); non-corrected avg=  0.00E+00 -1.39E-06  0.00E+00
    1     0.00000000000E+00   -3.48790021559E-01    0.00000000000E+00
    2     0.00000000000E+00    4.76011581430E-03    0.00000000000E+00
    3     0.00000000000E+00    9.59310324646E-03    0.00000000000E+00
    4     0.00000000000E+00    6.12297185901E-01    0.00000000000E+00
    5     0.00000000000E+00   -8.67389338287E-02    0.00000000000E+00
    6     0.00000000000E+00    4.46589204358E-02    0.00000000000E+00
    7     0.00000000000E+00   -1.83589112137E-01    0.00000000000E+00
    8     0.00000000000E+00   -5.21912578726E-02    0.00000000000E+00
 prteigrs : about to open file t40o_TIMA_EIG
 Fermi (or HOMO) energy (hartree) =   0.54375   Average Vxc (hartree)=  -0.41005
 Eigenvalues (hartree) for nkpt=   1  k points:
 kpt#   1, nband= 20, wtk=  1.00000, kpt=  0.0000  0.0000  0.0000 (reduced coord)
  -0.18639   -0.14906   -0.12950   -0.09577   -0.05789    0.01805    0.03657    0.13168
   0.19196    0.30847    0.38725    0.47792    0.47792    0.52826    0.52826    0.53425
   0.54873    0.55630    0.55630    0.58107
      occupation numbers for kpt#   1
   2.00000    2.00000    2.00000    2.00000    2.00000    2.00000    1.99999    1.99993
   1.99970    1.99444    1.96080    1.67665    1.67665    1.19125    1.19125    1.11815
   0.93783    0.84436    0.84436    0.56464

 ETOT 14  -33.396014141043    -1.947E-09 2.261E-12 4.715E-07 9.343E-07 1.836E-01

 cartesian forces (ha/bohr); non-corrected avg=  0.00E+00 -1.39E-06  0.00E+00
    1     0.00000000000E+00   -3.48781186809E-01    0.00000000000E+00
    2     0.00000000000E+00    4.74966671720E-03    0.00000000000E+00
    3     0.00000000000E+00    9.60004961406E-03    0.00000000000E+00
    4     0.00000000000E+00    6.12293348648E-01    0.00000000000E+00
    5     0.00000000000E+00   -8.67393494295E-02    0.00000000000E+00
    6     0.00000000000E+00    4.46579861016E-02    0.00000000000E+00
    7     0.00000000000E+00   -1.83588925187E-01    0.00000000000E+00
    8     0.00000000000E+00   -5.21915896556E-02    0.00000000000E+00
 prteigrs : about to open file t40o_TIMA_EIG
 Fermi (or HOMO) energy (hartree) =   0.54375   Average Vxc (hartree)=  -0.41005
 Eigenvalues (hartree) for nkpt=   1  k points:
 kpt#   1, nband= 20, wtk=  1.00000, kpt=  0.0000  0.0000  0.0000 (reduced coord)
  -0.18639   -0.14906   -0.12950   -0.09577   -0.05789    0.01805    0.03657    0.13168
   0.19196    0.30847    0.38725    0.47792    0.47792    0.52826    0.52826    0.53425
   0.54873    0.55630    0.55630    0.58107
      occupation numbers for kpt#   1
   2.00000    2.00000    2.00000    2.00000    2.00000    2.00000    1.99999    1.99993
   1.99970    1.99444    1.96080    1.67665    1.67665    1.19126    1.19126    1.11815
   0.93783    0.84435    0.84435    0.56464

 At SCF step   14, forces are converged : 
  for the second time, max diff in force=  9.343E-07 < toldff=  1.000E-05

 Cartesian components of stress tensor (hartree/bohr^3)
  sigma(1 1)=  1.47560285E-03  sigma(3 2)=  0.00000000E+00
  sigma(2 2)= -1.43144548E-02  sigma(3 1)=  0.00000000E+00
  sigma(3 3)=  1.47560285E-03  sigma(2 1)=  0.00000000E+00


--- !ResultsGS
iteration_state: {dtset: 1, itime: 1, icycle: 1, }
comment   : Summary of ground state results
lattice_vectors:
- [  5.0000000,   0.0000000,   0.0000000, ]
- [  0.0000000,  30.0000000,   0.0000000, ]
- [  0.0000000,   0.0000000,   5.0000000, ]
lattice_lengths: [   5.00000,   30.00000,    5.00000, ]
lattice_angles: [ 90.000,  90.000,  90.000, ] # degrees, (23, 13, 12)
lattice_volume:   7.5000000E+02
convergence: {deltae: -1.947E-09, res2:  4.715E-07, residm:  2.261E-12, diffor:  9.343E-07, }
etotal    :  -3.33960141E+01
entropy   :   0.00000000E+00
fermie    :   5.43749843E-01
cartesian_stress_tensor: # hartree/bohr^3
- [  1.47560285E-03,   0.00000000E+00,   0.00000000E+00, ]
- [  0.00000000E+00,  -1.43144548E-02,   0.00000000E+00, ]
- [  0.00000000E+00,   0.00000000E+00,   1.47560285E-03, ]
pressure_GPa:   1.1144E+02
xred      :
- [  0.0000E+00,   3.3333E-01,   0.0000E+00, Si]
- [  0.0000E+00,   4.3333E-01,   0.0000E+00, Si]
- [  0.0000E+00,   5.3333E-01,   0.0000E+00, Si]
- [  0.0000E+00,   6.3333E-01,   0.0000E+00, Si]
- [  0.0000E+00,  -2.0000E-01,   0.0000E+00, Si]
- [  0.0000E+00,  -6.6667E-02,   0.0000E+00, Si]
- [  0.0000E+00,   2.1667E-01,   0.0000E+00, Si]
- [  0.0000E+00,   8.3333E-02,   0.0000E+00, Si]
cartesian_forces: # hartree/bohr
- [ -0.00000000E+00,  -3.48781187E-01,  -0.00000000E+00, ]
- [ -0.00000000E+00,   4.74966672E-03,  -0.00000000E+00, ]
- [ -0.00000000E+00,   9.60004961E-03,  -0.00000000E+00, ]
- [ -0.00000000E+00,   6.12293349E-01,  -0.00000000E+00, ]
- [ -0.00000000E+00,  -8.67393494E-02,  -0.00000000E+00, ]
- [ -0.00000000E+00,   4.46579861E-02,  -0.00000000E+00, ]
- [ -0.00000000E+00,  -1.83588925E-01,  -0.00000000E+00, ]
- [ -0.00000000E+00,  -5.21915897E-02,  -0.00000000E+00, ]
force_length_stats: {min:   4.74966672E-03, max:   6.12293349E-01, mean:   1.67825263E-01, }
...

 Integrated electronic density in atomic spheres:
 ------------------------------------------------
 Atom  Sphere_radius  Integrated_density
    1        2.00000          2.58599913
    2        2.00000          2.76856624
    3        2.00000          2.62332465
    4        2.00000          2.03890747
    5        2.00000          1.63239644
    6        2.00000          1.81790059
    7        2.00000          1.93904248
    8        2.00000          1.85445827

---OUTPUT-----------------------------------------------------------------------

 Cartesian coordinates (xcart) [bohr]
  0.00000000000000E+00  1.00000000000000E+01  0.00000000000000E+00
  0.00000000000000E+00  1.30000000000000E+01  0.00000000000000E+00
  0.00000000000000E+00  1.60000000000000E+01  0.00000000000000E+00
  0.00000000000000E+00  1.90000000000000E+01  0.00000000000000E+00
  0.00000000000000E+00 -6.00000000000000E+00  0.00000000000000E+00
  0.00000000000000E+00 -2.00000000000000E+00  0.00000000000000E+00
  0.00000000000000E+00  6.50000000000000E+00  0.00000000000000E+00
  0.00000000000000E+00  2.50000000000000E+00  0.00000000000000E+00
 Reduced coordinates (xred)
  0.00000000000000E+00  3.33333333333333E-01  0.00000000000000E+00
  0.00000000000000E+00  4.33333333333333E-01  0.00000000000000E+00
  0.00000000000000E+00  5.33333333333333E-01  0.00000000000000E+00
  0.00000000000000E+00  6.33333333333333E-01  0.00000000000000E+00
  0.00000000000000E+00 -2.00000000000000E-01  0.00000000000000E+00
  0.00000000000000E+00 -6.66666666666667E-02  0.00000000000000E+00
  0.00000000000000E+00  2.16666666666667E-01  0.00000000000000E+00
  0.00000000000000E+00  8.33333333333333E-02  0.00000000000000E+00
 Cartesian forces (fcart) [Ha/bohr]; max,rms= 1.83589E-01 6.18782E-02 (free atoms)
 -0.00000000000000E+00 -3.48781186809314E-01 -0.00000000000000E+00
 -0.00000000000000E+00  4.74966671720007E-03 -0.00000000000000E+00
 -0.00000000000000E+00  9.60004961406018E-03 -0.00000000000000E+00
 -0.00000000000000E+00  6.12293348648298E-01 -0.00000000000000E+00
 -0.00000000000000E+00 -8.67393494294889E-02 -0.00000000000000E+00
 -0.00000000000000E+00  4.46579861015547E-02 -0.00000000000000E+00
 -0.00000000000000E+00 -1.83588925186677E-01 -0.00000000000000E+00
 -0.00000000000000E+00 -5.21915896556332E-02 -0.00000000000000E+00
 Gradient of E wrt nuclear positions in reduced coordinates (gred)
  0.00000000000000E+00  1.04634356042794E+01  0.00000000000000E+00
 -0.00000000000000E+00 -1.42490001516002E-01 -0.00000000000000E+00
 -0.00000000000000E+00 -2.88001488421805E-01 -0.00000000000000E+00
 -0.00000000000000E+00 -1.83688004594490E+01 -0.00000000000000E+00
  0.00000000000000E+00  2.60218048288467E+00  0.00000000000000E+00
 -0.00000000000000E+00 -1.33973958304664E+00 -0.00000000000000E+00
  0.00000000000000E+00  5.50766775560031E+00  0.00000000000000E+00
  0.00000000000000E+00  1.56574768966900E+00  0.00000000000000E+00
 Cartesian velocities (vel) [bohr*Ha/hbar]; max,rms= 0.00000E+00 0.00000E+00 (free atoms)
  0.00000000000000E+00  0.00000000000000E+00  0.00000000000000E+00
  0.00000000000000E+00  0.00000000000000E+00  0.00000000000000E+00
  0.00000000000000E+00  0.00000000000000E+00  0.00000000000000E+00
  0.00000000000000E+00  0.00000000000000E+00  0.00000000000000E+00
  0.00000000000000E+00  0.00000000000000E+00  0.00000000000000E+00
  0.00000000000000E+00  0.00000000000000E+00  0.00000000000000E+00
  0.00000000000000E+00  0.00000000000000E+00  0.00000000000000E+00
  0.00000000000000E+00  0.00000000000000E+00  0.00000000000000E+00
 Kinetic energy of ions (ekin) [Ha]=  0.00000000000000E+00
 Total energy (etotal) [Ha]= -3.33960141410426E+01

--- Iteration: ( 1/10) Internal Cycle: (2/4)
--------------------------------------------------------------------------------

---SELF-CONSISTENT-FIELD CONVERGENCE--------------------------------------------

--- !BeginCycle
iteration_state: {dtset: 1, itime: 1, icycle: 2, }
solver: {iscf: 7, nstep: 100, nline: 6, wfoptalg: 0, }
tolerances: {toldff: 1.00E-05, }
...

     iter   Etot(hartree)      deltaE(h)  residm     vres2    diffor    maxfor

 ETOT  1  -33.396013597240    -3.340E+01 6.479E-14 1.256E-03 1.836E-01 1.836E-01

 cartesian forces (ha/bohr); non-corrected avg=  0.00E+00 -1.60E-06  0.00E+00
    1     0.00000000000E+00   -3.48795997552E-01    0.00000000000E+00
    2     0.00000000000E+00    4.73411014447E-03    0.00000000000E+00
    3     0.00000000000E+00    9.56141513498E-03    0.00000000000E+00
    4     0.00000000000E+00    6.12327364617E-01    0.00000000000E+00
    5     0.00000000000E+00   -8.67662298853E-02    0.00000000000E+00
    6     0.00000000000E+00    4.46910105731E-02    0.00000000000E+00
    7     0.00000000000E+00   -1.83604456745E-01    0.00000000000E+00
    8     0.00000000000E+00   -5.21472162866E-02    0.00000000000E+00
 prteigrs : about to open file t40o_TIMB_EIG
 Fermi (or HOMO) energy (hartree) =   0.54375   Average Vxc (hartree)=  -0.41005
 Eigenvalues (hartree) for nkpt=   1  k points:
 kpt#   1, nband= 20, wtk=  1.00000, kpt=  0.0000  0.0000  0.0000 (reduced coord)
  -0.18639   -0.14906   -0.12949   -0.09578   -0.05789    0.01805    0.03658    0.13168
   0.19197    0.30847    0.38725    0.47792    0.47792    0.52825    0.52825    0.53425
   0.54873    0.55631    0.55631    0.58107
      occupation numbers for kpt#   1
   2.00000    2.00000    2.00000    2.00000    2.00000    2.00000    1.99999    1.99993
   1.99970    1.99444    1.96081    1.67665    1.67665    1.19130    1.19130    1.11816
   0.93781    0.84432    0.84432    0.56463

 ETOT  2  -33.396011999427     1.598E-06 2.247E-13 4.807E-03 1.416E-04 1.836E-01

 cartesian forces (ha/bohr); non-corrected avg=  0.00E+00 -9.94E-07  0.00E+00
    1     0.00000000000E+00   -3.48754275818E-01    0.00000000000E+00
    2     0.00000000000E+00    4.78364694388E-03    0.00000000000E+00
    3     0.00000000000E+00    9.66989251125E-03    0.00000000000E+00
    4     0.00000000000E+00    6.12237899627E-01    0.00000000000E+00
    5     0.00000000000E+00   -8.66798151850E-02    0.00000000000E+00
    6     0.00000000000E+00    4.45874092612E-02    0.00000000000E+00
    7     0.00000000000E+00   -1.83555990893E-01    0.00000000000E+00
    8     0.00000000000E+00   -5.22887664467E-02    0.00000000000E+00
 prteigrs : about to open file t40o_TIMB_EIG
 Fermi (or HOMO) energy (hartree) =   0.54375   Average Vxc (hartree)=  -0.41005
 Eigenvalues (hartree) for nkpt=   1  k points:
 kpt#   1, nband= 20, wtk=  1.00000, kpt=  0.0000  0.0000  0.0000 (reduced coord)
  -0.18638   -0.14904   -0.12951   -0.09577   -0.05789    0.01804    0.03658    0.13168
   0.19196    0.30846    0.38726    0.47792    0.47792    0.52827    0.52827    0.53426
   0.54873    0.55630    0.55630    0.58107
      occupation numbers for kpt#   1
   2.00000    2.00000    2.00000    2.00000    2.00000    2.00000    1.99999    1.99993
   1.99970    1.99444    1.96080    1.67665    1.67665    1.19116    1.19116    1.11811
   0.93785    0.84445    0.84445    0.56466

 ETOT  3  -33.396014135652    -2.136E-06 7.081E-10 1.149E-05 1.014E-04 1.836E-01

 cartesian forces (ha/bohr); non-corrected avg=  0.00E+00 -1.33E-06  0.00E+00
    1     0.00000000000E+00   -3.48777858586E-01    0.00000000000E+00
    2     0.00000000000E+00    4.74563434670E-03    0.00000000000E+00
    3     0.00000000000E+00    9.60718356522E-03    0.00000000000E+00
    4     0.00000000000E+00    6.12286302886E-01    0.00000000000E+00
    5     0.00000000000E+00   -8.67432936790E-02    0.00000000000E+00
    6     0.00000000000E+00    4.46630563188E-02    0.00000000000E+00
    7     0.00000000000E+00   -1.83593687425E-01    0.00000000000E+00
    8     0.00000000000E+00   -5.21873374269E-02    0.00000000000E+00
 prteigrs : about to open file t40o_TIMB_EIG
 Fermi (or HOMO) energy (hartree) =   0.54375   Average Vxc (hartree)=  -0.41005
 Eigenvalues (hartree) for nkpt=   1  k points:
 kpt#   1, nband= 20, wtk=  1.00000, kpt=  0.0000  0.0000  0.0000 (reduced coord)
  -0.18639   -0.14906   -0.12949   -0.09577   -0.05789    0.01805    0.03657    0.13168
   0.19197    0.30847    0.38725    0.47792    0.47792    0.52826    0.52826    0.53425
   0.54873    0.55630    0.55630    0.58107
      occupation numbers for kpt#   1
   2.00000    2.00000    2.00000    2.00000    2.00000    2.00000    1.99999    1.99993
   1.99970    1.99444    1.96080    1.67666    1.67666    1.19127    1.19127    1.11815
   0.93783    0.84434    0.84434    0.56463

 ETOT  4  -33.396014140168    -4.515E-09 5.392E-12 1.618E-06 5.619E-06 1.836E-01

 cartesian forces (ha/bohr); non-corrected avg=  0.00E+00 -1.40E-06  0.00E+00
    1     0.00000000000E+00   -3.48784017333E-01    0.00000000000E+00
    2     0.00000000000E+00    4.75019068673E-03    0.00000000000E+00
    3     0.00000000000E+00    9.59420509905E-03    0.00000000000E+00
    4     0.00000000000E+00    6.12299273767E-01    0.00000000000E+00
    5     0.00000000000E+00   -8.67402843419E-02    0.00000000000E+00
    6     0.00000000000E+00    4.46582426977E-02    0.00000000000E+00
    7     0.00000000000E+00   -1.83588068808E-01    0.00000000000E+00
    8     0.00000000000E+00   -5.21895417681E-02    0.00000000000E+00
 prteigrs : about to open file t40o_TIMB_EIG
 Fermi (or HOMO) energy (hartree) =   0.54375   Average Vxc (hartree)=  -0.41005
 Eigenvalues (hartree) for nkpt=   1  k points:
 kpt#   1, nband= 20, wtk=  1.00000, kpt=  0.0000  0.0000  0.0000 (reduced coord)
  -0.18639   -0.14906   -0.12950   -0.09577   -0.05789    0.01805    0.03657    0.13168
   0.19197    0.30847    0.38725    0.47792    0.47792    0.52826    0.52826    0.53425
   0.54873    0.55630    0.55630    0.58107
      occupation numbers for kpt#   1
   2.00000    2.00000    2.00000    2.00000    2.00000    2.00000    1.99999    1.99993
   1.99970    1.99444    1.96080    1.67665    1.67665    1.19126    1.19126    1.11815
   0.93783    0.84435    0.84435    0.56464

 ETOT  5  -33.396014141195    -1.028E-09 1.007E-12 1.121E-07 2.234E-06 1.836E-01

 cartesian forces (ha/bohr); non-corrected avg=  0.00E+00 -1.39E-06  0.00E+00
    1     0.00000000000E+00   -3.48781140618E-01    0.00000000000E+00
    2     0.00000000000E+00    4.74970047705E-03    0.00000000000E+00
    3     0.00000000000E+00    9.59900955781E-03    0.00000000000E+00
    4     0.00000000000E+00    6.12294528152E-01    0.00000000000E+00
    5     0.00000000000E+00   -8.67406441372E-02    0.00000000000E+00
    6     0.00000000000E+00    4.46592535721E-02    0.00000000000E+00
    7     0.00000000000E+00   -1.83590302357E-01    0.00000000000E+00
    8     0.00000000000E+00   -5.21904046474E-02    0.00000000000E+00
 prteigrs : about to open file t40o_TIMB_EIG
 Fermi (or HOMO) energy (hartree) =   0.54375   Average Vxc (hartree)=  -0.41005
 Eigenvalues (hartree) for nkpt=   1  k points:
 kpt#   1, nband= 20, wtk=  1.00000, kpt=  0.0000  0.0000  0.0000 (reduced coord)
  -0.18639   -0.14906   -0.12950   -0.09577   -0.05789    0.01805    0.03657    0.13168
   0.19197    0.30847    0.38725    0.47792    0.47792    0.52826    0.52826    0.53425
   0.54873    0.55630    0.55630    0.58107
      occupation numbers for kpt#   1
   2.00000    2.00000    2.00000    2.00000    2.00000    2.00000    1.99999    1.99993
   1.99970    1.99444    1.96080    1.67665    1.67665    1.19126    1.19126    1.11815
   0.93783    0.84435    0.84435    0.56464

 At SCF step    5, forces are converged : 
  for the second time, max diff in force=  2.234E-06 < toldff=  1.000E-05

 Cartesian components of stress tensor (hartree/bohr^3)
  sigma(1 1)=  1.47560236E-03  sigma(3 2)=  0.00000000E+00
  sigma(2 2)= -1.43144538E-02  sigma(3 1)=  0.00000000E+00
  sigma(3 3)=  1.47560236E-03  sigma(2 1)=  0.00000000E+00


--- !ResultsGS
iteration_state: {dtset: 1, itime: 1, icycle: 2, }
comment   : Summary of ground state results
lattice_vectors:
- [  5.0000000,   0.0000000,   0.0000000, ]
- [  0.0000000,  30.0000000,   0.0000000, ]
- [  0.0000000,   0.0000000,   5.0000000, ]
lattice_lengths: [   5.00000,   30.00000,    5.00000, ]
lattice_angles: [ 90.000,  90.000,  90.000, ] # degrees, (23, 13, 12)
lattice_volume:   7.5000000E+02
convergence: {deltae: -1.028E-09, res2:  1.121E-07, residm:  1.007E-12, diffor:  2.234E-06, }
etotal    :  -3.33960141E+01
entropy   :   0.00000000E+00
fermie    :   5.43749794E-01
cartesian_stress_tensor: # hartree/bohr^3
- [  1.47560236E-03,   0.00000000E+00,   0.00000000E+00, ]
- [  0.00000000E+00,  -1.43144538E-02,   0.00000000E+00, ]
- [  0.00000000E+00,   0.00000000E+00,   1.47560236E-03, ]
pressure_GPa:   1.1144E+02
xred      :
- [  0.0000E+00,   3.3333E-01,   0.0000E+00, Si]
- [  0.0000E+00,   4.3333E-01,   0.0000E+00, Si]
- [  0.0000E+00,   5.3333E-01,   0.0000E+00, Si]
- [  0.0000E+00,   6.3333E-01,   0.0000E+00, Si]
- [  0.0000E+00,  -2.0000E-01,   0.0000E+00, Si]
- [  0.0000E+00,  -6.6667E-02,   0.0000E+00, Si]
- [  0.0000E+00,   2.1667E-01,   0.0000E+00, Si]
- [  0.0000E+00,   8.3333E-02,   0.0000E+00, Si]
cartesian_forces: # hartree/bohr
- [ -0.00000000E+00,  -3.48781141E-01,  -0.00000000E+00, ]
- [ -0.00000000E+00,   4.74970048E-03,  -0.00000000E+00, ]
- [ -0.00000000E+00,   9.59900956E-03,  -0.00000000E+00, ]
- [ -0.00000000E+00,   6.12294528E-01,  -0.00000000E+00, ]
- [ -0.00000000E+00,  -8.67406441E-02,  -0.00000000E+00, ]
- [ -0.00000000E+00,   4.46592536E-02,  -0.00000000E+00, ]
- [ -0.00000000E+00,  -1.83590302E-01,  -0.00000000E+00, ]
- [ -0.00000000E+00,  -5.21904046E-02,  -0.00000000E+00, ]
force_length_stats: {min:   4.74970048E-03, max:   6.12294528E-01, mean:   1.67825623E-01, }
...

 Integrated electronic density in atomic spheres:
 ------------------------------------------------
 Atom  Sphere_radius  Integrated_density
    1        2.00000          2.58599860
    2        2.00000          2.76856691
    3        2.00000          2.62332336
    4        2.00000          2.03890450
    5        2.00000          1.63239343
    6        2.00000          1.81789703
    7        2.00000          1.93904560
    8        2.00000          1.85446608

---OUTPUT-----------------------------------------------------------------------

 Cartesian coordinates (xcart) [bohr]
  0.00000000000000E+00  1.00000000000000E+01  0.00000000000000E+00
  0.00000000000000E+00  1.30000000000000E+01  0.00000000000000E+00
  0.00000000000000E+00  1.60000000000000E+01  0.00000000000000E+00
  0.00000000000000E+00  1.90000000000000E+01  0.00000000000000E+00
  0.00000000000000E+00 -6.00000000000000E+00  0.00000000000000E+00
  0.00000000000000E+00 -2.00000000000000E+00  0.00000000000000E+00
  0.00000000000000E+00  6.50000000000000E+00  0.00000000000000E+00
  0.00000000000000E+00  2.50000000000000E+00  0.00000000000000E+00
 Reduced coordinates (xred)
  0.00000000000000E+00  3.33333333333333E-01  0.00000000000000E+00
  0.00000000000000E+00  4.33333333333333E-01  0.00000000000000E+00
  0.00000000000000E+00  5.33333333333333E-01  0.00000000000000E+00
  0.00000000000000E+00  6.33333333333333E-01  0.00000000000000E+00
  0.00000000000000E+00 -2.00000000000000E-01  0.00000000000000E+00
  0.00000000000000E+00 -6.66666666666667E-02  0.00000000000000E+00
  0.00000000000000E+00  2.16666666666667E-01  0.00000000000000E+00
  0.00000000000000E+00  8.33333333333333E-02  0.00000000000000E+00
 Cartesian forces (fcart) [Ha/bohr]; max,rms= 1.83590E-01 6.18787E-02 (free atoms)
 -0.00000000000000E+00 -3.48781140617839E-01 -0.00000000000000E+00
 -0.00000000000000E+00  4.74970047705174E-03 -0.00000000000000E+00
 -0.00000000000000E+00  9.59900955781258E-03 -0.00000000000000E+00
 -0.00000000000000E+00  6.12294528152201E-01 -0.00000000000000E+00
 -0.00000000000000E+00 -8.67406441371705E-02 -0.00000000000000E+00
 -0.00000000000000E+00  4.46592535721119E-02 -0.00000000000000E+00
 -0.00000000000000E+00 -1.83590302356725E-01 -0.00000000000000E+00
 -0.00000000000000E+00 -5.21904046474428E-02 -0.00000000000000E+00
 Gradient of E wrt nuclear positions in reduced coordinates (gred)
  0.00000000000000E+00  1.04634342185352E+01  0.00000000000000E+00
 -0.00000000000000E+00 -1.42491014311552E-01 -0.00000000000000E+00
 -0.00000000000000E+00 -2.87970286734377E-01 -0.00000000000000E+00
 -0.00000000000000E+00 -1.83688358445660E+01 -0.00000000000000E+00
  0.00000000000000E+00  2.60221932411512E+00  0.00000000000000E+00
 -0.00000000000000E+00 -1.33977760716336E+00 -0.00000000000000E+00
  0.00000000000000E+00  5.50770907070176E+00  0.00000000000000E+00
  0.00000000000000E+00  1.56571213942328E+00  0.00000000000000E+00
 Cartesian velocities (vel) [bohr*Ha/hbar]; max,rms= 6.27541E-04 2.11511E-04 (free atoms)
  0.00000000000000E+00  0.00000000000000E+00  0.00000000000000E+00
  0.00000000000000E+00  0.00000000000000E+00  0.00000000000000E+00
  0.00000000000000E+00  0.00000000000000E+00  0.00000000000000E+00
  0.00000000000000E+00  0.00000000000000E+00  0.00000000000000E+00
  0.00000000000000E+00 -2.96491295279744E-04  0.00000000000000E+00
  0.00000000000000E+00  1.52649336557432E-04  0.00000000000000E+00
  0.00000000000000E+00 -6.27541232273854E-04  0.00000000000000E+00
  0.00000000000000E+00 -1.78400600436677E-04  0.00000000000000E+00
 Kinetic energy of ions (ekin) [Ha]=  1.37423217128972E-02
 Total energy (etotal) [Ha]= -3.33960141411954E+01

 Difference of energy with previous step (new-old):
           Absolute (Ha)=-1.52859E-10
           Relative     =-4.57716E-12

--- Iteration: ( 1/10) Internal Cycle: (3/4)
--------------------------------------------------------------------------------

---SELF-CONSISTENT-FIELD CONVERGENCE--------------------------------------------

--- !BeginCycle
iteration_state: {dtset: 1, itime: 1, icycle: 3, }
solver: {iscf: 7, nstep: 100, nline: 6, wfoptalg: 0, }
tolerances: {toldff: 1.00E-05, }
...

     iter   Etot(hartree)      deltaE(h)  residm     vres2    diffor    maxfor

 ETOT  1  -33.360123532208    -3.336E+01 1.781E-07 1.073E+02 1.595E-01 1.595E-01

 cartesian forces (ha/bohr); non-corrected avg=  0.00E+00 -3.54E-06  0.00E+00
    1     0.00000000000E+00   -3.95219773507E-01    0.00000000000E+00
    2     0.00000000000E+00    6.76629606540E-03    0.00000000000E+00
    3     0.00000000000E+00    6.85335269177E-03    0.00000000000E+00
    4     0.00000000000E+00    6.11371818081E-01    0.00000000000E+00
    5     0.00000000000E+00   -7.75887974566E-02    0.00000000000E+00
    6     0.00000000000E+00    4.45801064902E-02    0.00000000000E+00
    7     0.00000000000E+00   -1.59465953156E-01    0.00000000000E+00
    8     0.00000000000E+00   -3.72970492089E-02    0.00000000000E+00
 prteigrs : about to open file t40o_TIMC_EIG
 Fermi (or HOMO) energy (hartree) =   0.54470   Average Vxc (hartree)=  -0.41022
 Eigenvalues (hartree) for nkpt=   1  k points:
 kpt#   1, nband= 20, wtk=  1.00000, kpt=  0.0000  0.0000  0.0000 (reduced coord)
  -0.18176   -0.15086   -0.12667   -0.09604   -0.05646    0.01496    0.03763    0.13074
   0.19215    0.31099    0.38356    0.48254    0.48254    0.53132    0.53132    0.53380
   0.54803    0.55509    0.55509    0.58125
      occupation numbers for kpt#   1
   2.00000    2.00000    2.00000    2.00000    2.00000    2.00000    1.99999    1.99994
   1.99970    1.99421    1.96502    1.65101    1.65101    1.16567    1.16567    1.13543
   0.95836    0.87078    0.87078    0.57244

 ETOT  2  -33.246059097450     1.141E-01 5.705E-07 3.259E+02 5.538E-02 1.041E-01

 cartesian forces (ha/bohr); non-corrected avg=  0.00E+00  3.93E-06  0.00E+00
    1     0.00000000000E+00   -3.76166800366E-01    0.00000000000E+00
    2     0.00000000000E+00   -1.37367348066E-02    0.00000000000E+00
    3     0.00000000000E+00    1.31878719178E-02    0.00000000000E+00
    4     0.00000000000E+00    5.98172130755E-01    0.00000000000E+00
    5     0.00000000000E+00   -2.55046326727E-02    0.00000000000E+00
    6     0.00000000000E+00   -6.64558833839E-03    0.00000000000E+00
    7     0.00000000000E+00   -1.04082645412E-01    0.00000000000E+00
    8     0.00000000000E+00   -8.52236010773E-02    0.00000000000E+00
 prteigrs : about to open file t40o_TIMC_EIG
 Fermi (or HOMO) energy (hartree) =   0.54381   Average Vxc (hartree)=  -0.41002
 Eigenvalues (hartree) for nkpt=   1  k points:
 kpt#   1, nband= 20, wtk=  1.00000, kpt=  0.0000  0.0000  0.0000 (reduced coord)
  -0.18832   -0.14488   -0.13265   -0.09228   -0.05621    0.01579    0.03586    0.13077
   0.19315    0.31120    0.38520    0.47540    0.47540    0.53031    0.53031    0.53320
   0.54765    0.55553    0.55553    0.58476
      occupation numbers for kpt#   1
   2.00000    2.00000    2.00000    2.00000    2.00000    2.00000    1.99999    1.99993
   1.99969    1.99405    1.96278    1.69374    1.69374    1.16721    1.16720    1.13186
   0.95207    0.85454    0.85453    0.52866

 ETOT  3  -33.415342864386    -1.693E-01 1.309E-04 9.852E+00 3.903E-02 1.336E-01

 cartesian forces (ha/bohr); non-corrected avg=  0.00E+00 -1.29E-05  0.00E+00
    1     0.00000000000E+00   -3.98271249917E-01    0.00000000000E+00
    2     0.00000000000E+00    5.20128390111E-03    0.00000000000E+00
    3     0.00000000000E+00    8.90955519500E-03    0.00000000000E+00
    4     0.00000000000E+00    6.05528480013E-01    0.00000000000E+00
    5     0.00000000000E+00   -6.44939678450E-02    0.00000000000E+00
    6     0.00000000000E+00    2.29319984314E-02    0.00000000000E+00
    7     0.00000000000E+00   -1.33616033027E-01    0.00000000000E+00
    8     0.00000000000E+00   -4.61900667508E-02    0.00000000000E+00
 prteigrs : about to open file t40o_TIMC_EIG
 Fermi (or HOMO) energy (hartree) =   0.54479   Average Vxc (hartree)=  -0.41015
 Eigenvalues (hartree) for nkpt=   1  k points:
 kpt#   1, nband= 20, wtk=  1.00000, kpt=  0.0000  0.0000  0.0000 (reduced coord)
  -0.18490   -0.14855   -0.12725   -0.09394   -0.05740    0.01614    0.03658    0.13100
   0.19280    0.31149    0.38417    0.47935    0.47935    0.53045    0.53047    0.53349
   0.54806    0.55750    0.55752    0.58310
      occupation numbers for kpt#   1
   2.00000    2.00000    2.00000    2.00000    2.00000    2.00000    1.99999    1.99994
   1.99970    1.99416    1.96457    1.67404    1.67403    1.17738    1.17719    1.14042
   0.95917    0.84245    0.84229    0.55467

 ETOT  4  -33.419699741674    -4.357E-03 2.864E-06 2.559E-01 4.866E-03 1.347E-01

 cartesian forces (ha/bohr); non-corrected avg=  0.00E+00  1.18E-05  0.00E+00
    1     0.00000000000E+00   -3.92769628748E-01    0.00000000000E+00
    2     0.00000000000E+00    5.37636711978E-03    0.00000000000E+00
    3     0.00000000000E+00    9.77195470939E-03    0.00000000000E+00
    4     0.00000000000E+00    6.05135730386E-01    0.00000000000E+00
    5     0.00000000000E+00   -6.27016158122E-02    0.00000000000E+00
    6     0.00000000000E+00    2.08950913632E-02    0.00000000000E+00
    7     0.00000000000E+00   -1.34652303097E-01    0.00000000000E+00
    8     0.00000000000E+00   -5.10555959216E-02    0.00000000000E+00
 prteigrs : about to open file t40o_TIMC_EIG
 Fermi (or HOMO) energy (hartree) =   0.54483   Average Vxc (hartree)=  -0.41017
 Eigenvalues (hartree) for nkpt=   1  k points:
 kpt#   1, nband= 20, wtk=  1.00000, kpt=  0.0000  0.0000  0.0000 (reduced coord)
  -0.18425   -0.14772   -0.12832   -0.09439   -0.05724    0.01579    0.03666    0.13078
   0.19243    0.31111    0.38427    0.47983    0.47983    0.53150    0.53150    0.53358
   0.54800    0.55658    0.55658    0.58251
      occupation numbers for kpt#   1
   2.00000    2.00000    2.00000    2.00000    2.00000    2.00000    1.99999    1.99994
   1.99970    1.99422    1.96452    1.67095    1.67095    1.16514    1.16514    1.13974
   0.96045    0.85415    0.85414    0.56097

 ETOT  5  -33.419789444626    -8.970E-05 1.612E-07 4.593E-02 4.835E-04 1.349E-01

 cartesian forces (ha/bohr); non-corrected avg=  0.00E+00 -4.86E-06  0.00E+00
    1     0.00000000000E+00   -3.91850189678E-01    0.00000000000E+00
    2     0.00000000000E+00    3.88885355000E-03    0.00000000000E+00
    3     0.00000000000E+00    7.93938753698E-03    0.00000000000E+00
    4     0.00000000000E+00    6.06988279845E-01    0.00000000000E+00
    5     0.00000000000E+00   -6.28921382538E-02    0.00000000000E+00
    6     0.00000000000E+00    2.13785750673E-02    0.00000000000E+00
    7     0.00000000000E+00   -1.34861740694E-01    0.00000000000E+00
    8     0.00000000000E+00   -5.05910273734E-02    0.00000000000E+00
 prteigrs : about to open file t40o_TIMC_EIG
 Fermi (or HOMO) energy (hartree) =   0.54479   Average Vxc (hartree)=  -0.41017
 Eigenvalues (hartree) for nkpt=   1  k points:
 kpt#   1, nband= 20, wtk=  1.00000, kpt=  0.0000  0.0000  0.0000 (reduced coord)
  -0.18429   -0.14780   -0.12831   -0.09452   -0.05720    0.01582    0.03656    0.13073
   0.19246    0.31112    0.38418    0.47984    0.47984    0.53145    0.53145    0.53353
   0.54797    0.55655    0.55655    0.58239
      occupation numbers for kpt#   1
   2.00000    2.00000    2.00000    2.00000    2.00000    2.00000    1.99999    1.99994
   1.99970    1.99421    1.96457    1.67059    1.67059    1.16518    1.16518    1.13976
   0.96030    0.85409    0.85409    0.56182

 ETOT  6  -33.419821894369    -3.245E-05 4.147E-08 3.071E-03 3.337E-04 1.352E-01

 cartesian forces (ha/bohr); non-corrected avg=  0.00E+00 -1.08E-06  0.00E+00
    1     0.00000000000E+00   -3.92209390789E-01    0.00000000000E+00
    2     0.00000000000E+00    4.39433702791E-03    0.00000000000E+00
    3     0.00000000000E+00    9.26891018806E-03    0.00000000000E+00
    4     0.00000000000E+00    6.05776335440E-01    0.00000000000E+00
    5     0.00000000000E+00   -6.32258164572E-02    0.00000000000E+00
    6     0.00000000000E+00    2.15646246372E-02    0.00000000000E+00
    7     0.00000000000E+00   -1.35179720570E-01    0.00000000000E+00
    8     0.00000000000E+00   -5.03892794760E-02    0.00000000000E+00
 prteigrs : about to open file t40o_TIMC_EIG
 Fermi (or HOMO) energy (hartree) =   0.54478   Average Vxc (hartree)=  -0.41017
 Eigenvalues (hartree) for nkpt=   1  k points:
 kpt#   1, nband= 20, wtk=  1.00000, kpt=  0.0000  0.0000  0.0000 (reduced coord)
  -0.18429   -0.14786   -0.12826   -0.09455   -0.05720    0.01583    0.03657    0.13074
   0.19242    0.31109    0.38421    0.47982    0.47982    0.53140    0.53140    0.53356
   0.54794    0.55657    0.55657    0.58239
      occupation numbers for kpt#   1
   2.00000    2.00000    2.00000    2.00000    2.00000    2.00000    1.99999    1.99994
   1.99970    1.99421    1.96453    1.67069    1.67069    1.16571    1.16571    1.13932
   0.96051    0.85364    0.85364    0.56172

 ETOT  7  -33.419821982980    -8.861E-08 3.066E-09 3.292E-03 9.132E-05 1.352E-01

 cartesian forces (ha/bohr); non-corrected avg=  0.00E+00 -1.56E-06  0.00E+00
    1     0.00000000000E+00   -3.92434456166E-01    0.00000000000E+00
    2     0.00000000000E+00    4.61425104111E-03    0.00000000000E+00
    3     0.00000000000E+00    8.94938667215E-03    0.00000000000E+00
    4     0.00000000000E+00    6.06033883465E-01    0.00000000000E+00
    5     0.00000000000E+00   -6.31344986059E-02    0.00000000000E+00
    6     0.00000000000E+00    2.15726605173E-02    0.00000000000E+00
    7     0.00000000000E+00   -1.35154193024E-01    0.00000000000E+00
    8     0.00000000000E+00   -5.04470339005E-02    0.00000000000E+00
 prteigrs : about to open file t40o_TIMC_EIG
 Fermi (or HOMO) energy (hartree) =   0.54479   Average Vxc (hartree)=  -0.41017
 Eigenvalues (hartree) for nkpt=   1  k points:
 kpt#   1, nband= 20, wtk=  1.00000, kpt=  0.0000  0.0000  0.0000 (reduced coord)
  -0.18426   -0.14785   -0.12828   -0.09454   -0.05719    0.01583    0.03657    0.13074
   0.19242    0.31109    0.38421    0.47986    0.47986    0.53143    0.53143    0.53356
   0.54795    0.55655    0.55655    0.58238
      occupation numbers for kpt#   1
   2.00000    2.00000    2.00000    2.00000    2.00000    2.00000    1.99999    1.99994
   1.99970    1.99421    1.96454    1.67047    1.67047    1.16548    1.16548    1.13940
   0.96049    0.85397    0.85397    0.56189

 ETOT  8  -33.419823345232    -1.362E-06 6.530E-10 1.557E-04 3.178E-05 1.352E-01

 cartesian forces (ha/bohr); non-corrected avg=  0.00E+00 -1.12E-06  0.00E+00
    1     0.00000000000E+00   -3.92253940852E-01    0.00000000000E+00
    2     0.00000000000E+00    4.48224222791E-03    0.00000000000E+00
    3     0.00000000000E+00    9.01637160926E-03    0.00000000000E+00
    4     0.00000000000E+00    6.05960333136E-01    0.00000000000E+00
    5     0.00000000000E+00   -6.31639336677E-02    0.00000000000E+00
    6     0.00000000000E+00    2.15834724019E-02    0.00000000000E+00
    7     0.00000000000E+00   -1.35185975462E-01    0.00000000000E+00
    8     0.00000000000E+00   -5.04385693928E-02    0.00000000000E+00
 prteigrs : about to open file t40o_TIMC_EIG
 Fermi (or HOMO) energy (hartree) =   0.54478   Average Vxc (hartree)=  -0.41017
 Eigenvalues (hartree) for nkpt=   1  k points:
 kpt#   1, nband= 20, wtk=  1.00000, kpt=  0.0000  0.0000  0.0000 (reduced coord)
  -0.18428   -0.14784   -0.12827   -0.09455   -0.05719    0.01584    0.03657    0.13074
   0.19241    0.31109    0.38421    0.47984    0.47984    0.53142    0.53142    0.53356
   0.54794    0.55656    0.55656    0.58238
      occupation numbers for kpt#   1
   2.00000    2.00000    2.00000    2.00000    2.00000    2.00000    1.99999    1.99994
   1.99970    1.99421    1.96453    1.67060    1.67060    1.16553    1.16553    1.13937
   0.96051    0.85384    0.85384    0.56180

 ETOT  9  -33.419823420118    -7.489E-08 1.020E-10 1.446E-05 2.768E-05 1.352E-01

 cartesian forces (ha/bohr); non-corrected avg=  0.00E+00 -1.18E-06  0.00E+00
    1     0.00000000000E+00   -3.92288462206E-01    0.00000000000E+00
    2     0.00000000000E+00    4.47782053024E-03    0.00000000000E+00
    3     0.00000000000E+00    9.05142605492E-03    0.00000000000E+00
    4     0.00000000000E+00    6.05945578174E-01    0.00000000000E+00
    5     0.00000000000E+00   -6.31490699658E-02    0.00000000000E+00
    6     0.00000000000E+00    2.15651114933E-02    0.00000000000E+00
    7     0.00000000000E+00   -1.35158292769E-01    0.00000000000E+00
    8     0.00000000000E+00   -5.04441113104E-02    0.00000000000E+00
 prteigrs : about to open file t40o_TIMC_EIG
 Fermi (or HOMO) energy (hartree) =   0.54479   Average Vxc (hartree)=  -0.41017
 Eigenvalues (hartree) for nkpt=   1  k points:
 kpt#   1, nband= 20, wtk=  1.00000, kpt=  0.0000  0.0000  0.0000 (reduced coord)
  -0.18427   -0.14784   -0.12827   -0.09454   -0.05719    0.01584    0.03657    0.13074
   0.19241    0.31109    0.38421    0.47984    0.47984    0.53142    0.53142    0.53356
   0.54795    0.55656    0.55656    0.58238
      occupation numbers for kpt#   1
   2.00000    2.00000    2.00000    2.00000    2.00000    2.00000    1.99999    1.99994
   1.99970    1.99421    1.96453    1.67058    1.67058    1.16555    1.16555    1.13938
   0.96051    0.85383    0.85383    0.56182

 ETOT 10  -33.419823427568    -7.450E-09 1.052E-11 1.739E-07 5.757E-06 1.352E-01

 cartesian forces (ha/bohr); non-corrected avg=  0.00E+00 -1.22E-06  0.00E+00
    1     0.00000000000E+00   -3.92285039683E-01    0.00000000000E+00
    2     0.00000000000E+00    4.49262813692E-03    0.00000000000E+00
    3     0.00000000000E+00    9.03403453754E-03    0.00000000000E+00
    4     0.00000000000E+00    6.05947203611E-01    0.00000000000E+00
    5     0.00000000000E+00   -6.31445452567E-02    0.00000000000E+00
    6     0.00000000000E+00    2.15616609028E-02    0.00000000000E+00
    7     0.00000000000E+00   -1.35156074204E-01    0.00000000000E+00
    8     0.00000000000E+00   -5.04498680445E-02    0.00000000000E+00
 prteigrs : about to open file t40o_TIMC_EIG
 Fermi (or HOMO) energy (hartree) =   0.54479   Average Vxc (hartree)=  -0.41017
 Eigenvalues (hartree) for nkpt=   1  k points:
 kpt#   1, nband= 20, wtk=  1.00000, kpt=  0.0000  0.0000  0.0000 (reduced coord)
  -0.18428   -0.14784   -0.12827   -0.09454   -0.05719    0.01584    0.03656    0.13074
   0.19241    0.31109    0.38421    0.47984    0.47984    0.53142    0.53142    0.53356
   0.54795    0.55656    0.55656    0.58238
      occupation numbers for kpt#   1
   2.00000    2.00000    2.00000    2.00000    2.00000    2.00000    1.99999    1.99994
   1.99970    1.99421    1.96453    1.67060    1.67060    1.16554    1.16554    1.13938
   0.96052    0.85382    0.85382    0.56181

 ETOT 11  -33.419823427896    -3.281E-10 1.688E-12 6.724E-08 1.416E-06 1.352E-01

 cartesian forces (ha/bohr); non-corrected avg=  0.00E+00 -1.20E-06  0.00E+00
    1     0.00000000000E+00   -3.92281458666E-01    0.00000000000E+00
    2     0.00000000000E+00    4.48446765756E-03    0.00000000000E+00
    3     0.00000000000E+00    9.04310840985E-03    0.00000000000E+00
    4     0.00000000000E+00    6.05943666012E-01    0.00000000000E+00
    5     0.00000000000E+00   -6.31449995447E-02    0.00000000000E+00
    6     0.00000000000E+00    2.15625986127E-02    0.00000000000E+00
    7     0.00000000000E+00   -1.35157490320E-01    0.00000000000E+00
    8     0.00000000000E+00   -5.04498921622E-02    0.00000000000E+00
 prteigrs : about to open file t40o_TIMC_EIG
 Fermi (or HOMO) energy (hartree) =   0.54479   Average Vxc (hartree)=  -0.41017
 Eigenvalues (hartree) for nkpt=   1  k points:
 kpt#   1, nband= 20, wtk=  1.00000, kpt=  0.0000  0.0000  0.0000 (reduced coord)
  -0.18428   -0.14784   -0.12827   -0.09454   -0.05719    0.01584    0.03656    0.13074
   0.19241    0.31109    0.38421    0.47984    0.47984    0.53142    0.53142    0.53356
   0.54795    0.55656    0.55656    0.58238
      occupation numbers for kpt#   1
   2.00000    2.00000    2.00000    2.00000    2.00000    2.00000    1.99999    1.99994
   1.99970    1.99421    1.96453    1.67059    1.67059    1.16555    1.16555    1.13938
   0.96052    0.85382    0.85382    0.56181

 At SCF step   11, forces are converged : 
  for the second time, max diff in force=  1.416E-06 < toldff=  1.000E-05

 Cartesian components of stress tensor (hartree/bohr^3)
  sigma(1 1)=  1.50978014E-03  sigma(3 2)=  0.00000000E+00
  sigma(2 2)= -1.42219730E-02  sigma(3 1)=  0.00000000E+00
  sigma(3 3)=  1.50978014E-03  sigma(2 1)=  0.00000000E+00


--- !ResultsGS
iteration_state: {dtset: 1, itime: 1, icycle: 3, }
comment   : Summary of ground state results
lattice_vectors:
- [  5.0000000,   0.0000000,   0.0000000, ]
- [  0.0000000,  30.0000000,   0.0000000, ]
- [  0.0000000,   0.0000000,   5.0000000, ]
lattice_lengths: [   5.00000,   30.00000,    5.00000, ]
lattice_angles: [ 90.000,  90.000,  90.000, ] # degrees, (23, 13, 12)
lattice_volume:   7.5000000E+02
convergence: {deltae: -3.281E-10, res2:  6.724E-08, residm:  1.688E-12, diffor:  1.416E-06, }
etotal    :  -3.34198234E+01
entropy   :   0.00000000E+00
fermie    :   5.44785200E-01
cartesian_stress_tensor: # hartree/bohr^3
- [  1.50978014E-03,   0.00000000E+00,   0.00000000E+00, ]
- [  0.00000000E+00,  -1.42219730E-02,   0.00000000E+00, ]
- [  0.00000000E+00,   0.00000000E+00,   1.50978014E-03, ]
pressure_GPa:   1.0986E+02
xred      :
- [  0.0000E+00,   3.3333E-01,   0.0000E+00, Si]
- [  0.0000E+00,   4.3333E-01,   0.0000E+00, Si]
- [  0.0000E+00,   5.3333E-01,   0.0000E+00, Si]
- [  0.0000E+00,   6.3333E-01,   0.0000E+00, Si]
- [  0.0000E+00,  -2.0173E-01,   0.0000E+00, Si]
- [  0.0000E+00,  -6.5776E-02,   0.0000E+00, Si]
- [  0.0000E+00,   2.1301E-01,   0.0000E+00, Si]
- [  0.0000E+00,   8.2293E-02,   0.0000E+00, Si]
cartesian_forces: # hartree/bohr
- [ -0.00000000E+00,  -3.92281459E-01,  -0.00000000E+00, ]
- [ -0.00000000E+00,   4.48446766E-03,  -0.00000000E+00, ]
- [ -0.00000000E+00,   9.04310841E-03,  -0.00000000E+00, ]
- [ -0.00000000E+00,   6.05943666E-01,  -0.00000000E+00, ]
- [ -0.00000000E+00,  -6.31449995E-02,  -0.00000000E+00, ]
- [ -0.00000000E+00,   2.15625986E-02,  -0.00000000E+00, ]
- [ -0.00000000E+00,  -1.35157490E-01,  -0.00000000E+00, ]
- [ -0.00000000E+00,  -5.04498922E-02,  -0.00000000E+00, ]
force_length_stats: {min:   4.48446766E-03, max:   6.05943666E-01, mean:   1.60258460E-01, }
...

 Integrated electronic density in atomic spheres:
 ------------------------------------------------
 Atom  Sphere_radius  Integrated_density
    1        2.00000          2.53691095
    2        2.00000          2.77473292
    3        2.00000          2.62213301
    4        2.00000          2.04402669
    5        2.00000          1.62503475
    6        2.00000          1.80658507
    7        2.00000          2.03852518
    8        2.00000          1.80305419

---OUTPUT-----------------------------------------------------------------------

 Cartesian coordinates (xcart) [bohr]
  0.00000000000000E+00  1.00000000000000E+01  0.00000000000000E+00
  0.00000000000000E+00  1.30000000000000E+01  0.00000000000000E+00
  0.00000000000000E+00  1.60000000000000E+01  0.00000000000000E+00
  0.00000000000000E+00  1.90000000000000E+01  0.00000000000000E+00
  0.00000000000000E+00 -6.05188597667396E+00  0.00000000000000E+00
  0.00000000000000E+00 -1.97328636610245E+00  0.00000000000000E+00
  0.00000000000000E+00  6.39018028435208E+00  0.00000000000000E+00
  0.00000000000000E+00  2.46877989492358E+00  0.00000000000000E+00
 Reduced coordinates (xred)
  0.00000000000000E+00  3.33333333333333E-01  0.00000000000000E+00
  0.00000000000000E+00  4.33333333333333E-01  0.00000000000000E+00
  0.00000000000000E+00  5.33333333333333E-01  0.00000000000000E+00
  0.00000000000000E+00  6.33333333333333E-01  0.00000000000000E+00
  0.00000000000000E+00 -2.01729532555799E-01  0.00000000000000E+00
  0.00000000000000E+00 -6.57762122034150E-02  0.00000000000000E+00
  0.00000000000000E+00  2.13006009478403E-01  0.00000000000000E+00
  0.00000000000000E+00  8.22926631641194E-02  0.00000000000000E+00
 Cartesian forces (fcart) [Ha/bohr]; max,rms= 1.35157E-01 4.58848E-02 (free atoms)
 -0.00000000000000E+00 -3.92281458665614E-01 -0.00000000000000E+00
 -0.00000000000000E+00  4.48446765755990E-03 -0.00000000000000E+00
 -0.00000000000000E+00  9.04310840984789E-03 -0.00000000000000E+00
 -0.00000000000000E+00  6.05943666011961E-01 -0.00000000000000E+00
 -0.00000000000000E+00 -6.31449995447206E-02 -0.00000000000000E+00
 -0.00000000000000E+00  2.15625986126989E-02 -0.00000000000000E+00
 -0.00000000000000E+00 -1.35157490319577E-01 -0.00000000000000E+00
 -0.00000000000000E+00 -5.04498921621572E-02 -0.00000000000000E+00
 Gradient of E wrt nuclear positions in reduced coordinates (gred)
  0.00000000000000E+00  1.17684437599684E+01  0.00000000000000E+00
 -0.00000000000000E+00 -1.34534029726797E-01 -0.00000000000000E+00
 -0.00000000000000E+00 -2.71293252295437E-01 -0.00000000000000E+00
 -0.00000000000000E+00 -1.81783099803588E+01 -0.00000000000000E+00
  0.00000000000000E+00  1.89434998634162E+00  0.00000000000000E+00
 -0.00000000000000E+00 -6.46877958380966E-01 -0.00000000000000E+00
  0.00000000000000E+00  4.05472470958730E+00  0.00000000000000E+00
  0.00000000000000E+00  1.51349676486471E+00  0.00000000000000E+00
 Cartesian velocities (vel) [bohr*Ha/hbar]; max,rms= 4.13041E-04 1.39214E-04 (free atoms)
  0.00000000000000E+00  0.00000000000000E+00  0.00000000000000E+00
  0.00000000000000E+00  0.00000000000000E+00  0.00000000000000E+00
  0.00000000000000E+00  0.00000000000000E+00  0.00000000000000E+00
  0.00000000000000E+00  0.00000000000000E+00  0.00000000000000E+00
  0.00000000000000E+00 -1.95149459009065E-04  0.00000000000000E+00
  0.00000000000000E+00  1.00475274984117E-04  0.00000000000000E+00
  0.00000000000000E+00 -4.13040626916819E-04  0.00000000000000E+00
  0.00000000000000E+00 -1.17415892923637E-04  0.00000000000000E+00
 Kinetic energy of ions (ekin) [Ha]=  5.95335196157305E-03
 Total energy (etotal) [Ha]= -3.34198234278960E+01

 Difference of energy with previous step (new-old):
           Absolute (Ha)=-2.38093E-02
           Relative     =-7.12684E-04

--- Iteration: ( 1/10) Internal Cycle: (4/4)
--------------------------------------------------------------------------------

---SELF-CONSISTENT-FIELD CONVERGENCE--------------------------------------------

--- !BeginCycle
iteration_state: {dtset: 1, itime: 1, icycle: 4, }
solver: {iscf: 7, nstep: 100, nline: 6, wfoptalg: 0, }
tolerances: {toldff: 1.00E-05, }
...

     iter   Etot(hartree)      deltaE(h)  residm     vres2    diffor    maxfor

 ETOT  1  -33.418264465274    -3.342E+01 1.486E-08 1.425E+01 1.288E-01 1.288E-01

 cartesian forces (ha/bohr); non-corrected avg=  0.00E+00 -2.40E-06  0.00E+00
    1     0.00000000000E+00   -4.06030873170E-01    0.00000000000E+00
    2     0.00000000000E+00    5.73658364243E-03    0.00000000000E+00
    3     0.00000000000E+00    7.74269426478E-03    0.00000000000E+00
    4     0.00000000000E+00    6.06287081579E-01    0.00000000000E+00
    5     0.00000000000E+00   -6.15518094287E-02    0.00000000000E+00
    6     0.00000000000E+00    2.19649734547E-02    0.00000000000E+00
    7     0.00000000000E+00   -1.28832716613E-01    0.00000000000E+00
    8     0.00000000000E+00   -4.53159337294E-02    0.00000000000E+00
 prteigrs : about to open file t40o_TIM1_EIG
 Fermi (or HOMO) energy (hartree) =   0.54505   Average Vxc (hartree)=  -0.41023
 Eigenvalues (hartree) for nkpt=   1  k points:
 kpt#   1, nband= 20, wtk=  1.00000, kpt=  0.0000  0.0000  0.0000 (reduced coord)
  -0.18272   -0.14850   -0.12738   -0.09472   -0.05681    0.01489    0.03697    0.13047
   0.19246    0.31188    0.38296    0.48140    0.48140    0.53235    0.53235    0.53314
   0.54807    0.55606    0.55606    0.58227
      occupation numbers for kpt#   1
   2.00000    2.00000    2.00000    2.00000    2.00000    2.00000    1.99999    1.99994
   1.99970    1.99414    1.96583    1.66161    1.66161    1.15748    1.15748    1.14779
   0.96225    0.86325    0.86325    0.56567

 ETOT  2  -33.400537658868     1.773E-02 2.832E-08 4.873E+01 1.879E-02 1.102E-01

 cartesian forces (ha/bohr); non-corrected avg=  0.00E+00  3.06E-06  0.00E+00
    1     0.00000000000E+00   -3.96008580097E-01    0.00000000000E+00
    2     0.00000000000E+00   -1.37914405772E-03    0.00000000000E+00
    3     0.00000000000E+00    1.11020419210E-02    0.00000000000E+00
    4     0.00000000000E+00    6.00431981731E-01    0.00000000000E+00
    5     0.00000000000E+00   -4.49806041550E-02    0.00000000000E+00
    6     0.00000000000E+00    3.17233705341E-03    0.00000000000E+00
    7     0.00000000000E+00   -1.10245486802E-01    0.00000000000E+00
    8     0.00000000000E+00   -6.20925455936E-02    0.00000000000E+00
 prteigrs : about to open file t40o_TIM1_EIG
 Fermi (or HOMO) energy (hartree) =   0.54487   Average Vxc (hartree)=  -0.41017
 Eigenvalues (hartree) for nkpt=   1  k points:
 kpt#   1, nband= 20, wtk=  1.00000, kpt=  0.0000  0.0000  0.0000 (reduced coord)
  -0.18513   -0.14587   -0.12936   -0.09374   -0.05674    0.01512    0.03637    0.13048
   0.19274    0.31196    0.38359    0.47869    0.47869    0.53231    0.53231    0.53308
   0.54787    0.55663    0.55663    0.58314
      occupation numbers for kpt#   1
   2.00000    2.00000    2.00000    2.00000    2.00000    2.00000    1.99999    1.99994
   1.99970    1.99410    1.96514    1.67900    1.67900    1.15569    1.15569    1.14625
   0.96249    0.85400    0.85400    0.55501

 ETOT  3  -33.425368109638    -2.483E-02 1.686E-05 1.197E+00 1.303E-02 1.207E-01

 cartesian forces (ha/bohr); non-corrected avg=  0.00E+00 -5.16E-06  0.00E+00
    1     0.00000000000E+00   -4.05288598386E-01    0.00000000000E+00
    2     0.00000000000E+00    3.79629660604E-03    0.00000000000E+00
    3     0.00000000000E+00    9.06239758427E-03    0.00000000000E+00
    4     0.00000000000E+00    6.03651083312E-01    0.00000000000E+00
    5     0.00000000000E+00   -5.65501129524E-02    0.00000000000E+00
    6     0.00000000000E+00    1.50818398300E-02    0.00000000000E+00
    7     0.00000000000E+00   -1.20692429388E-01    0.00000000000E+00
    8     0.00000000000E+00   -4.90604766059E-02    0.00000000000E+00
 prteigrs : about to open file t40o_TIM1_EIG
 Fermi (or HOMO) energy (hartree) =   0.54505   Average Vxc (hartree)=  -0.41020
 Eigenvalues (hartree) for nkpt=   1  k points:
 kpt#   1, nband= 20, wtk=  1.00000, kpt=  0.0000  0.0000  0.0000 (reduced coord)
  -0.18387   -0.14771   -0.12759   -0.09401   -0.05709    0.01527    0.03661    0.13057
   0.19266    0.31205    0.38317    0.48020    0.48020    0.53201    0.53201    0.53310
   0.54802    0.55682    0.55682    0.58300
      occupation numbers for kpt#   1
   2.00000    2.00000    2.00000    2.00000    2.00000    2.00000    1.99999    1.99994
   1.99970    1.99411    1.96565    1.66995    1.66995    1.16159    1.16159    1.14836
   0.96289    0.85396    0.85395    0.55836

 ETOT  4  -33.425890364360    -5.223E-04 2.591E-07 1.669E-02 1.415E-03 1.209E-01

 cartesian forces (ha/bohr); non-corrected avg=  0.00E+00  3.02E-06  0.00E+00
    1     0.00000000000E+00   -4.04668642030E-01    0.00000000000E+00
    2     0.00000000000E+00    4.78448026257E-03    0.00000000000E+00
    3     0.00000000000E+00    8.91355775770E-03    0.00000000000E+00
    4     0.00000000000E+00    6.03898588120E-01    0.00000000000E+00
    5     0.00000000000E+00   -5.59881282774E-02    0.00000000000E+00
    6     0.00000000000E+00    1.43936789859E-02    0.00000000000E+00
    7     0.00000000000E+00   -1.20857671041E-01    0.00000000000E+00
    8     0.00000000000E+00   -5.04758637779E-02    0.00000000000E+00
 prteigrs : about to open file t40o_TIM1_EIG
 Fermi (or HOMO) energy (hartree) =   0.54509   Average Vxc (hartree)=  -0.41021
 Eigenvalues (hartree) for nkpt=   1  k points:
 kpt#   1, nband= 20, wtk=  1.00000, kpt=  0.0000  0.0000  0.0000 (reduced coord)
  -0.18359   -0.14747   -0.12792   -0.09412   -0.05705    0.01516    0.03666    0.13050
   0.19254    0.31193    0.38321    0.48043    0.48043    0.53236    0.53236    0.53312
   0.54804    0.55654    0.55654    0.58279
      occupation numbers for kpt#   1
   2.00000    2.00000    2.00000    2.00000    2.00000    2.00000    1.99999    1.99994
   1.99970    1.99413    1.96564    1.66859    1.66859    1.15772    1.15772    1.14853
   0.96313    0.85776    0.85776    0.56079

[...]
       0.000000000000     -0.083382191042      0.000000000000
       0.000000000000      0.190350102857      0.000000000000
       0.000000000000      0.058464582377      0.000000000000
 rms dE/dt=  4.7462E+00; max dE/dt=  1.6159E+01; dE/dt below (all hartree)
    1       0.000000000000     16.159111547066      0.000000000000
    2       0.000000000000      0.094288079442      0.000000000000
    3      -0.000000000000     -0.142186135115     -0.000000000000
    4      -0.000000000000    -16.715007238120     -0.000000000000
    5       0.000000000000      0.092905980075      0.000000000000
    6       0.000000000000      0.177464722259      0.000000000000
    7       0.000000000000      0.124432151104      0.000000000000
    8       0.000000000000      0.208990893288      0.000000000000

 cartesian coordinates (angstrom) at end:
    1      0.00000000000000     5.29177210544000     0.00000000000000
    2      0.00000000000000     6.87930373707200     0.00000000000000
    3      0.00000000000000     8.46683536870400     0.00000000000000
    4      0.00000000000000    10.05436700033600     0.00000000000000
    5      0.00000000000000    -3.46341198713164     0.00000000000000
    6      0.00000000000000    -1.32371865793507     0.00000000000000
    7      0.00000000000000     3.02186809369279     0.00000000000000
    8      0.00000000000000     0.92814373853736     0.00000000000000

 cartesian forces (hartree/bohr) at end:
    1     -0.00000000000000    -0.53863705156888    -0.00000000000000
    2     -0.00000000000000    -0.00314293598139    -0.00000000000000
    3      0.00000000000000     0.00473953783716     0.00000000000000
    4      0.00000000000000     0.55716690793735     0.00000000000000
    5     -0.00000000000000    -0.00309686600252    -0.00000000000000
    6     -0.00000000000000    -0.00591549074198    -0.00000000000000
    7     -0.00000000000000    -0.00414773837014    -0.00000000000000
    8     -0.00000000000000    -0.00696636310960    -0.00000000000000
 frms,max,avg= 3.0320175E-03 6.9663631E-03   0.000E+00  0.000E+00  0.000E+00 h/b

 cartesian forces (eV/Angstrom) at end:
    1     -0.00000000000000   -27.69783082980759    -0.00000000000000
    2     -0.00000000000000    -0.16161626621838    -0.00000000000000
    3      0.00000000000000     0.24371683463445     0.00000000000000
    4      0.00000000000000    28.65067435495968     0.00000000000000
    5     -0.00000000000000    -0.15924725265452    -0.00000000000000
    6     -0.00000000000000    -0.30418676429610    -0.00000000000000
    7     -0.00000000000000    -0.21328528248798    -0.00000000000000
    8     -0.00000000000000    -0.35822479412956    -0.00000000000000
 frms,max,avg= 1.5591261E-01 3.5822479E-01   0.000E+00  0.000E+00  0.000E+00 e/A
 length scales=  5.000000000000 30.000000000000  5.000000000000 bohr
              =  2.645886052720 15.875316316320  2.645886052720 angstroms
 prteigrs : about to open file t40o_EIG
 Fermi (or HOMO) energy (hartree) =   0.54890   Average Vxc (hartree)=  -0.41059
 Eigenvalues (hartree) for nkpt=   1  k points:
 kpt#   1, nband= 20, wtk=  1.00000, kpt=  0.0000  0.0000  0.0000 (reduced coord)
  -0.17648   -0.13685   -0.12949   -0.08982   -0.05621    0.01791    0.03252    0.12837
   0.19466    0.31555    0.37164    0.48619    0.48619    0.53189    0.54549    0.54549
   0.54967    0.55405    0.55405    0.58632
      occupation numbers for kpt#   1
   2.00000    2.00000    2.00000    2.00000    2.00000    2.00000    2.00000    1.99995
   1.99971    1.99416    1.97648    1.65491    1.65491    1.20940    1.04261    1.04261
   0.99037    0.93564    0.93564    0.56360
 Total charge density [el/Bohr^3]
)     Maximum=    1.2195E-01  at reduced coord.    0.0000    0.5833    0.8750
)Next maximum=    1.2195E-01  at reduced coord.    0.0000    0.5833    0.1250
)     Minimum=    7.7571E-03  at reduced coord.    0.5000    0.5833    0.5000
)Next minimum=    7.9104E-03  at reduced coord.    0.5000    0.4792    0.5000
   Integrated=    3.2000E+01

--- !EnergyTerms
iteration_state     : {dtset: 1, itime: 10, icycle: 1, }
comment             : Components of total free energy in Hartree
kinetic             :  1.46957438455252E+01
hartree             :  4.26559423445655E+00
xc                  : -1.49443131732998E+01
Ewald energy        : -3.47331032306422E+01
psp_core            :  4.89427565702056E-01
local_psp           : -1.29385412595742E+01
non_local_psp       :  1.01331783146838E+01
internal            : -3.30320137031485E+01
'-kT*entropy'       : -4.58471372459269E-01
total_energy        : -3.34904850756078E+01
total_energy_eV     : -9.11322524957625E+02
band_energy         :  6.23450730541397E+00
...


          ===> extra information on forces <===
 ewald contribution to reduced grads
    1       0.000000000000     80.777064276497      0.000000000000
    2       0.000000000000     20.981742938889      0.000000000000
    3       0.000000000000    -27.716600224283      0.000000000000
    4       0.000000000000    -87.985233176734     -0.000000000000
    5       0.000000000000    -28.986585632687      0.000000000000
    6       0.000000000000    -12.323192681780      0.000000000000
    7      -0.000000000000     32.989677446358     -0.000000000000
    8       0.000000000000     22.263127053740     -0.000000000000
 nonlocal contribution to red. grads
    1       0.000000000000     13.766274337050      0.000000000000
    2       0.000000000000     -2.388347840668      0.000000000000
    3       0.000000000000      2.369389794831      0.000000000000
    4       0.000000000000    -14.389547570679      0.000000000000
    5       0.000000000000      1.676748800472      0.000000000000
    6       0.000000000000     -0.752072510582      0.000000000000
    7       0.000000000000     -1.717244104015      0.000000000000
    8       0.000000000000      1.493762064732      0.000000000000
 local psp contribution to red. grads
    1      -0.000000000000    -77.387492643389     -0.000000000000
    2      -0.000000000000    -18.617355258316      0.000000000000
    3      -0.000000000000     25.323989629304     -0.000000000000
    4      -0.000000000000     84.600507767339      0.000000000000
    5      -0.000000000000     27.594249099873     -0.000000000000
    6      -0.000000000000     13.161326023618      0.000000000000
    7      -0.000000000000    -31.336580400514      0.000000000000
    8      -0.000000000000    -23.395328021989     -0.000000000000
 core charge xc contribution to reduced grads
    1       0.000000000000     -0.996792259458      0.000000000000
    2       0.000000000000      0.117905796791     -0.000000000000
    3       0.000000000000     -0.119403040663      0.000000000000
    4       0.000000000000      1.058853486296     -0.000000000000
    5       0.000000000000     -0.191697367208      0.000000000000
    6       0.000000000000      0.091589762970     -0.000000000000
    7       0.000000000000      0.189023608541     -0.000000000000
    8       0.000000000000     -0.152039300460      0.000000000000
 residual contribution to red. grads
    1       0.000000000000      0.000057836367      0.000000000000
    2       0.000000000000      0.000342442746      0.000000000000
    3       0.000000000000      0.000437705695     -0.000000000000
    4       0.000000000000      0.000412255658      0.000000000000
    5       0.000000000000      0.000191079625      0.000000000000
    6       0.000000000000     -0.000185871967     -0.000000000000
    7       0.000000000000     -0.000444399266     -0.000000000000
    8       0.000000000000     -0.000530902735      0.000000000000
 rms coord change=  8.9450E-03   atom, delta coord (reduced):
     1        0.000000000000      0.000000000000      0.000000000000
     2        0.000000000000      0.000000000000      0.000000000000
     3        0.000000000000      0.000000000000      0.000000000000
     4        0.000000000000      0.000000000000      0.000000000000
     5        0.000000000000     -0.018163337229      0.000000000000
     6        0.000000000000     -0.016715524375      0.000000000000
     7        0.000000000000     -0.026316563810      0.000000000000
     8        0.000000000000     -0.024868750956      0.000000000000

 Cartesian components of stress tensor (hartree/bohr^3)
  sigma(1 1)=  1.59546147E-03  sigma(3 2)=  0.00000000E+00
  sigma(2 2)= -1.39120667E-02  sigma(3 1)=  0.00000000E+00
  sigma(3 3)=  1.59546147E-03  sigma(2 1)=  0.00000000E+00

-Cartesian components of stress tensor (GPa)         [Pressure=  1.0514E+02 GPa]
- sigma(1 1)=  4.69400969E+01  sigma(3 2)=  0.00000000E+00
- sigma(2 2)= -4.09307133E+02  sigma(3 1)=  0.00000000E+00
- sigma(3 3)=  4.69400969E+01  sigma(2 1)=  0.00000000E+00

== END DATASET(S) ==============================================================
================================================================================
  
 -outvars: echo values of variables after computation  --------
            acell      5.0000000000E+00  3.0000000000E+01  5.0000000000E+00 Bohr
              amu      2.80855000E+01
            dtion      3.50000000E+02
             ecut      3.00000000E+00 Hartree
           etotal     -3.3490485076E+01
            fcart     -0.0000000000E+00 -5.3863705157E-01 -0.0000000000E+00
                      -0.0000000000E+00 -3.1429359814E-03 -0.0000000000E+00
                      -0.0000000000E+00  4.7395378372E-03 -0.0000000000E+00
                      -0.0000000000E+00  5.5716690794E-01 -0.0000000000E+00
                      -0.0000000000E+00 -3.0968660025E-03 -0.0000000000E+00
                      -0.0000000000E+00 -5.9154907420E-03 -0.0000000000E+00
                      -0.0000000000E+00 -4.1477383701E-03 -0.0000000000E+00
                      -0.0000000000E+00 -6.9663631096E-03 -0.0000000000E+00
-          fftalg         512
           iatfix        1    2    3    4
           ionmov           1
           istwfk        2
           kptopt           0
P           mkmem           1
           natfix           4
            natom           8
            nband          20
           nconeq           1
            ngfft           8      48       8
             nkpt           1
            nline           6
            nstep         100
             nsym           8
            ntime          10
           ntypat           1
              occ      2.000000  2.000000  2.000000  2.000000  1.999999  1.999997
                       1.999995  1.999946  1.999715  1.994163  1.976485  1.654913
                       1.654913  1.209400  1.042609  1.042609  0.990369  0.935642
                       0.935642  0.563604
           occopt           3
        optforces           1
           prtvol          10
          spgroup          99
           strten      1.5954614660E-03 -1.3912066665E-02  1.5954614660E-03
                       0.0000000000E+00  0.0000000000E+00  0.0000000000E+00
           symrel      1  0  0   0  1  0   0  0  1      -1  0  0   0  1  0   0  0  1
                      -1  0  0   0  1  0   0  0 -1       1  0  0   0  1  0   0  0 -1
                       0  0  1   0  1  0   1  0  0       0  0 -1   0  1  0   1  0  0
                       0  0 -1   0  1  0  -1  0  0       0  0  1   0  1  0  -1  0  0
           toldff      1.00000000E-05
           tolmxf      1.00000000E-03
           tsmear      4.00000000E-02 Hartree
            typat      1  1  1  1  1  1  1  1
              vel      0.0000000000E+00  0.0000000000E+00  0.0000000000E+00
                       0.0000000000E+00  0.0000000000E+00  0.0000000000E+00
                       0.0000000000E+00  0.0000000000E+00  0.0000000000E+00
                       0.0000000000E+00  0.0000000000E+00  0.0000000000E+00
                      -0.0000000000E+00 -1.4881833018E-04 -0.0000000000E+00
                      -0.0000000000E+00 -1.2859660841E-04 -0.0000000000E+00
                      -0.0000000000E+00 -9.0359290965E-05 -0.0000000000E+00
                      -0.0000000000E+00 -7.0137569191E-05 -0.0000000000E+00
          wtatcon      0.00000000E+00  0.00000000E+00  0.00000000E+00
                       0.00000000E+00  0.00000000E+00  0.00000000E+00
                       0.00000000E+00  0.00000000E+00  0.00000000E+00
                       0.00000000E+00  0.00000000E+00  0.00000000E+00
                       0.00000000E+00 -1.00000000E+00  0.00000000E+00
                       0.00000000E+00  1.00000000E+00  0.00000000E+00
                       0.00000000E+00  1.00000000E+00  0.00000000E+00
                       0.00000000E+00 -1.00000000E+00  0.00000000E+00
           xangst      0.0000000000E+00  5.2917721054E+00  0.0000000000E+00
                       0.0000000000E+00  6.8793037371E+00  0.0000000000E+00
                       0.0000000000E+00  8.4668353687E+00  0.0000000000E+00
                       0.0000000000E+00  1.0054367000E+01  0.0000000000E+00
                       0.0000000000E+00 -3.4634119871E+00  0.0000000000E+00
                       0.0000000000E+00 -1.3237186579E+00  0.0000000000E+00
                       0.0000000000E+00  3.0218680937E+00  0.0000000000E+00
                       0.0000000000E+00  9.2814373854E-01  0.0000000000E+00
            xcart      0.0000000000E+00  1.0000000000E+01  0.0000000000E+00
                       0.0000000000E+00  1.3000000000E+01  0.0000000000E+00
                       0.0000000000E+00  1.6000000000E+01  0.0000000000E+00
                       0.0000000000E+00  1.9000000000E+01  0.0000000000E+00
                       0.0000000000E+00 -6.5449001169E+00  0.0000000000E+00
                       0.0000000000E+00 -2.5014657313E+00  0.0000000000E+00
                       0.0000000000E+00  5.7105030857E+00  0.0000000000E+00
                       0.0000000000E+00  1.7539374713E+00  0.0000000000E+00
             xred      0.0000000000E+00  3.3333333333E-01  0.0000000000E+00
                       0.0000000000E+00  4.3333333333E-01  0.0000000000E+00
                       0.0000000000E+00  5.3333333333E-01  0.0000000000E+00
                       0.0000000000E+00  6.3333333333E-01  0.0000000000E+00
                       0.0000000000E+00 -2.1816333723E-01  0.0000000000E+00
                       0.0000000000E+00 -8.3382191042E-02  0.0000000000E+00
                       0.0000000000E+00  1.9035010286E-01  0.0000000000E+00
                       0.0000000000E+00  5.8464582377E-02  0.0000000000E+00
            znucl       14.00000

================================================================================


- Timing analysis has been suppressed with timopt=0



================================================================================

 Suggested references for the acknowledgment of ABINIT usage.

 The users of ABINIT have little formal obligations with respect to the ABINIT group
 (those specified in the GNU General Public License, http://www.gnu.org/copyleft/gpl.txt).
 However, it is common practice in the scientific literature,
 to acknowledge the efforts of people that have made the research possible.
 In this spirit, please find below suggested citations of work written by ABINIT developers,
 corresponding to implementations inside of ABINIT that you have used in the present run.
 Note also that it will be of great value to readers of publications presenting these results,
 to read papers enabling them to understand the theoretical formalism and details
 of the ABINIT implementation.
 For information on why they are suggested, see also https://docs.abinit.org/theory/acknowledgments.
-
- [1] The Abinit project: Impact, environment and recent developments.
- Computer Phys. Comm. 248, 107042 (2020).
- X.Gonze, B. Amadon, G. Antonius, F.Arnardi, L.Baguet, J.-M.Beuken,
- J.Bieder, F.Bottin, J.Bouchet, E.Bousquet, N.Brouwer, F.Bruneval,
- G.Brunin, T.Cavignac, J.-B. Charraud, Wei Chen, M.Cote, S.Cottenier,
- J.Denier, G.Geneste, Ph.Ghosez, M.Giantomassi, Y.Gillet, O.Gingras,
- D.R.Hamann, G.Hautier, Xu He, N.Helbig, N.Holzwarth, Y.Jia, F.Jollet,
- W.Lafargue-Dit-Hauret, K.Lejaeghere, M.A.L.Marques, A.Martin, C.Martins,
- H.P.C. Miranda, F.Naccarato, K. Persson, G.Petretto, V.Planes, Y.Pouillon,
- S.Prokhorenko, F.Ricci, G.-M.Rignanese, A.H.Romero, M.M.Schmitt, M.Torrent,
- M.J.van Setten, B.Van Troeye, M.J.Verstraete, G.Zerah and J.W.Zwanzig
- Comment: the fifth generic paper describing the ABINIT project.
- Note that a version of this paper, that is not formatted for Computer Phys. Comm. 
- is available at https://www.abinit.org/sites/default/files/ABINIT20.pdf .
- The licence allows the authors to put it on the Web.
- DOI and bibtex: see https://docs.abinit.org/theory/bibliography/#gonze2020
-
- [2] ABINIT: Overview, and focus on selected capabilities
- J. Chem. Phys. 152, 124102 (2020).
- A. Romero, D.C. Allan, B. Amadon, G. Antonius, T. Applencourt, L.Baguet,
- J.Bieder, F.Bottin, J.Bouchet, E.Bousquet, F.Bruneval,
- G.Brunin, D.Caliste, M.Cote,
- J.Denier, C. Dreyer, Ph.Ghosez, M.Giantomassi, Y.Gillet, O.Gingras,
- D.R.Hamann, G.Hautier, F.Jollet, G. Jomard,
- A.Martin, 
- H.P.C. Miranda, F.Naccarato, G.Petretto, N.A. Pike, V.Planes,
- S.Prokhorenko, T. Rangel, F.Ricci, G.-M.Rignanese, M.Royo, M.Stengel, M.Torrent,
- M.J.van Setten, B.Van Troeye, M.J.Verstraete, J.Wiktor, J.W.Zwanziger, and X.Gonze.
- Comment: a global overview of ABINIT, with focus on selected capabilities .
- Note that a version of this paper, that is not formatted for J. Chem. Phys 
- is available at https://www.abinit.org/sites/default/files/ABINIT20_JPC.pdf .
- The licence allows the authors to put it on the Web.
- DOI and bibtex: see https://docs.abinit.org/theory/bibliography/#romero2020
-
- [3] Recent developments in the ABINIT software package.
- Computer Phys. Comm. 205, 106 (2016).
- X.Gonze, F.Jollet, F.Abreu Araujo, D.Adams, B.Amadon, T.Applencourt,
- C.Audouze, J.-M.Beuken, J.Bieder, A.Bokhanchuk, E.Bousquet, F.Bruneval
- D.Caliste, M.Cote, F.Dahm, F.Da Pieve, M.Delaveau, M.Di Gennaro,
- B.Dorado, C.Espejo, G.Geneste, L.Genovese, A.Gerossier, M.Giantomassi,
- Y.Gillet, D.R.Hamann, L.He, G.Jomard, J.Laflamme Janssen, S.Le Roux,
- A.Levitt, A.Lherbier, F.Liu, I.Lukacevic, A.Martin, C.Martins,
- M.J.T.Oliveira, S.Ponce, Y.Pouillon, T.Rangel, G.-M.Rignanese,
- A.H.Romero, B.Rousseau, O.Rubel, A.A.Shukri, M.Stankovski, M.Torrent,
- M.J.Van Setten, B.Van Troeye, M.J.Verstraete, D.Waroquier, J.Wiktor,
- B.Xu, A.Zhou, J.W.Zwanziger.
- Comment: the fourth generic paper describing the ABINIT project.
- Note that a version of this paper, that is not formatted for Computer Phys. Comm. 
- is available at https://www.abinit.org/sites/default/files/ABINIT16.pdf .
- The licence allows the authors to put it on the Web.
- DOI and bibtex: see https://docs.abinit.org/theory/bibliography/#gonze2016
-
- And optionally:
-
- [4] ABINIT: First-principles approach of materials and nanosystem properties.
- Computer Phys. Comm. 180, 2582-2615 (2009).
- X. Gonze, B. Amadon, P.-M. Anglade, J.-M. Beuken, F. Bottin, P. Boulanger, F. Bruneval,
- D. Caliste, R. Caracas, M. Cote, T. Deutsch, L. Genovese, Ph. Ghosez, M. Giantomassi
- S. Goedecker, D.R. Hamann, P. Hermet, F. Jollet, G. Jomard, S. Leroux, M. Mancini, S. Mazevet,
- M.J.T. Oliveira, G. Onida, Y. Pouillon, T. Rangel, G.-M. Rignanese, D. Sangalli, R. Shaltaf,
- M. Torrent, M.J. Verstraete, G. Zerah, J.W. Zwanziger
- Comment: the third generic paper describing the ABINIT project.
- Note that a version of this paper, that is not formatted for Computer Phys. Comm. 
- is available at https://www.abinit.org/sites/default/files/ABINIT_CPC_v10.pdf .
- The licence allows the authors to put it on the Web.
- DOI and bibtex: see https://docs.abinit.org/theory/bibliography/#gonze2009
-
- Proc.   0 individual time (sec): cpu=         21.7  wall=         21.8

================================================================================

 Calculation completed.
.Delivered 132 WARNINGs and   2 COMMENTs to log file.
+Overall time at end (sec) : cpu=         21.7  wall=         21.8
