
.Version 8.3.1 of ABINIT 
.(MPI version, prepared for a x86_64_darwin15.6.0_gnu6.2 computer) 

.Copyright (C) 1998-2016 ABINIT group . 
 ABINIT comes with ABSOLUTELY NO WARRANTY.
 It is free software, and you are welcome to redistribute it
 under certain conditions (GNU General Public License,
 see ~abinit/COPYING or http://www.gnu.org/copyleft/gpl.txt).

 ABINIT is a project of the Universite Catholique de Louvain,
 Corning Inc. and other collaborators, see ~abinit/doc/developers/contributors.txt .
 Please read ~abinit/doc/users/acknowledgments.html for suggested
 acknowledgments of the ABINIT effort.
 For more information, see https://www.abinit.org .

.Starting date : Tue 11 Apr 2017.
- ( at 15h57 )
  
- input  file    -> calc.in
- output file    -> calc.out
- root for input  files -> input_data/idat
- root for output files -> out_data/odat


 Symmetries : space group P1 (#  1); Bravais aP (primitive triclinic)
================================================================================
 Values of the parameters that define the memory need of the present run (RF).
     intxc =       0      iscf =       7    lmnmax =       1     lnmax =       1
     mgfft =      16  mpssoang =       2    mqgrid =    3001     natom =       2
  nloc_mem =       1    nspden =       1   nspinor =       1    nsppol =       1
      nsym =       1    n1xccc =    2501    ntypat =       2    occopt =       1
   xclevel =       1
-    mband =           8        mffmem =           1         mkmem =          16
-   mkqmem =          16        mk1mem =          16           mpw =         190
      nfft =        4096          nkpt =          64
================================================================================
P This job should need less than                       3.094 Mbytes of memory.
  Rough estimation (10% accuracy) of disk space for files :
_ WF disk file :      1.486 Mbytes ; DEN or POT disk file :      0.033 Mbytes.
================================================================================

--------------------------------------------------------------------------------
------------- Echo of variables that govern the present computation ------------
--------------------------------------------------------------------------------
-
- outvars: echo of selected default values                                      
-   iomode0 =  0 , fftalg0 =112 , wfoptalg0 =  0
-
- outvars: echo of global parameters not present in the input file              
-  max_nthreads =    0
-
 -outvars: echo values of preprocessed input variables --------
            acell      1.0000000000E+00  1.0000000000E+00  1.0000000000E+00 Bohr
              amu      6.94100000E+00  1.89984032E+01
           diemac      9.00000000E+00
             ecut      1.00000000E+01 Hartree
           enunit           2
-          fftalg         112
           irdden           1
           irdwfk           1
           irdwfq           1
           istwfk        1    0    1    0    0    0    0    0    1    0
                         1    0    0    0    0    0    0    0    0    0
                         0    0    0    0    0    0    0    0    0    0
                         0    0    1    0    1    0    0    0    0    0
                         1    0    1    0    0    0    0    0    0    0
                       outvar_i_n : Printing only first  50 k-points.
              kpt      0.00000000E+00  0.00000000E+00  0.00000000E+00
                       2.50000000E-01  0.00000000E+00  0.00000000E+00
                       5.00000000E-01  0.00000000E+00  0.00000000E+00
                      -2.50000000E-01  0.00000000E+00  0.00000000E+00
                       0.00000000E+00  2.50000000E-01  0.00000000E+00
                       2.50000000E-01  2.50000000E-01  0.00000000E+00
                       5.00000000E-01  2.50000000E-01  0.00000000E+00
                      -2.50000000E-01  2.50000000E-01  0.00000000E+00
                       0.00000000E+00  5.00000000E-01  0.00000000E+00
                       2.50000000E-01  5.00000000E-01  0.00000000E+00
                       5.00000000E-01  5.00000000E-01  0.00000000E+00
                      -2.50000000E-01  5.00000000E-01  0.00000000E+00
                       0.00000000E+00 -2.50000000E-01  0.00000000E+00
                       2.50000000E-01 -2.50000000E-01  0.00000000E+00
                       5.00000000E-01 -2.50000000E-01  0.00000000E+00
                      -2.50000000E-01 -2.50000000E-01  0.00000000E+00
                       0.00000000E+00  0.00000000E+00  2.50000000E-01
                       2.50000000E-01  0.00000000E+00  2.50000000E-01
                       5.00000000E-01  0.00000000E+00  2.50000000E-01
                      -2.50000000E-01  0.00000000E+00  2.50000000E-01
                       0.00000000E+00  2.50000000E-01  2.50000000E-01
                       2.50000000E-01  2.50000000E-01  2.50000000E-01
                       5.00000000E-01  2.50000000E-01  2.50000000E-01
                      -2.50000000E-01  2.50000000E-01  2.50000000E-01
                       0.00000000E+00  5.00000000E-01  2.50000000E-01
                       2.50000000E-01  5.00000000E-01  2.50000000E-01
                       5.00000000E-01  5.00000000E-01  2.50000000E-01
                      -2.50000000E-01  5.00000000E-01  2.50000000E-01
                       0.00000000E+00 -2.50000000E-01  2.50000000E-01
                       2.50000000E-01 -2.50000000E-01  2.50000000E-01
                       5.00000000E-01 -2.50000000E-01  2.50000000E-01
                      -2.50000000E-01 -2.50000000E-01  2.50000000E-01
                       0.00000000E+00  0.00000000E+00  5.00000000E-01
                       2.50000000E-01  0.00000000E+00  5.00000000E-01
                       5.00000000E-01  0.00000000E+00  5.00000000E-01
                      -2.50000000E-01  0.00000000E+00  5.00000000E-01
                       0.00000000E+00  2.50000000E-01  5.00000000E-01
                       2.50000000E-01  2.50000000E-01  5.00000000E-01
                       5.00000000E-01  2.50000000E-01  5.00000000E-01
                      -2.50000000E-01  2.50000000E-01  5.00000000E-01
                       0.00000000E+00  5.00000000E-01  5.00000000E-01
                       2.50000000E-01  5.00000000E-01  5.00000000E-01
                       5.00000000E-01  5.00000000E-01  5.00000000E-01
                      -2.50000000E-01  5.00000000E-01  5.00000000E-01
                       0.00000000E+00 -2.50000000E-01  5.00000000E-01
                       2.50000000E-01 -2.50000000E-01  5.00000000E-01
                       5.00000000E-01 -2.50000000E-01  5.00000000E-01
                      -2.50000000E-01 -2.50000000E-01  5.00000000E-01
                       0.00000000E+00  0.00000000E+00 -2.50000000E-01
                       2.50000000E-01  0.00000000E+00 -2.50000000E-01
                       outvar_i_n : Printing only first  50 k-points.
           kptopt           3
         kptrlatt        4    0    0      0    4    0      0    0    4
          kptrlen      2.17873966E+01
P           mkmem          16
P          mkqmem          16
P          mk1mem          16
            natom           2
            nband           8
            ngfft          16      16      16
             nkpt          64
           nnsclo          40
             nqpt           1
            nstep          60
             nsym           1
           ntypat           2
              occ      2.000000  2.000000  2.000000  2.000000  0.000000  0.000000
                       0.000000  0.000000
        optdriver           1
              qpt      5.00000000E-01  2.50000000E-01  0.00000000E+00
          rfatpol           1       2
            rfdir           1       1       1
           rfphon           1
            rprim      0.0000000000E+00  3.8515039744E+00  3.8515039744E+00
                       3.8515039744E+00  0.0000000000E+00  3.8515039744E+00
                       3.8515039744E+00  3.8515039744E+00  0.0000000000E+00
          spgroup           1
           tolvrs      1.00000000E-16
            typat      1  2
              wtk        0.01563    0.01563    0.01563    0.01563    0.01563    0.01563
                         0.01563    0.01563    0.01563    0.01563    0.01563    0.01563
                         0.01563    0.01563    0.01563    0.01563    0.01563    0.01563
                         0.01563    0.01563    0.01563    0.01563    0.01563    0.01563
                         0.01563    0.01563    0.01563    0.01563    0.01563    0.01563
                         0.01563    0.01563    0.01563    0.01563    0.01563    0.01563
                         0.01563    0.01563    0.01563    0.01563    0.01563    0.01563
                         0.01563    0.01563    0.01563    0.01563    0.01563    0.01563
                         0.01563    0.01563
                       outvars : Printing only first  50 k-points.
           xangst      0.0000000000E+00  0.0000000000E+00  0.0000000000E+00
                       2.0381281221E+00  2.0381281221E+00  2.0381281221E+00
            xcart      0.0000000000E+00  0.0000000000E+00  0.0000000000E+00
                       3.8515039744E+00  3.8515039744E+00  3.8515039744E+00
             xred      0.0000000000E+00  0.0000000000E+00  0.0000000000E+00
                       5.0000000000E-01  5.0000000000E-01  5.0000000000E-01
            znucl        3.00000    9.00000

================================================================================

 chkinp: Checking input parameters for consistency.

================================================================================
== DATASET  1 ==================================================================
-   nproc =    4

 Exchange-correlation functional for the present dataset will be:
  LDA: new Teter (4/93) with spin-polarized option - ixc=1
 Citation for XC functional:
  S. Goedecker, M. Teter, J. Huetter, PRB 54, 1703 (1996)

 Real(R)+Recip(G) space primitive vectors, cartesian coordinates (Bohr,Bohr^-1):
 R(1)=  0.0000000  3.8515040  3.8515040  G(1)= -0.1298194  0.1298194  0.1298194
 R(2)=  3.8515040  0.0000000  3.8515040  G(2)=  0.1298194 -0.1298194  0.1298194
 R(3)=  3.8515040  3.8515040  0.0000000  G(3)=  0.1298194  0.1298194 -0.1298194
 Unit cell volume ucvol=  1.1426706E+02 bohr^3
 Angles (23,13,12)=  6.00000000E+01  6.00000000E+01  6.00000000E+01 degrees
 setup1 : take into account q-point for computing boxcut.

 getcut: wavevector=  0.5000  0.2500  0.0000  ngfft=  16  16  16
         ecut(hartree)=     10.000   => boxcut(ratio)=   1.93617

--- Pseudopotential description ------------------------------------------------
- pspini: atom type   1  psp file is ../../../../Data/Pseudos/03-Li.LDA.TM.pspnc
- pspatm: opening atomic psp file    ../../../../Data/Pseudos/03-Li.LDA.TM.pspnc
-  Troullier-Martins psp for element  Li        Thu Oct 27 17:29:06 EDT 1994
-  3.00000   1.00000    940714                znucl, zion, pspdat
    1    1    1    1      2001   0.00000      pspcod,pspxc,lmax,lloc,mmax,r2well
    0   2.534   6.726    1   2.4315963        l,e99.0,e99.9,nproj,rcpsp
   0.00000000   0.00000000   0.00000000   0.00000000     rms, ekb1, ekb2, epsatm
    1   3.283   5.836    0   2.4315963        l,e99.0,e99.9,nproj,rcpsp
   0.00000000   0.00000000   0.00000000   0.00000000     rms, ekb1, ekb2, epsatm
    2.44451305764117    0.01373030920382    0.17502673260160   rchrg,fchrg,qchrg
 pspatm: epsatm=   -1.77437869
         --- l  ekb(1:nproj) -->
             0    1.242797
 pspatm: atomic psp has been read  and splines computed

- pspini: atom type   2  psp file is ../../../../Data/Pseudos/09-F.LDA.TM.pspnc
- pspatm: opening atomic psp file    ../../../../Data/Pseudos/09-F.LDA.TM.pspnc
-  Troullier-Martins psp for element  F         Thu Oct 27 17:30:08 EDT 1994
-  9.00000   7.00000    940714                znucl, zion, pspdat
    1    1    1    1      2001   0.00000      pspcod,pspxc,lmax,lloc,mmax,r2well
    0   6.771  17.439    1   1.3876018        l,e99.0,e99.9,nproj,rcpsp
   0.00000000   0.00000000   0.00000000   0.00000000     rms, ekb1, ekb2, epsatm
    1  24.372  32.350    0   1.3876018        l,e99.0,e99.9,nproj,rcpsp
   0.00000000   0.00000000   0.00000000   0.00000000     rms, ekb1, ekb2, epsatm
    0.49406148701180    6.36128955091623    0.66947621353748   rchrg,fchrg,qchrg
 pspatm: epsatm=    1.80528525
         --- l  ekb(1:nproj) -->
             0    6.310228
 pspatm: atomic psp has been read  and splines computed

   2.47252491E-01                                ecore*ucvol(ha*bohr**3)
--------------------------------------------------------------------------------

-inwffil : will read wavefunctions from disk file input_data/idat_WFK

 ==>  initialize data related to q vector <== 

 The list of irreducible perturbations for this q vector is:
    1)    idir= 1    ipert=   1
    2)    idir= 2    ipert=   1
    3)    idir= 3    ipert=   1
    4)    idir= 1    ipert=   2
    5)    idir= 2    ipert=   2
    6)    idir= 3    ipert=   2

================================================================================

--------------------------------------------------------------------------------
 Perturbation wavevector (in red.coord.)   0.500000  0.250000  0.000000
 Perturbation : displacement of atom   1   along direction   1
 The set of symmetries contains only one element for this perturbation.
 symkpt : not enough symmetry to change the number of k points.

--------------------------------------------------------------------------------

-inwffil : will read wavefunctions from disk file input_data/idat_WFK
--------------------------------------------------------------------------------

-inwffil : will read wavefunctions from disk file input_data/idat_WFQ
 Initialisation of the first-order wave-functions :
  ireadwf=   0

     iter   2DEtotal(Ha)        deltaE(Ha) residm    vres2
-ETOT  1   2.8444004831809     -3.190E+00 1.189E-13 1.316E+03
 ETOT  2   2.0231310230831     -8.213E-01 8.883E-21 5.067E+01
 ETOT  3   1.9180753483637     -1.051E-01 5.471E-16 4.524E+01
 ETOT  4   1.8525810755581     -6.549E-02 1.249E-15 1.156E+00
 ETOT  5   1.8519167734189     -6.643E-04 1.284E-20 6.822E-03
 ETOT  6   1.8519108966122     -5.877E-06 1.993E-19 4.425E-05
 ETOT  7   1.8519108609096     -3.570E-08 2.242E-22 4.154E-07
 ETOT  8   1.8519108603647     -5.450E-10 2.600E-20 2.397E-08
 ETOT  9   1.8519108603426     -2.203E-11 2.041E-22 5.126E-10
 ETOT 10   1.8519108603421     -5.755E-13 9.030E-23 4.943E-12
 ETOT 11   1.8519108603421     -3.553E-15 2.765E-26 3.085E-14
 ETOT 12   1.8519108603421      3.553E-15 1.313E-26 2.313E-16
 ETOT 13   1.8519108603421      0.000E+00 1.793E-28 6.451E-18

 At SCF step   13       vres2   =  6.45E-18 < tolvrs=  1.00E-16 =>converged.
================================================================================

 ----iterations are completed or convergence reached----

 Mean square residual over all n,k,spin=   3.7568E-31; max=  1.7935E-28

 Thirteen components of 2nd-order total energy (hartree) are
 1,2,3: 0th-order hamiltonian combined with 1st-order wavefunctions
     kin0=   3.25239220E+00 eigvalue=  -8.15129545E-03  local=  -1.17348790E+00
 4,5,6: 1st-order hamiltonian combined with 1st and 0th-order wfs
 loc psp =  -2.23457342E+00  Hartree=   5.37592150E-01     xc=  -1.11700781E-01
 note that "loc psp" includes a xc core correction that could be resolved
 7,8,9: eventually, occupation + non-local contributions
    edocc=   8.35508511E-01     enl0=   8.50358527E-01   enl1=  -6.13044941E+00
 1-9 gives the relaxation energy (to be shifted if some occ is /=2.0)
   erelax=  -4.18251141E+00
 10,11,12 Non-relaxation  contributions : frozen-wavefunctions and Ewald
 fr.local=  -8.57337473E+00 fr.nonlo=   5.48739048E+00  Ewald=   9.34874775E+00
 13,14 Frozen wf xc core corrections (1) and (2)
 frxc 1  =  -8.54585923E-02  frxc 2 =  -1.42882643E-01
 Resulting in :
 2DEtotal=    0.1851910860E+01 Ha. Also 2DEtotal=    0.503930572953E+02 eV
    (2DErelax=   -4.1825114129E+00 Ha. 2DEnonrelax=    6.0344222733E+00 Ha)
    (  non-var. 2DEtotal :    1.8519108604E+00 Ha)


--------------------------------------------------------------------------------
 Perturbation wavevector (in red.coord.)   0.500000  0.250000  0.000000
 Perturbation : displacement of atom   1   along direction   2
 The set of symmetries contains only one element for this perturbation.
 symkpt : not enough symmetry to change the number of k points.

--------------------------------------------------------------------------------

-inwffil : will read wavefunctions from disk file input_data/idat_WFK
--------------------------------------------------------------------------------

-inwffil : will read wavefunctions from disk file input_data/idat_WFQ
 Initialisation of the first-order wave-functions :
  ireadwf=   0

     iter   2DEtotal(Ha)        deltaE(Ha) residm    vres2
-ETOT  1   1.8449313279525     -3.226E+00 4.591E-14 6.263E+02
 ETOT  2   1.3574857165625     -4.874E-01 5.508E-13 3.273E+00
 ETOT  3   1.3519647644425     -5.521E-03 6.021E-23 2.006E+00
 ETOT  4   1.3506599621190     -1.305E-03 2.598E-21 1.030E-01
 ETOT  5   1.3503578167019     -3.021E-04 3.021E-14 1.107E-02
 ETOT  6   1.3503458680606     -1.195E-05 1.367E-16 8.110E-05
 ETOT  7   1.3503457930607     -7.500E-08 2.902E-21 2.887E-07
 ETOT  8   1.3503457928271     -2.336E-10 7.050E-27 3.728E-09
 ETOT  9   1.3503457928216     -5.465E-12 2.705E-21 1.891E-10
 ETOT 10   1.3503457928214     -1.990E-13 5.877E-23 2.554E-12
 ETOT 11   1.3503457928214     -2.220E-15 1.622E-27 1.811E-14
 ETOT 12   1.3503457928214      4.441E-16 4.375E-29 1.237E-16
 ETOT 13   1.3503457928214      2.665E-15 1.120E-28 2.727E-18

 At SCF step   13       vres2   =  2.73E-18 < tolvrs=  1.00E-16 =>converged.
================================================================================

 ----iterations are completed or convergence reached----

 Mean square residual over all n,k,spin=   3.3428E-31; max=  1.1202E-28

 Thirteen components of 2nd-order total energy (hartree) are
 1,2,3: 0th-order hamiltonian combined with 1st-order wavefunctions
     kin0=   3.10805115E+00 eigvalue=  -1.17182269E-02  local=  -1.10305828E+00
 4,5,6: 1st-order hamiltonian combined with 1st and 0th-order wfs
 loc psp =  -1.35117207E+00  Hartree=   3.19556310E-01     xc=  -8.36473918E-02
 note that "loc psp" includes a xc core correction that could be resolved
 7,8,9: eventually, occupation + non-local contributions
    edocc=   6.92558123E-01     enl0=   7.98693292E-01   enl1=  -6.08969786E+00
 1-9 gives the relaxation energy (to be shifted if some occ is /=2.0)
   erelax=  -3.72043497E+00
 10,11,12 Non-relaxation  contributions : frozen-wavefunctions and Ewald
 fr.local=  -8.57337473E+00 fr.nonlo=   5.48739048E+00  Ewald=   8.38493390E+00
 13,14 Frozen wf xc core corrections (1) and (2)
 frxc 1  =  -8.52862520E-02  frxc 2 =  -1.42882643E-01
 Resulting in :
 2DEtotal=    0.1350345793E+01 Ha. Also 2DEtotal=    0.367447777122E+02 eV
    (2DErelax=   -3.7204349675E+00 Ha. 2DEnonrelax=    5.0707807603E+00 Ha)
    (  non-var. 2DEtotal :    1.3503457928E+00 Ha)


--------------------------------------------------------------------------------
 Perturbation wavevector (in red.coord.)   0.500000  0.250000  0.000000
 Perturbation : displacement of atom   1   along direction   3
 The set of symmetries contains only one element for this perturbation.
 symkpt : not enough symmetry to change the number of k points.

--------------------------------------------------------------------------------

-inwffil : will read wavefunctions from disk file input_data/idat_WFK
--------------------------------------------------------------------------------

-inwffil : will read wavefunctions from disk file input_data/idat_WFQ
 Initialisation of the first-order wave-functions :
  ireadwf=   0

     iter   2DEtotal(Ha)        deltaE(Ha) residm    vres2
-ETOT  1   1.2754275780469     -3.358E+00 2.837E-09 2.499E+01
 ETOT  2   1.2364514505911     -3.898E-02 7.373E-12 3.168E-01
 ETOT  3   1.2356456086530     -8.058E-04 1.752E-22 2.704E-02
 ETOT  4   1.2356106606534     -3.495E-05 1.874E-16 1.138E-04
 ETOT  5   1.2356105473347     -1.133E-07 9.876E-22 1.855E-07
 ETOT  6   1.2356105471952     -1.395E-10 8.867E-31 1.832E-09
 ETOT  7   1.2356105471939     -1.312E-12 6.131E-24 3.102E-11
 ETOT  8   1.2356105471939     -1.821E-14 5.964E-25 1.727E-11
 ETOT  9   1.2356105471938     -4.485E-14 2.595E-26 6.926E-14
 ETOT 10   1.2356105471938      2.665E-15 1.457E-30 6.527E-17

 At SCF step   10       vres2   =  6.53E-17 < tolvrs=  1.00E-16 =>converged.
================================================================================

 ----iterations are completed or convergence reached----

 Mean square residual over all n,k,spin=   1.2694E-32; max=  1.4569E-30

 Thirteen components of 2nd-order total energy (hartree) are
 1,2,3: 0th-order hamiltonian combined with 1st-order wavefunctions
     kin0=   2.99143995E+00 eigvalue=  -9.51564854E-03  local=  -1.05576646E+00
 4,5,6: 1st-order hamiltonian combined with 1st and 0th-order wfs
 loc psp =  -5.41624655E-01  Hartree=   1.03656885E-01     xc=  -4.88588978E-02
 note that "loc psp" includes a xc core correction that could be resolved
 7,8,9: eventually, occupation + non-local contributions
    edocc=   6.43404306E-01     enl0=   7.73584175E-01   enl1=  -6.25426396E+00
 1-9 gives the relaxation energy (to be shifted if some occ is /=2.0)
   erelax=  -3.39794431E+00
 10,11,12 Non-relaxation  contributions : frozen-wavefunctions and Ewald
 fr.local=  -8.57337473E+00 fr.nonlo=   5.48739048E+00  Ewald=   7.94761865E+00
 13,14 Frozen wf xc core corrections (1) and (2)
 frxc 1  =  -8.51969055E-02  frxc 2 =  -1.42882643E-01
 Resulting in :
 2DEtotal=    0.1235610547E+01 Ha. Also 2DEtotal=    0.336226729012E+02 eV
    (2DErelax=   -3.3979443096E+00 Ha. 2DEnonrelax=    4.6335548568E+00 Ha)
    (  non-var. 2DEtotal :    1.2356105472E+00 Ha)


--------------------------------------------------------------------------------
 Perturbation wavevector (in red.coord.)   0.500000  0.250000  0.000000
 Perturbation : displacement of atom   2   along direction   1
 The set of symmetries contains only one element for this perturbation.
 symkpt : not enough symmetry to change the number of k points.

--------------------------------------------------------------------------------

-inwffil : will read wavefunctions from disk file input_data/idat_WFK
--------------------------------------------------------------------------------

-inwffil : will read wavefunctions from disk file input_data/idat_WFQ
 Initialisation of the first-order wave-functions :
  ireadwf=   0

     iter   2DEtotal(Ha)        deltaE(Ha) residm    vres2
-ETOT  1   594.40677651683     -5.484E+02 2.523E-10 6.015E+05
 ETOT  2   20.843186320018     -5.736E+02 1.768E-09 4.682E+03
 ETOT  3   8.4769153903805     -1.237E+01 1.202E-17 9.691E+02
 ETOT  4   7.8952455407645     -5.817E-01 5.764E-17 2.577E+01
 ETOT  5   7.8225183775159     -7.273E-02 1.946E-12 7.217E+00
 ETOT  6   7.8139781950039     -8.540E-03 1.112E-14 5.078E-02
 ETOT  7   7.8139327190367     -4.548E-05 6.178E-14 3.063E-04
 ETOT  8   7.8139322634389     -4.556E-07 2.231E-20 5.819E-06
 ETOT  9   7.8139322579087     -5.530E-09 1.962E-18 1.035E-07
 ETOT 10   7.8139322578273     -8.140E-11 6.619E-22 8.991E-10
 ETOT 11   7.8139322578253     -2.046E-12 4.534E-24 6.994E-12
 ETOT 12   7.8139322578317      6.366E-12 8.219E-26 1.354E-14
 ETOT 13   7.8139322578310     -6.821E-13 1.748E-28 4.235E-16
 ETOT 14   7.8139322578280     -2.956E-12 2.158E-28 1.443E-17

 At SCF step   14       vres2   =  1.44E-17 < tolvrs=  1.00E-16 =>converged.
================================================================================

 ----iterations are completed or convergence reached----

 Mean square residual over all n,k,spin=   8.7756E-31; max=  2.1576E-28

 Thirteen components of 2nd-order total energy (hartree) are
 1,2,3: 0th-order hamiltonian combined with 1st-order wavefunctions
     kin0=   1.07127124E+03 eigvalue=  -7.03324612E+00  local=  -4.34442840E+02
 4,5,6: 1st-order hamiltonian combined with 1st and 0th-order wfs
 loc psp =  -1.80143962E+03  Hartree=   4.21983740E+02     xc=  -7.79070528E+01
 note that "loc psp" includes a xc core correction that could be resolved
 7,8,9: eventually, occupation + non-local contributions
    edocc=   4.54880303E+01     enl0=   1.15675233E+02   enl1=  -4.68630585E+02
 1-9 gives the relaxation energy (to be shifted if some occ is /=2.0)
   erelax=  -1.13503510E+03
 10,11,12 Non-relaxation  contributions : frozen-wavefunctions and Ewald
 fr.local=   8.02347471E+02 fr.nonlo=   2.41059761E+02  Ewald=   9.26642450E+01
 13,14 Frozen wf xc core corrections (1) and (2)
 frxc 1  =  -1.17181352E+02  frxc 2 =   1.23958908E+02
 Resulting in :
 2DEtotal=    0.7813932258E+01 Ha. Also 2DEtotal=    0.212627910124E+03 eV
    (2DErelax=   -1.1350351011E+03 Ha. 2DEnonrelax=    1.1428490333E+03 Ha)
    (  non-var. 2DEtotal :    7.8139322596E+00 Ha)


--------------------------------------------------------------------------------
 Perturbation wavevector (in red.coord.)   0.500000  0.250000  0.000000
 Perturbation : displacement of atom   2   along direction   2
 The set of symmetries contains only one element for this perturbation.
 symkpt : not enough symmetry to change the number of k points.

--------------------------------------------------------------------------------

-inwffil : will read wavefunctions from disk file input_data/idat_WFK
--------------------------------------------------------------------------------

-inwffil : will read wavefunctions from disk file input_data/idat_WFQ
 Initialisation of the first-order wave-functions :
  ireadwf=   0

     iter   2DEtotal(Ha)        deltaE(Ha) residm    vres2
-ETOT  1   318.21504839473     -7.774E+02 3.396E-14 2.283E+05
 ETOT  2   16.741843314023     -3.015E+02 1.395E-10 2.478E+03
 ETOT  3   9.2455136133387     -7.496E+00 2.533E-11 4.337E+02
 ETOT  4   8.9878726930887     -2.576E-01 5.293E-14 1.528E+01
 ETOT  5   8.9436285135964     -4.424E-02 2.309E-16 4.214E+00
 ETOT  6   8.9385085192643     -5.120E-03 1.656E-24 2.993E-02
 ETOT  7   8.9384840172267     -2.450E-05 5.283E-28 2.141E-04
 ETOT  8   8.9384836927147     -3.245E-07 4.814E-21 1.014E-05
 ETOT  9   8.9384836859373     -6.777E-09 2.403E-21 1.282E-07
 ETOT 10   8.9384836858098     -1.276E-10 2.572E-21 8.896E-10
 ETOT 11   8.9384836858137      3.865E-12 1.153E-23 9.628E-12
 ETOT 12   8.9384836858141      4.547E-13 6.216E-24 2.725E-13
 ETOT 13   8.9384836858118     -2.274E-12 1.859E-26 4.031E-14
 ETOT 14   8.9384836858050     -6.821E-12 8.871E-28 2.042E-15
 ETOT 15   8.9384836858080      2.956E-12 9.009E-29 3.555E-18

 At SCF step   15       vres2   =  3.56E-18 < tolvrs=  1.00E-16 =>converged.
================================================================================

 ----iterations are completed or convergence reached----

 Mean square residual over all n,k,spin=   5.3168E-31; max=  9.0088E-29

 Thirteen components of 2nd-order total energy (hartree) are
 1,2,3: 0th-order hamiltonian combined with 1st-order wavefunctions
     kin0=   1.07058769E+03 eigvalue=  -6.56930196E+00  local=  -4.32618558E+02
 4,5,6: 1st-order hamiltonian combined with 1st and 0th-order wfs
 loc psp =  -1.69697306E+03  Hartree=   3.71956757E+02     xc=  -7.80366616E+01
 note that "loc psp" includes a xc core correction that could be resolved
 7,8,9: eventually, occupation + non-local contributions
    edocc=   4.67467538E+01     enl0=   1.14616993E+02   enl1=  -4.76394280E+02
 1-9 gives the relaxation energy (to be shifted if some occ is /=2.0)
   erelax=  -1.08668367E+03
 10,11,12 Non-relaxation  contributions : frozen-wavefunctions and Ewald
 fr.local=   8.02347471E+02 fr.nonlo=   2.41059761E+02  Ewald=   4.54373662E+01
 13,14 Frozen wf xc core corrections (1) and (2)
 frxc 1  =  -1.17181352E+02  frxc 2 =   1.23958908E+02
 Resulting in :
 2DEtotal=    0.8938483686E+01 Ha. Also 2DEtotal=    0.243228510701E+03 eV
    (2DErelax=   -1.0866836709E+03 Ha. 2DEnonrelax=    1.0956221545E+03 Ha)
    (  non-var. 2DEtotal :    8.9384836853E+00 Ha)


--------------------------------------------------------------------------------
 Perturbation wavevector (in red.coord.)   0.500000  0.250000  0.000000
 Perturbation : displacement of atom   2   along direction   3
 The set of symmetries contains only one element for this perturbation.
 symkpt : not enough symmetry to change the number of k points.

--------------------------------------------------------------------------------

-inwffil : will read wavefunctions from disk file input_data/idat_WFK
--------------------------------------------------------------------------------

-inwffil : will read wavefunctions from disk file input_data/idat_WFQ
 Initialisation of the first-order wave-functions :
  ireadwf=   0

     iter   2DEtotal(Ha)        deltaE(Ha) residm    vres2
-ETOT  1   222.83949715406     -8.514E+02 2.671E-08 1.012E+05
 ETOT  2   15.320049655772     -2.075E+02 4.405E-14 1.771E+03
 ETOT  3   9.1842968464070     -6.136E+00 4.554E-13 3.762E+01
 ETOT  4   9.1339110944349     -5.039E-02 2.749E-12 1.065E-01
 ETOT  5   9.1338129660654     -9.813E-05 6.895E-23 5.530E-04
 ETOT  6   9.1338125443025     -4.218E-07 1.531E-19 2.800E-06
 ETOT  7   9.1338125425610     -1.741E-09 7.601E-29 1.084E-07
 ETOT  8   9.1338125424076     -1.535E-10 6.190E-21 3.538E-08
 ETOT  9   9.1338125423248     -8.276E-11 3.884E-22 1.616E-11
 ETOT 10   9.1338125423166     -8.185E-12 3.314E-29 7.343E-14
 ETOT 11   9.1338125423175      9.095E-13 4.167E-29 3.346E-16
 ETOT 12   9.1338125423230      5.457E-12 1.555E-27 2.305E-18

 At SCF step   12       vres2   =  2.31E-18 < tolvrs=  1.00E-16 =>converged.
================================================================================

 ----iterations are completed or convergence reached----

 Mean square residual over all n,k,spin=   3.4379E-30; max=  1.5548E-27

 Thirteen components of 2nd-order total energy (hartree) are
 1,2,3: 0th-order hamiltonian combined with 1st-order wavefunctions
     kin0=   1.07080681E+03 eigvalue=  -6.35667183E+00  local=  -4.32393178E+02
 4,5,6: 1st-order hamiltonian combined with 1st and 0th-order wfs
 loc psp =  -1.64852834E+03  Hartree=   3.49033687E+02     xc=  -7.81709999E+01
 note that "loc psp" includes a xc core correction that could be resolved
 7,8,9: eventually, occupation + non-local contributions
    edocc=   4.76752294E+01     enl0=   1.14465016E+02   enl1=  -4.81591450E+02
 1-9 gives the relaxation energy (to be shifted if some occ is /=2.0)
   erelax=  -1.06505989E+03
 10,11,12 Non-relaxation  contributions : frozen-wavefunctions and Ewald
 fr.local=   8.02347471E+02 fr.nonlo=   2.41059761E+02  Ewald=   2.40089189E+01
 13,14 Frozen wf xc core corrections (1) and (2)
 frxc 1  =  -1.17181352E+02  frxc 2 =   1.23958908E+02
 Resulting in :
 2DEtotal=    0.9133812542E+01 Ha. Also 2DEtotal=    0.248543679194E+03 eV
    (2DErelax=   -1.0650598947E+03 Ha. 2DEnonrelax=    1.0741937073E+03 Ha)
    (  non-var. 2DEtotal :    9.1338125418E+00 Ha)

================================================================================

 ---- first-order wavefunction calculations are completed ----


 ==> Compute Derivative Database <==
  
  2nd-order matrix (non-cartesian coordinates, masses not included,
   asr not included )
     j1       j2             matrix element
  dir pert dir pert     real part     imaginary part
  
   1    1   1    1         1.8519096699        -0.0000000000
   1    1   2    1         0.7386654547         0.0000000002
   1    1   3    1         0.6178052446        -0.0000000000
   1    1   1    2         0.1091796222         0.1091796264
   1    1   2    2        -0.1812863408        -0.1812863354
   1    1   3    2         0.2868303876         0.2868303895
  
   2    1   1    1         0.7386656518        -0.0000000002
   2    1   2    1         1.3503448348         0.0000000000
   2    1   3    1         0.6178051272         0.0000000002
   2    1   1    2        -0.2680057124        -0.2680057123
   2    1   2    2         0.0019821331         0.0019821364
   2    1   3    2         0.2868242624         0.2868242639
  
   3    1   1    1         0.6178052430         0.0000000000
   3    1   2    1         0.6178051820        -0.0000000002
   3    1   3    1         1.2356103322         0.0000000000
   3    1   1    2         0.2868303663         0.2868303685
   3    1   2    2         0.2868263872         0.2868263901
   3    1   3    2         0.5736515424         0.5736515455
  
   1    2   1    1         0.1090919499        -0.1090919541
   1    2   2    1        -0.2680372269         0.2680372268
   1    2   3    1         0.2868236167        -0.2868236189
   1    2   1    2         7.7869475555        -0.0000000000
   1    2   2    2         4.1314617196        -0.0000000103
   1    2   3    2         4.5614529648         0.0000000110
  
   2    2   1    1        -0.1813319236         0.1813319181
   2    2   2    1         0.0019056394        -0.0019056427
   2    2   3    1         0.2868104762        -0.2868104791
   2    2   1    2         4.1314759637         0.0000000104
   2    2   2    2         8.9175919397         0.0000000000
   2    2   3    2         4.5592545555        -0.0000000035
  
   3    2   1    1         0.2868217704        -0.2868217723
   3    2   2    1         0.2868045791        -0.2868045806
   3    2   3    1         0.5736082306        -0.5736082336
   3    2   1    2         4.5614770924        -0.0000000110
   3    2   2    2         4.5592650667         0.0000000035
   3    2   3    2         9.1163465898         0.0000000000
  
  
  Dynamical matrix, in cartesian coordinates,
   if specified in the inputs, asr has been imposed
     j1       j2             matrix element
  dir pert dir pert     real part    imaginary part
  
   1    1   1    1         0.0498941117        -0.0000000000
   1    1   2    1        -0.0082464337         0.0000000000
   1    1   3    1        -0.0084529059        -0.0000000000
   1    1   1    2         0.0191129990         0.0191129991
   1    1   2    2         0.0002223863         0.0002223863
   1    1   3    2        -0.0032679055        -0.0032679056
  
   2    1   1    1        -0.0082464318        -0.0000000000
   2    1   2    1         0.0498941178        -0.0000000000
   2    1   3    1         0.0084529091         0.0000000000
   2    1   1    2         0.0002224586         0.0002224587
   2    1   2    2         0.0191133396         0.0191133397
   2    1   3    2         0.0032680812         0.0032680813
  
   3    1   1    1        -0.0084529144         0.0000000000
   3    1   2    1         0.0084529157        -0.0000000000
   3    1   3    1         0.0580415921         0.0000000000
   3    1   1    2        -0.0003449999        -0.0003449999
   3    1   2    2         0.0003451047         0.0003451046
   3    1   3    2        -0.0153664734        -0.0153664733
  
   1    2   1    1         0.0191104608        -0.0191104609
   1    2   2    1         0.0002232282        -0.0002232282
   1    2   3    1        -0.0003446413         0.0003446412
   1    2   1    2         0.2958311971        -0.0000000000
   1    2   2    2         0.0113717579        -0.0000000005
   1    2   3    2         0.0191662103         0.0000000005
  
   2    2   1    1         0.0002230917        -0.0002230917
   2    2   2    1         0.0191114832        -0.0191114833
   2    2   3    1         0.0003452520        -0.0003452519
   2    2   1    2         0.0113712989         0.0000000005
   2    2   2    2         0.2959798559        -0.0000000000
   2    2   3    2        -0.0190180525        -0.0000000007
  
   3    2   1    1        -0.0032669455         0.0032669455
   3    2   2    1         0.0032678172        -0.0032678173
   3    2   3    1        -0.0153704105         0.0153704104
   3    2   1    2         0.0191653759        -0.0000000005
   3    2   2    2        -0.0190183857         0.0000000007
   3    2   3    2         0.2669928137         0.0000000000

  Phonon wavevector (reduced coordinates) :  0.50000  0.25000  0.00000
 Phonon energies in Hartree :
   1.732343E-03  1.793572E-03  2.285550E-03  2.750907E-03  3.016563E-03
   3.027086E-03
 Phonon energies in meV     :
-  4.713946E+01  4.880556E+01  6.219297E+01  7.485598E+01  8.208487E+01
-  8.237119E+01
 Phonon frequencies in cm-1    :
-  3.802054E+02  3.936434E+02  5.016202E+02  6.037543E+02  6.620592E+02
-  6.643685E+02
 Phonon frequencies in Thz     :
-  1.139827E+01  1.180113E+01  1.503819E+01  1.810010E+01  1.984803E+01
-  1.991727E+01
 Phonon energies in Kelvin  :
-  5.470300E+02  5.663644E+02  7.217186E+02  8.686666E+02  9.525542E+02
-  9.558769E+02

== END DATASET(S) ==============================================================
================================================================================
  
 -outvars: echo values of variables after computation  --------
            acell      1.0000000000E+00  1.0000000000E+00  1.0000000000E+00 Bohr
              amu      6.94100000E+00  1.89984032E+01
           diemac      9.00000000E+00
             ecut      1.00000000E+01 Hartree
           enunit           2
           etotal      9.1338125423E+00
            fcart      0.0000000000E+00  0.0000000000E+00  0.0000000000E+00
                       0.0000000000E+00  0.0000000000E+00  0.0000000000E+00
-          fftalg         112
           irdden           1
           irdwfk           1
           irdwfq           1
           istwfk        1    0    1    0    0    0    0    0    1    0
                         1    0    0    0    0    0    0    0    0    0
                         0    0    0    0    0    0    0    0    0    0
                         0    0    1    0    1    0    0    0    0    0
                         1    0    1    0    0    0    0    0    0    0
                       outvar_i_n : Printing only first  50 k-points.
              kpt      0.00000000E+00  0.00000000E+00  0.00000000E+00
                       2.50000000E-01  0.00000000E+00  0.00000000E+00
                       5.00000000E-01  0.00000000E+00  0.00000000E+00
                      -2.50000000E-01  0.00000000E+00  0.00000000E+00
                       0.00000000E+00  2.50000000E-01  0.00000000E+00
                       2.50000000E-01  2.50000000E-01  0.00000000E+00
                       5.00000000E-01  2.50000000E-01  0.00000000E+00
                      -2.50000000E-01  2.50000000E-01  0.00000000E+00
                       0.00000000E+00  5.00000000E-01  0.00000000E+00
                       2.50000000E-01  5.00000000E-01  0.00000000E+00
                       5.00000000E-01  5.00000000E-01  0.00000000E+00
                      -2.50000000E-01  5.00000000E-01  0.00000000E+00
                       0.00000000E+00 -2.50000000E-01  0.00000000E+00
                       2.50000000E-01 -2.50000000E-01  0.00000000E+00
                       5.00000000E-01 -2.50000000E-01  0.00000000E+00
                      -2.50000000E-01 -2.50000000E-01  0.00000000E+00
                       0.00000000E+00  0.00000000E+00  2.50000000E-01
                       2.50000000E-01  0.00000000E+00  2.50000000E-01
                       5.00000000E-01  0.00000000E+00  2.50000000E-01
                      -2.50000000E-01  0.00000000E+00  2.50000000E-01
                       0.00000000E+00  2.50000000E-01  2.50000000E-01
                       2.50000000E-01  2.50000000E-01  2.50000000E-01
                       5.00000000E-01  2.50000000E-01  2.50000000E-01
                      -2.50000000E-01  2.50000000E-01  2.50000000E-01
                       0.00000000E+00  5.00000000E-01  2.50000000E-01
                       2.50000000E-01  5.00000000E-01  2.50000000E-01
                       5.00000000E-01  5.00000000E-01  2.50000000E-01
                      -2.50000000E-01  5.00000000E-01  2.50000000E-01
                       0.00000000E+00 -2.50000000E-01  2.50000000E-01
                       2.50000000E-01 -2.50000000E-01  2.50000000E-01
                       5.00000000E-01 -2.50000000E-01  2.50000000E-01
                      -2.50000000E-01 -2.50000000E-01  2.50000000E-01
                       0.00000000E+00  0.00000000E+00  5.00000000E-01
                       2.50000000E-01  0.00000000E+00  5.00000000E-01
                       5.00000000E-01  0.00000000E+00  5.00000000E-01
                      -2.50000000E-01  0.00000000E+00  5.00000000E-01
                       0.00000000E+00  2.50000000E-01  5.00000000E-01
                       2.50000000E-01  2.50000000E-01  5.00000000E-01
                       5.00000000E-01  2.50000000E-01  5.00000000E-01
                      -2.50000000E-01  2.50000000E-01  5.00000000E-01
                       0.00000000E+00  5.00000000E-01  5.00000000E-01
                       2.50000000E-01  5.00000000E-01  5.00000000E-01
                       5.00000000E-01  5.00000000E-01  5.00000000E-01
                      -2.50000000E-01  5.00000000E-01  5.00000000E-01
                       0.00000000E+00 -2.50000000E-01  5.00000000E-01
                       2.50000000E-01 -2.50000000E-01  5.00000000E-01
                       5.00000000E-01 -2.50000000E-01  5.00000000E-01
                      -2.50000000E-01 -2.50000000E-01  5.00000000E-01
                       0.00000000E+00  0.00000000E+00 -2.50000000E-01
                       2.50000000E-01  0.00000000E+00 -2.50000000E-01
                       outvar_i_n : Printing only first  50 k-points.
           kptopt           3
         kptrlatt        4    0    0      0    4    0      0    0    4
          kptrlen      2.17873966E+01
P           mkmem          16
P          mkqmem          16
P          mk1mem          16
            natom           2
            nband           8
            ngfft          16      16      16
             nkpt          64
           nnsclo          40
             nqpt           1
            nstep          60
             nsym           1
           ntypat           2
              occ      2.000000  2.000000  2.000000  2.000000  0.000000  0.000000
                       0.000000  0.000000
        optdriver           1
              qpt      5.00000000E-01  2.50000000E-01  0.00000000E+00
          rfatpol           1       2
            rfdir           1       1       1
           rfphon           1
            rprim      0.0000000000E+00  3.8515039744E+00  3.8515039744E+00
                       3.8515039744E+00  0.0000000000E+00  3.8515039744E+00
                       3.8515039744E+00  3.8515039744E+00  0.0000000000E+00
          spgroup           1
           strten      0.0000000000E+00  0.0000000000E+00  0.0000000000E+00
                       0.0000000000E+00  0.0000000000E+00  0.0000000000E+00
           tolvrs      1.00000000E-16
            typat      1  2
              wtk        0.01563    0.01563    0.01563    0.01563    0.01563    0.01563
                         0.01563    0.01563    0.01563    0.01563    0.01563    0.01563
                         0.01563    0.01563    0.01563    0.01563    0.01563    0.01563
                         0.01563    0.01563    0.01563    0.01563    0.01563    0.01563
                         0.01563    0.01563    0.01563    0.01563    0.01563    0.01563
                         0.01563    0.01563    0.01563    0.01563    0.01563    0.01563
                         0.01563    0.01563    0.01563    0.01563    0.01563    0.01563
                         0.01563    0.01563    0.01563    0.01563    0.01563    0.01563
                         0.01563    0.01563
                       outvars : Printing only first  50 k-points.
           xangst      0.0000000000E+00  0.0000000000E+00  0.0000000000E+00
                       2.0381281221E+00  2.0381281221E+00  2.0381281221E+00
            xcart      0.0000000000E+00  0.0000000000E+00  0.0000000000E+00
                       3.8515039744E+00  3.8515039744E+00  3.8515039744E+00
             xred      0.0000000000E+00  0.0000000000E+00  0.0000000000E+00
                       5.0000000000E-01  5.0000000000E-01  5.0000000000E-01
            znucl        3.00000    9.00000

================================================================================


- Timing analysis has been suppressed with timopt=0



================================================================================

 Suggested references for the acknowledgment of ABINIT usage.

 The users of ABINIT have little formal obligations with respect to the ABINIT group
 (those specified in the GNU General Public License, http://www.gnu.org/copyleft/gpl.txt).
 However, it is common practice in the scientific literature,
 to acknowledge the efforts of people that have made the research possible.
 In this spirit, please find below suggested citations of work written by ABINIT developers,
 corresponding to implementations inside of ABINIT that you have used in the present run.
 Note also that it will be of great value to readers of publications presenting these results,
 to read papers enabling them to understand the theoretical formalism and details
 of the ABINIT implementation.
 For information on why they are suggested, see also https://www.abinit.org/about/?text=acknowledgments.
-
- [1] Recent developments in the ABINIT software package.
- Computer Phys. Comm. 205, 106 (2016).
- X.Gonze, F.Jollet, F.Abreu Araujo, D.Adams, B.Amadon, T.Applencourt,
- C.Audouze, J.-M.Beuken, J.Bieder, A.Bokhanchuk, E.Bousquet, F.Bruneval
- D.Caliste, M.Cote, F.Dahm, F.Da Pieve, M.Delaveau, M.Di Gennaro,
- B.Dorado, C.Espejo, G.Geneste, L.Genovese, A.Gerossier, M.Giantomassi,
- Y.Gillet, D.R.Hamann, L.He, G.Jomard, J.Laflamme Janssen, S.Le Roux,
- A.Levitt, A.Lherbier, F.Liu, I.Lukacevic, A.Martin, C.Martins,
- M.J.T.Oliveira, S.Ponce, Y.Pouillon, T.Rangel, G.-M.Rignanese,
- A.H.Romero, B.Rousseau, O.Rubel, A.A.Shukri, M.Stankovski, M.Torrent,
- M.J.Van Setten, B.Van Troeye, M.J.Verstraete, D.Waroquier, J.Wiktor,
- B.Xue, A.Zhou, J.W.Zwanziger.
- Comment : the fourth generic paper describing the ABINIT project.
- Note that a version of this paper, that is not formatted for Computer Phys. Comm. 
- is available at https://www.abinit.org/about/ABINIT16.pdf .
- The licence allows the authors to put it on the Web.
-
- [2] First-principles responses of solids to atomic displacements and homogeneous electric fields:,
- implementation of a conjugate-gradient algorithm. X. Gonze, Phys. Rev. B55, 10337 (1997).
- Comment : Non-vanishing rfphon and/or rfelfd, in the norm-conserving case.
-
- [3] Dynamical matrices, Born effective charges, dielectric permittivity tensors, and ,
- interatomic force constants from density-functional perturbation theory,
- X. Gonze and C. Lee, Phys. Rev. B55, 10355 (1997).
- Comment : Non-vanishing rfphon and/or rfelfd, in the norm-conserving case.
-
- [4] ABINIT : First-principles approach of materials and nanosystem properties.
- Computer Phys. Comm. 180, 2582-2615 (2009).
- X. Gonze, B. Amadon, P.-M. Anglade, J.-M. Beuken, F. Bottin, P. Boulanger, F. Bruneval,
- D. Caliste, R. Caracas, M. Cote, T. Deutsch, L. Genovese, Ph. Ghosez, M. Giantomassi
- S. Goedecker, D.R. Hamann, P. Hermet, F. Jollet, G. Jomard, S. Leroux, M. Mancini, S. Mazevet,
- M.J.T. Oliveira, G. Onida, Y. Pouillon, T. Rangel, G.-M. Rignanese, D. Sangalli, R. Shaltaf,
- M. Torrent, M.J. Verstraete, G. Zerah, J.W. Zwanziger
- Comment : the third generic paper describing the ABINIT project.
- Note that a version of this paper, that is not formatted for Computer Phys. Comm. 
- is available at https://www.abinit.org/about/ABINIT_CPC_v10.pdf .
- The licence allows the authors to put it on the Web.
-
- [5] A brief introduction to the ABINIT software package.
- Z. Kristallogr. 220, 558-562 (2005).
- X. Gonze, G.-M. Rignanese, M. Verstraete, J.-M. Beuken, Y. Pouillon, R. Caracas, F. Jollet,
- M. Torrent, G. Zerah, M. Mikami, Ph. Ghosez, M. Veithen, J.-Y. Raty, V. Olevano, F. Bruneval,
- L. Reining, R. Godby, G. Onida, D.R. Hamann, and D.C. Allan.
- Comment : the second generic paper describing the ABINIT project. Note that this paper
- should be cited especially if you are using the GW part of ABINIT, as several authors
- of this part are not in the list of authors of the first or third paper.
- The .pdf of the latter paper is available at https://www.abinit.org/about/zfk_0505-06_558-562.pdf.
- Note that it should not redistributed (Copyright by Oldenburg Wissenshaftverlag,
- the licence allows the authors to put it on the Web).
-
- Proc.   0 individual time (sec): cpu=        220.3  wall=        220.6

================================================================================

 Calculation completed.
.Delivered   0 WARNINGs and   0 COMMENTs to log file.
+Overall time at end (sec) : cpu=        881.1  wall=        882.2
