
.Version 8.11.12 of ABINIT 
.(MPI version, prepared for a x86_64_linux_gnu9.2 computer) 

.Copyright (C) 1998-2020 ABINIT group . 
 ABINIT comes with ABSOLUTELY NO WARRANTY.
 It is free software, and you are welcome to redistribute it
 under certain conditions (GNU General Public License,
 see ~abinit/COPYING or http://www.gnu.org/copyleft/gpl.txt).

 ABINIT is a project of the Universite Catholique de Louvain,
 Corning Inc. and other collaborators, see ~abinit/doc/developers/contributors.txt .
 Please read https://docs.abinit.org/theory/acknowledgments for suggested
 acknowledgments of the ABINIT effort.
 For more information, see https://www.abinit.org .

.Starting date : Mon 25 Nov 2019.
- ( at 08h30 )
  
- input  file    -> t23.in
- output file    -> t23.out
- root for input  files -> t23i
- root for output files -> t23o


 Symmetries : space group P-1 (#  2); Bravais aP (primitive triclinic)
================================================================================
 Values of the parameters that define the memory need of the present run
     intxc =       0    ionmov =      10      iscf =       7    lmnmax =       2
     lnmax =       2     mgfft =      12  mpssoang =       3    mqgrid =    3001
     natom =       2  nloc_mem =       1    nspden =       1   nspinor =       1
    nsppol =       1      nsym =       2    n1xccc =    2501    ntypat =       1
    occopt =       1   xclevel =       1
-    mband =           5        mffmem =           1         mkmem =          63
       mpw =          65          nfft =        1728          nkpt =          63
================================================================================
P This job should need less than                       1.447 Mbytes of memory.
  Rough estimation (10% accuracy) of disk space for files :
_ WF disk file :      0.314 Mbytes ; DEN or POT disk file :      0.015 Mbytes.
================================================================================

--------------------------------------------------------------------------------
------------- Echo of variables that govern the present computation ------------
--------------------------------------------------------------------------------
-
- outvars: echo of selected default values                                      
-   iomode0 =  0 , fftalg0 =312 , wfoptalg0 =  0
-
- outvars: echo of global parameters not present in the input file              
-  max_nthreads =    0
-
 -outvars: echo values of preprocessed input variables --------
            acell      1.0000000000E+01  1.0000000000E+01  1.0000000000E+01 Bohr
              amu      2.80855000E+01
      chksymbreak           0
             ecut      3.00000000E+00 Hartree
-          fftalg         312
           ionmov          10
           istwfk        0    0    0    0    0    0    0    0    0    0
                         0    0    0    0    0    0    0    7    0    0
                         0    0    0    0    0    0    0    0    0    0
                         0    0    0    0    0    0    0    0    0    0
                         0    0    0    0    0    0    0    0    0    0
                       outvar_i_n : Printing only first  50 k-points.
              kpt      1.00000000E-01 -1.00000000E-01  0.00000000E+00
                       3.00000000E-01 -1.00000000E-01  0.00000000E+00
                       5.00000000E-01 -1.00000000E-01  0.00000000E+00
                      -3.00000000E-01 -1.00000000E-01  0.00000000E+00
                      -1.00000000E-01 -1.00000000E-01  0.00000000E+00
                       1.00000000E-01 -3.00000000E-01  0.00000000E+00
                       3.00000000E-01 -3.00000000E-01  0.00000000E+00
                       5.00000000E-01 -3.00000000E-01  0.00000000E+00
                      -3.00000000E-01 -3.00000000E-01  0.00000000E+00
                      -1.00000000E-01 -3.00000000E-01  0.00000000E+00
                       1.00000000E-01 -1.00000000E-01  2.00000000E-01
                       3.00000000E-01 -1.00000000E-01  2.00000000E-01
                       5.00000000E-01 -1.00000000E-01  2.00000000E-01
                      -3.00000000E-01 -1.00000000E-01  2.00000000E-01
                      -1.00000000E-01 -1.00000000E-01  2.00000000E-01
                       1.00000000E-01  5.00000000E-01  0.00000000E+00
                       3.00000000E-01  5.00000000E-01  0.00000000E+00
                       5.00000000E-01  5.00000000E-01  0.00000000E+00
                       1.00000000E-01 -3.00000000E-01  2.00000000E-01
                       3.00000000E-01 -3.00000000E-01  2.00000000E-01
                       5.00000000E-01 -3.00000000E-01  2.00000000E-01
                      -3.00000000E-01 -3.00000000E-01  2.00000000E-01
                      -1.00000000E-01 -3.00000000E-01  2.00000000E-01
                       1.00000000E-01 -1.00000000E-01  4.00000000E-01
                       3.00000000E-01 -1.00000000E-01  4.00000000E-01
                       5.00000000E-01 -1.00000000E-01  4.00000000E-01
                      -3.00000000E-01 -1.00000000E-01  4.00000000E-01
                      -1.00000000E-01 -1.00000000E-01  4.00000000E-01
                       1.00000000E-01  5.00000000E-01  2.00000000E-01
                       3.00000000E-01  5.00000000E-01  2.00000000E-01
                       5.00000000E-01  5.00000000E-01  2.00000000E-01
                      -3.00000000E-01  5.00000000E-01  2.00000000E-01
                      -1.00000000E-01  5.00000000E-01  2.00000000E-01
                       1.00000000E-01 -3.00000000E-01  4.00000000E-01
                       3.00000000E-01 -3.00000000E-01  4.00000000E-01
                       5.00000000E-01 -3.00000000E-01  4.00000000E-01
                      -3.00000000E-01 -3.00000000E-01  4.00000000E-01
                      -1.00000000E-01 -3.00000000E-01  4.00000000E-01
                       1.00000000E-01 -1.00000000E-01 -4.00000000E-01
                       3.00000000E-01 -1.00000000E-01 -4.00000000E-01
                       5.00000000E-01 -1.00000000E-01 -4.00000000E-01
                      -3.00000000E-01 -1.00000000E-01 -4.00000000E-01
                      -1.00000000E-01 -1.00000000E-01 -4.00000000E-01
                       1.00000000E-01  3.00000000E-01  2.00000000E-01
                       3.00000000E-01  3.00000000E-01  2.00000000E-01
                       5.00000000E-01  3.00000000E-01  2.00000000E-01
                      -3.00000000E-01  3.00000000E-01  2.00000000E-01
                      -1.00000000E-01  3.00000000E-01  2.00000000E-01
                       1.00000000E-01  5.00000000E-01  4.00000000E-01
                       3.00000000E-01  5.00000000E-01  4.00000000E-01
                       outvar_i_n : Printing only first  50 k-points.
         kptrlatt        5    0    0      0    5    0      0   -5    5
          kptrlen      3.53553391E+01
P           mkmem          63
            natom           2
            nband           5
            ngfft          12      12      12
             nkpt          63
             nsym           2
            ntime           2
           ntypat           1
              occ      2.000000  2.000000  2.000000  2.000000  0.000000
            rprim      0.0000000000E+00  5.0000000000E-01  5.0000000000E-01
                       5.0000000000E-01  0.0000000000E+00  5.0000000000E-01
                       5.0000000000E-01  5.0000000000E-01  0.0000000000E+00
           shiftk      5.00000000E-01  5.00000000E-01  5.00000000E-01
          spgroup           2
           symrel      1  0  0   0  1  0   0  0  1      -1  0  0   0 -1  0   0  0 -1
            tnons      0.0000000  0.0000000  0.0000000     0.2449800  0.2650200  0.2550200
           toldfe      1.00000000E-06 Hartree
           tolmxf      1.00000000E-06
            typat      1  1
              wtk        0.01600    0.01600    0.01600    0.01600    0.01600    0.01600
                         0.01600    0.01600    0.01600    0.01600    0.01600    0.01600
                         0.01600    0.01600    0.01600    0.01600    0.01600    0.00800
                         0.01600    0.01600    0.01600    0.01600    0.01600    0.01600
                         0.01600    0.01600    0.01600    0.01600    0.01600    0.01600
                         0.01600    0.01600    0.01600    0.01600    0.01600    0.01600
                         0.01600    0.01600    0.01600    0.01600    0.01600    0.01600
                         0.01600    0.01600    0.01600    0.01600    0.01600    0.01600
                         0.01600    0.01600
                       outvars : Printing only first  50 k-points.
           xangst      5.3023556301E-02  0.0000000000E+00  2.6458860430E-02
                       1.3229430215E+00  1.3229430215E+00  1.3229430215E+00
            xcart      1.0020000000E-01  0.0000000000E+00  5.0000000000E-02
                       2.5000000000E+00  2.5000000000E+00  2.5000000000E+00
             xred     -5.0200000000E-03  1.5020000000E-02  5.0200000000E-03
                       2.5000000000E-01  2.5000000000E-01  2.5000000000E-01
            znucl       14.00000

================================================================================

 chkinp: Checking input parameters for consistency.

================================================================================
== DATASET  1 ==================================================================
-   nproc =    1

 Exchange-correlation functional for the present dataset will be:
  LDA: new Teter (4/93) with spin-polarized option - ixc=1
 Citation for XC functional:
  S. Goedecker, M. Teter, J. Huetter, PRB 54, 1703 (1996)

 Real(R)+Recip(G) space primitive vectors, cartesian coordinates (Bohr,Bohr^-1):
 R(1)=  0.0000000  5.0000000  5.0000000  G(1)= -0.1000000  0.1000000  0.1000000
 R(2)=  5.0000000  0.0000000  5.0000000  G(2)=  0.1000000 -0.1000000  0.1000000
 R(3)=  5.0000000  5.0000000  0.0000000  G(3)=  0.1000000  0.1000000 -0.1000000
 Unit cell volume ucvol=  2.5000000E+02 bohr^3
 Angles (23,13,12)=  6.00000000E+01  6.00000000E+01  6.00000000E+01 degrees

 getcut: wavevector=  0.0000  0.0000  0.0000  ngfft=  12  12  12
         ecut(hartree)=      3.000   => boxcut(ratio)=   2.17656

--- Pseudopotential description ------------------------------------------------
- pspini: atom type   1  psp file is /home/buildbot/bb/ABINIT/abiref_gnu_9.2_openmpi/trunk__gonze3/tests/Psps_for_tests/14si.pspnc
- pspatm: opening atomic psp file    /home/buildbot/bb/ABINIT/abiref_gnu_9.2_openmpi/trunk__gonze3/tests/Psps_for_tests/14si.pspnc
-  Troullier-Martins psp for element  Si        Thu Oct 27 17:31:21 EDT 1994
- 14.00000   4.00000    940714                znucl, zion, pspdat
    1    1    2    2      2001   0.00000      pspcod,pspxc,lmax,lloc,mmax,r2well
    0   5.907  14.692    1   2.0872718        l,e99.0,e99.9,nproj,rcpsp
   0.00000000   0.00000000   0.00000000   0.00000000     rms, ekb1, ekb2, epsatm
    1   2.617   4.181    1   2.0872718        l,e99.0,e99.9,nproj,rcpsp
   0.00000000   0.00000000   0.00000000   0.00000000     rms, ekb1, ekb2, epsatm
    2   0.000   0.000    0   2.0872718        l,e99.0,e99.9,nproj,rcpsp
   0.00000000   0.00000000   0.00000000   0.00000000     rms, ekb1, ekb2, epsatm
    1.80626423934776    0.22824404341771    1.17378968127746   rchrg,fchrg,qchrg
  pspatm : epsatm=    1.43386982
         --- l  ekb(1:nproj) -->
             0    3.287949
             1    1.849886
 pspatm: atomic psp has been read  and splines computed

   2.29419171E+01                                ecore*ucvol(ha*bohr**3)
--------------------------------------------------------------------------------

_setup2: Arith. and geom. avg. npw (full set) are      62.144      62.113

================================================================================

=== [ionmov=10] BFGS with delocalized internal coordinates                  
================================================================================

--- Iteration: (1/2) Internal Cycle: (1/1)
--------------------------------------------------------------------------------

---SELF-CONSISTENT-FIELD CONVERGENCE--------------------------------------------

     iter   Etot(hartree)      deltaE(h)  residm     vres2
 ETOT  1  -8.7972316029025    -8.797E+00 6.299E-03 1.071E+00
 ETOT  2  -8.8011003170318    -3.869E-03 1.253E-03 3.597E-02
 ETOT  3  -8.8011868542440    -8.654E-05 6.096E-05 6.967E-04
 ETOT  4  -8.8011878401952    -9.860E-07 2.010E-05 3.398E-06
 ETOT  5  -8.8011878466465    -6.451E-09 1.100E-05 1.477E-09

 At SCF step    5, etot is converged : 
  for the second time, diff in etot=  6.451E-09 < toldfe=  1.000E-06

 Cartesian components of stress tensor (hartree/bohr^3)
  sigma(1 1)=  1.11786120E-04  sigma(3 2)= -1.05946258E-04
  sigma(2 2)=  1.02866824E-04  sigma(3 1)= -6.46536860E-06
  sigma(3 3)=  1.45547154E-04  sigma(2 1)= -5.23565830E-05

 Integrated electronic density in atomic spheres:
 ------------------------------------------------
 Atom  Sphere_radius  Integrated_density
    1        2.00000          1.74238679
    2        2.00000          1.72959531

---OUTPUT-----------------------------------------------------------------------

 Cartesian coordinates (xcart) [bohr]
  1.00200000000000E-01  0.00000000000000E+00  5.00000000000000E-02
  2.50000000000000E+00  2.50000000000000E+00  2.50000000000000E+00
 Reduced coordinates (xred)
 -5.02000000000000E-03  1.50200000000000E-02  5.02000000000000E-03
  2.50000000000000E-01  2.50000000000000E-01  2.50000000000000E-01
 Cartesian forces (fcart) [Ha/bohr]; max,rms= 1.52681E-02 9.85469E-03 (free atoms)
 -1.52680688642503E-02 -1.30074468813181E-03 -7.51922270967722E-03
  1.52680688642503E-02  1.30074468813181E-03  7.51922270967722E-03
 Reduced forces (fred)
  4.40998369890452E-02  1.13936457869637E-01  8.28440677619104E-02
 -4.40998369890452E-02 -1.13936457869637E-01 -8.28440677619104E-02
 Total energy (etotal) [Ha]= -8.80118784664652E+00

--- Iteration: (2/2) Internal Cycle: (1/1)
--------------------------------------------------------------------------------

---SELF-CONSISTENT-FIELD CONVERGENCE--------------------------------------------

     iter   Etot(hartree)      deltaE(h)  residm     vres2
 ETOT  1  -8.8012358918641    -8.801E+00 1.795E-06 2.351E-05
 ETOT  2  -8.8012359777213    -8.586E-08 5.398E-07 1.815E-07
 ETOT  3  -8.8012359781453    -4.240E-10 1.228E-06 9.746E-09

 At SCF step    3, etot is converged : 
  for the second time, diff in etot=  4.240E-10 < toldfe=  1.000E-06

 Cartesian components of stress tensor (hartree/bohr^3)
  sigma(1 1)=  1.11843223E-04  sigma(3 2)= -1.03235370E-04
  sigma(2 2)=  1.03373727E-04  sigma(3 1)= -5.97190180E-06
  sigma(3 3)=  1.45932053E-04  sigma(2 1)= -5.09999973E-05

 Integrated electronic density in atomic spheres:
 ------------------------------------------------
 Atom  Sphere_radius  Integrated_density
    1        2.00000          1.74236239
    2        2.00000          1.72957298

---OUTPUT-----------------------------------------------------------------------

 Cartesian coordinates (xcart) [bohr]
  9.89227880819986E-02 -8.61872411096502E-05  4.93656776735663E-02
  2.50127721191800E+00  2.50008618724111E+00  2.50063432232643E+00
 Reduced coordinates (xred)
 -4.96432976495419E-03  1.48374652996675E-02  4.94709231673226E-03
  2.49944329764954E-01  2.50182534700333E-01  2.50072907683268E-01
 Cartesian forces (fcart) [Ha/bohr]; max,rms= 1.48771E-02 9.59857E-03 (free atoms)
 -1.48770533436985E-02 -1.20894650905690E-03 -7.32183148547013E-03
  1.48770533436985E-02  1.20894650905690E-03  7.32183148547013E-03
 Reduced forces (fred)
  4.26538899726352E-02  1.10994424145843E-01  8.04299992637772E-02
 -4.26538899726352E-02 -1.10994424145843E-01 -8.04299992637772E-02
 Total energy (etotal) [Ha]= -8.80123597814528E+00

 Difference of energy with previous step (new-old):
           Absolute (Ha)=-4.81315E-05
           Relative     =-5.46874E-06

 fconv : WARNING -
  ntime=    2 was not enough Broyd/MD steps to converge gradients: 
  max grad (force/stress) = 1.4877E-02 > tolmxf= 1.0000E-06 ha/bohr (free atoms)

================================================================================

 ----iterations are completed or convergence reached----

 Mean square residual over all n,k,spin=   43.271E-10; max=  12.281E-07
 reduced coordinates (array xred) for    2 atoms
      -0.004964329765      0.014837465300      0.004947092317
       0.249944329765      0.250182534700      0.250072907683
 rms dE/dt=  8.2882E-02; max dE/dt=  1.1099E-01; dE/dt below (all hartree)
    1       0.042653889973      0.110994424146      0.080429999264
    2      -0.042653889973     -0.110994424146     -0.080429999264

 cartesian coordinates (angstrom) at end:
    1      0.05234768486317    -0.00004560832367     0.02612319151145
    2      1.32361889291255     1.32298862979867     1.32327869039305

 cartesian forces (hartree/bohr) at end:
    1     -0.01487705334370    -0.00120894650906    -0.00732183148547
    2      0.01487705334370     0.00120894650906     0.00732183148547
 frms,max,avg= 9.5985673E-03 1.4877053E-02   0.000E+00  0.000E+00  0.000E+00 h/b

 cartesian forces (eV/Angstrom) at end:
    1     -0.76500877715376    -0.06216652378474    -0.37650368132866
    2      0.76500877715376     0.06216652378474     0.37650368132866
 frms,max,avg= 4.9357814E-01 7.6500878E-01   0.000E+00  0.000E+00  0.000E+00 e/A
 length scales= 10.000000000000 10.000000000000 10.000000000000 bohr
              =  5.291772085900  5.291772085900  5.291772085900 angstroms
 prteigrs : about to open file t23o_EIG
 Fermi (or HOMO) energy (hartree) =   0.24496   Average Vxc (hartree)=  -0.36394
 Eigenvalues (hartree) for nkpt=  63  k points:
 kpt#   1, nband=  5, wtk=  0.01600, kpt=  0.1000 -0.1000  0.0000 (reduced coord)
  -0.19412    0.17527    0.19782    0.23606    0.35899
 prteigrs : prtvol=0 or 1, do not print more k-points.


--------------------------------------------------------------------------------
 Components of total free energy (in Hartree) :

    Kinetic energy  =  3.00138065551898E+00
    Hartree energy  =  4.89379097571143E-01
    XC energy       = -3.57167062889814E+00
    Ewald energy    = -8.61728137400739E+00
    PspCore energy  =  9.17676685691355E-02
    Loc. psp. energy= -2.29747879791618E+00
    NL   psp  energy=  2.10266740101718E+00
    >>>>>>>>> Etotal= -8.80123597814528E+00

 Other information on the energy :
    Total energy(eV)= -2.39493810643754E+02 ; Band energy (Ha)=   4.2279396232E-01
--------------------------------------------------------------------------------


 rms coord change=  1.1795E-04   atom, delta coord (reduced):
     1        0.000055670235     -0.000182534700     -0.000072907683
     2       -0.000055670235      0.000182534700      0.000072907683

 Cartesian components of stress tensor (hartree/bohr^3)
  sigma(1 1)=  1.11843223E-04  sigma(3 2)= -1.03235370E-04
  sigma(2 2)=  1.03373727E-04  sigma(3 1)= -5.97190180E-06
  sigma(3 3)=  1.45932053E-04  sigma(2 1)= -5.09999973E-05

-Cartesian components of stress tensor (GPa)         [Pressure= -3.5418E+00 GPa]
- sigma(1 1)=  3.29054067E+00  sigma(3 2)= -3.03728894E+00
- sigma(2 2)=  3.04135952E+00  sigma(3 1)= -1.75699387E-01
- sigma(3 3)=  4.29346850E+00  sigma(2 1)= -1.50047147E+00

== END DATASET(S) ==============================================================
================================================================================
  
 -outvars: echo values of variables after computation  --------
            acell      1.0000000000E+01  1.0000000000E+01  1.0000000000E+01 Bohr
              amu      2.80855000E+01
      chksymbreak           0
             ecut      3.00000000E+00 Hartree
           etotal     -8.8012359781E+00
            fcart     -1.4877053344E-02 -1.2089465091E-03 -7.3218314855E-03
                       1.4877053344E-02  1.2089465091E-03  7.3218314855E-03
-          fftalg         312
           ionmov          10
           istwfk        0    0    0    0    0    0    0    0    0    0
                         0    0    0    0    0    0    0    7    0    0
                         0    0    0    0    0    0    0    0    0    0
                         0    0    0    0    0    0    0    0    0    0
                         0    0    0    0    0    0    0    0    0    0
                       outvar_i_n : Printing only first  50 k-points.
              kpt      1.00000000E-01 -1.00000000E-01  0.00000000E+00
                       3.00000000E-01 -1.00000000E-01  0.00000000E+00
                       5.00000000E-01 -1.00000000E-01  0.00000000E+00
                      -3.00000000E-01 -1.00000000E-01  0.00000000E+00
                      -1.00000000E-01 -1.00000000E-01  0.00000000E+00
                       1.00000000E-01 -3.00000000E-01  0.00000000E+00
                       3.00000000E-01 -3.00000000E-01  0.00000000E+00
                       5.00000000E-01 -3.00000000E-01  0.00000000E+00
                      -3.00000000E-01 -3.00000000E-01  0.00000000E+00
                      -1.00000000E-01 -3.00000000E-01  0.00000000E+00
                       1.00000000E-01 -1.00000000E-01  2.00000000E-01
                       3.00000000E-01 -1.00000000E-01  2.00000000E-01
                       5.00000000E-01 -1.00000000E-01  2.00000000E-01
                      -3.00000000E-01 -1.00000000E-01  2.00000000E-01
                      -1.00000000E-01 -1.00000000E-01  2.00000000E-01
                       1.00000000E-01  5.00000000E-01  0.00000000E+00
                       3.00000000E-01  5.00000000E-01  0.00000000E+00
                       5.00000000E-01  5.00000000E-01  0.00000000E+00
                       1.00000000E-01 -3.00000000E-01  2.00000000E-01
                       3.00000000E-01 -3.00000000E-01  2.00000000E-01
                       5.00000000E-01 -3.00000000E-01  2.00000000E-01
                      -3.00000000E-01 -3.00000000E-01  2.00000000E-01
                      -1.00000000E-01 -3.00000000E-01  2.00000000E-01
                       1.00000000E-01 -1.00000000E-01  4.00000000E-01
                       3.00000000E-01 -1.00000000E-01  4.00000000E-01
                       5.00000000E-01 -1.00000000E-01  4.00000000E-01
                      -3.00000000E-01 -1.00000000E-01  4.00000000E-01
                      -1.00000000E-01 -1.00000000E-01  4.00000000E-01
                       1.00000000E-01  5.00000000E-01  2.00000000E-01
                       3.00000000E-01  5.00000000E-01  2.00000000E-01
                       5.00000000E-01  5.00000000E-01  2.00000000E-01
                      -3.00000000E-01  5.00000000E-01  2.00000000E-01
                      -1.00000000E-01  5.00000000E-01  2.00000000E-01
                       1.00000000E-01 -3.00000000E-01  4.00000000E-01
                       3.00000000E-01 -3.00000000E-01  4.00000000E-01
                       5.00000000E-01 -3.00000000E-01  4.00000000E-01
                      -3.00000000E-01 -3.00000000E-01  4.00000000E-01
                      -1.00000000E-01 -3.00000000E-01  4.00000000E-01
                       1.00000000E-01 -1.00000000E-01 -4.00000000E-01
                       3.00000000E-01 -1.00000000E-01 -4.00000000E-01
                       5.00000000E-01 -1.00000000E-01 -4.00000000E-01
                      -3.00000000E-01 -1.00000000E-01 -4.00000000E-01
                      -1.00000000E-01 -1.00000000E-01 -4.00000000E-01
                       1.00000000E-01  3.00000000E-01  2.00000000E-01
                       3.00000000E-01  3.00000000E-01  2.00000000E-01
                       5.00000000E-01  3.00000000E-01  2.00000000E-01
                      -3.00000000E-01  3.00000000E-01  2.00000000E-01
                      -1.00000000E-01  3.00000000E-01  2.00000000E-01
                       1.00000000E-01  5.00000000E-01  4.00000000E-01
                       3.00000000E-01  5.00000000E-01  4.00000000E-01
                       outvar_i_n : Printing only first  50 k-points.
         kptrlatt        5    0    0      0    5    0      0   -5    5
          kptrlen      3.53553391E+01
P           mkmem          63
            natom           2
            nband           5
            ngfft          12      12      12
             nkpt          63
             nsym           2
            ntime           2
           ntypat           1
              occ      2.000000  2.000000  2.000000  2.000000  0.000000
            rprim      0.0000000000E+00  5.0000000000E-01  5.0000000000E-01
                       5.0000000000E-01  0.0000000000E+00  5.0000000000E-01
                       5.0000000000E-01  5.0000000000E-01  0.0000000000E+00
           shiftk      5.00000000E-01  5.00000000E-01  5.00000000E-01
          spgroup           2
           strten      1.1184322307E-04  1.0337372651E-04  1.4593205284E-04
                      -1.0323537007E-04 -5.9719018017E-06 -5.0999997296E-05
           symrel      1  0  0   0  1  0   0  0  1      -1  0  0   0 -1  0   0  0 -1
            tnons      0.0000000  0.0000000  0.0000000     0.2449800  0.2650200  0.2550200
           toldfe      1.00000000E-06 Hartree
           tolmxf      1.00000000E-06
            typat      1  1
              wtk        0.01600    0.01600    0.01600    0.01600    0.01600    0.01600
                         0.01600    0.01600    0.01600    0.01600    0.01600    0.01600
                         0.01600    0.01600    0.01600    0.01600    0.01600    0.00800
                         0.01600    0.01600    0.01600    0.01600    0.01600    0.01600
                         0.01600    0.01600    0.01600    0.01600    0.01600    0.01600
                         0.01600    0.01600    0.01600    0.01600    0.01600    0.01600
                         0.01600    0.01600    0.01600    0.01600    0.01600    0.01600
                         0.01600    0.01600    0.01600    0.01600    0.01600    0.01600
                         0.01600    0.01600
                       outvars : Printing only first  50 k-points.
           xangst      5.2347684863E-02 -4.5608323666E-05  2.6123191511E-02
                       1.3236188929E+00  1.3229886298E+00  1.3232786904E+00
            xcart      9.8922788082E-02 -8.6187241110E-05  4.9365677674E-02
                       2.5012772119E+00  2.5000861872E+00  2.5006343223E+00
             xred     -4.9643297650E-03  1.4837465300E-02  4.9470923167E-03
                       2.4994432976E-01  2.5018253470E-01  2.5007290768E-01
            znucl       14.00000

================================================================================


- Timing analysis has been suppressed with timopt=0



================================================================================

 Suggested references for the acknowledgment of ABINIT usage.

 The users of ABINIT have little formal obligations with respect to the ABINIT group
 (those specified in the GNU General Public License, http://www.gnu.org/copyleft/gpl.txt).
 However, it is common practice in the scientific literature,
 to acknowledge the efforts of people that have made the research possible.
 In this spirit, please find below suggested citations of work written by ABINIT developers,
 corresponding to implementations inside of ABINIT that you have used in the present run.
 Note also that it will be of great value to readers of publications presenting these results,
 to read papers enabling them to understand the theoretical formalism and details
 of the ABINIT implementation.
 For information on why they are suggested, see also https://docs.abinit.org/theory/acknowledgments.
-
- [1] Recent developments in the ABINIT software package.
- Computer Phys. Comm. 205, 106 (2016).
- X.Gonze, F.Jollet, F.Abreu Araujo, D.Adams, B.Amadon, T.Applencourt,
- C.Audouze, J.-M.Beuken, J.Bieder, A.Bokhanchuk, E.Bousquet, F.Bruneval
- D.Caliste, M.Cote, F.Dahm, F.Da Pieve, M.Delaveau, M.Di Gennaro,
- B.Dorado, C.Espejo, G.Geneste, L.Genovese, A.Gerossier, M.Giantomassi,
- Y.Gillet, D.R.Hamann, L.He, G.Jomard, J.Laflamme Janssen, S.Le Roux,
- A.Levitt, A.Lherbier, F.Liu, I.Lukacevic, A.Martin, C.Martins,
- M.J.T.Oliveira, S.Ponce, Y.Pouillon, T.Rangel, G.-M.Rignanese,
- A.H.Romero, B.Rousseau, O.Rubel, A.A.Shukri, M.Stankovski, M.Torrent,
- M.J.Van Setten, B.Van Troeye, M.J.Verstraete, D.Waroquier, J.Wiktor,
- B.Xu, A.Zhou, J.W.Zwanziger.
- Comment: the fourth generic paper describing the ABINIT project.
- Note that a version of this paper, that is not formatted for Computer Phys. Comm. 
- is available at https://www.abinit.org/about/ABINIT16.pdf .
- The licence allows the authors to put it on the Web.
- DOI and bibtex: see https://docs.abinit.org/theory/bibliography/#gonze2016
-
- [2] ABINIT: First-principles approach of materials and nanosystem properties.
- Computer Phys. Comm. 180, 2582-2615 (2009).
- X. Gonze, B. Amadon, P.-M. Anglade, J.-M. Beuken, F. Bottin, P. Boulanger, F. Bruneval,
- D. Caliste, R. Caracas, M. Cote, T. Deutsch, L. Genovese, Ph. Ghosez, M. Giantomassi
- S. Goedecker, D.R. Hamann, P. Hermet, F. Jollet, G. Jomard, S. Leroux, M. Mancini, S. Mazevet,
- M.J.T. Oliveira, G. Onida, Y. Pouillon, T. Rangel, G.-M. Rignanese, D. Sangalli, R. Shaltaf,
- M. Torrent, M.J. Verstraete, G. Zerah, J.W. Zwanziger
- Comment: the third generic paper describing the ABINIT project.
- Note that a version of this paper, that is not formatted for Computer Phys. Comm. 
- is available at https://www.abinit.org/about/ABINIT_CPC_v10.pdf .
- The licence allows the authors to put it on the Web.
- DOI and bibtex: see https://docs.abinit.org/theory/bibliography/#gonze2009
-
- [3] A brief introduction to the ABINIT software package.
- Z. Kristallogr. 220, 558-562 (2005).
- X. Gonze, G.-M. Rignanese, M. Verstraete, J.-M. Beuken, Y. Pouillon, R. Caracas, F. Jollet,
- M. Torrent, G. Zerah, M. Mikami, Ph. Ghosez, M. Veithen, J.-Y. Raty, V. Olevano, F. Bruneval,
- L. Reining, R. Godby, G. Onida, D.R. Hamann, and D.C. Allan.
- Comment: the second generic paper describing the ABINIT project. Note that this paper
- should be cited especially if you are using the GW part of ABINIT, as several authors
- of this part are not in the list of authors of the first or third paper.
- The .pdf of the latter paper is available at https://www.abinit.org/about/zfk_0505-06_558-562.pdf.
- Note that it should not redistributed (Copyright by Oldenburg Wissenshaftverlag,
- the licence allows the authors to put it on the Web).
- DOI and bibtex: see https://docs.abinit.org/theory/bibliography/#gonze2005
-
- And optionally:
-
- [4] First-principles computation of material properties: the ABINIT software project. 
- X. Gonze, J.-M. Beuken, R. Caracas, F. Detraux, M. Fuchs, G.-M. Rignanese, L. Sindic,
- M. Verstraete, G. Zerah, F. Jollet, M. Torrent, A. Roy, M. Mikami, Ph. Ghosez, J.-Y. Raty, D.C. Allan.
- Computational Materials Science 25, 478-492 (2002). http://dx.doi.org/10.1016/S0927-0256(02)00325-7
- Comment: the original paper describing the ABINIT project.
- DOI and bibtex : see https://docs.abinit.org/theory/bibliography/#gonze2002
-
- Proc.   0 individual time (sec): cpu=          2.1  wall=          2.2

================================================================================

 Calculation completed.
.Delivered   1 WARNINGs and   4 COMMENTs to log file.
+Overall time at end (sec) : cpu=          2.1  wall=          2.2
