
.Version 9.0.0 of ABINIT 
.(MPI version, prepared for a x86_64_linux_gnu9.2 computer) 

.Copyright (C) 1998-2020 ABINIT group . 
 ABINIT comes with ABSOLUTELY NO WARRANTY.
 It is free software, and you are welcome to redistribute it
 under certain conditions (GNU General Public License,
 see ~abinit/COPYING or http://www.gnu.org/copyleft/gpl.txt).

 ABINIT is a project of the Universite Catholique de Louvain,
 Corning Inc. and other collaborators, see ~abinit/doc/developers/contributors.txt .
 Please read https://docs.abinit.org/theory/acknowledgments for suggested
 acknowledgments of the ABINIT effort.
 For more information, see https://www.abinit.org .

.Starting date : Tue 11 Feb 2020.
- ( at 14h33 )
  
- input  file    -> /home/gmatteo/git_repos/abinit/_abiref_gnu9.2_openmpi/tests/Test_suite/v6_t37-t38-t39-t40/t37.in
- output file    -> t37.out
- root for input  files -> t37i
- root for output files -> t37o


 DATASET    1 : space group P1 (#  1); Bravais aP (primitive triclinic)
================================================================================
 Values of the parameters that define the memory need for DATASET  1.
     intxc =       0    ionmov =       0      iscf =       7    lmnmax =       1
     lnmax =       1     mgfft =      20  mpssoang =       2    mqgrid =    3001
     natom =       2  nloc_mem =       1    nspden =       1   nspinor =       1
    nsppol =       1      nsym =       1    n1xccc =    2501    ntypat =       1
    occopt =       1   xclevel =       1
-    mband =           8        mffmem =           1         mkmem =           8
       mpw =         166          nfft =        8000          nkpt =           8
================================================================================
P This job should need less than                       2.750 Mbytes of memory.
  Rough estimation (10% accuracy) of disk space for files :
_ WF disk file :      0.164 Mbytes ; DEN or POT disk file :      0.063 Mbytes.
================================================================================


 DATASET    2 : space group P1 (#  1); Bravais aP (primitive triclinic)
================================================================================
 Values of the parameters that define the memory need for DATASET  2 (RF).
     intxc =       0      iscf =       7    lmnmax =       1     lnmax =       1
     mgfft =      20  mpssoang =       2    mqgrid =    3001     natom =       2
  nloc_mem =       1    nspden =       1   nspinor =       1    nsppol =       1
      nsym =       1    n1xccc =    2501    ntypat =       1    occopt =       1
   xclevel =       1
-    mband =           8        mffmem =           1         mkmem =           8
-   mkqmem =           8        mk1mem =           8           mpw =         332
      nfft =        8000          nkpt =           8
================================================================================
P This job should need less than                       3.251 Mbytes of memory.
  Rough estimation (10% accuracy) of disk space for files :
_ WF disk file :      0.326 Mbytes ; DEN or POT disk file :      0.063 Mbytes.
================================================================================


 DATASET    3 : space group P1 (#  1); Bravais aP (primitive triclinic)
================================================================================
 Values of the parameters that define the memory need for DATASET  3.
     intxc =       0    ionmov =       0      iscf =      -2    lmnmax =       1
     lnmax =       1     mgfft =      20  mpssoang =       2    mqgrid =    3001
     natom =       2  nloc_mem =       1    nspden =       1   nspinor =       1
    nsppol =       1      nsym =       1    n1xccc =    2501    ntypat =       1
    occopt =       1   xclevel =       1
-    mband =           8        mffmem =           1         mkmem =           8
       mpw =         332          nfft =        8000          nkpt =           8
================================================================================
P This job should need less than                       1.980 Mbytes of memory.
  Rough estimation (10% accuracy) of disk space for files :
_ WF disk file :      0.326 Mbytes ; DEN or POT disk file :      0.063 Mbytes.
================================================================================


 DATASET    4 : space group P1 (#  1); Bravais aP (primitive triclinic)
================================================================================
 Values of the parameters that define the memory need for DATASET  4 (RF).
     intxc =       0      iscf =       7    lmnmax =       1     lnmax =       1
     mgfft =      20  mpssoang =       2    mqgrid =    3001     natom =       2
  nloc_mem =       1    nspden =       1   nspinor =       1    nsppol =       1
      nsym =       1    n1xccc =    2501    ntypat =       1    occopt =       1
   xclevel =       1
-    mband =           8        mffmem =           1         mkmem =           8
-   mkqmem =           8        mk1mem =           8           mpw =         332
      nfft =        8000          nkpt =           8
================================================================================
P This job should need less than                       3.691 Mbytes of memory.
  Rough estimation (10% accuracy) of disk space for files :
_ WF disk file :      0.326 Mbytes ; DEN or POT disk file :      0.063 Mbytes.
================================================================================

--------------------------------------------------------------------------------
------------- Echo of variables that govern the present computation ------------
--------------------------------------------------------------------------------
-
- outvars: echo of selected default values                                      
-   iomode0 =  0 , fftalg0 =312 , wfoptalg0 =  0
-
- outvars: echo of global parameters not present in the input file              
-  max_nthreads =    0
-
 -outvars: echo values of preprocessed input variables --------
            acell      6.7034680500E+00  6.7034680500E+00  6.7034680500E+00 Bohr
              amu      1.20110000E+01
          bdeigrf           8
           diemac      6.00000000E+00
             ecut      2.00000000E+01 Hartree
           ecutsm      5.00000000E-01 Hartree
    elph2_imagden      3.67493254E-03 Hartree
           enunit           2
-          fftalg         312
           getden1          0
           getden2          1
           getden3          1
           getden4          1
   getgam_eig2nkq1          0
   getgam_eig2nkq2          0
   getgam_eig2nkq3          0
   getgam_eig2nkq4          2
           getwfk1          0
           getwfk2          1
           getwfk3          1
           getwfk4          1
           getwfq1          0
           getwfq2          0
           getwfq3          0
           getwfq4         -1
          ieig2rf1          0
          ieig2rf2          1
          ieig2rf3          0
          ieig2rf4          1
             iscf1          7
             iscf2          7
             iscf3         -2
             iscf4          7
           istwfk1       2    3    6    7    4    5    8    9
           istwfk2       1    1    1    1    1    1    1    1
           istwfk3       7    0    0    0    9    0    0    0
           istwfk4       1    1    1    1    1    1    1    1
           jdtset        1    2    3    4
              kpt      0.00000000E+00  0.00000000E+00  0.00000000E+00
                       5.00000000E-01  0.00000000E+00  0.00000000E+00
                       0.00000000E+00  5.00000000E-01  0.00000000E+00
                       5.00000000E-01  5.00000000E-01  0.00000000E+00
                       0.00000000E+00  0.00000000E+00  5.00000000E-01
                       5.00000000E-01  0.00000000E+00  5.00000000E-01
                       0.00000000E+00  5.00000000E-01  5.00000000E-01
                       5.00000000E-01  5.00000000E-01  5.00000000E-01
           kptopt           3
         kptrlatt        2    0    0      0    2    0      0    0    2
          kptrlen      9.48013543E+00
P           mkmem           8
P          mkqmem           8
P          mk1mem           8
            natom           2
            nband           8
           nbdbuf1          0
           nbdbuf2          0
           nbdbuf3          2
           nbdbuf4          0
           ndtset           4
            ngfft          20      20      20
             nkpt           8
             nqpt1          0
             nqpt2          1
             nqpt3          1
             nqpt4          1
             nsym           1
           ntypat           1
              occ      2.000000  2.000000  2.000000  2.000000  0.000000  0.000000
                       0.000000  0.000000
        optdriver1          0
        optdriver2          1
        optdriver3          0
        optdriver4          1
              qpt1     0.00000000E+00  0.00000000E+00  0.00000000E+00
              qpt2     0.00000000E+00  0.00000000E+00  0.00000000E+00
              qpt3     5.00000000E-01  5.00000000E-01  0.00000000E+00
              qpt4     5.00000000E-01  5.00000000E-01  0.00000000E+00
            rfasr           1
          rfatpol           1       2
            rfdir           1       1       1
           rfphon1          0
           rfphon2          1
           rfphon3          0
           rfphon4          1
            rprim      0.0000000000E+00  5.0000000000E-01  5.0000000000E-01
                       5.0000000000E-01  0.0000000000E+00  5.0000000000E-01
                       5.0000000000E-01  5.0000000000E-01  0.0000000000E+00
          smdelta1          0
          smdelta2          1
          smdelta3          0
          smdelta4          1
          spgroup           1
           tolwfr      1.00000000E-16
            typat      1  1
              wtk        0.12500    0.12500    0.12500    0.12500    0.12500    0.12500
                         0.12500    0.12500
           xangst      0.0000000000E+00  0.0000000000E+00  0.0000000000E+00
                       8.8683062764E-01  8.8683062764E-01  8.8683062764E-01
            xcart      0.0000000000E+00  0.0000000000E+00  0.0000000000E+00
                       1.6758670125E+00  1.6758670125E+00  1.6758670125E+00
             xred      0.0000000000E+00  0.0000000000E+00  0.0000000000E+00
                       2.5000000000E-01  2.5000000000E-01  2.5000000000E-01
            znucl        6.00000

================================================================================

 chkinp: Checking input parameters for consistency, jdtset=   1.

 chkinp: Checking input parameters for consistency, jdtset=   2.

 chkinp: Checking input parameters for consistency, jdtset=   3.

 chkinp: Checking input parameters for consistency, jdtset=   4.

================================================================================
== DATASET  1 ==================================================================
-   nproc =    1

 Exchange-correlation functional for the present dataset will be:
  LDA: new Teter (4/93) with spin-polarized option - ixc=1
 Citation for XC functional:
  S. Goedecker, M. Teter, J. Huetter, PRB 54, 1703 (1996)

 Real(R)+Recip(G) space primitive vectors, cartesian coordinates (Bohr,Bohr^-1):
 R(1)=  0.0000000  3.3517340  3.3517340  G(1)= -0.1491765  0.1491765  0.1491765
 R(2)=  3.3517340  0.0000000  3.3517340  G(2)=  0.1491765 -0.1491765  0.1491765
 R(3)=  3.3517340  3.3517340  0.0000000  G(3)=  0.1491765  0.1491765 -0.1491765
 Unit cell volume ucvol=  7.5307571E+01 bohr^3
 Angles (23,13,12)=  6.00000000E+01  6.00000000E+01  6.00000000E+01 degrees

 getcut: wavevector=  0.0000  0.0000  0.0000  ngfft=  20  20  20
         ecut(hartree)=     20.000   => boxcut(ratio)=   2.09587

--- Pseudopotential description ------------------------------------------------
- pspini: atom type   1  psp file is /home/gmatteo/git_repos/abinit/tests/Psps_for_tests/6c.pspnc
- pspatm: opening atomic psp file    /home/gmatteo/git_repos/abinit/tests/Psps_for_tests/6c.pspnc
-  Troullier-Martins psp for element  C         Thu Oct 27 17:29:33 EDT 1994
-  6.00000   4.00000    940714                znucl, zion, pspdat
    1    1    1    1      2001   0.00000      pspcod,pspxc,lmax,lloc,mmax,r2well
    0  10.372  24.987    1   1.4850707        l,e99.0,e99.9,nproj,rcpsp
   0.00000000   0.00000000   0.00000000   0.00000000     rms, ekb1, ekb2, epsatm
    1  15.431  21.987    0   1.4850707        l,e99.0,e99.9,nproj,rcpsp
   0.00000000   0.00000000   0.00000000   0.00000000     rms, ekb1, ekb2, epsatm
    0.83985002509544    0.99012430797080    0.51184907750884   rchrg,fchrg,qchrg
  pspatm : epsatm=    0.92590353
         --- l  ekb(1:nproj) -->
             0    4.921466
 pspatm: atomic psp has been read  and splines computed

   1.48144565E+01                                ecore*ucvol(ha*bohr**3)
--------------------------------------------------------------------------------

_setup2: Arith. and geom. avg. npw (full set) are     329.625     329.613

================================================================================

     iter   Etot(hartree)      deltaE(h)  residm     vres2
 ETOT  1  -11.931339230891    -1.193E+01 6.565E-02 3.259E+01
 ETOT  2  -11.946921156689    -1.558E-02 4.977E-06 1.220E-01
 ETOT  3  -11.946961928799    -4.077E-05 2.470E-06 7.149E-03
 ETOT  4  -11.946960001346     1.927E-06 6.365E-07 7.199E-03
 ETOT  5  -11.946966449717    -6.448E-06 2.031E-07 8.466E-06
 ETOT  6  -11.946966456571    -6.854E-09 3.560E-10 2.569E-08
 ETOT  7  -11.946966456584    -1.370E-11 2.122E-12 2.649E-10
 ETOT  8  -11.946966456585    -1.350E-13 3.777E-14 1.006E-12
 ETOT  9  -11.946966456585    -7.105E-15 5.546E-16 3.619E-15
 ETOT 10  -11.946966456585    -2.665E-14 9.480E-17 5.366E-17

 At SCF step   10   max residual=  9.48E-17 < tolwfr=  1.00E-16 =>converged.

 Cartesian components of stress tensor (hartree/bohr^3)
  sigma(1 1)= -2.04815928E-03  sigma(3 2)= -8.89743899E-11
  sigma(2 2)= -2.04815926E-03  sigma(3 1)= -1.08806272E-10
  sigma(3 3)= -2.04815926E-03  sigma(2 1)= -3.21096636E-11


--- !ResultsGS
iteration_state: {"dtset": 1, }
comment   : Summary of ground state results
natom     :        2
nsppol    :        1
nspinor   :        1
nspden    :        1
nelect    :   8.00000000E+00
charge    :   0.00000000E+00
lattice_lengths: [   4.74007,    4.74007,    4.74007, ]
lattice_angles: [ 60.000,  60.000,  60.000, ]
cutoff_energies: {"ecut":  20.0, "pawecutdg":  -1.0, }
convergence: {
    "deltae": -2.66E-14, "res2":  5.37E-17, 
    "residm":  9.48E-17, "diffor": undef, 
}
etotal    :  -1.19469665E+01
entropy   :   0.00000000E+00
fermie    :   4.83268610E-01
cartesian_stress_tensor:
- [ -2.04815928E-03,  -3.21096636E-11,  -1.08806272E-10, ]
- [ -3.21096636E-11,  -2.04815926E-03,  -8.89743899E-11, ]
- [ -1.08806272E-10,  -8.89743899E-11,  -2.04815926E-03, ]
pressure_GPa:   6.0259E+01
cartesian_forces:
- [ -6.62101835E-09,  -9.19272215E-09,  -4.14247556E-11, ]
- [  6.62101835E-09,   9.19272215E-09,   4.14247556E-11, ]
force_length_stats: {"min":   1.13289779E-08, "max":   1.13289779E-08, "mean":   1.13289779E-08, }
...

 Integrated electronic density in atomic spheres:
 ------------------------------------------------
 Atom  Sphere_radius  Integrated_density
    1        2.00000          4.80536232
    2        2.00000          4.80536232
================================================================================

 ----iterations are completed or convergence reached----

 Mean square residual over all n,k,spin=   38.516E-18; max=  94.800E-18
 reduced coordinates (array xred) for    2 atoms
       0.000000000000      0.000000000000      0.000000000000
       0.250000000000      0.250000000000      0.250000000000
 rms dE/dt=  3.9931E-08; max dE/dt=  4.4892E-08; dE/dt below (all hartree)
    1       0.000000036226      0.000000001741      0.000000044892
    2      -0.000000025675     -0.000000042921     -0.000000061114

 cartesian coordinates (angstrom) at end:
    1      0.00000000000000     0.00000000000000     0.00000000000000
    2      0.88683062764281     0.88683062764281     0.88683062764281

 cartesian forces (hartree/bohr) at end:
    1     -0.00000000662102    -0.00000000919272    -0.00000000004142
    2      0.00000000662102     0.00000000919272     0.00000000004142
 frms,max,avg= 6.5407884E-09 9.1927222E-09   5.068E-09 -2.649E-09  1.075E-09 h/b

 cartesian forces (eV/Angstrom) at end:
    1     -0.00000034046642    -0.00000047270874    -0.00000000213015
    2      0.00000034046642     0.00000047270874     0.00000000213015
 frms,max,avg= 3.3634084E-07 4.7270874E-07   2.606E-07 -1.362E-07  5.526E-08 e/A
 length scales=  6.703468050000  6.703468050000  6.703468050000 bohr
              =  3.547322510571  3.547322510571  3.547322510571 angstroms
 prteigrs : about to open file t37o_DS1_EIG
 Fermi (or HOMO) energy (hartree) =   0.48327   Average Vxc (hartree)=  -0.50315
 Eigenvalues (hartree) for nkpt=   8  k points:
 kpt#   1, nband=  8, wtk=  0.12500, kpt=  0.0000  0.0000  0.0000 (reduced coord)
  -0.31631    0.48327    0.48327    0.48327    0.68622    0.68622    0.68622    0.99279
 prteigrs : prtvol=0 or 1, do not print more k-points.

 Fermi (or HOMO) energy (eV) =  13.15041   Average Vxc (eV)= -13.69139
 Eigenvalues (   eV  ) for nkpt=   8  k points:
 kpt#   1, nband=  8, wtk=  0.12500, kpt=  0.0000  0.0000  0.0000 (reduced coord)
  -8.60718   13.15041   13.15041   13.15041   18.67296   18.67296   18.67296   27.01512
 prteigrs : prtvol=0 or 1, do not print more k-points.


--- !EnergyTerms
iteration_state     : {"dtset": 1, }
comment             : Components of total free energy in Hartree
kinetic             :  8.88377027370465E+00
hartree             :  1.04110235276181E+00
xc                  : -4.38439588741031E+00
Ewald energy        : -1.28573401205767E+01
psp_core            :  1.96719350701201E-01
local_psp           : -5.96556925879736E+00
non_local_psp       :  1.13874683303213E+00
total_energy        : -1.19469664565846E+01
total_energy_eV     : -3.25093490212667E+02
band_energy         :  1.30871434564015E+00
...


 Cartesian components of stress tensor (hartree/bohr^3)
  sigma(1 1)= -2.04815928E-03  sigma(3 2)= -8.89743899E-11
  sigma(2 2)= -2.04815926E-03  sigma(3 1)= -1.08806272E-10
  sigma(3 3)= -2.04815926E-03  sigma(2 1)= -3.21096636E-11

-Cartesian components of stress tensor (GPa)         [Pressure=  6.0259E+01 GPa]
- sigma(1 1)= -6.02589162E+01  sigma(3 2)= -2.61771649E-06
- sigma(2 2)= -6.02589157E+01  sigma(3 1)= -3.20119050E-06
- sigma(3 3)= -6.02589157E+01  sigma(2 1)= -9.44698759E-07

================================================================================
== DATASET  2 ==================================================================
-   nproc =    1

 mkfilename : getwfk/=0, take file _WFK from output of DATASET   1.

 mkfilename : getden/=0, take file _DEN from output of DATASET   1.

 Exchange-correlation functional for the present dataset will be:
  LDA: new Teter (4/93) with spin-polarized option - ixc=1
 Citation for XC functional:
  S. Goedecker, M. Teter, J. Huetter, PRB 54, 1703 (1996)

 Real(R)+Recip(G) space primitive vectors, cartesian coordinates (Bohr,Bohr^-1):
 R(1)=  0.0000000  3.3517340  3.3517340  G(1)= -0.1491765  0.1491765  0.1491765
 R(2)=  3.3517340  0.0000000  3.3517340  G(2)=  0.1491765 -0.1491765  0.1491765
 R(3)=  3.3517340  3.3517340  0.0000000  G(3)=  0.1491765  0.1491765 -0.1491765
 Unit cell volume ucvol=  7.5307571E+01 bohr^3
 Angles (23,13,12)=  6.00000000E+01  6.00000000E+01  6.00000000E+01 degrees
 setup1 : take into account q-point for computing boxcut.

 getcut: wavevector=  0.0000  0.0000  0.0000  ngfft=  20  20  20
         ecut(hartree)=     20.000   => boxcut(ratio)=   2.09587
--------------------------------------------------------------------------------

-inwffil : will read wavefunctions from disk file t37o_DS1_WFK

 ==>  initialize data related to q vector <== 

 The list of irreducible perturbations for this q vector is:
    1)    idir= 1    ipert=   1
    2)    idir= 2    ipert=   1
    3)    idir= 3    ipert=   1
    4)    idir= 1    ipert=   2
    5)    idir= 2    ipert=   2
    6)    idir= 3    ipert=   2

================================================================================

--------------------------------------------------------------------------------
 Perturbation wavevector (in red.coord.)   0.000000  0.000000  0.000000
 Perturbation : displacement of atom   1   along direction   1
 The set of symmetries contains only one element for this perturbation.
 symkpt : not enough symmetry to change the number of k points.

--------------------------------------------------------------------------------

-inwffil : will read wavefunctions from disk file t37o_DS1_WFK
--------------------------------------------------------------------------------

 Initialisation of the first-order wave-functions :
  ireadwf=   0

     iter   2DEtotal(Ha)        deltaE(Ha) residm    vres2
-ETOT  1   23.417032685998     -2.429E+02 1.592E+00 1.094E+04
 ETOT  2   13.931618880980     -9.485E+00 1.509E-01 2.643E+02
 ETOT  3   13.618147989246     -3.135E-01 4.189E-03 1.929E+00
 ETOT  4   13.616145256311     -2.003E-03 2.454E-05 2.978E-02
 ETOT  5   13.616152353045      7.097E-06 3.190E-07 2.628E-02
 ETOT  6   13.616105227514     -4.713E-05 1.960E-08 2.033E-05
 ETOT  7   13.616105198735     -2.878E-08 1.104E-09 1.068E-08
 ETOT  8   13.616105198730     -5.031E-12 1.633E-12 6.215E-11
 ETOT  9   13.616105198731      6.821E-13 6.531E-14 6.009E-13
 ETOT 10   13.616105198730     -3.411E-13 2.579E-16 3.999E-15
 ETOT 11   13.616105198730     -3.695E-13 9.917E-17 4.827E-17

 At SCF step   11   max residual=  9.92E-17 < tolwfr=  1.00E-16 =>converged.
================================================================================

 ----iterations are completed or convergence reached----

 Mean square residual over all n,k,spin=   56.737E-18; max=  99.167E-18

 Thirteen components of 2nd-order total energy (hartree) are
 1,2,3: 0th-order hamiltonian combined with 1st-order wavefunctions
     kin0=   3.26888679E+02 eigvalue=  -1.90378025E+01  local=  -1.67058756E+02
 4,5,6: 1st-order hamiltonian combined with 1st and 0th-order wfs
 loc psp =  -1.75225008E+02  Hartree=   2.62601931E+01     xc=  -9.09588872E+00
 note that "loc psp" includes a xc core correction that could be resolved
 7,8,9: eventually, occupation + non-local contributions
    edocc=   1.24070022E+01     enl0=   8.23401829E+01   enl1=  -3.30182213E+02
 1-9 gives the relaxation energy (to be shifted if some occ is /=2.0)
   erelax=  -2.52703610E+02
 10,11,12 Non-relaxation  contributions : frozen-wavefunctions and Ewald
 fr.local=   6.55955891E+01 fr.nonlo=   1.81941247E+02  Ewald=   1.99958120E+01
 13,14 Frozen wf xc core corrections (1) and (2)
 frxc 1  =  -1.06811382E+01  frxc 2 =   9.46820546E+00
 Resulting in :
 2DEtotal=    0.1361610520E+02 Ha. Also 2DEtotal=    0.370513065241E+03 eV
    (2DErelax=   -2.5270361045E+02 Ha. 2DEnonrelax=    2.6631971565E+02 Ha)
    (  non-var. 2DEtotal :    1.3616105202E+01 Ha)


--------------------------------------------------------------------------------
 Perturbation wavevector (in red.coord.)   0.000000  0.000000  0.000000
 Perturbation : displacement of atom   1   along direction   2
 The set of symmetries contains only one element for this perturbation.
 symkpt : not enough symmetry to change the number of k points.

--------------------------------------------------------------------------------

-inwffil : will read wavefunctions from disk file t37o_DS1_WFK
--------------------------------------------------------------------------------

 Initialisation of the first-order wave-functions :
  ireadwf=   0

     iter   2DEtotal(Ha)        deltaE(Ha) residm    vres2
-ETOT  1   23.424272502169     -2.429E+02 6.762E-01 1.095E+04
 ETOT  2   13.932299678110     -9.492E+00 1.470E-01 2.649E+02
 ETOT  3   13.618141349598     -3.142E-01 4.293E-03 1.924E+00
 ETOT  4   13.616140461306     -2.001E-03 3.433E-05 2.716E-02
 ETOT  5   13.616146739212      6.278E-06 3.377E-07 2.321E-02
 ETOT  6   13.616105128135     -4.161E-05 1.799E-08 2.275E-05
 ETOT  7   13.616105095025     -3.311E-08 8.819E-10 1.072E-08
 ETOT  8   13.616105095020     -4.235E-12 1.664E-12 5.770E-11
 ETOT  9   13.616105095021      1.705E-13 6.438E-14 1.597E-13
 ETOT 10   13.616105095020     -8.527E-14 2.702E-16 1.601E-15
 ETOT 11   13.616105095020      0.000E+00 9.456E-17 3.254E-17

 At SCF step   11   max residual=  9.46E-17 < tolwfr=  1.00E-16 =>converged.
================================================================================

 ----iterations are completed or convergence reached----

 Mean square residual over all n,k,spin=   44.408E-18; max=  94.558E-18

 Thirteen components of 2nd-order total energy (hartree) are
 1,2,3: 0th-order hamiltonian combined with 1st-order wavefunctions
     kin0=   3.26888679E+02 eigvalue=  -1.90378025E+01  local=  -1.67058756E+02
 4,5,6: 1st-order hamiltonian combined with 1st and 0th-order wfs
 loc psp =  -1.75225008E+02  Hartree=   2.62601931E+01     xc=  -9.09588873E+00
 note that "loc psp" includes a xc core correction that could be resolved
 7,8,9: eventually, occupation + non-local contributions
    edocc=   1.24070022E+01     enl0=   8.23401828E+01   enl1=  -3.30182213E+02
 1-9 gives the relaxation energy (to be shifted if some occ is /=2.0)
   erelax=  -2.52703610E+02
 10,11,12 Non-relaxation  contributions : frozen-wavefunctions and Ewald
 fr.local=   6.55955892E+01 fr.nonlo=   1.81941247E+02  Ewald=   1.99958120E+01
 13,14 Frozen wf xc core corrections (1) and (2)
 frxc 1  =  -1.06811382E+01  frxc 2 =   9.46820547E+00
 Resulting in :
 2DEtotal=    0.1361610510E+02 Ha. Also 2DEtotal=    0.370513062419E+03 eV
    (2DErelax=   -2.5270361032E+02 Ha. 2DEnonrelax=    2.6631971541E+02 Ha)
    (  non-var. 2DEtotal :    1.3616105093E+01 Ha)


--------------------------------------------------------------------------------
 Perturbation wavevector (in red.coord.)   0.000000  0.000000  0.000000
 Perturbation : displacement of atom   1   along direction   3
 The set of symmetries contains only one element for this perturbation.
 symkpt : not enough symmetry to change the number of k points.

--------------------------------------------------------------------------------

-inwffil : will read wavefunctions from disk file t37o_DS1_WFK
--------------------------------------------------------------------------------

 Initialisation of the first-order wave-functions :
  ireadwf=   0

     iter   2DEtotal(Ha)        deltaE(Ha) residm    vres2
-ETOT  1   23.427746518779     -2.429E+02 7.932E-01 1.095E+04
 ETOT  2   13.932563823166     -9.495E+00 1.414E-01 2.651E+02
 ETOT  3   13.618114678689     -3.144E-01 4.440E-03 1.908E+00
 ETOT  4   13.616113758636     -2.001E-03 2.012E-05 1.231E-02
 ETOT  5   13.616108606745     -5.152E-06 2.362E-07 2.021E-03
 ETOT  6   13.616105285537     -3.321E-06 3.975E-09 1.612E-04
 ETOT  7   13.616105001224     -2.843E-07 2.830E-10 1.170E-08
 ETOT  8   13.616105001217     -7.248E-12 1.931E-11 4.938E-11
 ETOT  9   13.616105001218      1.108E-12 1.225E-13 1.169E-13
 ETOT 10   13.616105001217     -1.023E-12 7.912E-15 1.406E-15
 ETOT 11   13.616105001217      3.979E-13 9.575E-17 3.308E-17

 At SCF step   11   max residual=  9.58E-17 < tolwfr=  1.00E-16 =>converged.
================================================================================

 ----iterations are completed or convergence reached----

 Mean square residual over all n,k,spin=   39.323E-18; max=  95.752E-18

 Thirteen components of 2nd-order total energy (hartree) are
 1,2,3: 0th-order hamiltonian combined with 1st-order wavefunctions
     kin0=   3.26888679E+02 eigvalue=  -1.90378025E+01  local=  -1.67058756E+02
 4,5,6: 1st-order hamiltonian combined with 1st and 0th-order wfs
 loc psp =  -1.75225008E+02  Hartree=   2.62601931E+01     xc=  -9.09588873E+00
 note that "loc psp" includes a xc core correction that could be resolved
 7,8,9: eventually, occupation + non-local contributions
    edocc=   1.24070022E+01     enl0=   8.23401827E+01   enl1=  -3.30182213E+02
 1-9 gives the relaxation energy (to be shifted if some occ is /=2.0)
   erelax=  -2.52703610E+02
 10,11,12 Non-relaxation  contributions : frozen-wavefunctions and Ewald
 fr.local=   6.55955892E+01 fr.nonlo=   1.81941247E+02  Ewald=   1.99958120E+01
 13,14 Frozen wf xc core corrections (1) and (2)
 frxc 1  =  -1.06811382E+01  frxc 2 =   9.46820548E+00
 Resulting in :
 2DEtotal=    0.1361610500E+02 Ha. Also 2DEtotal=    0.370513059866E+03 eV
    (2DErelax=   -2.5270361019E+02 Ha. 2DEnonrelax=    2.6631971520E+02 Ha)
    (  non-var. 2DEtotal :    1.3616105005E+01 Ha)


--------------------------------------------------------------------------------
 Perturbation wavevector (in red.coord.)   0.000000  0.000000  0.000000
 Perturbation : displacement of atom   2   along direction   1
 The set of symmetries contains only one element for this perturbation.
 symkpt : not enough symmetry to change the number of k points.

--------------------------------------------------------------------------------

-inwffil : will read wavefunctions from disk file t37o_DS1_WFK
--------------------------------------------------------------------------------

 Initialisation of the first-order wave-functions :
  ireadwf=   0

     iter   2DEtotal(Ha)        deltaE(Ha) residm    vres2
-ETOT  1   23.417031319774     -2.429E+02 1.592E+00 1.094E+04
 ETOT  2   13.931629800840     -9.485E+00 1.509E-01 2.643E+02
 ETOT  3   13.618157156231     -3.135E-01 4.189E-03 1.935E+00
 ETOT  4   13.616155397829     -2.002E-03 2.464E-05 3.559E-02
 ETOT  5   13.616163057644      7.660E-06 3.681E-07 3.242E-02
 ETOT  6   13.616104931013     -5.813E-05 2.067E-08 1.686E-05
 ETOT  7   13.616104908528     -2.249E-08 1.223E-09 1.063E-08
 ETOT  8   13.616104908523     -4.547E-12 2.068E-12 6.242E-11
 ETOT  9   13.616104908523     -3.126E-13 6.418E-14 6.224E-13
 ETOT 10   13.616104908523      6.537E-13 3.184E-16 3.985E-15
 ETOT 11   13.616104908523     -3.411E-13 9.462E-17 5.613E-17

 At SCF step   11   max residual=  9.46E-17 < tolwfr=  1.00E-16 =>converged.
================================================================================

 ----iterations are completed or convergence reached----

 Mean square residual over all n,k,spin=   53.925E-18; max=  94.618E-18

 Thirteen components of 2nd-order total energy (hartree) are
 1,2,3: 0th-order hamiltonian combined with 1st-order wavefunctions
     kin0=   3.26888679E+02 eigvalue=  -1.90378025E+01  local=  -1.67058756E+02
 4,5,6: 1st-order hamiltonian combined with 1st and 0th-order wfs
 loc psp =  -1.75225008E+02  Hartree=   2.62601931E+01     xc=  -9.09588873E+00
 note that "loc psp" includes a xc core correction that could be resolved
 7,8,9: eventually, occupation + non-local contributions
    edocc=   1.24070022E+01     enl0=   8.23401829E+01   enl1=  -3.30182213E+02
 1-9 gives the relaxation energy (to be shifted if some occ is /=2.0)
   erelax=  -2.52703610E+02
 10,11,12 Non-relaxation  contributions : frozen-wavefunctions and Ewald
 fr.local=   6.55955890E+01 fr.nonlo=   1.81941247E+02  Ewald=   1.99958120E+01
 13,14 Frozen wf xc core corrections (1) and (2)
 frxc 1  =  -1.06811382E+01  frxc 2 =   9.46820547E+00
 Resulting in :
 2DEtotal=    0.1361610491E+02 Ha. Also 2DEtotal=    0.370513057344E+03 eV
    (2DErelax=   -2.5270361021E+02 Ha. 2DEnonrelax=    2.6631971512E+02 Ha)
    (  non-var. 2DEtotal :    1.3616104912E+01 Ha)


--------------------------------------------------------------------------------
 Perturbation wavevector (in red.coord.)   0.000000  0.000000  0.000000
 Perturbation : displacement of atom   2   along direction   2
 The set of symmetries contains only one element for this perturbation.
 symkpt : not enough symmetry to change the number of k points.

--------------------------------------------------------------------------------

-inwffil : will read wavefunctions from disk file t37o_DS1_WFK
--------------------------------------------------------------------------------

 Initialisation of the first-order wave-functions :
  ireadwf=   0

     iter   2DEtotal(Ha)        deltaE(Ha) residm    vres2
-ETOT  1   23.424260186070     -2.429E+02 6.762E-01 1.095E+04
 ETOT  2   13.932309570464     -9.492E+00 1.470E-01 2.649E+02
 ETOT  3   13.618148173179     -3.142E-01 4.294E-03 1.928E+00
 ETOT  4   13.616147825594     -2.000E-03 3.428E-05 3.129E-02
 ETOT  5   13.616155128331      7.303E-06 3.677E-07 2.792E-02
 ETOT  6   13.616105067051     -5.006E-05 2.018E-08 1.926E-05
 ETOT  7   13.616105040251     -2.680E-08 9.579E-10 1.067E-08
 ETOT  8   13.616105040245     -6.310E-12 1.630E-12 5.703E-11
 ETOT  9   13.616105040246      8.527E-13 5.534E-14 9.360E-14
 ETOT 10   13.616105040246      3.411E-13 2.823E-16 1.161E-15
 ETOT 11   13.616105040247      1.080E-12 9.956E-17 1.763E-17

 At SCF step   11   max residual=  9.96E-17 < tolwfr=  1.00E-16 =>converged.
================================================================================

 ----iterations are completed or convergence reached----

 Mean square residual over all n,k,spin=   42.038E-18; max=  99.560E-18

 Thirteen components of 2nd-order total energy (hartree) are
 1,2,3: 0th-order hamiltonian combined with 1st-order wavefunctions
     kin0=   3.26888679E+02 eigvalue=  -1.90378025E+01  local=  -1.67058756E+02
 4,5,6: 1st-order hamiltonian combined with 1st and 0th-order wfs
 loc psp =  -1.75225008E+02  Hartree=   2.62601931E+01     xc=  -9.09588873E+00
 note that "loc psp" includes a xc core correction that could be resolved
 7,8,9: eventually, occupation + non-local contributions
    edocc=   1.24070022E+01     enl0=   8.23401830E+01   enl1=  -3.30182213E+02
 1-9 gives the relaxation energy (to be shifted if some occ is /=2.0)
   erelax=  -2.52703610E+02
 10,11,12 Non-relaxation  contributions : frozen-wavefunctions and Ewald
 fr.local=   6.55955891E+01 fr.nonlo=   1.81941247E+02  Ewald=   1.99958120E+01
 13,14 Frozen wf xc core corrections (1) and (2)
 frxc 1  =  -1.06811382E+01  frxc 2 =   9.46820547E+00
 Resulting in :
 2DEtotal=    0.1361610504E+02 Ha. Also 2DEtotal=    0.370513060928E+03 eV
    (2DErelax=   -2.5270361027E+02 Ha. 2DEnonrelax=    2.6631971531E+02 Ha)
    (  non-var. 2DEtotal :    1.3616105039E+01 Ha)


--------------------------------------------------------------------------------
 Perturbation wavevector (in red.coord.)   0.000000  0.000000  0.000000
 Perturbation : displacement of atom   2   along direction   3
 The set of symmetries contains only one element for this perturbation.
 symkpt : not enough symmetry to change the number of k points.

--------------------------------------------------------------------------------

-inwffil : will read wavefunctions from disk file t37o_DS1_WFK
--------------------------------------------------------------------------------

 Initialisation of the first-order wave-functions :
  ireadwf=   0

     iter   2DEtotal(Ha)        deltaE(Ha) residm    vres2
-ETOT  1   23.427688528934     -2.429E+02 7.932E-01 1.095E+04
 ETOT  2   13.932589260548     -9.495E+00 1.414E-01 2.651E+02
 ETOT  3   13.618115962528     -3.145E-01 4.442E-03 1.909E+00
 ETOT  4   13.616114140604     -2.002E-03 2.015E-05 1.258E-02
 ETOT  5   13.616109298474     -4.842E-06 2.383E-07 2.462E-03
 ETOT  6   13.616105150246     -4.148E-06 4.381E-09 1.419E-04
 ETOT  7   13.616104900923     -2.493E-07 3.160E-10 1.135E-08
 ETOT  8   13.616104900918     -4.547E-12 1.778E-11 5.058E-11
 ETOT  9   13.616104900917     -1.023E-12 1.402E-13 1.120E-13
 ETOT 10   13.616104900917     -8.527E-14 8.000E-15 1.286E-15
 ETOT 11   13.616104900917     -2.842E-14 8.681E-17 2.867E-17

 At SCF step   11   max residual=  8.68E-17 < tolwfr=  1.00E-16 =>converged.
================================================================================

 ----iterations are completed or convergence reached----

 Mean square residual over all n,k,spin=   37.768E-18; max=  86.809E-18

 Thirteen components of 2nd-order total energy (hartree) are
 1,2,3: 0th-order hamiltonian combined with 1st-order wavefunctions
     kin0=   3.26888679E+02 eigvalue=  -1.90378025E+01  local=  -1.67058756E+02
 4,5,6: 1st-order hamiltonian combined with 1st and 0th-order wfs
 loc psp =  -1.75225008E+02  Hartree=   2.62601931E+01     xc=  -9.09588873E+00
 note that "loc psp" includes a xc core correction that could be resolved
 7,8,9: eventually, occupation + non-local contributions
    edocc=   1.24070022E+01     enl0=   8.23401829E+01   enl1=  -3.30182212E+02
 1-9 gives the relaxation energy (to be shifted if some occ is /=2.0)
   erelax=  -2.52703610E+02
 10,11,12 Non-relaxation  contributions : frozen-wavefunctions and Ewald
 fr.local=   6.55955890E+01 fr.nonlo=   1.81941247E+02  Ewald=   1.99958120E+01
 13,14 Frozen wf xc core corrections (1) and (2)
 frxc 1  =  -1.06811382E+01  frxc 2 =   9.46820548E+00
 Resulting in :
 2DEtotal=    0.1361610490E+02 Ha. Also 2DEtotal=    0.370513057137E+03 eV
    (2DErelax=   -2.5270361015E+02 Ha. 2DEnonrelax=    2.6631971505E+02 Ha)
    (  non-var. 2DEtotal :    1.3616104904E+01 Ha)

 Components of second-order derivatives of the electronic energy, EIGR2D.
 For automatic tests, printing the matrix for the first k-point, first band, first atom.
   1   1   1   1   -1.9077337060E+00    0.0000000000E+00
   1   1   2   1   -9.5386685303E-01    0.0000000000E+00
   1   1   3   1   -9.5386685356E-01    0.0000000000E+00
   2   1   1   1   -9.5386685303E-01    0.0000000000E+00
   2   1   2   1   -1.9077337056E+00    0.0000000000E+00
   2   1   3   1   -9.5386685332E-01    0.0000000000E+00
   3   1   1   1   -9.5386685356E-01    0.0000000000E+00
   3   1   2   1   -9.5386685332E-01    0.0000000000E+00
   3   1   3   1   -1.9077337063E+00    0.0000000000E+00
 
 Components of second-order derivatives of the electronic energy, EIGI2D.
 For automatic tests, printing the matrix for the first k-point, first band, first atom.
   1   1   1   1    0.0000000000E+00    0.0000000000E+00
   1   1   2   1    0.0000000000E+00    0.0000000000E+00
   1   1   3   1    0.0000000000E+00    0.0000000000E+00
   2   1   1   1    0.0000000000E+00    0.0000000000E+00
   2   1   2   1    0.0000000000E+00    0.0000000000E+00
   2   1   3   1    0.0000000000E+00    0.0000000000E+00
   3   1   1   1    0.0000000000E+00    0.0000000000E+00
   3   1   2   1    0.0000000000E+00    0.0000000000E+00
   3   1   3   1    0.0000000000E+00    0.0000000000E+00
================================================================================

 ---- first-order wavefunction calculations are completed ----


 ==> Compute Derivative Database <==
  
  2nd-order matrix (non-cartesian coordinates, masses not included,
   asr not included )
     j1       j2             matrix element
  dir pert dir pert     real part     imaginary part
  
   1    1   1    1        13.6161052019         0.0000000000
   1    1   2    1         6.8080526793         0.0000000000
   1    1   3    1         6.8080526655         0.0000000000
   1    1   1    2       -13.6161021256        -0.0000000000
   1    1   2    2        -6.8080510870         0.0000000000
   1    1   3    2        -6.8080510861        -0.0000000000
  
   2    1   1    1         6.8080526356         0.0000000000
   2    1   2    1        13.6161050933         0.0000000000
   2    1   3    1         6.8080526253         0.0000000000
   2    1   1    2        -6.8080511112         0.0000000000
   2    1   2    2       -13.6161021518         0.0000000000
   2    1   3    2        -6.8080510856        -0.0000000000
  
   3    1   1    1         6.8080526849         0.0000000000
   3    1   2    1         6.8080526301         0.0000000000
   3    1   3    1        13.6161050045         0.0000000000
   3    1   1    2        -6.8080510470        -0.0000000000
   3    1   2    2        -6.8080510895        -0.0000000000
   3    1   3    2       -13.6161020919         0.0000000000
  
   1    2   1    1       -13.6161021251         0.0000000000
   1    2   2    1        -6.8080510446        -0.0000000000
   1    2   3    1        -6.8080510696         0.0000000000
   1    2   1    2        13.6161049116         0.0000000000
   1    2   2    2         6.8080525334         0.0000000000
   1    2   3    2         6.8080525405         0.0000000000
  
   2    2   1    1        -6.8080511031        -0.0000000000
   2    2   2    1       -13.6161021497        -0.0000000000
   2    2   3    1        -6.8080510935         0.0000000000
   2    2   1    2         6.8080524934         0.0000000000
   2    2   2    2        13.6161050387         0.0000000000
   2    2   3    2         6.8080525426         0.0000000000
  
   3    2   1    1        -6.8080510297         0.0000000000
   3    2   2    1        -6.8080510654         0.0000000000
   3    2   3    1       -13.6161020907        -0.0000000000
   3    2   1    2         6.8080525457         0.0000000000
   3    2   2    2         6.8080525404         0.0000000000
   3    2   3    2        13.6161049040         0.0000000000
  
  
  Dynamical matrix, in cartesian coordinates,
   if specified in the inputs, asr has been imposed
     j1       j2             matrix element
  dir pert dir pert     real part    imaginary part
  
   1    1   1    1         0.6060154656        -0.0000000000
   1    1   2    1        -0.0000000007        -0.0000000000
   1    1   3    1         0.0000000021         0.0000000000
   1    1   1    2        -0.6060154656         0.0000000000
   1    1   2    2         0.0000000007         0.0000000000
   1    1   3    2        -0.0000000021        -0.0000000000
  
   2    1   1    1         0.0000000012        -0.0000000000
   2    1   2    1         0.6060154638         0.0000000000
   2    1   3    1        -0.0000000001         0.0000000000
   2    1   1    2        -0.0000000012         0.0000000000
   2    1   2    2        -0.6060154638        -0.0000000000
   2    1   3    2         0.0000000001        -0.0000000000
  
   3    1   1    1         0.0000000009         0.0000000000
   3    1   2    1         0.0000000027         0.0000000000
   3    1   3    1         0.6060154667        -0.0000000000
   3    1   1    2        -0.0000000009        -0.0000000000
   3    1   2    2        -0.0000000027        -0.0000000000
   3    1   3    2        -0.6060154667         0.0000000000
  
   1    2   1    1        -0.6060154671        -0.0000000000
   1    2   2    1         0.0000000011        -0.0000000000
   1    2   3    1        -0.0000000014         0.0000000000
   1    2   1    2         0.6060154671         0.0000000000
   1    2   2    2        -0.0000000011         0.0000000000
   1    2   3    2         0.0000000014        -0.0000000000
  
   2    2   1    1         0.0000000005        -0.0000000000
   2    2   2    1        -0.6060154644         0.0000000000
   2    2   3    1         0.0000000012         0.0000000000
   2    2   1    2        -0.0000000005         0.0000000000
   2    2   2    2         0.6060154644        -0.0000000000
   2    2   3    2        -0.0000000012        -0.0000000000
  
   3    2   1    1        -0.0000000001         0.0000000000
   3    2   2    1        -0.0000000032         0.0000000000
   3    2   3    1        -0.6060154666        -0.0000000000
   3    2   1    2         0.0000000001        -0.0000000000
   3    2   2    2         0.0000000032        -0.0000000000
   3    2   3    2         0.6060154666         0.0000000000

  Phonon wavevector (reduced coordinates) :  0.00000  0.00000  0.00000
 Phonon energies in Hartree :
   0.000000E+00  0.000000E+00  0.000000E+00  7.440245E-03  7.440245E-03
   7.440245E-03
 Phonon energies in meV     :
-  0.000000E+00  0.000000E+00  0.000000E+00  2.024594E+02  2.024594E+02
-  2.024594E+02
 Phonon frequencies in cm-1    :
-  0.000000E+00  0.000000E+00  0.000000E+00  1.632945E+03  1.632945E+03
-  1.632945E+03
 Phonon frequencies in Thz     :
-  0.000000E+00  0.000000E+00  0.000000E+00  4.895446E+01  4.895446E+01
-  4.895446E+01
 Phonon energies in Kelvin  :
-  0.000000E+00  0.000000E+00  0.000000E+00  2.349441E+03  2.349441E+03
-  2.349441E+03
================================================================================

 ---- T=0 shift of eigenenergies due to electron-phonon interation at q ---- 
 Warning : the total shift must be computed through anaddb,                  
 here, only the contribution of one q point is printed.                      
 Print first the electronic eigenvalues, then the q-dependent Fan shift of eigenvalues.
 Phonons at gamma, also compute the Diagonal Debye-Waller shift of eigenvalues.

 Eigenvalues (hartree) for nkpt=   8  k points:
 kpt#   1, nband=  8, wtk=  0.12500, kpt=  0.0000  0.0000  0.0000 (reduced coord)
  -0.31631    0.48327    0.48327    0.48327    0.68622    0.68622    0.68622    0.99279
 prteigrs : prtvol=0 or 1, do not print more k-points.

 Eigenvalues (   eV  ) for nkpt=   8  k points:
 kpt#   1, nband=  8, wtk=  0.12500, kpt=  0.0000  0.0000  0.0000 (reduced coord)
  -8.60718   13.15041   13.15041   13.15041   18.67296   18.67296   18.67296   27.01512
 prteigrs : prtvol=0 or 1, do not print more k-points.



 Fan corrections to eigenvalues at T=0 (hartree) for nkpt=   8  k points:
  (in case of degenerate eigenvalues, averaged derivative)
 kpt#   1, nband=  8, wtk=  0.12500, kpt=  0.0000  0.0000  0.0000 (reduced coord)
  -0.00099   -0.00978   -0.00978   -0.00978   -0.00972   -0.00972   -0.00972   -0.00181
 prteigrs : prtvol=0 or 1, do not print more k-points.

 Fan corrections to eigenvalues at T=0 (   eV  ) for nkpt=   8  k points:
 kpt#   1, nband=  8, wtk=  0.12500, kpt=  0.0000  0.0000  0.0000 (reduced coord)
  -0.02694   -0.26607   -0.26607   -0.26607   -0.26438   -0.26438   -0.26438   -0.04929
 prteigrs : prtvol=0 or 1, do not print more k-points.



 DDW corrections to eigenvalues at T=0 (hartree) for nkpt=   8  k points:
  (in case of degenerate eigenvalues, averaged derivative)
 kpt#   1, nband=  8, wtk=  0.12500, kpt=  0.0000  0.0000  0.0000 (reduced coord)
   0.00057    0.01049    0.01049    0.01049    0.00922    0.00922    0.00922    0.00091
 prteigrs : prtvol=0 or 1, do not print more k-points.

 DDW corrections to eigenvalues at T=0 (   eV  ) for nkpt=   8  k points:
 kpt#   1, nband=  8, wtk=  0.12500, kpt=  0.0000  0.0000  0.0000 (reduced coord)
   0.01561    0.28546    0.28546    0.28546    0.25084    0.25084    0.25084    0.02474
 prteigrs : prtvol=0 or 1, do not print more k-points.



 Fan+DDW corrs   to eigenvalues at T=0 (hartree) for nkpt=   8  k points:
  (in case of degenerate eigenvalues, averaged derivative)
 kpt#   1, nband=  8, wtk=  0.12500, kpt=  0.0000  0.0000  0.0000 (reduced coord)
  -0.00042    0.00071    0.00071    0.00071   -0.00050   -0.00050   -0.00050   -0.00090
 prteigrs : prtvol=0 or 1, do not print more k-points.

 Fan+DDW corrs   to eigenvalues at T=0 (   eV  ) for nkpt=   8  k points:
 kpt#   1, nband=  8, wtk=  0.12500, kpt=  0.0000  0.0000  0.0000 (reduced coord)
  -0.01133    0.01940    0.01940    0.01940   -0.01354   -0.01354   -0.01354   -0.02455
 prteigrs : prtvol=0 or 1, do not print more k-points.


================================================================================
== DATASET  3 ==================================================================
-   nproc =    1

 mkfilename : getwfk/=0, take file _WFK from output of DATASET   1.

 mkfilename : getden/=0, take file _DEN from output of DATASET   1.

 Exchange-correlation functional for the present dataset will be:
  LDA: new Teter (4/93) with spin-polarized option - ixc=1
 Citation for XC functional:
  S. Goedecker, M. Teter, J. Huetter, PRB 54, 1703 (1996)

 Real(R)+Recip(G) space primitive vectors, cartesian coordinates (Bohr,Bohr^-1):
 R(1)=  0.0000000  3.3517340  3.3517340  G(1)= -0.1491765  0.1491765  0.1491765
 R(2)=  3.3517340  0.0000000  3.3517340  G(2)=  0.1491765 -0.1491765  0.1491765
 R(3)=  3.3517340  3.3517340  0.0000000  G(3)=  0.1491765  0.1491765 -0.1491765
 Unit cell volume ucvol=  7.5307571E+01 bohr^3
 Angles (23,13,12)=  6.00000000E+01  6.00000000E+01  6.00000000E+01 degrees

 getcut: wavevector=  0.0000  0.0000  0.0000  ngfft=  20  20  20
         ecut(hartree)=     20.000   => boxcut(ratio)=   2.09587
--------------------------------------------------------------------------------

-inwffil : will read wavefunctions from disk file t37o_DS1_WFK

================================================================================
 prteigrs : about to open file t37o_DS3_EIG
 Non-SCF case, kpt    1 (  0.50000  0.50000  0.00000), residuals and eigenvalues=
  1.24E-17  1.93E-17  1.43E-17  6.25E-17  7.57E-17  4.93E-17  4.98E-17  2.11E-17
  1.1540E-02  1.1540E-02  2.4526E-01  2.4526E-01  6.5072E-01  6.5072E-01
  1.1134E+00  1.1134E+00
 prteigrs : prtvol=0 or 1, do not print more k-points.



--- !ResultsGS
iteration_state: {"dtset": 3, }
comment   : Summary of ground state results
natom     :        2
nsppol    :        1
nspinor   :        1
nspden    :        1
nelect    :   8.00000000E+00
charge    :   0.00000000E+00
lattice_lengths: [   4.74007,    4.74007,    4.74007, ]
lattice_angles: [ 60.000,  60.000,  60.000, ]
cutoff_energies: {"ecut":  20.0, "pawecutdg":  -1.0, }
convergence: {
    "deltae":  0.00E+00, "res2":  0.00E+00, 
    "residm":  9.26E-17, "diffor":  0.00E+00, 
}
etotal    :  -1.19469665E+01
entropy   :   0.00000000E+00
fermie    :   4.83268610E-01
cartesian_stress_tensor: null
pressure_GPa: null
cartesian_forces: null
force_length_stats: {"min": null, "max": null, "mean": null, }
...

 Integrated electronic density in atomic spheres:
 ------------------------------------------------
 Atom  Sphere_radius  Integrated_density
    1        2.00000          4.80536232
    2        2.00000          4.80536232
================================================================================

 ----iterations are completed or convergence reached----

 Mean square residual over all n,k,spin=   34.757E-18; max=  92.611E-18
 reduced coordinates (array xred) for    2 atoms
       0.000000000000      0.000000000000      0.000000000000
       0.250000000000      0.250000000000      0.250000000000

 cartesian coordinates (angstrom) at end:
    1      0.00000000000000     0.00000000000000     0.00000000000000
    2      0.88683062764281     0.88683062764281     0.88683062764281
 length scales=  6.703468050000  6.703468050000  6.703468050000 bohr
              =  3.547322510571  3.547322510571  3.547322510571 angstroms
 prteigrs : about to open file t37o_DS3_EIG
 Eigenvalues (hartree) for nkpt=   8  k points:
 kpt#   1, nband=  8, wtk=  0.12500, kpt=  0.5000  0.5000  0.0000 (reduced coord)
   0.01154    0.01154    0.24526    0.24526    0.65072    0.65072    1.11343    1.11343
 prteigrs : prtvol=0 or 1, do not print more k-points.

 Eigenvalues (   eV  ) for nkpt=   8  k points:
 kpt#   1, nband=  8, wtk=  0.12500, kpt=  0.5000  0.5000  0.0000 (reduced coord)
   0.31401    0.31401    6.67387    6.67387   17.70708   17.70708   30.29790   30.29790
 prteigrs : prtvol=0 or 1, do not print more k-points.


================================================================================
== DATASET  4 ==================================================================
-   nproc =    1

 mkfilename : getwfk/=0, take file _WFK from output of DATASET   1.

 mkfilename : getwfq/=0, take file _WFQ from output of DATASET   3.

 mkfilename : getden/=0, take file _DEN from output of DATASET   1.

 Exchange-correlation functional for the present dataset will be:
  LDA: new Teter (4/93) with spin-polarized option - ixc=1
 Citation for XC functional:
  S. Goedecker, M. Teter, J. Huetter, PRB 54, 1703 (1996)

 Real(R)+Recip(G) space primitive vectors, cartesian coordinates (Bohr,Bohr^-1):
 R(1)=  0.0000000  3.3517340  3.3517340  G(1)= -0.1491765  0.1491765  0.1491765
 R(2)=  3.3517340  0.0000000  3.3517340  G(2)=  0.1491765 -0.1491765  0.1491765
 R(3)=  3.3517340  3.3517340  0.0000000  G(3)=  0.1491765  0.1491765 -0.1491765
 Unit cell volume ucvol=  7.5307571E+01 bohr^3
 Angles (23,13,12)=  6.00000000E+01  6.00000000E+01  6.00000000E+01 degrees
 setup1 : take into account q-point for computing boxcut.

 getcut: wavevector=  0.5000  0.5000  0.0000  ngfft=  20  20  20
         ecut(hartree)=     20.000   => boxcut(ratio)=   1.99384

--- Pseudopotential description ------------------------------------------------
- pspini: atom type   1  psp file is /home/gmatteo/git_repos/abinit/tests/Psps_for_tests/6c.pspnc
- pspatm: opening atomic psp file    /home/gmatteo/git_repos/abinit/tests/Psps_for_tests/6c.pspnc
-  Troullier-Martins psp for element  C         Thu Oct 27 17:29:33 EDT 1994
-  6.00000   4.00000    940714                znucl, zion, pspdat
    1    1    1    1      2001   0.00000      pspcod,pspxc,lmax,lloc,mmax,r2well
    0  10.372  24.987    1   1.4850707        l,e99.0,e99.9,nproj,rcpsp
   0.00000000   0.00000000   0.00000000   0.00000000     rms, ekb1, ekb2, epsatm
    1  15.431  21.987    0   1.4850707        l,e99.0,e99.9,nproj,rcpsp
   0.00000000   0.00000000   0.00000000   0.00000000     rms, ekb1, ekb2, epsatm
    0.83985002509544    0.99012430797080    0.51184907750884   rchrg,fchrg,qchrg
  pspatm : epsatm=    0.92590353
         --- l  ekb(1:nproj) -->
             0    4.921466
 pspatm: atomic psp has been read  and splines computed

--------------------------------------------------------------------------------

-inwffil : will read wavefunctions from disk file t37o_DS1_WFK

 ==>  initialize data related to q vector <== 

 The list of irreducible perturbations for this q vector is:
    1)    idir= 1    ipert=   1
    2)    idir= 2    ipert=   1
    3)    idir= 3    ipert=   1
    4)    idir= 1    ipert=   2
    5)    idir= 2    ipert=   2
    6)    idir= 3    ipert=   2

================================================================================

--------------------------------------------------------------------------------
 Perturbation wavevector (in red.coord.)   0.500000  0.500000  0.000000
 Perturbation : displacement of atom   1   along direction   1
 The set of symmetries contains only one element for this perturbation.
 symkpt : not enough symmetry to change the number of k points.

--------------------------------------------------------------------------------

-inwffil : will read wavefunctions from disk file t37o_DS1_WFK
--------------------------------------------------------------------------------

-inwffil : will read wavefunctions from disk file t37o_DS3_WFQ
 Initialisation of the first-order wave-functions :
  ireadwf=   0

     iter   2DEtotal(Ha)        deltaE(Ha) residm    vres2
-ETOT  1   131.03013027739     -1.605E+02 2.451E+00 2.383E+05
 ETOT  2   56.936948044514     -7.409E+01 2.699E+00 7.574E+04
 ETOT  3   13.015492753079     -4.392E+01 4.092E-01 1.608E+03
 ETOT  4   11.765582022413     -1.250E+00 1.650E-02 1.118E+01
 ETOT  5   11.760457764566     -5.124E-03 2.911E-04 1.931E-02
 ETOT  6   11.760442304528     -1.546E-05 2.547E-05 1.026E-03
 ETOT  7   11.760441766547     -5.380E-07 8.483E-07 9.870E-05
 ETOT  8   11.760441700933     -6.561E-08 1.013E-07 2.780E-06
 ETOT  9   11.760441698851     -2.083E-09 3.885E-09 3.965E-09
 ETOT 10   11.760441698847     -3.411E-12 5.780E-10 1.190E-10
 ETOT 11   11.760441698846     -8.527E-13 1.922E-11 2.261E-13
 ETOT 12   11.760441698847      7.390E-13 2.904E-12 2.622E-15
 ETOT 13   11.760441698846     -1.251E-12 9.815E-14 4.907E-17
 ETOT 14   11.760441698845     -3.979E-13 1.489E-14 2.124E-18
 ETOT 15   11.760441698846      7.958E-13 5.145E-16 4.799E-21
 ETOT 16   11.760441698846      0.000E+00 9.495E-17 7.395E-23

 At SCF step   16   max residual=  9.50E-17 < tolwfr=  1.00E-16 =>converged.
================================================================================

 ----iterations are completed or convergence reached----

 Mean square residual over all n,k,spin=   44.982E-18; max=  94.951E-18

 Thirteen components of 2nd-order total energy (hartree) are
 1,2,3: 0th-order hamiltonian combined with 1st-order wavefunctions
     kin0=   3.27067779E+02 eigvalue=  -2.01116034E+01  local=  -1.71983701E+02
 4,5,6: 1st-order hamiltonian combined with 1st and 0th-order wfs
 loc psp =  -2.42272967E+02  Hartree=   5.28730659E+01     xc=  -1.07663300E+01
 note that "loc psp" includes a xc core correction that could be resolved
 7,8,9: eventually, occupation + non-local contributions
    edocc=   1.47191154E+01     enl0=   8.79288475E+01   enl1=  -3.17181380E+02
 1-9 gives the relaxation energy (to be shifted if some occ is /=2.0)
   erelax=  -2.79727174E+02
 10,11,12 Non-relaxation  contributions : frozen-wavefunctions and Ewald
 fr.local=   6.55955891E+01 fr.nonlo=   1.81941247E+02  Ewald=   4.51637117E+01
 13,14 Frozen wf xc core corrections (1) and (2)
 frxc 1  =  -1.06811382E+01  frxc 2 =   9.46820546E+00
 Resulting in :
 2DEtotal=    0.1176044170E+02 Ha. Also 2DEtotal=    0.320017893430E+03 eV
    (2DErelax=   -2.7972717371E+02 Ha. 2DEnonrelax=    2.9148761541E+02 Ha)
    (  non-var. 2DEtotal :    1.1760441692E+01 Ha)


--------------------------------------------------------------------------------
 Perturbation wavevector (in red.coord.)   0.500000  0.500000  0.000000
 Perturbation : displacement of atom   1   along direction   2
 The set of symmetries contains only one element for this perturbation.
 symkpt : not enough symmetry to change the number of k points.

--------------------------------------------------------------------------------

-inwffil : will read wavefunctions from disk file t37o_DS1_WFK
--------------------------------------------------------------------------------

-inwffil : will read wavefunctions from disk file t37o_DS3_WFQ
 Initialisation of the first-order wave-functions :
  ireadwf=   0

     iter   2DEtotal(Ha)        deltaE(Ha) residm    vres2
-ETOT  1   131.10553578896     -1.604E+02 2.156E+00 2.384E+05
 ETOT  2   57.000399304838     -7.411E+01 2.685E+00 7.584E+04
 ETOT  3   13.014141552132     -4.399E+01 4.309E-01 1.606E+03
 ETOT  4   11.765553327063     -1.249E+00 1.169E-02 1.112E+01
 ETOT  5   11.760457448440     -5.096E-03 1.997E-04 1.914E-02
 ETOT  6   11.760442228748     -1.522E-05 1.063E-05 1.057E-03
 ETOT  7   11.760441677355     -5.514E-07 6.312E-07 1.134E-04
 ETOT  8   11.760441601910     -7.545E-08 5.768E-08 2.686E-06
 ETOT  9   11.760441599865     -2.044E-09 3.224E-09 3.677E-09
 ETOT 10   11.760441599863     -2.046E-12 3.470E-10 1.187E-10
 ETOT 11   11.760441599865      1.535E-12 1.769E-11 1.963E-13
 ETOT 12   11.760441599863     -2.274E-12 2.048E-12 2.024E-15
 ETOT 13   11.760441599863      2.274E-13 1.031E-13 3.610E-17
 ETOT 14   11.760441599864      1.137E-12 1.260E-14 1.741E-18
 ETOT 15   11.760441599864     -3.979E-13 6.203E-16 2.373E-21
 ETOT 16   11.760441599863     -1.023E-12 9.313E-17 5.503E-23

 At SCF step   16   max residual=  9.31E-17 < tolwfr=  1.00E-16 =>converged.
================================================================================

 ----iterations are completed or convergence reached----

 Mean square residual over all n,k,spin=   44.114E-18; max=  93.126E-18

 Thirteen components of 2nd-order total energy (hartree) are
 1,2,3: 0th-order hamiltonian combined with 1st-order wavefunctions
     kin0=   3.27067779E+02 eigvalue=  -2.01116034E+01  local=  -1.71983701E+02
 4,5,6: 1st-order hamiltonian combined with 1st and 0th-order wfs
 loc psp =  -2.42272967E+02  Hartree=   5.28730659E+01     xc=  -1.07663300E+01
 note that "loc psp" includes a xc core correction that could be resolved
 7,8,9: eventually, occupation + non-local contributions
    edocc=   1.47191154E+01     enl0=   8.79288474E+01   enl1=  -3.17181380E+02
 1-9 gives the relaxation energy (to be shifted if some occ is /=2.0)
   erelax=  -2.79727174E+02
 10,11,12 Non-relaxation  contributions : frozen-wavefunctions and Ewald
 fr.local=   6.55955892E+01 fr.nonlo=   1.81941247E+02  Ewald=   4.51637117E+01
 13,14 Frozen wf xc core corrections (1) and (2)
 frxc 1  =  -1.06811382E+01  frxc 2 =   9.46820547E+00
 Resulting in :
 2DEtotal=    0.1176044160E+02 Ha. Also 2DEtotal=    0.320017890737E+03 eV
    (2DErelax=   -2.7972717357E+02 Ha. 2DEnonrelax=    2.9148761517E+02 Ha)
    (  non-var. 2DEtotal :    1.1760441593E+01 Ha)


--------------------------------------------------------------------------------
 Perturbation wavevector (in red.coord.)   0.500000  0.500000  0.000000
 Perturbation : displacement of atom   1   along direction   3
 The set of symmetries contains only one element for this perturbation.
 symkpt : not enough symmetry to change the number of k points.

--------------------------------------------------------------------------------

-inwffil : will read wavefunctions from disk file t37o_DS1_WFK
--------------------------------------------------------------------------------

-inwffil : will read wavefunctions from disk file t37o_DS3_WFQ
 Initialisation of the first-order wave-functions :
  ireadwf=   0

     iter   2DEtotal(Ha)        deltaE(Ha) residm    vres2
-ETOT  1   45.913099423425     -2.301E+02 2.875E+00 4.758E+04
 ETOT  2   12.396426172926     -3.352E+01 1.092E+00 4.413E+03
 ETOT  3   8.5203022229160     -3.876E+00 5.516E-02 5.447E+00
 ETOT  4   8.5167568768420     -3.545E-03 7.177E-03 2.855E-02
 ETOT  5   8.5167397034058     -1.717E-05 3.107E-04 6.218E-03
 ETOT  6   8.5167356271649     -4.076E-06 2.953E-05 1.299E-04
 ETOT  7   8.5167355365878     -9.058E-08 1.408E-06 2.176E-08
 ETOT  8   8.5167355365694     -1.842E-11 1.521E-07 8.718E-10
 ETOT  9   8.5167355365702      8.527E-13 7.343E-09 6.975E-11
 ETOT 10   8.5167355365694     -7.958E-13 8.097E-10 6.066E-12
 ETOT 11   8.5167355365694     -5.684E-14 3.973E-11 3.005E-14
 ETOT 12   8.5167355365712      1.819E-12 4.391E-12 1.203E-15
 ETOT 13   8.5167355365706     -5.684E-13 2.175E-13 6.842E-17
 ETOT 14   8.5167355365697     -9.095E-13 2.398E-14 1.211E-18
 ETOT 15   8.5167355365700      2.842E-13 1.196E-15 7.306E-22
 ETOT 16   8.5167355365702      2.274E-13 1.313E-16 8.594E-23
 ETOT 17   8.5167355365702      0.000E+00 9.500E-17 1.893E-25

 At SCF step   17   max residual=  9.50E-17 < tolwfr=  1.00E-16 =>converged.
================================================================================

 ----iterations are completed or convergence reached----

 Mean square residual over all n,k,spin=   44.325E-18; max=  95.001E-18

 Thirteen components of 2nd-order total energy (hartree) are
 1,2,3: 0th-order hamiltonian combined with 1st-order wavefunctions
     kin0=   3.24088783E+02 eigvalue=  -1.94891413E+01  local=  -1.70366815E+02
 4,5,6: 1st-order hamiltonian combined with 1st and 0th-order wfs
 loc psp =  -2.09153992E+02  Hartree=   3.99636543E+01     xc=  -1.08307365E+01
 note that "loc psp" includes a xc core correction that could be resolved
 7,8,9: eventually, occupation + non-local contributions
    edocc=   1.69182628E+01     enl0=   8.71706091E+01   enl1=  -3.25755240E+02
 1-9 gives the relaxation energy (to be shifted if some occ is /=2.0)
   erelax=  -2.67454616E+02
 10,11,12 Non-relaxation  contributions : frozen-wavefunctions and Ewald
 fr.local=   6.55955892E+01 fr.nonlo=   1.81941247E+02  Ewald=   2.96474483E+01
 13,14 Frozen wf xc core corrections (1) and (2)
 frxc 1  =  -1.06811382E+01  frxc 2 =   9.46820548E+00
 Resulting in :
 2DEtotal=    0.8516735537E+01 Ha. Also 2DEtotal=    0.231752159920E+03 eV
    (2DErelax=   -2.6745461600E+02 Ha. 2DEnonrelax=    2.7597135154E+02 Ha)
    (  non-var. 2DEtotal :    8.5167355378E+00 Ha)


--------------------------------------------------------------------------------
 Perturbation wavevector (in red.coord.)   0.500000  0.500000  0.000000
 Perturbation : displacement of atom   2   along direction   1
 The set of symmetries contains only one element for this perturbation.
 symkpt : not enough symmetry to change the number of k points.

--------------------------------------------------------------------------------

-inwffil : will read wavefunctions from disk file t37o_DS1_WFK
--------------------------------------------------------------------------------

-inwffil : will read wavefunctions from disk file t37o_DS3_WFQ
 Initialisation of the first-order wave-functions :
  ireadwf=   0

     iter   2DEtotal(Ha)        deltaE(Ha) residm    vres2
-ETOT  1   131.03518223329     -1.605E+02 2.631E+00 2.384E+05
 ETOT  2   56.940018153503     -7.410E+01 2.699E+00 7.574E+04
 ETOT  3   13.015630455265     -4.392E+01 4.295E-01 1.608E+03
 ETOT  4   11.765580791726     -1.250E+00 1.328E-02 1.118E+01
 ETOT  5   11.760457499540     -5.123E-03 2.613E-04 1.933E-02
 ETOT  6   11.760442039421     -1.546E-05 1.066E-05 1.049E-03
 ETOT  7   11.760441491689     -5.477E-07 6.302E-07 1.078E-04
 ETOT  8   11.760441420011     -7.168E-08 5.769E-08 2.702E-06
 ETOT  9   11.760441417968     -2.043E-09 3.206E-09 3.818E-09
 ETOT 10   11.760441417961     -6.878E-12 3.476E-10 1.207E-10
 ETOT 11   11.760441417962      8.527E-13 1.759E-11 2.121E-13
 ETOT 12   11.760441417964      1.535E-12 2.049E-12 2.356E-15
 ETOT 13   11.760441417962     -1.364E-12 1.024E-13 4.228E-17
 ETOT 14   11.760441417960     -1.819E-12 1.260E-14 1.968E-18
 ETOT 15   11.760441417961      6.821E-13 6.159E-16 3.139E-21
 ETOT 16   11.760441417961      1.137E-13 9.804E-17 6.269E-23

 At SCF step   16   max residual=  9.80E-17 < tolwfr=  1.00E-16 =>converged.
================================================================================

 ----iterations are completed or convergence reached----

 Mean square residual over all n,k,spin=   46.104E-18; max=  98.045E-18

 Thirteen components of 2nd-order total energy (hartree) are
 1,2,3: 0th-order hamiltonian combined with 1st-order wavefunctions
     kin0=   3.27067779E+02 eigvalue=  -2.01116034E+01  local=  -1.71983701E+02
 4,5,6: 1st-order hamiltonian combined with 1st and 0th-order wfs
 loc psp =  -2.42272968E+02  Hartree=   5.28730660E+01     xc=  -1.07663300E+01
 note that "loc psp" includes a xc core correction that could be resolved
 7,8,9: eventually, occupation + non-local contributions
    edocc=   1.47191153E+01     enl0=   8.79288474E+01   enl1=  -3.17181379E+02
 1-9 gives the relaxation energy (to be shifted if some occ is /=2.0)
   erelax=  -2.79727173E+02
 10,11,12 Non-relaxation  contributions : frozen-wavefunctions and Ewald
 fr.local=   6.55955890E+01 fr.nonlo=   1.81941247E+02  Ewald=   4.51637117E+01
 13,14 Frozen wf xc core corrections (1) and (2)
 frxc 1  =  -1.06811382E+01  frxc 2 =   9.46820547E+00
 Resulting in :
 2DEtotal=    0.1176044142E+02 Ha. Also 2DEtotal=    0.320017885787E+03 eV
    (2DErelax=   -2.7972717346E+02 Ha. 2DEnonrelax=    2.9148761488E+02 Ha)
    (  non-var. 2DEtotal :    1.1760441412E+01 Ha)


--------------------------------------------------------------------------------
 Perturbation wavevector (in red.coord.)   0.500000  0.500000  0.000000
 Perturbation : displacement of atom   2   along direction   2
 The set of symmetries contains only one element for this perturbation.
 symkpt : not enough symmetry to change the number of k points.

--------------------------------------------------------------------------------

-inwffil : will read wavefunctions from disk file t37o_DS1_WFK
--------------------------------------------------------------------------------

-inwffil : will read wavefunctions from disk file t37o_DS3_WFQ
 Initialisation of the first-order wave-functions :
  ireadwf=   0

     iter   2DEtotal(Ha)        deltaE(Ha) residm    vres2
-ETOT  1   131.11081167763     -1.604E+02 2.671E+00 2.384E+05
 ETOT  2   57.005120033775     -7.411E+01 2.380E+00 7.584E+04
 ETOT  3   13.014397753454     -4.399E+01 4.007E-01 1.606E+03
 ETOT  4   11.765553391261     -1.249E+00 1.655E-02 1.112E+01
 ETOT  5   11.760457408333     -5.096E-03 3.424E-04 1.913E-02
 ETOT  6   11.760442189779     -1.522E-05 2.571E-05 1.052E-03
 ETOT  7   11.760441640919     -5.489E-07 8.407E-07 1.125E-04
 ETOT  8   11.760441566031     -7.489E-08 1.021E-07 2.698E-06
 ETOT  9   11.760441563980     -2.051E-09 3.818E-09 3.679E-09
 ETOT 10   11.760441563977     -2.615E-12 5.765E-10 1.181E-10
 ETOT 11   11.760441563979      1.762E-12 1.872E-11 1.823E-13
 ETOT 12   11.760441563977     -2.274E-12 2.872E-12 1.768E-15
 ETOT 13   11.760441563978      6.821E-13 9.482E-14 3.216E-17
 ETOT 14   11.760441563977     -3.979E-13 1.461E-14 1.431E-18
 ETOT 15   11.760441563978      5.684E-13 4.930E-16 1.307E-21
 ETOT 16   11.760441563978      3.979E-13 9.641E-17 4.640E-23

 At SCF step   16   max residual=  9.64E-17 < tolwfr=  1.00E-16 =>converged.
================================================================================

 ----iterations are completed or convergence reached----

 Mean square residual over all n,k,spin=   42.863E-18; max=  96.407E-18

 Thirteen components of 2nd-order total energy (hartree) are
 1,2,3: 0th-order hamiltonian combined with 1st-order wavefunctions
     kin0=   3.27067779E+02 eigvalue=  -2.01116034E+01  local=  -1.71983701E+02
 4,5,6: 1st-order hamiltonian combined with 1st and 0th-order wfs
 loc psp =  -2.42272967E+02  Hartree=   5.28730659E+01     xc=  -1.07663300E+01
 note that "loc psp" includes a xc core correction that could be resolved
 7,8,9: eventually, occupation + non-local contributions
    edocc=   1.47191153E+01     enl0=   8.79288475E+01   enl1=  -3.17181380E+02
 1-9 gives the relaxation energy (to be shifted if some occ is /=2.0)
   erelax=  -2.79727174E+02
 10,11,12 Non-relaxation  contributions : frozen-wavefunctions and Ewald
 fr.local=   6.55955891E+01 fr.nonlo=   1.81941247E+02  Ewald=   4.51637117E+01
 13,14 Frozen wf xc core corrections (1) and (2)
 frxc 1  =  -1.06811382E+01  frxc 2 =   9.46820547E+00
 Resulting in :
 2DEtotal=    0.1176044156E+02 Ha. Also 2DEtotal=    0.320017889761E+03 eV
    (2DErelax=   -2.7972717351E+02 Ha. 2DEnonrelax=    2.9148761507E+02 Ha)
    (  non-var. 2DEtotal :    1.1760441557E+01 Ha)


--------------------------------------------------------------------------------
 Perturbation wavevector (in red.coord.)   0.500000  0.500000  0.000000
 Perturbation : displacement of atom   2   along direction   3
 The set of symmetries contains only one element for this perturbation.
 symkpt : not enough symmetry to change the number of k points.

--------------------------------------------------------------------------------

-inwffil : will read wavefunctions from disk file t37o_DS1_WFK
--------------------------------------------------------------------------------

-inwffil : will read wavefunctions from disk file t37o_DS3_WFQ
 Initialisation of the first-order wave-functions :
  ireadwf=   0

     iter   2DEtotal(Ha)        deltaE(Ha) residm    vres2
-ETOT  1   45.912400237888     -2.301E+02 2.875E+00 4.758E+04
 ETOT  2   12.396315462739     -3.352E+01 1.092E+00 4.413E+03
 ETOT  3   8.5203031498012     -3.876E+00 5.513E-02 5.448E+00
 ETOT  4   8.5167569973239     -3.546E-03 7.180E-03 2.884E-02
 ETOT  5   8.5167397175611     -1.728E-05 3.105E-04 6.355E-03
 ETOT  6   8.5167355473628     -4.170E-06 2.955E-05 1.283E-04
 ETOT  7   8.5167354578631     -8.950E-08 1.406E-06 2.170E-08
 ETOT  8   8.5167354578441     -1.899E-11 1.522E-07 7.960E-10
 ETOT  9   8.5167354578448      6.253E-13 7.334E-09 5.701E-11
 ETOT 10   8.5167354578457      9.663E-13 8.102E-10 5.717E-12
 ETOT 11   8.5167354578449     -8.527E-13 3.968E-11 7.913E-14
 ETOT 12   8.5167354578439     -1.023E-12 4.394E-12 3.289E-14
 ETOT 13   8.5167354578449      1.023E-12 2.172E-13 3.749E-15
 ETOT 14   8.5167354578448     -5.684E-14 2.399E-14 4.163E-17
 ETOT 15   8.5167354578436     -1.194E-12 1.194E-15 4.376E-19
 ETOT 16   8.5167354578451      1.478E-12 1.313E-16 7.508E-21
 ETOT 17   8.5167354578444     -6.821E-13 9.303E-17 2.253E-23

 At SCF step   17   max residual=  9.30E-17 < tolwfr=  1.00E-16 =>converged.
================================================================================

 ----iterations are completed or convergence reached----

 Mean square residual over all n,k,spin=   45.089E-18; max=  93.030E-18

 Thirteen components of 2nd-order total energy (hartree) are
 1,2,3: 0th-order hamiltonian combined with 1st-order wavefunctions
     kin0=   3.24088783E+02 eigvalue=  -1.94891413E+01  local=  -1.70366815E+02
 4,5,6: 1st-order hamiltonian combined with 1st and 0th-order wfs
 loc psp =  -2.09153992E+02  Hartree=   3.99636543E+01     xc=  -1.08307365E+01
 note that "loc psp" includes a xc core correction that could be resolved
 7,8,9: eventually, occupation + non-local contributions
    edocc=   1.69182628E+01     enl0=   8.71706092E+01   enl1=  -3.25755240E+02
 1-9 gives the relaxation energy (to be shifted if some occ is /=2.0)
   erelax=  -2.67454616E+02
 10,11,12 Non-relaxation  contributions : frozen-wavefunctions and Ewald
 fr.local=   6.55955890E+01 fr.nonlo=   1.81941247E+02  Ewald=   2.96474483E+01
 13,14 Frozen wf xc core corrections (1) and (2)
 frxc 1  =  -1.06811382E+01  frxc 2 =   9.46820548E+00
 Resulting in :
 2DEtotal=    0.8516735458E+01 Ha. Also 2DEtotal=    0.231752157777E+03 eV
    (2DErelax=   -2.6745461594E+02 Ha. 2DEnonrelax=    2.7597135139E+02 Ha)
    (  non-var. 2DEtotal :    8.5167354601E+00 Ha)

 Components of second-order derivatives of the electronic energy, EIGR2D.
 For automatic tests, printing the matrix for the first k-point, first band, first atom.
   1   1   1   1   -2.9600063434E+00    0.0000000000E+00
   1   1   2   1   -1.8782546416E+00    0.0000000000E+00
   1   1   3   1   -1.0817517079E+00    0.0000000000E+00
   2   1   1   1   -1.8782546416E+00    0.0000000000E+00
   2   1   2   1   -2.9600063387E+00    0.0000000000E+00
   2   1   3   1   -1.0817517082E+00    0.0000000000E+00
   3   1   1   1   -1.0817517079E+00    0.0000000000E+00
   3   1   2   1   -1.0817517082E+00    0.0000000000E+00
   3   1   3   1   -2.1635034013E+00    0.0000000000E+00
 
 Components of second-order derivatives of the electronic energy, EIGI2D.
 For automatic tests, printing the matrix for the first k-point, first band, first atom.
   1   1   1   1    0.0000000000E+00    0.0000000000E+00
   1   1   2   1    0.0000000000E+00    0.0000000000E+00
   1   1   3   1    0.0000000000E+00    0.0000000000E+00
   2   1   1   1    0.0000000000E+00    0.0000000000E+00
   2   1   2   1    0.0000000000E+00    0.0000000000E+00
   2   1   3   1    0.0000000000E+00    0.0000000000E+00
   3   1   1   1    0.0000000000E+00    0.0000000000E+00
   3   1   2   1    0.0000000000E+00    0.0000000000E+00
   3   1   3   1    0.0000000000E+00    0.0000000000E+00
================================================================================

 ---- first-order wavefunction calculations are completed ----


 ==> Compute Derivative Database <==
  
  2nd-order matrix (non-cartesian coordinates, masses not included,
   asr not included )
     j1       j2             matrix element
  dir pert dir pert     real part     imaginary part
  
   1    1   1    1        11.7604416922         0.0000000000
   1    1   2    1         7.5020738834         0.0000000000
   1    1   3    1         4.2583679365        -0.0000000000
   1    1   1    2        -0.0000000581         0.0000000000
   1    1   2    2        -2.2183690080        -0.0000000000
   1    1   3    2        -2.2183690034        -0.0000000000
  
   2    1   1    1         7.5020738854         0.0000000000
   2    1   2    1        11.7604415925         0.0000000000
   2    1   3    1         4.2583679193        -0.0000000000
   2    1   1    2        -2.2183689729        -0.0000000000
   2    1   2    2        -0.0000000476        -0.0000000000
   2    1   3    2        -2.2183690100        -0.0000000000
  
   3    1   1    1         4.2583679336        -0.0000000000
   3    1   2    1         4.2583679134         0.0000000000
   3    1   3    1         8.5167355378         0.0000000000
   3    1   1    2        -2.2183689920        -0.0000000000
   3    1   2    2        -2.2183689879        -0.0000000000
   3    1   3    2        -4.4367378665        -0.0000000000
  
   1    2   1    1        -0.0000000563         0.0000000000
   1    2   2    1        -2.2183689717         0.0000000000
   1    2   3    1        -2.2183690015        -0.0000000000
   1    2   1    2        11.7604414118         0.0000000000
   1    2   2    2         7.5020737554         0.0000000000
   1    2   3    2         4.2583678300         0.0000000000
  
   2    2   1    1        -2.2183690058         0.0000000000
   2    2   2    1        -0.0000000503         0.0000000000
   2    2   3    1        -2.2183690027        -0.0000000000
   2    2   1    2         7.5020737618        -0.0000000000
   2    2   2    2        11.7604415567         0.0000000000
   2    2   3    2         4.2583678583         0.0000000000
  
   3    2   1    1        -2.2183689943        -0.0000000000
   3    2   2    1        -2.2183689945        -0.0000000000
   3    2   3    1        -4.4367378666         0.0000000000
   3    2   1    2         4.2583678248        -0.0000000000
   3    2   2    2         4.2583678508         0.0000000000
   3    2   3    2         8.5167354601         0.0000000000
  
  
  Dynamical matrix, in cartesian coordinates,
   if specified in the inputs, asr has been imposed
     j1       j2             matrix element
  dir pert dir pert     real part    imaginary part
  
   1    1   1    1        -0.0000000001        -0.0000000000
   1    1   2    1         0.1974670687         0.0000000000
   1    1   3    1         0.0000000014         0.0000000000
   1    1   1    2         0.0000000001         0.0000000000
   1    1   2    2        -0.1974670687        -0.0000000000
   1    1   3    2        -0.0000000014        -0.0000000000
  
   2    1   1    1         0.1974670682         0.0000000000
   2    1   2    1        -0.0000000002        -0.0000000000
   2    1   3    1         0.0000000037        -0.0000000000
   2    1   1    2        -0.1974670682        -0.0000000000
   2    1   2    2         0.0000000002         0.0000000000
   2    1   3    2        -0.0000000037         0.0000000000
  
   3    1   1    1         0.0000000039         0.0000000000
   3    1   2    1         0.0000000026         0.0000000000
   3    1   3    1        -0.0000000009        -0.0000000000
   3    1   1    2        -0.0000000039        -0.0000000000
   3    1   2    2        -0.0000000026        -0.0000000000
   3    1   3    2         0.0000000009         0.0000000000
  
   1    2   1    1         0.0000000001         0.0000000000
   1    2   2    1        -0.1974670684         0.0000000000
   1    2   3    1        -0.0000000033        -0.0000000000
   1    2   1    2        -0.0000000001        -0.0000000000
   1    2   2    2         0.1974670684        -0.0000000000
   1    2   3    2         0.0000000033         0.0000000000
  
   2    2   1    1        -0.1974670683         0.0000000000
   2    2   2    1         0.0000000001         0.0000000000
   2    2   3    1        -0.0000000021        -0.0000000000
   2    2   1    2         0.1974670683        -0.0000000000
   2    2   2    2        -0.0000000001        -0.0000000000
   2    2   3    2         0.0000000021         0.0000000000
  
   3    2   1    1        -0.0000000022        -0.0000000000
   3    2   2    1        -0.0000000040        -0.0000000000
   3    2   3    1         0.0000000009         0.0000000000
   3    2   1    2         0.0000000022         0.0000000000
   3    2   2    2         0.0000000040         0.0000000000
   3    2   3    2        -0.0000000009        -0.0000000000

  Phonon wavevector (reduced coordinates) :  0.50000  0.50000  0.00000
 Phonon energies in Hartree :
  -4.247102E-03 -3.359248E-07  0.000000E+00  0.000000E+00  1.702420E-07
   4.247102E-03
 Phonon energies in meV     :
- -1.155695E+02 -9.140979E-03  0.000000E+00  0.000000E+00  4.632519E-03
-  1.155695E+02
 Phonon frequencies in cm-1    :
- -9.321312E+02 -7.372698E-02  0.000000E+00  0.000000E+00  3.736379E-02
-  9.321312E+02
 Phonon frequencies in Thz     :
- -2.794459E+01 -2.210279E-03  0.000000E+00  0.000000E+00  1.120138E-03
-  2.794459E+01
 Phonon energies in Kelvin  :
- -1.341127E+03 -1.060765E-01  0.000000E+00  0.000000E+00  5.375810E-02
-  1.341127E+03
================================================================================

 ---- T=0 shift of eigenenergies due to electron-phonon interation at q ---- 
 Warning : the total shift must be computed through anaddb,                  
 here, only the contribution of one q point is printed.                      
 Print first the electronic eigenvalues, then the q-dependent Fan shift of eigenvalues.

 Eigenvalues (hartree) for nkpt=   8  k points:
 kpt#   1, nband=  8, wtk=  0.12500, kpt=  0.0000  0.0000  0.0000 (reduced coord)
  -0.31631    0.48327    0.48327    0.48327    0.68622    0.68622    0.68622    0.99279
 prteigrs : prtvol=0 or 1, do not print more k-points.

 Eigenvalues (   eV  ) for nkpt=   8  k points:
 kpt#   1, nband=  8, wtk=  0.12500, kpt=  0.0000  0.0000  0.0000 (reduced coord)
  -8.60718   13.15041   13.15041   13.15041   18.67296   18.67296   18.67296   27.01512
 prteigrs : prtvol=0 or 1, do not print more k-points.



 Fan corrections to eigenvalues at T=0 (hartree) for nkpt=   8  k points:
  (in case of degenerate eigenvalues, averaged derivative)
 kpt#   1, nband=  8, wtk=  0.12500, kpt=  0.0000  0.0000  0.0000 (reduced coord)
  -0.00081   -0.00570   -0.00570   -0.00570    0.00541    0.00541    0.00541   -0.00811
 prteigrs : prtvol=0 or 1, do not print more k-points.

 Fan corrections to eigenvalues at T=0 (   eV  ) for nkpt=   8  k points:
 kpt#   1, nband=  8, wtk=  0.12500, kpt=  0.0000  0.0000  0.0000 (reduced coord)
  -0.02197   -0.15515   -0.15515   -0.15515    0.14732    0.14732    0.14732   -0.22081
 prteigrs : prtvol=0 or 1, do not print more k-points.



 DDW corrections to eigenvalues at T=0 (hartree) for nkpt=   8  k points:
  (in case of degenerate eigenvalues, averaged derivative)
 kpt#   1, nband=  8, wtk=  0.12500, kpt=  0.0000  0.0000  0.0000 (reduced coord)
   0.00034    0.00613    0.00613    0.00613    0.00538    0.00538    0.00538    0.00053
 prteigrs : prtvol=0 or 1, do not print more k-points.

 DDW corrections to eigenvalues at T=0 (   eV  ) for nkpt=   8  k points:
 kpt#   1, nband=  8, wtk=  0.12500, kpt=  0.0000  0.0000  0.0000 (reduced coord)
   0.00912    0.16669    0.16669    0.16669    0.14648    0.14648    0.14648    0.01445
 prteigrs : prtvol=0 or 1, do not print more k-points.



 Fan+DDW corrs   to eigenvalues at T=0 (hartree) for nkpt=   8  k points:
  (in case of degenerate eigenvalues, averaged derivative)
 kpt#   1, nband=  8, wtk=  0.12500, kpt=  0.0000  0.0000  0.0000 (reduced coord)
  -0.00047    0.00042    0.00042    0.00042    0.01080    0.01080    0.01080   -0.00758
 prteigrs : prtvol=0 or 1, do not print more k-points.

 Fan+DDW corrs   to eigenvalues at T=0 (   eV  ) for nkpt=   8  k points:
 kpt#   1, nband=  8, wtk=  0.12500, kpt=  0.0000  0.0000  0.0000 (reduced coord)
  -0.01285    0.01154    0.01154    0.01154    0.29380    0.29380    0.29380   -0.20637
 prteigrs : prtvol=0 or 1, do not print more k-points.


== END DATASET(S) ==============================================================
================================================================================
  
 -outvars: echo values of variables after computation  --------
            acell      6.7034680500E+00  6.7034680500E+00  6.7034680500E+00 Bohr
              amu      1.20110000E+01
          bdeigrf           8
           diemac      6.00000000E+00
             ecut      2.00000000E+01 Hartree
           ecutsm      5.00000000E-01 Hartree
    elph2_imagden      3.67493254E-03 Hartree
           enunit           2
           etotal1    -1.1946966457E+01
           etotal2     1.3616104901E+01
           etotal4     8.5167354578E+00
            fcart1    -6.6210183516E-09 -9.1927221505E-09 -4.1424755641E-11
                       6.6210183516E-09  9.1927221505E-09  4.1424755641E-11
            fcart2     0.0000000000E+00  0.0000000000E+00  0.0000000000E+00
                       0.0000000000E+00  0.0000000000E+00  0.0000000000E+00
            fcart4     0.0000000000E+00  0.0000000000E+00  0.0000000000E+00
                       0.0000000000E+00  0.0000000000E+00  0.0000000000E+00
-          fftalg         312
           getden1          0
           getden2          1
           getden3          1
           getden4          1
   getgam_eig2nkq1          0
   getgam_eig2nkq2          0
   getgam_eig2nkq3          0
   getgam_eig2nkq4          2
           getwfk1          0
           getwfk2          1
           getwfk3          1
           getwfk4          1
           getwfq1          0
           getwfq2          0
           getwfq3          0
           getwfq4         -1
          ieig2rf1          0
          ieig2rf2          1
          ieig2rf3          0
          ieig2rf4          1
             iscf1          7
             iscf2          7
             iscf3         -2
             iscf4          7
           istwfk1       2    3    6    7    4    5    8    9
           istwfk2       1    1    1    1    1    1    1    1
           istwfk3       7    0    0    0    9    0    0    0
           istwfk4       1    1    1    1    1    1    1    1
           jdtset        1    2    3    4
              kpt      0.00000000E+00  0.00000000E+00  0.00000000E+00
                       5.00000000E-01  0.00000000E+00  0.00000000E+00
                       0.00000000E+00  5.00000000E-01  0.00000000E+00
                       5.00000000E-01  5.00000000E-01  0.00000000E+00
                       0.00000000E+00  0.00000000E+00  5.00000000E-01
                       5.00000000E-01  0.00000000E+00  5.00000000E-01
                       0.00000000E+00  5.00000000E-01  5.00000000E-01
                       5.00000000E-01  5.00000000E-01  5.00000000E-01
           kptopt           3
         kptrlatt        2    0    0      0    2    0      0    0    2
          kptrlen      9.48013543E+00
P           mkmem           8
P          mkqmem           8
P          mk1mem           8
            natom           2
            nband           8
           nbdbuf1          0
           nbdbuf2          0
           nbdbuf3          2
           nbdbuf4          0
           ndtset           4
            ngfft          20      20      20
             nkpt           8
             nqpt1          0
             nqpt2          1
             nqpt3          1
             nqpt4          1
             nsym           1
           ntypat           1
              occ      2.000000  2.000000  2.000000  2.000000  0.000000  0.000000
                       0.000000  0.000000
        optdriver1          0
        optdriver2          1
        optdriver3          0
        optdriver4          1
              qpt1     0.00000000E+00  0.00000000E+00  0.00000000E+00
              qpt2     0.00000000E+00  0.00000000E+00  0.00000000E+00
              qpt3     5.00000000E-01  5.00000000E-01  0.00000000E+00
              qpt4     5.00000000E-01  5.00000000E-01  0.00000000E+00
            rfasr           1
          rfatpol           1       2
            rfdir           1       1       1
           rfphon1          0
           rfphon2          1
           rfphon3          0
           rfphon4          1
            rprim      0.0000000000E+00  5.0000000000E-01  5.0000000000E-01
                       5.0000000000E-01  0.0000000000E+00  5.0000000000E-01
                       5.0000000000E-01  5.0000000000E-01  0.0000000000E+00
          smdelta1          0
          smdelta2          1
          smdelta3          0
          smdelta4          1
          spgroup           1
           strten1    -2.0481592759E-03 -2.0481592586E-03 -2.0481592604E-03
                      -8.8974389933E-11 -1.0880627195E-10 -3.2109663578E-11
           strten2     0.0000000000E+00  0.0000000000E+00  0.0000000000E+00
                       0.0000000000E+00  0.0000000000E+00  0.0000000000E+00
           strten4     0.0000000000E+00  0.0000000000E+00  0.0000000000E+00
                       0.0000000000E+00  0.0000000000E+00  0.0000000000E+00
           tolwfr      1.00000000E-16
            typat      1  1
              wtk        0.12500    0.12500    0.12500    0.12500    0.12500    0.12500
                         0.12500    0.12500
           xangst      0.0000000000E+00  0.0000000000E+00  0.0000000000E+00
                       8.8683062764E-01  8.8683062764E-01  8.8683062764E-01
            xcart      0.0000000000E+00  0.0000000000E+00  0.0000000000E+00
                       1.6758670125E+00  1.6758670125E+00  1.6758670125E+00
             xred      0.0000000000E+00  0.0000000000E+00  0.0000000000E+00
                       2.5000000000E-01  2.5000000000E-01  2.5000000000E-01
            znucl        6.00000

================================================================================


- Timing analysis has been suppressed with timopt=0



================================================================================

 Suggested references for the acknowledgment of ABINIT usage.

 The users of ABINIT have little formal obligations with respect to the ABINIT group
 (those specified in the GNU General Public License, http://www.gnu.org/copyleft/gpl.txt).
 However, it is common practice in the scientific literature,
 to acknowledge the efforts of people that have made the research possible.
 In this spirit, please find below suggested citations of work written by ABINIT developers,
 corresponding to implementations inside of ABINIT that you have used in the present run.
 Note also that it will be of great value to readers of publications presenting these results,
 to read papers enabling them to understand the theoretical formalism and details
 of the ABINIT implementation.
 For information on why they are suggested, see also https://docs.abinit.org/theory/acknowledgments.
-
- [1] Verification of first-principles codes: Comparison of total energies, phonon frequencies,
- electron--phonon coupling and zero-point motion correction to the gap between ABINIT and QE/Yambo
- S. Ponce, G. Antonius, P. Boulanger, E. Cannuccia, A. Marini, M. Cote and X. Gonze. Computational Material Science 83, 341 (2014)
- Comment: the temperature-dependence of the electronic structure is computed (or the zero-point renormalisation).
- Strong suggestion to cite this paper in your publications.
- DOI and bibtex : see https://docs.abinit.org/theory/bibliography/#ponce2014
-
- [2] Temperature dependence of the electronic structure of semiconductors and insulators 
- S. Ponce, Y. Gillet, J. Laflamme Janssen, A. Marini, M. Verstraete and X. Gonze. J. Chem. Phys. 143, 102813 (2015)
- Comment: the temperature-dependence of the electronic structure is computed (or the zero-point renormalisation).
- Strong suggestion to cite this paper in your publications.
- DOI and bibtex: see https://docs.abinit.org/theory/bibliography/#ponce2015
-
- [3] The Abinit project: Impact, environment and recent developments.
- Computer Phys. Comm. 248, 107042 (2020).
- X.Gonze, B. Amadon, G. Antonius, F.Arnardi, L.Baguet, J.-M.Beuken,
- J.Bieder, F.Bottin, J.Bouchet, E.Bousquet, N.Brouwer, F.Bruneval,
- G.Brunin, T.Cavignac, J.-B. Charraud, Wei Chen, M.Cote, S.Cottenier,
- J.Denier, G.Geneste, Ph.Ghosez, M.Giantomassi, Y.Gillet, O.Gingras,
- D.R.Hamann, G.Hautier, Xu He, N.Helbig, N.Holzwarth, Y.Jia, F.Jollet,
- W.Lafargue-Dit-Hauret, K.Lejaeghere, M.A.L.Marques, A.Martin, C.Martins,
- H.P.C. Miranda, F.Naccarato, K. Persson, G.Petretto, V.Planes, Y.Pouillon,
- S.Prokhorenko, F.Ricci, G.-M.Rignanese, A.H.Romero, M.M.Schmitt, M.Torrent,
- M.J.van Setten, B.Van Troeye, M.J.Verstraete, G.Zerah and J.W.Zwanzig
- Comment: the fifth generic paper describing the ABINIT project.
- Note that a version of this paper, that is not formatted for Computer Phys. Comm. 
- is available at https://www.abinit.org/sites/default/files/ABINIT20.pdf .
- The licence allows the authors to put it on the Web.
- DOI and bibtex: see https://docs.abinit.org/theory/bibliography/#gonze2020
-
- [4] First-principles responses of solids to atomic displacements and homogeneous electric fields:,
- implementation of a conjugate-gradient algorithm. X. Gonze, Phys. Rev. B55, 10337 (1997).
- Comment: Non-vanishing rfphon and/or rfelfd, in the norm-conserving case.
- DOI and bibtex: see https://docs.abinit.org/theory/bibliography/#gonze1997
-
- [5] Dynamical matrices, Born effective charges, dielectric permittivity tensors, and ,
- interatomic force constants from density-functional perturbation theory,
- X. Gonze and C. Lee, Phys. Rev. B55, 10355 (1997).
- Comment: Non-vanishing rfphon and/or rfelfd, in the norm-conserving case.
- DOI and bibtex: see https://docs.abinit.org/theory/bibliography/#gonze1997a
-
- [6] Recent developments in the ABINIT software package.
- Computer Phys. Comm. 205, 106 (2016).
- X.Gonze, F.Jollet, F.Abreu Araujo, D.Adams, B.Amadon, T.Applencourt,
- C.Audouze, J.-M.Beuken, J.Bieder, A.Bokhanchuk, E.Bousquet, F.Bruneval
- D.Caliste, M.Cote, F.Dahm, F.Da Pieve, M.Delaveau, M.Di Gennaro,
- B.Dorado, C.Espejo, G.Geneste, L.Genovese, A.Gerossier, M.Giantomassi,
- Y.Gillet, D.R.Hamann, L.He, G.Jomard, J.Laflamme Janssen, S.Le Roux,
- A.Levitt, A.Lherbier, F.Liu, I.Lukacevic, A.Martin, C.Martins,
- M.J.T.Oliveira, S.Ponce, Y.Pouillon, T.Rangel, G.-M.Rignanese,
- A.H.Romero, B.Rousseau, O.Rubel, A.A.Shukri, M.Stankovski, M.Torrent,
- M.J.Van Setten, B.Van Troeye, M.J.Verstraete, D.Waroquier, J.Wiktor,
- B.Xu, A.Zhou, J.W.Zwanziger.
- Comment: the fourth generic paper describing the ABINIT project.
- Note that a version of this paper, that is not formatted for Computer Phys. Comm. 
- is available at https://www.abinit.org/sites/default/files/ABINIT16.pdf .
- The licence allows the authors to put it on the Web.
- DOI and bibtex: see https://docs.abinit.org/theory/bibliography/#gonze2016
-
- [7] ABINIT: First-principles approach of materials and nanosystem properties.
- Computer Phys. Comm. 180, 2582-2615 (2009).
- X. Gonze, B. Amadon, P.-M. Anglade, J.-M. Beuken, F. Bottin, P. Boulanger, F. Bruneval,
- D. Caliste, R. Caracas, M. Cote, T. Deutsch, L. Genovese, Ph. Ghosez, M. Giantomassi
- S. Goedecker, D.R. Hamann, P. Hermet, F. Jollet, G. Jomard, S. Leroux, M. Mancini, S. Mazevet,
- M.J.T. Oliveira, G. Onida, Y. Pouillon, T. Rangel, G.-M. Rignanese, D. Sangalli, R. Shaltaf,
- M. Torrent, M.J. Verstraete, G. Zerah, J.W. Zwanziger
- Comment: the third generic paper describing the ABINIT project.
- Note that a version of this paper, that is not formatted for Computer Phys. Comm. 
- is available at https://www.abinit.org/sites/default/files/ABINIT_CPC_v10.pdf .
- The licence allows the authors to put it on the Web.
- DOI and bibtex: see https://docs.abinit.org/theory/bibliography/#gonze2009
-
- Proc.   0 individual time (sec): cpu=         18.2  wall=         23.8

================================================================================

 Calculation completed.
.Delivered  10 WARNINGs and 193 COMMENTs to log file.
+Overall time at end (sec) : cpu=         18.2  wall=         23.8
