
 **** DERIVATIVE DATABASE ****    
+DDB, Version number    100401

 C diamond EIGR2D file

    usepaw         0
     natom         2
      nkpt         8
    nsppol         1
      nsym         1
    ntypat         1
    occopt         1
     nband         8
     acell  0.67034680500000D+01  0.67034680500000D+01  0.67034680500000D+01
       amu  0.12011000000000D+02
   dilatmx  0.10000000000000D+01
      ecut  0.20000000000000D+02
    ecutsm  0.50000000000000D+00
     intxc         0
      iscf         7
       ixc         1
       kpt  0.00000000000000D+00  0.00000000000000D+00  0.00000000000000D+00
            0.50000000000000D+00  0.00000000000000D+00  0.00000000000000D+00
            0.00000000000000D+00  0.50000000000000D+00  0.00000000000000D+00
            0.50000000000000D+00  0.50000000000000D+00  0.00000000000000D+00
            0.00000000000000D+00  0.00000000000000D+00  0.50000000000000D+00
            0.50000000000000D+00  0.00000000000000D+00  0.50000000000000D+00
            0.00000000000000D+00  0.50000000000000D+00  0.50000000000000D+00
            0.50000000000000D+00  0.50000000000000D+00  0.50000000000000D+00
    kptnrm  0.10000000000000D+01
     ngfft        20   20   20
    nspden         1
   nspinor         1
       occ  0.20000000000000D+01  0.20000000000000D+01  0.20000000000000D+01
            0.20000000000000D+01  0.00000000000000D+00  0.00000000000000D+00
            0.00000000000000D+00  0.00000000000000D+00
     rprim  0.00000000000000D+00  0.50000000000000D+00  0.50000000000000D+00
            0.50000000000000D+00  0.00000000000000D+00  0.50000000000000D+00
            0.50000000000000D+00  0.50000000000000D+00  0.00000000000000D+00
  dfpt_sciss  0.00000000000000D+00
    spinat  0.00000000000000D+00  0.00000000000000D+00  0.00000000000000D+00
            0.00000000000000D+00  0.00000000000000D+00  0.00000000000000D+00
    symafm         1
    symrel         1    0    0    0    1    0    0    0    1
     tnons  0.00000000000000D+00  0.00000000000000D+00  0.00000000000000D+00
    tolwfr  0.10000000000000D+01
   tphysel  0.00000000000000D+00
    tsmear  0.10000000000000D-01
     typat         1    1
       wtk  0.12500000000000D+00  0.12500000000000D+00  0.12500000000000D+00
            0.12500000000000D+00  0.12500000000000D+00  0.12500000000000D+00
            0.12500000000000D+00  0.12500000000000D+00
      xred  0.00000000000000D+00  0.00000000000000D+00  0.00000000000000D+00
            0.25000000000000D+00  0.25000000000000D+00  0.25000000000000D+00
     znucl  0.60000000000000D+01
      zion  0.40000000000000D+01
 
  Description of the potentials (KB energies)
  vrsio8 (for pseudopotentials)=100401
  usepaw =  0
  dimekb =  1       lmnmax=  1
  Atom type=    1   pspso=  0   nekb=   1
  iln lpsang iproj  ekb(:)
     1     0     1     4.9214663E+00
 
 **** Database of total energy derivatives ****
 Number of data blocks=    2
  
 2nd eigenvalue derivatives   - # elements :      36
 qpt  0.00000000E+00  0.00000000E+00  0.00000000E+00   1.0
 K-point:  0.00000000E+00  0.00000000E+00  0.00000000E+00
 Band:  1
   1   1   1   1 -0.19077337059748D+01 -0.12710939655119D-17
   2   1   1   1 -0.95386685302753D+00 -0.21314865401192D-16
   3   1   1   1 -0.95386685355589D+00  0.40266290674643D-16
   1   2   1   1  0.50782305981765D+00 -0.13802994661544D-16
   2   2   1   1  0.25391153117421D+00 -0.61273993798496D-16
   3   2   1   1  0.25391153068665D+00 -0.12071255839157D-16
   1   1   2   1 -0.95386685302753D+00  0.11777121899515D-16
   2   1   2   1 -0.19077337055559D+01 -0.34982087847814D-17
   3   1   2   1 -0.95386685332425D+00  0.63675449206284D-16
   1   2   2   1  0.25391153054265D+00  0.32101384368261D-16
   2   2   2   1  0.50782306008617D+00 -0.81021078133866D-16
   3   2   2   1  0.25391153037725D+00 -0.61365007834068D-16
   1   1   3   1 -0.95386685355589D+00 -0.45900958360584D-16
   2   1   3   1 -0.95386685332425D+00 -0.71506019844191D-16
   3   1   3   1 -0.19077337062553D+01 -0.73751440051384D-17
   1   2   3   1  0.25391153072388D+00  0.56117084465683D-16
   2   2   3   1  0.25391153101510D+00  0.61986891191142D-16
   3   2   3   1  0.50782305978675D+00  0.11463770315931D-16
   1   1   1   2  0.50782305981765D+00 -0.25252787277361D-17
   2   1   1   2  0.25391153054265D+00 -0.16407556394742D-16
   3   1   1   2  0.25391153072388D+00 -0.44727421957156D-16
   1   2   1   2 -0.19077337063372D+01 -0.42911502382842D-19
   2   2   1   2 -0.95386685390504D+00  0.14092200451189D-15
   3   2   1   2 -0.95386685412574D+00  0.11444594612257D-15
   1   1   2   2  0.25391153117421D+00  0.53668418681224D-16
   2   1   2   2  0.50782306008617D+00  0.87995762329109D-16
   3   1   2   2  0.25391153101510D+00 -0.32108478375678D-16
   1   2   2   2 -0.95386685390504D+00 -0.13810942601275D-15
   2   2   2   2 -0.19077337076682D+01  0.58823798708612D-17
   3   2   2   2 -0.95386685367340D+00  0.34826206890613D-16
   1   1   3   2  0.25391153068665D+00  0.41322126476134D-16
   2   1   3   2  0.25391153037725D+00  0.85539327683042D-16
   3   1   3   2  0.50782305978675D+00 -0.69244317416431D-17
   1   2   3   2 -0.95386685412574D+00 -0.11395498462000D-15
   2   2   3   2 -0.95386685367340D+00 -0.26230909750914D-16
   3   2   3   2 -0.19077337067130D+01  0.52993107689206D-18
 Band:  2
   1   1   1   1 -0.35205054275017D+02 -0.73029888141365D-17
   2   1   1   1 -0.31557604310616D+02  0.26664785450057D-15
   3   1   1   1 -0.27395010681158D+02 -0.11297929159704D-14
   1   2   1   1 -0.53752861383164D+00 -0.50527236356675D-15
   2   2   1   1 -0.12047021800244D+00  0.84539497594905D-15
   3   2   1   1  0.24255872057562D+00 -0.88063711275888D-15
   1   1   2   1 -0.31557604310616D+02 -0.53917984660530D-15
   2   1   2   1 -0.40995173768340D+02 -0.13273776068594D-15
   3   1   2   1 -0.30012232736798D+02 -0.21330085386505D-14
   1   2   2   1 -0.12047020238748D+00  0.48141890557414D-15
   2   2   2   1 -0.67763667983786D+00 -0.27683041255958D-15
   3   2   2   1  0.14304146967393D-01 -0.70845001378450D-15
   1   1   3   1 -0.27395010681158D+02  0.83059261191596D-15
   2   1   3   1 -0.30012232736798D+02  0.16777803297481D-14
   3   1   3   1 -0.32565856341874D+02 -0.17663022884422D-15
   1   2   3   1  0.24255872618647D+00 -0.39118336342845D-15
   2   2   3   1  0.14304140334953D-01  0.20674908234397D-14
   3   2   3   1 -0.43314179680401D+00  0.11489077086616D-14
   1   1   1   2 -0.53752861383163D+00  0.19281735072089D-14
   2   1   1   2 -0.12047020238748D+00  0.11370221419742D-14
   3   1   1   2  0.24255872618646D+00  0.19081597606923D-14
   1   2   1   2 -0.35205054196641D+02 -0.76564975269577D-16
   2   2   1   2 -0.31557604274871D+02  0.52798601326201D-14
   3   2   1   2 -0.27395010635717D+02 -0.34259387752969D-15
   1   1   2   2 -0.12047021800244D+00 -0.11394386898320D-14
   2   1   2   2 -0.67763667983785D+00  0.83009807088164D-16
   3   1   2   2  0.14304140334952D-01 -0.17132738708405D-14
   1   2   2   2 -0.31557604274871D+02 -0.56414270279792D-14
   2   2   2   2 -0.40995173775512D+02 -0.66894976877396D-17
   3   2   2   2 -0.30012232733418D+02 -0.57965703530580D-14
   1   1   3   2  0.24255872057562D+00  0.99485794557232D-15
   2   1   3   2  0.14304146967394D-01  0.11321342999208D-14
   3   1   3   2 -0.43314179680401D+00  0.64995888294235D-16
   1   2   3   2 -0.27395010635717D+02  0.45205231031796D-15
   2   2   3   2 -0.30012232733418D+02  0.59705343690588D-14
   3   2   3   2 -0.32565856326863D+02 -0.18207461869498D-16
 Band:  3
   1   1   1   1 -0.23109300825236D+02 -0.77679474008847D-16
   2   1   1   1  0.23107463482057D+01 -0.11108713294569D-15
   3   1   1   1 -0.10111506213945D+02 -0.78799592698028D-15
   1   2   1   1 -0.94424514723534D+00 -0.15543191344182D-14
   2   2   1   1 -0.14303760080022D+00  0.89914230689947D-17
   3   2   1   1 -0.12264408280560D+01  0.60064712052748D-15
   1   1   2   1  0.23107463482057D+01  0.50258293519473D-15
   2   1   2   1 -0.19677377247253D+02 -0.11229845204906D-15
   3   1   2   1 -0.35136298681338D+01 -0.56621988386331D-15
   1   2   2   1 -0.14303760496837D+00 -0.62277776338562D-15
   2   2   2   1 -0.28090266855523D+00 -0.78849147316732D-15
   3   2   2   1 -0.65100863363551D+00  0.83761842747143D-15
   1   1   3   1 -0.10111506213945D+02  0.75987030617048D-15
   2   1   3   1 -0.35136298681338D+01  0.38866530734889D-15
   3   1   3   1 -0.14212380567527D+02  0.54457603050883D-17
   1   2   3   1 -0.12264408262012D+01 -0.26941110026252D-15
   2   2   3   1 -0.65100863380585D+00 -0.10689698313016D-14
   3   2   3   1 -0.18611327009357D+01 -0.43995678161569D-16
   1   1   1   2 -0.94424514723534D+00  0.32658571056529D-15
   2   1   1   2 -0.14303760496837D+00  0.51689300087246D-15
   3   1   1   2 -0.12264408262012D+01 -0.52952430512138D-15
   1   2   1   2 -0.23109300813932D+02  0.12551308680605D-15
   2   2   1   2  0.23107463510217D+01 -0.23185932032061D-16
   3   2   1   2 -0.10111506212622D+02 -0.35363222726016D-15
   1   1   2   2 -0.14303760080022D+00 -0.23728758875823D-15
   2   1   2   2 -0.28090266855523D+00  0.11429913615159D-14
   3   1   2   2 -0.65100863380585D+00  0.64355234013286D-15
   1   2   2   2  0.23107463510217D+01 -0.10244082973252D-15
   2   2   2   2 -0.19677377290296D+02  0.18802105689180D-15
   3   2   2   2 -0.35136298632592D+01 -0.32015605133551D-15
   1   1   3   2 -0.12264408280560D+01 -0.44806496799450D-15
   2   1   3   2 -0.65100863363551D+00 -0.74471794925671D-15
   3   1   3   2 -0.18611327009357D+01  0.41884178057538D-15
   1   2   3   2 -0.10111506212622D+02  0.41518754199734D-15
   2   2   3   2 -0.35136298632592D+01  0.45028331820364D-15
   3   2   3   2 -0.14212380577432D+02  0.93831783208691D-16
 Band:  4
   1   1   1   1 -0.15869854121679D+02  0.73346338980909D-16
   2   1   1   1 -0.78452466517317D+01 -0.42378112606974D-15
   3   1   1   1  0.41441227617874D+00  0.70769729176671D-15
   1   2   1   1 -0.11271490768501D+01 -0.93822002043161D-17
   2   2   1   1 -0.10409536188299D+01 -0.11960038101052D-15
   3   2   1   1 -0.32057932649006D+00  0.10476497865559D-15
   1   1   2   1 -0.78452466517317D+01  0.25427652663456D-15
   2   1   2   1 -0.13511658131726D+02 -0.47326354766004D-16
   3   1   2   1 -0.35662419929950D+01  0.28033940700808D-15
   1   2   2   1 -0.10409536133924D+01  0.45991802423547D-15
   2   2   2   1 -0.16503834990099D+01 -0.30218150580050D-15
   3   2   2   1 -0.66775693863808D+00  0.50929074607053D-15
   1   1   3   1  0.41441227617874D+00 -0.98507889929497D-15
   2   1   3   1 -0.35662419929950D+01 -0.38075287419463D-15
   3   1   3   1 -0.27405972210391D+02  0.16617556397530D-15
   1   2   3   1 -0.32057932844199D+00 -0.33134472088792D-15
   2   2   3   1 -0.66775693975959D+00  0.14173424595852D-15
   3   2   3   1 -0.31464834689910D+00 -0.41373529832261D-15
   1   1   1   2 -0.11271490768501D+01  0.19508156022636D-15
   2   1   1   2 -0.10409536133924D+01 -0.23843889383292D-15
   3   1   1   2 -0.32057932844199D+00 -0.57827618950337D-16
   1   2   1   2 -0.15869854131828D+02  0.13627576135649D-15
   2   2   1   2 -0.78452466549929D+01 -0.37941871908769D-15
   3   2   1   2  0.41441227245140D+00 -0.10835426051384D-14
   1   1   2   2 -0.10409536188299D+01 -0.21114742930197D-15
   2   1   2   2 -0.16503834990099D+01  0.22923179419239D-15
   3   1   2   2 -0.66775693975959D+00 -0.42256507301035D-15
   1   2   2   2 -0.78452466549929D+01  0.44609181465891D-15
   2   2   2   2 -0.13511658161568D+02  0.68216136698598D-16
   3   2   2   2 -0.35662419948391D+01 -0.91798079464905D-15
   1   1   3   2 -0.32057932649006D+00 -0.47582078406646D-15
   2   1   3   2 -0.66775693863808D+00 -0.40324124109656D-15
   3   1   3   2 -0.31464834689910D+00  0.22760039523539D-15
   1   2   3   2  0.41441227245140D+00  0.86737976166205D-15
   2   2   3   2 -0.35662419948391D+01  0.87602884810063D-15
   3   2   3   2 -0.27405972269625D+02 -0.16918714564611D-15
 Band:  5
   1   1   1   1 -0.14671155587881D+02 -0.13846117262859D-15
   2   1   1   1 -0.76516659599018D+01 -0.14950311168391D-15
   3   1   1   1 -0.25235286529445D+00  0.57026296217460D-15
   1   2   1   1  0.14991824494723D+01 -0.12162356446037D-15
   2   2   1   1  0.17556167397517D+01 -0.42920569803287D-15
   3   2   1   1  0.65845571090295D+00 -0.96618033184881D-15
   1   1   2   1 -0.76516659599018D+01  0.12737902342356D-15
   2   1   2   1 -0.13902165710088D+02 -0.21789965376763D-15
   3   1   2   1 -0.52612214161329D+01 -0.39387740604125D-15
   1   2   2   1  0.17556167440483D+01  0.73377580537401D-15
   2   2   2   1  0.30230341317835D+01 -0.48082011796926D-15
   3   2   2   1  0.14011640405009D+01 -0.10920341195114D-14
   1   1   3   1 -0.25235286529444D+00 -0.54123252438312D-15
   2   1   3   1 -0.52612214161329D+01  0.46565674700111D-15
   3   1   3   1 -0.26403849033538D+02  0.11365403422047D-15
   1   2   3   1  0.65845570932561D+00 -0.22884437214641D-15
   2   2   3   1  0.14011640377777D+01 -0.20321193865960D-15
   3   2   3   1 -0.76467885156450D+00  0.13274987748584D-14
   1   1   1   2  0.14991824494723D+01  0.97498772264145D-15
   2   1   1   2  0.17556167440483D+01  0.35818695634430D-16
   3   1   1   2  0.65845570932560D+00 -0.61092513652280D-16
   1   2   1   2 -0.14671155561667D+02 -0.29181269304273D-15
   2   2   1   2 -0.76516659455929D+01 -0.25109837797870D-15
   3   2   1   2 -0.25235285883182D+00  0.11186187697660D-14
   1   1   2   2  0.17556167397517D+01  0.64085355327598D-15
   2   1   2   2  0.30230341317835D+01  0.88704049642970D-16
   3   1   2   2  0.14011640377777D+01  0.52360649159552D-15
   1   2   2   2 -0.76516659455929D+01  0.11691373650703D-15
   2   2   2   2 -0.13902165674955D+02 -0.96475106744715D-16
   3   2   2   2 -0.52612214166181D+01  0.47496037534522D-15
   1   1   3   2  0.65845571090295D+00  0.57775677410304D-15
   2   1   3   2  0.14011640405009D+01  0.71525914313217D-18
   3   1   3   2 -0.76467885156449D+00  0.92239044111013D-15
   1   2   3   2 -0.25235285883182D+00 -0.17356048809629D-14
   2   2   3   2 -0.52612214166181D+01 -0.56012401541995D-15
   3   2   3   2 -0.26403848958716D+02  0.55418057160954D-15
 Band:  6
   1   1   1   1 -0.21294477759270D+02 -0.41994314241188D-15
   2   1   1   1  0.22453598798457D+01  0.66295413084210D-15
   3   1   1   1 -0.10807914130218D+02  0.11695829656197D-15
   1   2   1   1  0.94188142158315D+00  0.18933356694979D-15
   2   2   1   1  0.36383986930537D+00  0.34449389183580D-15
   3   2   1   1  0.22993599507922D+01  0.47505411147453D-15
   1   1   2   1  0.22453598798457D+01 -0.47231826802337D-16
   2   1   2   1 -0.17869094105283D+02 -0.27174576408870D-15
   3   1   2   1 -0.38011275902469D+01 -0.37591986438112D-15
   1   2   2   1  0.36383987059649D+00  0.48032801916886D-15
   2   2   2   1 -0.58126148366990D+00 -0.50639149299554D-15
   3   2   2   1  0.12604042297321D+01 -0.96640686101586D-16
   1   1   3   1 -0.10807914130218D+02  0.18738476239253D-15
   2   1   3   1 -0.38011275902469D+01  0.11745625796516D-15
   3   1   3   1 -0.15279220168188D+02  0.65041980305966D-16
   1   2   3   1  0.22993599515969D+01  0.50602796147149D-15
   2   2   3   1  0.12604042415160D+01  0.41645706707026D-15
   3   2   3   1  0.34691568239786D+01 -0.92308780692006D-16
   1   1   1   2  0.94188142158316D+00  0.19177833746940D-15
   2   1   1   2  0.36383987059649D+00 -0.37669612910628D-15
   3   1   1   2  0.22993599515969D+01 -0.32017158425657D-15
   1   2   1   2 -0.21294477704676D+02 -0.69380830090962D-16
   2   2   1   2  0.22453598550325D+01  0.73254415487341D-15
   3   2   1   2 -0.10807914116640D+02 -0.19383165140685D-15
   1   1   2   2  0.36383986930537D+00  0.90550621804426D-16
   2   1   2   2 -0.58126148366990D+00 -0.68892012348947D-15
   3   1   2   2  0.12604042415160D+01 -0.33117397101909D-15
   1   2   2   2  0.22453598550325D+01 -0.54428907988390D-15
   2   2   2   2 -0.17869094046283D+02 -0.25640363385374D-16
   3   2   2   2 -0.38011276020329D+01 -0.82104520688851D-15
   1   1   3   2  0.22993599507922D+01 -0.31030502061552D-15
   2   1   3   2  0.12604042297321D+01 -0.89611452280895D-16
   3   1   3   2  0.34691568239786D+01  0.21552543169064D-15
   1   2   3   2 -0.10807914116640D+02  0.12009064366220D-15
   2   2   3   2 -0.38011276020329D+01  0.76949921058516D-15
   3   2   3   2 -0.15279220132371D+02 -0.93265919345100D-16
 Band:  7
   1   1   1   1 -0.33334869590328D+02 -0.16346058507138D-14
   2   1   1   1 -0.29243945394572D+02 -0.13467899819372D-14
   3   1   1   1 -0.23589984456307D+02 -0.24351905074211D-14
   1   2   1   1 -0.62000603151008D+00  0.33421853719522D-14
   2   2   1   1 -0.12089276983587D+01  0.16462257148569D-14
   3   2   1   1 -0.20472867489102D+01 -0.11396712144773D-14
   1   1   2   1 -0.29243945394572D+02 -0.23569217194928D-16
   2   1   2   1 -0.37529243180749D+02  0.14918421057787D-14
   3   1   2   1 -0.25587902457420D+02 -0.11101161529820D-14
   1   2   2   1 -0.12089277048464D+01  0.38924194828686D-14
   2   2   2   1 -0.62071481706970D+00  0.44039319752296D-15
   3   2   2   1 -0.17510393686944D+01 -0.55943816684463D-15
   1   1   3   1 -0.23589984456307D+02  0.81118911843369D-15
   2   1   3   1 -0.25587902457420D+02  0.18073069216892D-14
   3   1   3   1 -0.27617433746586D+02  0.17102256479432D-15
   1   2   3   1 -0.20472867549036D+01  0.25315318928404D-14
   2   2   3   1 -0.17510393603609D+01 -0.10536269640466D-15
   3   2   3   1 -0.88342013005166D+00 -0.24924446126367D-14
   1   1   1   2 -0.62000603151008D+00 -0.34134335312556D-14
   2   1   1   2 -0.12089277048465D+01 -0.60088287439895D-15
   3   1   1   2 -0.20472867549036D+01 -0.21194813468607D-14
   1   2   1   2 -0.33334869548844D+02  0.84473675862544D-15
   2   2   1   2 -0.29243945295201D+02 -0.99206236964734D-15
   3   2   1   2 -0.23589984419543D+02 -0.17693050614336D-14
   1   1   2   2 -0.12089276983587D+01 -0.35807076463025D-14
   2   1   2   2 -0.62071481706970D+00  0.44946869376749D-15
   3   1   2   2 -0.17510393603609D+01 -0.16614459943063D-14
   1   2   2   2 -0.29243945295201D+02  0.22749471028495D-14
   2   2   2   2 -0.37529242985262D+02 -0.22252001566219D-16
   3   2   2   2 -0.25587902362127D+02 -0.22569899778482D-14
   1   1   3   2 -0.20472867489102D+01 -0.18279690572560D-14
   2   1   3   2 -0.17510393686944D+01  0.20851221765317D-15
   3   1   3   2 -0.88342013005166D+00 -0.13276215618920D-14
   1   2   3   2 -0.23589984419543D+02  0.16382825768283D-14
   2   2   3   2 -0.25587902362127D+02  0.17778864751898D-15
   3   2   3   2 -0.27617433687354D+02 -0.94596507189632D-15
 Band:  8
   1   1   1   1 -0.33190218604213D+01  0.49486277850188D-16
   2   1   1   1 -0.16595109357380D+01 -0.55548925683803D-16
   3   1   1   1 -0.16595109374092D+01 -0.54505588840995D-16
   1   2   1   1  0.11006457613017D+01  0.33211053424544D-15
   2   2   1   1  0.55032288528681D+00  0.37765158506368D-15
   3   2   1   1  0.55032288757036D+00  0.32530327218818D-15
   1   1   2   1 -0.16595109357380D+01  0.97756835672531D-16
   2   1   2   1 -0.33190218721493D+01  0.14298124711795D-15
   3   1   2   1 -0.16595109383603D+01  0.20306272183124D-15
   1   2   2   1  0.55032288778648D+00  0.52343407217709D-15
   2   2   2   1  0.11006457650078D+01 -0.54134091737971D-15
   3   2   2   1  0.55032288783527D+00  0.26287675287386D-16
   1   1   3   1 -0.16595109374092D+01  0.64649613366187D-16
   2   1   3   1 -0.16595109383603D+01 -0.22870012096369D-15
   3   1   3   1 -0.33190218671517D+01 -0.70442660515699D-16
   1   2   3   1  0.55032288781941D+00  0.63114550002994D-15
   2   2   3   1  0.55032288753415D+00  0.39937138548880D-15
   3   2   3   1  0.11006457528326D+01  0.40008520935813D-15
   1   1   1   2  0.11006457613017D+01 -0.40027533381820D-15
   2   1   1   2  0.55032288778648D+00 -0.17088289387256D-15
   3   1   1   2  0.55032288781941D+00 -0.46215631927889D-15
   1   2   1   2 -0.33190218508781D+01  0.19082126783353D-16
   2   2   1   2 -0.16595109318450D+01  0.13733540666887D-15
   3   2   1   2 -0.16595109330032D+01  0.26490436080369D-15
   1   1   2   2  0.55032288528681D+00 -0.39163793304768D-15
   2   1   2   2  0.11006457650078D+01  0.22680098680282D-15
   3   1   2   2  0.55032288753415D+00 -0.33055748298434D-15
   1   2   2   2 -0.16595109318450D+01 -0.18618752900959D-15
   2   2   2   2 -0.33190218471646D+01 -0.55920452119627D-17
   3   2   2   2 -0.16595109304054D+01 -0.22719174105278D-16
   1   1   3   2  0.55032288757036D+00 -0.69773728200439D-17
   2   1   3   2  0.55032288783527D+00  0.15196039893848D-15
   3   1   3   2  0.11006457528326D+01  0.21677173861592D-15
   1   2   3   2 -0.16595109330032D+01 -0.27594651696713D-15
   2   2   3   2 -0.16595109304054D+01 -0.67499264631320D-16
   3   2   3   2 -0.33190218398132D+01 -0.22317050000105D-16
 K-point:  5.00000000E-01  0.00000000E+00  0.00000000E+00
 Band:  1
   1   1   1   1 -0.45692770391690D+01 -0.21194843714579D-16
   2   1   1   1 -0.18059443529325D+01 -0.19295437670398D-15
   3   1   1   1 -0.18059443534368D+01  0.23369352532792D-15
   1   2   1   1  0.12337347874870D+00  0.30119839401310D-15
   2   2   1   1  0.75221877123441D+00  0.23453006297367D-15
   3   2   1   1  0.75221876949025D+00  0.40063006550516D-15
   1   1   2   1 -0.18059443529325D+01  0.11407279147083D-15
   2   1   2   1 -0.36118886918436D+01  0.61757863234175D-16
   3   1   2   1 -0.18059443484815D+01  0.31212952084922D-16
   1   2   2   1  0.75221876570527D+00 -0.11781324789119D-16
   2   2   2   1  0.15044375289117D+01  0.12475047581708D-15
   3   2   2   1  0.75221876689599D+00  0.84307706994505D-16
   1   1   3   1 -0.18059443534368D+01  0.75715093925455D-16
   2   1   3   1 -0.18059443484815D+01 -0.81946943766007D-17
   3   1   3   1 -0.36118886925082D+01  0.57492275866583D-16
   1   2   3   1  0.75221876831203D+00  0.20816081386402D-15
   2   2   3   1  0.75221876799319D+00  0.10373236154370D-15
   3   2   3   1  0.15044375247814D+01  0.64002696347917D-15
   1   1   1   2  0.12337347874870D+00 -0.24234664633982D-15
   2   1   1   2  0.75221876570527D+00  0.54813045038113D-17
   3   1   1   2  0.75221876831203D+00 -0.29559030212091D-15
   1   2   1   2 -0.45692770135733D+01  0.95891516348393D-16
   2   2   1   2 -0.18059443482019D+01  0.36334858281152D-16
   3   2   1   2 -0.18059443503504D+01  0.21993301149905D-15
   1   1   2   2  0.75221877123441D+00 -0.18784062026351D-15
   2   1   2   2  0.15044375289117D+01 -0.10623820145888D-15
   3   1   2   2  0.75221876799319D+00 -0.68840488700168D-16
   1   2   2   2 -0.18059443482019D+01 -0.38609499738950D-16
   2   2   2   2 -0.36118886882734D+01  0.18017884622389D-16
   3   2   2   2 -0.18059443455441D+01 -0.24969927668217D-17
   1   1   3   2  0.75221876949025D+00 -0.42005773191811D-15
   2   1   3   2  0.75221876689599D+00 -0.96551203035536D-16
   3   1   3   2  0.15044375247814D+01 -0.72343798892583D-15
   1   2   3   2 -0.18059443503504D+01 -0.28102596249084D-15
   2   2   3   2 -0.18059443455441D+01  0.48822627703967D-16
   3   2   3   2 -0.36118886853531D+01  0.38884147018875D-17
 Band:  2
   1   1   1   1 -0.14018557304742D+02  0.98530758424724D-16
   2   1   1   1 -0.27292253119600D+01 -0.73649774010404D-16
   3   1   1   1 -0.27292253240334D+01 -0.70989431206006D-15
   1   2   1   1  0.14598797835842D+01 -0.34472145965446D-15
   2   2   1   1 -0.86496707215255D-01  0.60181299549338D-16
   3   2   1   1 -0.86496711188704D-01 -0.22856608875793D-15
   1   1   2   1 -0.27292253119600D+01  0.22158745846894D-15
   2   1   2   1 -0.54584505978330D+01  0.39340512719654D-16
   3   1   2   1 -0.27292252974805D+01 -0.31870604749958D-16
   1   2   2   1 -0.86496702613009D-01 -0.24505078417643D-15
   2   2   2   1 -0.17299340636596D+00 -0.10079394100871D-15
   3   2   2   1 -0.86496703394236D-01  0.73345156398585D-16
   1   1   3   1 -0.27292253240334D+01  0.38339932779488D-15
   2   1   3   1 -0.27292252974805D+01 -0.18207729691141D-17
   3   1   3   1 -0.54584505978587D+01  0.71026143400406D-16
   1   2   3   1 -0.86496708900659D-01  0.19664444754843D-15
   2   2   3   1 -0.86496702926973D-01 -0.21415875002659D-15
   3   2   3   1 -0.17299340447072D+00 -0.61096921424012D-16
   1   1   1   2  0.14598797835842D+01 -0.23825280023764D-15
   2   1   1   2 -0.86496702613009D-01  0.13106442999111D-15
   3   1   1   2 -0.86496708900659D-01 -0.43778781649571D-16
   1   2   1   2 -0.14018557202758D+02 -0.31651601503250D-15
   2   2   1   2 -0.27292252826337D+01  0.11645123378946D-15
   3   2   1   2 -0.27292252984750D+01  0.99274899404357D-16
   1   1   2   2 -0.86496707215254D-01 -0.41748567718089D-15
   2   1   2   2 -0.17299340636596D+00  0.17012773829569D-16
   3   1   2   2 -0.86496702926972D-01  0.51872593609393D-16
   1   2   2   2 -0.27292252826337D+01 -0.28756919691777D-15
   2   2   2   2 -0.54584505615792D+01 -0.73506714167933D-16
   3   2   2   2 -0.27292252799415D+01  0.30907052714628D-16
   1   1   3   2 -0.86496711188705D-01  0.22532059080912D-15
   2   1   3   2 -0.86496703394236D-01 -0.37736039506970D-17
   3   1   3   2 -0.17299340447072D+00 -0.48017100587502D-16
   1   2   3   2 -0.27292252984750D+01 -0.15957864088191D-15
   2   2   3   2 -0.27292252799415D+01 -0.76990831396396D-16
   3   2   3   2 -0.54584505642899D+01  0.12268301557818D-15
 Band:  3
   1   1   1   1 -0.22761890606179D+02  0.18559346325932D-15
   2   1   1   1 -0.23130273208814D+02  0.36034103505807D-15
   3   1   1   1 -0.19383420208420D+02  0.74837451739143D-15
   1   2   1   1  0.15042094448456D+01  0.58290596670984D-15
   2   2   1   1 -0.93638443587651D-01  0.32172866040121D-15
   3   2   1   1  0.57945013717187D+00 -0.13054567209227D-14
   1   1   2   1 -0.23130273208814D+02 -0.42767235466243D-15
   2   1   2   1 -0.40633771670053D+02 -0.46067306128369D-16
   3   1   2   1 -0.28192088812176D+02  0.12412239605355D-14
   1   2   2   1 -0.93638440890709D-01  0.70648417043337D-15
   2   2   2   1 -0.14582831255100D+01  0.45190571665956D-15
   3   2   2   1 -0.10029741100745D+01  0.34867085182223D-14
   1   1   3   1 -0.19383420208420D+02 -0.46456464697480D-15
   2   1   3   1 -0.28192088812176D+02 -0.16381076596124D-14
   3   1   3   1 -0.28975020891301D+02  0.48429304909297D-15
   1   2   3   1  0.57945013921770D+00  0.13559951834854D-14
   2   2   3   1 -0.10029741148902D+01  0.56179090059550D-15
   3   2   3   1 -0.10529412965474D+01  0.69011060146470D-15
   1   1   1   2  0.15042094448456D+01 -0.64190048509063D-15
   2   1   1   2 -0.93638440890707D-01 -0.75684144333156D-15
   3   1   1   2  0.57945013921771D+00 -0.18561045866305D-14
   1   2   1   2 -0.22761890558086D+02 -0.99269801148126D-16
   2   2   1   2 -0.23130273148495D+02  0.60091796014063D-15
   3   2   1   2 -0.19383420151417D+02 -0.19163097814524D-14
   1   1   2   2 -0.93638443587652D-01 -0.28529057233326D-17
   2   1   2   2 -0.14582831255100D+01 -0.51304279542086D-15
   3   1   2   2 -0.10029741148902D+01 -0.11254581824466D-14
   1   2   2   2 -0.23130273148495D+02 -0.10542881306918D-14
   2   2   2   2 -0.40633771531517D+02 -0.90796347153181D-15
   3   2   2   2 -0.28192088712535D+02 -0.17013942393153D-14
   1   1   3   2  0.57945013717187D+00  0.12306645118501D-14
   2   1   3   2 -0.10029741100745D+01 -0.16870071148653D-14
   3   1   3   2 -0.10529412965474D+01 -0.91144091596487D-15
   1   2   3   2 -0.19383420151417D+02  0.92976996314036D-15
   2   2   3   2 -0.28192088712535D+02  0.22122077392429D-14
   3   2   3   2 -0.28975020790412D+02  0.46141774016530D-15
 Band:  4
   1   1   1   1 -0.12482814924948D+02 -0.54043890757635D-16
   2   1   1   1 -0.44808434151666D+01 -0.25012185302637D-15
   3   1   1   1 -0.82276964011158D+01 -0.41451806194378D-15
   1   2   1   1 -0.81770189004478D+00 -0.24805566085378D-15
   2   2   1   1 -0.91188095686059D+00 -0.93983949458982D-15
   3   2   1   1 -0.15849695267115D+01 -0.18865370964263D-15
   1   1   2   1 -0.44808434151666D+01  0.25642639081774D-15
   2   1   2   1 -0.14588461554736D+02  0.98441100733816D-16
   3   1   2   1  0.58097217284087D+00 -0.15603714461030D-14
   1   2   2   1 -0.91188096236965D+00  0.40881796446959D-15
   2   2   2   1 -0.55275567645517D+00 -0.24204513674281D-15
   3   2   2   1 -0.25452992548014D-02  0.82037655707801D-15
   1   1   3   1 -0.82276964011158D+01  0.71468203330636D-16
   2   1   3   1  0.58097217284087D+00  0.12129532833133D-14
   3   1   3   1 -0.26247212256603D+02 -0.11446393908676D-15
   1   2   3   1 -0.15849695291792D+01  0.28323999650289D-15
   2   2   3   1 -0.25452947321210D-02  0.59452012800332D-15
   3   2   3   1 -0.95809748231171D+00  0.96684481959451D-15
   1   1   1   2 -0.81770189004478D+00 -0.21313665351940D-15
   2   1   1   2 -0.91188096236965D+00 -0.31599862449370D-15
   3   1   1   2 -0.15849695291792D+01 -0.60754380542592D-15
   1   2   1   2 -0.12482814925155D+02  0.57592004885535D-16
   2   2   1   2 -0.44808434162554D+01 -0.52762135726121D-15
   3   2   1   2 -0.82276963913809D+01  0.11455416137545D-14
   1   1   2   2 -0.91188095686059D+00  0.15198127313266D-16
   2   1   2   2 -0.55275567645517D+00 -0.36211157143957D-15
   3   1   2   2 -0.25452947321216D-02 -0.49703216187898D-15
   1   2   2   2 -0.44808434162554D+01  0.57850134319731D-15
   2   2   2   2 -0.14588461559656D+02 -0.11757945704794D-14
   3   2   2   2  0.58097218375522D+00  0.20485629534763D-14
   1   1   3   2 -0.15849695267115D+01 -0.81590045941788D-15
   2   1   3   2 -0.25452992548010D-02 -0.74044350571728D-15
   3   1   3   2 -0.95809748231171D+00 -0.19897968513318D-14
   1   2   3   2 -0.82276963913809D+01 -0.55324781730490D-15
   2   2   3   2  0.58097218375521D+00 -0.21442592412123D-14
   3   2   3   2 -0.26247212240964D+02  0.17120008819242D-14
 Band:  5
   1   1   1   1 -0.11400220159945D+02  0.90283351545641D-17
   2   1   1   1 -0.21265733174758D+01 -0.21388115530697D-14
   3   1   1   1 -0.10058925009637D+02  0.95388461811209D-14
   1   2   1   1  0.77428156562239D+00 -0.88383000806394D-15
   2   2   1   1 -0.62185319334154D+00  0.20619836463187D-14
   3   2   1   1  0.28084486071958D+01 -0.10097340797612D-13
   1   1   2   1 -0.21265733174758D+01  0.19866404376096D-14
   2   1   2   1 -0.11976553631015D+02 -0.15332740028142D-15
   3   1   2   1  0.53788522164928D+01 -0.42023095258191D-14
   1   2   2   1 -0.62185319587012D+00 -0.21819735095760D-14
   2   2   2   1  0.12130777109148D+01  0.87427810582603D-15
   3   2   2   1 -0.38675576576061D+01  0.16737828962178D-14
   1   1   3   1 -0.10058925009637D+02 -0.97596681702799D-14
   2   1   3   1  0.53788522164928D+01  0.34784317236190D-14
   3   1   3   1 -0.36003990284106D+02  0.15283846336303D-15
   1   2   3   1  0.28084486024305D+01  0.64311456998653D-14
   2   2   3   1 -0.38675576456877D+01 -0.51879632175896D-14
   3   2   3   1  0.10670182127698D+02 -0.25285014842548D-14
   1   1   1   2  0.77428156562239D+00  0.44087975429213D-15
   2   1   1   2 -0.62185319587012D+00  0.21298716025193D-14
   3   1   1   2  0.28084486024305D+01 -0.74046406639959D-14
   1   2   1   2 -0.11400220130543D+02 -0.18242875814264D-15
   2   2   1   2 -0.21265733240104D+01 -0.15225911483633D-14
   3   2   1   2 -0.10058924980407D+02  0.82825493469470D-14
   1   1   2   2 -0.62185319334154D+00 -0.21057422361085D-14
   2   1   2   2  0.12130777109148D+01 -0.55853372406693D-15
   3   1   2   2 -0.38675576456877D+01  0.54786611663001D-14
   1   2   2   2 -0.21265733240104D+01  0.20331713334895D-14
   2   2   2   2 -0.11976553616978D+02  0.32956523317447D-15
   3   2   2   2  0.53788521763714D+01 -0.90330838938116D-14
   1   1   3   2  0.28084486071958D+01  0.93686243029368D-14
   2   1   3   2 -0.38675576576061D+01 -0.28148847656260D-14
   3   1   3   2  0.10670182127698D+02  0.33160842097174D-14
   1   2   3   2 -0.10058924980407D+02 -0.81691150536406D-14
   2   2   3   2  0.53788521763714D+01  0.92828375847841D-14
   3   2   3   2 -0.36003990219122D+02  0.31448255624557D-15
 Band:  6
   1   1   1   1 -0.27139888256854D+02 -0.10825537394373D-14
   2   1   1   1 -0.33446311989183D+02  0.40397157571930D-14
   3   1   1   1 -0.25513960696911D+02 -0.63154257134336D-14
   1   2   1   1  0.57809641331037D+01  0.45118493510571D-14
   2   2   1   1  0.11122352800832D+02  0.30969341516126D-14
   3   2   1   1  0.76920513129656D+01  0.31517712034230D-14
   1   1   2   1 -0.33446311989183D+02 -0.59924290293854D-14
   2   1   2   1 -0.59169217053355D+02 -0.47845974931295D-15
   3   1   2   1 -0.40951737050410D+02 -0.15135841407929D-13
   1   2   2   1  0.11122352792267D+02  0.12147798808135D-13
   2   2   2   1  0.19787921700291D+02  0.94834764323772D-14
   3   2   2   1  0.14368056893664D+02  0.86208821103043D-14
   1   1   3   1 -0.25513960696911D+02  0.56415928072698D-14
   2   1   3   1 -0.40951737050410D+02  0.15833105905126D-13
   3   1   3   1 -0.35141781336597D+02  0.65445807331922D-15
   1   2   3   1  0.76920513011362D+01  0.11942605909262D-14
   2   2   3   1  0.14368056893110D+02 -0.47662950919682D-14
   3   2   3   1  0.10330818085902D+02 -0.32854591941006D-14
   1   1   1   2  0.57809641331037D+01 -0.48425206808581D-14
   2   1   1   2  0.11122352792267D+02 -0.13549246915902D-13
   3   1   1   2  0.76920513011362D+01  0.33518178453416D-15
   1   2   1   2 -0.27139888180655D+02 -0.62033688788959D-15
   2   2   1   2 -0.33446311887919D+02  0.64069519442322D-14
   3   2   1   2 -0.25513960638316D+02  0.52045679982766D-14
   1   1   2   2  0.11122352800832D+02 -0.50850028754363D-14
   2   1   2   2  0.19787921700291D+02 -0.12985978970000D-13
   3   1   2   2  0.14368056893110D+02  0.49460996096240D-14
   1   2   2   2 -0.33446311887919D+02 -0.58243447061440D-14
   2   2   2   2 -0.59169216924013D+02  0.24288227318617D-15
   3   2   2   2 -0.40951736957114D+02  0.22771859638144D-14
   1   1   3   2  0.76920513129656D+01 -0.27695717348376D-14
   2   1   3   2  0.14368056893664D+02 -0.96056366967247D-14
   3   1   3   2  0.10330818085902D+02  0.44277917440473D-14
   1   2   3   2 -0.25513960638315D+02 -0.51206251652843D-14
   2   2   3   2 -0.40951736957114D+02 -0.19381252446925D-14
   3   2   3   2 -0.35141781279304D+02 -0.50574833369829D-15
 Band:  7
   1   1   1   1  0.32937389635129D+01 -0.36554620303476D-15
   2   1   1   1  0.94772544389034D+01 -0.37325391768749D-14
   3   1   1   1  0.94772548052569D+01 -0.11447496537021D-14
   1   2   1   1 -0.72215837390318D+01  0.88019690795590D-15
   2   2   1   1 -0.10011131346963D+02 -0.27722382743712D-14
   3   2   1   1 -0.10011131675882D+02 -0.27017312100798D-14
   1   1   2   1  0.94772544389034D+01  0.45026720014553D-14
   2   1   2   1  0.18954509045017D+02 -0.48628024420259D-16
   3   1   2   1  0.94772540376815D+01  0.32356652381621D-14
   1   2   2   1 -0.10011131354196D+02 -0.12048508217894D-14
   2   2   2   1 -0.20022262908358D+02 -0.11440457157287D-13
   3   2   2   1 -0.10011130984059D+02 -0.27320374343122D-14
   1   1   3   1  0.94772548052569D+01  0.74040444951588D-15
   2   1   3   1  0.94772540376815D+01 -0.30579050452814D-14
   3   1   3   1  0.18954509895985D+02  0.17955021562584D-15
   1   2   3   1 -0.10011131670508D+02  0.15106096060705D-14
   2   2   3   1 -0.10011130987420D+02 -0.61041279707491D-14
   3   2   3   1 -0.20022263761469D+02 -0.60436337996486D-14
   1   1   1   2 -0.72215837390318D+01 -0.96085368631839D-15
   2   1   1   2 -0.10011131354196D+02  0.13839038998669D-14
   3   1   1   2 -0.10011131670508D+02 -0.16108594275939D-14
   1   2   1   2  0.32937388991927D+01  0.47810214652689D-15
   2   2   1   2  0.94772543704008D+01  0.45212766831950D-14
   3   2   1   2  0.94772547288840D+01  0.16942763752230D-14
   1   1   2   2 -0.10011131346963D+02  0.26037312817480D-14
   2   1   2   2 -0.20022262908358D+02  0.11533481588913D-13
   3   1   2   2 -0.10011130987420D+02  0.59806578486391D-14
   1   2   2   2  0.94772543704008D+01 -0.45021566926177D-14
   2   2   2   2  0.18954508886936D+02 -0.25141397030957D-16
   3   2   2   2  0.94772539625244D+01 -0.55430259009474D-14
   1   1   3   2 -0.10011131675882D+02  0.20996649984753D-14
   2   1   3   2 -0.10011130984059D+02  0.31948810540294D-14
   3   1   3   2 -0.20022263761469D+02  0.56437120992200D-14
   1   2   3   2  0.94772547288840D+01 -0.14767684516161D-14
   2   2   3   2  0.94772539625244D+01  0.51281144832981D-14
   3   2   3   2  0.18954509761828D+02 -0.15741772000474D-15
 Band:  8
   1   1   1   1 -0.32587408913581D+02  0.46599387804399D-15
   2   1   1   1 -0.58541329592167D+01  0.15281948882461D-14
   3   1   1   1 -0.58541330037476D+01  0.20951990113645D-15
   1   2   1   1  0.45115021251793D+00  0.16775979532330D-14
   2   2   1   1  0.73736715909444D+00 -0.80068951873890D-15
   3   2   1   1  0.73736716083670D+00  0.38607268427519D-15
   1   1   2   1 -0.58541329592167D+01 -0.11323197478132D-14
   2   1   2   1 -0.11708266122326D+02  0.81195816100297D-19
   3   1   2   1 -0.58541330709232D+01  0.53662815090926D-16
   1   2   2   1  0.73736715941972D+00 -0.25707591289463D-15
   2   2   2   1  0.14747343158336D+01 -0.13532701983956D-14
   3   2   2   1  0.73736715686599D+00 -0.99285986077716D-17
   1   1   3   1 -0.58541330037476D+01  0.98576717761743D-16
   2   1   3   1 -0.58541330709232D+01  0.20189006347060D-15
   3   1   3   1 -0.11708266124571D+02  0.18572386652537D-15
   1   2   3   1  0.73736716056253D+00  0.22854559961687D-15
   2   2   3   1  0.73736715602443D+00 -0.15379702824806D-16
   3   2   3   1  0.14747343205733D+01  0.52742369419419D-17
   1   1   1   2  0.45115021251793D+00 -0.94240540675736D-15
   2   1   1   2  0.73736715941972D+00  0.59530240702816D-15
   3   1   1   2  0.73736716056253D+00 -0.31505275210842D-14
   1   2   1   2 -0.32587410811301D+02 -0.33948191671518D-15
   2   2   1   2 -0.58541334552914D+01 -0.27713786330909D-15
   3   2   1   2 -0.58541334061543D+01  0.88411923262258D-15
   1   1   2   2  0.73736715909444D+00 -0.25885797925859D-15
   2   1   2   2  0.14747343158336D+01  0.73653478451708D-15
   3   1   2   2  0.73736715602443D+00  0.21522766521162D-15
   1   2   2   2 -0.58541334552914D+01  0.68214194863451D-15
   2   2   2   2 -0.11708266692234D+02  0.41796692778511D-15
   3   2   2   2 -0.58541333427055D+01  0.42514612643839D-15
   1   1   3   2  0.73736716083669D+00  0.35994967298520D-16
   2   1   3   2  0.73736715686599D+00  0.61867588754624D-15
   3   1   3   2  0.14747343205733D+01 -0.12431348265916D-15
   1   2   3   2 -0.58541334061543D+01 -0.11656662553523D-14
   2   2   3   2 -0.58541333427055D+01  0.21373374258233D-15
   3   2   3   2 -0.11708266676580D+02  0.47742455851224D-15
 K-point:  0.00000000E+00  5.00000000E-01  0.00000000E+00
 Band:  1
   1   1   1   1 -0.36118886900494D+01  0.34059983714330D-16
   2   1   1   1 -0.18059443495235D+01 -0.14013614023613D-15
   3   1   1   1 -0.18059443479706D+01  0.37684075453049D-16
   1   2   1   1  0.15044375313998D+01  0.13946520199135D-15
   2   2   1   1  0.75221877136917D+00 -0.35657012993897D-15
   3   2   1   1  0.75221877016904D+00  0.24387297693690D-17
   1   1   2   1 -0.18059443495235D+01  0.11522174725457D-15
   2   1   2   1 -0.45692770132091D+01 -0.80177946832352D-16
   3   1   2   1 -0.18059443500338D+01 -0.56623861638061D-16
   1   2   2   1  0.75221876902054D+00  0.17025871117348D-15
   2   2   2   1  0.12337347701817D+00 -0.50544960815022D-15
   3   2   2   1  0.75221877129657D+00  0.28275199662919D-16
   1   1   3   1 -0.18059443479706D+01 -0.62613560613280D-16
   2   1   3   1 -0.18059443500338D+01 -0.77311966428468D-16
   3   1   3   1 -0.36118886867785D+01  0.55504933595983D-16
   1   2   3   1  0.75221877033225D+00  0.17171598364118D-15
   2   2   3   1  0.75221876971349D+00 -0.58302711868283D-16
   3   2   3   1  0.15044375275784D+01 -0.20069571947071D-15
   1   1   1   2  0.15044375313998D+01 -0.97296164004049D-16
   2   1   1   2  0.75221876902054D+00 -0.15745772933000D-15
   3   1   1   2  0.75221877033225D+00 -0.14296209677446D-15
   1   2   1   2 -0.36118886954219D+01 -0.43593109133096D-16
   2   2   1   2 -0.18059443538005D+01  0.48563156399402D-15
   3   2   1   2 -0.18059443516955D+01  0.32194822281295D-16
   1   1   2   2  0.75221877136917D+00  0.31775737866802D-15
   2   1   2   2  0.12337347701817D+00  0.35894516934714D-15
   3   1   2   2  0.75221876971349D+00  0.39392664188060D-16
   1   2   2   2 -0.18059443538005D+01 -0.54551784001994D-15
   2   2   2   2 -0.45692770418369D+01 -0.12375382949425D-16
   3   2   2   2 -0.18059443546178D+01 -0.34583547933130D-15
   1   1   3   2  0.75221877016904D+00  0.37797967312173D-16
   2   1   3   2  0.75221877129657D+00 -0.46420258165583D-16
   3   1   3   2  0.15044375275784D+01  0.15199081508455D-15
   1   2   3   2 -0.18059443516955D+01 -0.56755146340618D-16
   2   2   3   2 -0.18059443546178D+01  0.25579267666992D-15
   3   2   3   2 -0.36118886955757D+01  0.32955426011128D-16
 Band:  2
   1   1   1   1 -0.54584505648606D+01  0.10228082516909D-16
   2   1   1   1 -0.27292252898358D+01  0.26716550423288D-15
   3   1   1   1 -0.27292252821940D+01  0.60540946843447D-16
   1   2   1   1 -0.17299340575308D+00 -0.27514002339562D-15
   2   2   1   1 -0.86496707127832D-01  0.18641743988736D-15
   3   2   1   1 -0.86496703170231D-01  0.11522154669198D-15
   1   1   2   1 -0.27292252898358D+01 -0.30296080027864D-15
   2   1   2   1 -0.14018557210535D+02 -0.50591024643048D-16
   3   1   2   1 -0.27292253042175D+01  0.65660279787606D-16
   1   2   2   1 -0.86496706404924D-01 -0.78226248902751D-15
   2   2   2   1  0.14598797839021D+01  0.10374182632336D-16
   3   2   2   1 -0.86496710034239D-01  0.80959230087018D-16
   1   1   3   1 -0.27292252821940D+01 -0.12689113050013D-15
   2   1   3   1 -0.27292253042175D+01 -0.19348272434640D-15
   3   1   3   1 -0.54584505665588D+01  0.14041372091870D-15
   1   2   3   1 -0.86496703029486D-01  0.97606114436556D-17
   2   2   3   1 -0.86496709158482D-01  0.15540076236328D-15
   3   2   3   1 -0.17299340372975D+00  0.23917391824797D-15
   1   1   1   2 -0.17299340575308D+00  0.29509156546925D-15
   2   1   1   2 -0.86496706404923D-01  0.15184548651112D-15
   3   1   1   2 -0.86496703029486D-01 -0.93201490317385D-16
   1   2   1   2 -0.54584505809936D+01  0.68839650808069D-16
   2   2   1   2 -0.27292252962050D+01  0.16691706931459D-16
   3   2   1   2 -0.27292252896144D+01  0.14115772518003D-15
   1   1   2   2 -0.86496707127832D-01 -0.38233036525364D-15
   2   1   2   2  0.14598797839021D+01  0.28998848495194D-15
   3   1   2   2 -0.86496709158482D-01 -0.23483703267358D-15
   1   2   2   2 -0.27292252962050D+01 -0.71007858211436D-16
   2   2   2   2 -0.14018557240811D+02 -0.57566948230132D-15
   3   2   2   2 -0.27292253089223D+01 -0.10574966372973D-14
   1   1   3   2 -0.86496703170231D-01 -0.34994885660367D-16
   2   1   3   2 -0.86496710034239D-01 -0.24395307454314D-15
   3   1   3   2 -0.17299340372975D+00 -0.22379888556820D-15
   1   2   3   2 -0.27292252896144D+01 -0.67696259577823D-17
   2   2   3   2 -0.27292253089223D+01  0.56026805627942D-15
   3   2   3   2 -0.54584505813025D+01  0.65800579521199D-17
 Band:  3
   1   1   1   1 -0.38729943696143D+02 -0.50139298409754D-15
   2   1   1   1 -0.22874168678689D+02  0.39081475242724D-15
   3   1   1   1 -0.29187877198569D+02  0.18373059400015D-14
   1   2   1   1 -0.13920951538697D+01 -0.19604946977410D-14
   2   2   1   1  0.96629439181306D-01 -0.17185731128664D-15
   3   2   1   1 -0.10376018538754D+01 -0.10641661759745D-14
   1   1   2   1 -0.22874168678689D+02 -0.37030163765082D-15
   2   1   2   1 -0.23117632397573D+02  0.64337008923434D-16
   3   1   2   1 -0.20671031668446D+02  0.17859181782203D-14
   1   2   2   1  0.96629441490902D-01 -0.71742436100818D-18
   2   2   2   1  0.15845656931228D+01  0.92031891838724D-15
   3   2   2   1  0.49240280750510D+00 -0.82401510675700D-15
   1   1   3   1 -0.29187877198569D+02 -0.27914908349839D-14
   2   1   3   1 -0.20671031668446D+02 -0.18946725169768D-14
   3   1   3   1 -0.31874637350373D+02 -0.19201749456915D-15
   1   2   3   1 -0.10376018537496D+01 -0.14421102377363D-14
   2   2   3   1  0.49240280313358D+00  0.62660206276346D-15
   3   2   3   1 -0.11537567425220D+01  0.13601998437928D-15
   1   1   1   2 -0.13920951538697D+01 -0.99246051579574D-16
   2   1   1   2  0.96629441490902D-01 -0.82105538583129D-17
   3   1   1   2 -0.10376018537496D+01  0.21186055432766D-14
   1   2   1   2 -0.38729943722060D+02  0.30248413547023D-15
   2   2   1   2 -0.22874168701767D+02 -0.30659011228808D-14
   3   2   1   2 -0.29187877229479D+02  0.32668197480017D-14
   1   1   2   2  0.96629439181306D-01 -0.13990532212529D-14
   2   1   2   2  0.15845656931228D+01  0.23620897026987D-15
   3   1   2   2  0.49240280313358D+00 -0.24786386478057D-15
   1   2   2   2 -0.22874168701767D+02  0.18093268012020D-14
   2   2   2   2 -0.23117632421004D+02 -0.15530393545345D-14
   3   2   2   2 -0.20671031698772D+02  0.14748661618822D-14
   1   1   3   2 -0.10376018538754D+01 -0.36655138150689D-15
   2   1   3   2  0.49240280750510D+00  0.85034527174856D-15
   3   1   3   2 -0.11537567425220D+01  0.78854713607153D-15
   1   2   3   2 -0.29187877229479D+02 -0.27466086632747D-14
   2   2   3   2 -0.20671031698772D+02 -0.35679419982877D-15
   3   2   3   2 -0.31874637394296D+02  0.14868704344588D-14
 Band:  4
   1   1   1   1 -0.16492289366630D+02  0.26253216161373D-15
   2   1   1   1 -0.47369478569448D+01  0.69018829458295D-17
   3   1   1   1  0.15767606594521D+01  0.11893758909134D-14
   1   2   1   1 -0.61894364364267D+00 -0.33243575644455D-15
   2   2   1   1 -0.11021488346978D+01 -0.17286724458712D-15
   3   2   1   1  0.32082446696661D-01  0.40518454855657D-15
   1   1   2   1 -0.47369478569448D+01  0.25111272245093D-15
   2   1   2   1 -0.12127073045200D+02 -0.12797252524375D-15
   3   1   2   1 -0.69400848510101D+01 -0.33424274667563D-15
   1   2   2   1 -0.11021488376300D+01 -0.88481020412496D-15
   2   2   2   1 -0.89805813527883D+00 -0.40138496057848D-15
   3   2   2   1 -0.14979221943259D+01  0.98584950309422D-15
   1   1   3   1  0.15767606594521D+01 -0.12738043413575D-14
   2   1   3   1 -0.69400848510101D+01  0.14349658712935D-15
   3   1   3   1 -0.23347595660025D+02  0.14927655038709D-15
   1   2   3   1  0.32082446310380D-01 -0.25480311430514D-15
   2   2   3   1 -0.14979221889825D+01  0.36197559981528D-15
   3   2   3   1 -0.85728203662781D+00  0.21005544076254D-14
   1   1   1   2 -0.61894364364267D+00  0.25090889443628D-15
   2   1   1   2 -0.11021488376300D+01  0.37880541825069D-15
   3   1   1   2  0.32082446310379D-01  0.82073710946161D-15
   1   2   1   2 -0.16492289391358D+02  0.81752622627030D-16
   2   2   1   2 -0.47369478548568D+01  0.36907256452846D-15
   3   2   1   2  0.15767606604212D+01  0.58501365388642D-15
   1   1   2   2 -0.11021488346978D+01 -0.10579152090213D-15
   2   1   2   2 -0.89805813527883D+00  0.36125000274279D-15
   3   1   2   2 -0.14979221889825D+01 -0.50404256368425D-15
   1   2   2   2 -0.47369478548568D+01 -0.19909676254558D-15
   2   2   2   2 -0.12127073059717D+02  0.20342524890697D-15
   3   2   2   2 -0.69400848731394D+01 -0.19318235701786D-15
   1   1   3   2  0.32082446696661D-01 -0.42734018631118D-15
   2   1   3   2 -0.14979221943259D+01 -0.43556530566563D-15
   3   1   3   2 -0.85728203662781D+00 -0.30188437041497D-14
   1   2   3   2  0.15767606604212D+01  0.22694972674249D-15
   2   2   3   2 -0.69400848731394D+01  0.25033537017182D-15
   3   2   3   2 -0.23347595711630D+02 -0.18408242861480D-14
 Band:  5
   1   1   1   1 -0.14248022291962D+02 -0.19607990624381D-15
   2   1   1   1 -0.22511066916955D+01 -0.59370261313763D-15
   3   1   1   1  0.72196414376823D+01  0.15547016759889D-14
   1   2   1   1  0.21071162655843D+01  0.34505538573863D-14
   2   2   1   1 -0.49649216237484D+00  0.50346318394026D-15
   3   2   1   1 -0.45920949467034D+01  0.35930034216417D-14
   1   1   2   1 -0.22511066916955D+01  0.17352324812121D-15
   2   1   2   1 -0.10774857394325D+02 -0.27249246973947D-15
   3   1   2   1 -0.80759532378278D+01 -0.17371547599972D-14
   1   2   2   1 -0.49649216576940D+00 -0.20086577647274D-14
   2   2   2   1  0.57535507398816D+00  0.11634085403509D-16
   3   2   2   1  0.20224295542958D+01 -0.22754246324171D-15
   1   1   3   1  0.72196414376823D+01 -0.14999967721516D-14
   2   1   3   1 -0.80759532378278D+01  0.22116525284443D-14
   3   1   3   1 -0.31891734546590D+02  0.33149679908096D-15
   1   2   3   1 -0.45920949497938D+01 -0.57827839997065D-14
   2   2   3   1  0.20224295504488D+01 -0.48231285114612D-15
   3   2   3   1  0.90516084563554D+01 -0.74715467583014D-14
   1   1   1   2  0.21071162655843D+01 -0.36470222557648D-14
   2   1   1   2 -0.49649216576940D+00  0.20477582630576D-14
   3   1   1   2 -0.45920949497938D+01  0.55153061725812D-14
   1   2   1   2 -0.14248022277442D+02  0.15158127657644D-15
   2   2   1   2 -0.22511066818259D+01 -0.12723104533977D-14
   3   2   1   2  0.72196414940313D+01 -0.13694864833927D-13
   1   1   2   2 -0.49649216237483D+00  0.18844420641079D-16
   2   1   2   2  0.57535507398816D+00  0.47767658940578D-15
   3   1   2   2  0.20224295504488D+01  0.19660654394934D-15
   1   2   2   2 -0.22511066818259D+01  0.13939527194772D-14
   2   2   2   2 -0.10774857382612D+02  0.93438583079009D-16
   3   2   2   2 -0.80759532222398D+01  0.19288561546716D-14
   1   1   3   2 -0.45920949467034D+01 -0.31271688058720D-14
   2   1   3   2  0.20224295542958D+01  0.29447507131509D-15
   3   1   3   2  0.90516084563554D+01  0.66251424750655D-14
   1   2   3   2  0.72196414940313D+01  0.13661462093645D-13
   2   2   3   2 -0.80759532222398D+01 -0.15334816616037D-14
   3   2   3   2 -0.31891734584614D+02 -0.66739227393790D-17
 Band:  6
   1   1   1   1 -0.56897748383646D+02 -0.86263272685816D-15
   2   1   1   1 -0.33321778555686D+02 -0.26324251249971D-14
   3   1   1   1 -0.42792526121427D+02  0.22105799060802D-13
   1   2   1   1  0.18893883198334D+02 -0.16720806314754D-15
   2   2   1   1  0.10996991754454D+02 -0.20544155532383D-14
   3   2   1   1  0.15092594083855D+02  0.17882472793579D-14
   1   1   2   1 -0.33321778555686D+02  0.22631000898138D-14
   2   1   2   1 -0.27765250957877D+02  0.23487272646636D-15
   3   1   2   1 -0.27496932347717D+02  0.14897148834626D-13
   1   2   2   1  0.10996991756202D+02 -0.37350788644881D-14
   2   2   2   1  0.59798905881727D+01 -0.30738873244283D-14
   3   2   2   1  0.84780702572091D+01 -0.14742791023409D-14
   1   1   3   1 -0.42792526121427D+02 -0.22754715318810D-13
   2   1   3   1 -0.27496932347717D+02 -0.14253086508158D-13
   3   1   3   1 -0.39254036800453D+02  0.50565323766641D-15
   1   2   3   1  0.15092594088274D+02  0.15811871497991D-13
   2   2   3   1  0.84780702572501D+01  0.81691332696584D-14
   3   2   3   1  0.11949391559987D+02  0.13918891904730D-13
   1   1   1   2  0.18893883198334D+02 -0.14130179632835D-14
   2   1   1   2  0.10996991756202D+02  0.50942479743504D-14
   3   1   1   2  0.15092594088274D+02 -0.16420527151017D-13
   1   2   1   2 -0.56897748531269D+02 -0.53270456356773D-15
   2   2   1   2 -0.33321778628616D+02  0.83652123876633D-16
   3   2   1   2 -0.42792526236723D+02 -0.67434136201980D-14
   1   1   2   2  0.10996991754454D+02  0.12927229487533D-14
   2   1   2   2  0.59798905881727D+01  0.35358527043151D-14
   3   1   2   2  0.84780702572501D+01 -0.66988576384456D-14
   1   2   2   2 -0.33321778628616D+02  0.29889194370407D-15
   2   2   2   2 -0.27765250988184D+02  0.31825984796698D-15
   3   2   2   2 -0.27496932393153D+02 -0.39365008680032D-14
   1   1   3   2  0.15092594083855D+02 -0.35805003375200D-14
   2   1   3   2  0.84780702572091D+01  0.25640025029203D-14
   3   1   3   2  0.11949391559987D+02 -0.13260008343735D-13
   1   2   3   2 -0.42792526236723D+02  0.58777883608688D-14
   2   2   3   2 -0.27496932393153D+02  0.49505826131478D-14
   3   2   3   2 -0.39254036871301D+02  0.84149320622926D-15
 Band:  7
   1   1   1   1  0.18954508929435D+02 -0.10117155631296D-15
   2   1   1   1  0.94772543601131D+01 -0.23273016444231D-14
   3   1   1   1  0.94772538354840D+01 -0.18794501798654D-14
   1   2   1   1 -0.20022263005829D+02 -0.23979052509623D-14
   2   2   1   1 -0.10011131354161D+02  0.43156752210463D-15
   3   2   1   1 -0.10011130893634D+02  0.20534026097792D-14
   1   1   2   1  0.94772543601131D+01  0.20548273577914D-14
   2   1   2   1  0.32937388723987D+01 -0.55890541697976D-15
   3   1   2   1  0.94772546158214D+01 -0.13571208052802D-14
   1   2   2   1 -0.10011131358463D+02 -0.21894419950872D-14
   2   2   2   1 -0.72215837128488D+01  0.10621991241130D-14
   3   2   2   1 -0.10011131585120D+02 -0.68848697216873D-15
   1   1   3   1  0.94772538354840D+01  0.17790998378647D-14
   2   1   3   1  0.94772546158214D+01  0.91733097482354D-15
   3   1   3   1  0.18954509526765D+02 -0.20686881020709D-15
   1   2   3   1 -0.10011130894982D+02 -0.70666195564999D-15
   2   2   3   1 -0.10011131584230D+02  0.32969039283150D-14
   3   2   3   1 -0.20022263586881D+02 -0.13760296655678D-14
   1   1   1   2 -0.20022263005829D+02  0.24127156079744D-14
   2   1   1   2 -0.10011131358463D+02  0.21720019567302D-14
   3   1   1   2 -0.10011130894982D+02  0.59492053675032D-15
   1   2   1   2  0.18954509173348D+02 -0.17207622779374D-15
   2   2   1   2  0.94772544779070D+01 -0.17056246338132D-14
   3   2   1   2  0.94772539547611D+01 -0.21435644945378D-14
   1   1   2   2 -0.10011131354161D+02 -0.41111339878830D-15
   2   1   2   2 -0.72215837128488D+01 -0.12731909298917D-14
   3   1   2   2 -0.10011131584230D+02 -0.34178941378595D-14
   1   2   2   2  0.94772544779070D+01  0.10463837735389D-14
   2   2   2   2  0.32937389490092D+01 -0.31814887271792D-15
   3   2   2   2  0.94772547343540D+01  0.31860109171775D-14
   1   1   3   2 -0.10011130893634D+02 -0.19492237328220D-14
   2   1   3   2 -0.10011131585120D+02 -0.39688285815821D-15
   3   1   3   2 -0.20022263586881D+02  0.93811148067355D-15
   1   2   3   2  0.94772539547611D+01  0.20361441549253D-14
   2   2   3   2  0.94772547343540D+01 -0.34817889011101D-14
   3   2   3   2  0.18954509759402D+02 -0.31280963612397D-16
 Band:  8
   1   1   1   1 -0.11708266438345D+02 -0.77963897374907D-17
   2   1   1   1 -0.58541332556795D+01  0.64000432121534D-15
   3   1   1   1 -0.58541332164699D+01 -0.28477837774109D-15
   1   2   1   1  0.14747343228382D+01  0.12508117007144D-15
   2   2   1   1  0.73736715898313D+00 -0.13779502941303D-14
   3   2   1   1  0.73736715927379D+00  0.27579794936335D-15
   1   1   2   1 -0.58541332556795D+01 -0.72790163505267D-15
   2   1   2   1 -0.32587409984842D+02  0.70613452312318D-15
   3   1   2   1 -0.58541332059061D+01  0.16599168126768D-14
   1   2   2   1  0.73736715896248D+00  0.17410988115713D-14
   2   2   2   1  0.45115020376032D+00 -0.14279239456711D-15
   3   2   2   1  0.73736715533341D+00  0.82452769060825D-15
   1   1   3   1 -0.58541332164699D+01  0.67587215063397D-16
   2   1   3   1 -0.58541332059061D+01  0.13230237121989D-16
   3   1   3   1 -0.11708266433962D+02 -0.17768389776267D-15
   1   2   3   1  0.73736715926567D+00  0.51040270544948D-15
   2   2   3   1  0.73736716056181D+00 -0.13718543095167D-15
   3   2   3   1  0.14747343242613D+01  0.57751882576027D-15
   1   1   1   2  0.14747343228382D+01 -0.26492060873322D-15
   2   1   1   2  0.73736715896249D+00  0.49783681084411D-15
   3   1   1   2  0.73736715926567D+00 -0.43162476083311D-15
   1   2   1   2 -0.11708266385428D+02  0.14652137787933D-15
   2   2   1   2 -0.58541331507336D+01  0.11071201217560D-14
   3   2   1   2 -0.58541331950247D+01  0.67782008381190D-16
   1   1   2   2  0.73736715898313D+00  0.15222905749535D-14
   2   1   2   2  0.45115020376032D+00  0.99094821173087D-15
   3   1   2   2  0.73736716056181D+00  0.11851372841036D-14
   1   2   2   2 -0.58541331507336D+01 -0.51645948087387D-15
   2   2   2   2 -0.32587409835623D+02  0.32548894826841D-15
   3   2   2   2 -0.58541332077098D+01  0.21667580598443D-15
   1   1   3   2  0.73736715927379D+00 -0.67195928104441D-15
   2   1   3   2  0.73736715533341D+00 -0.80942274956665D-15
   3   1   3   2  0.14747343242613D+01 -0.37789902620474D-15
   1   2   3   2 -0.58541331950247D+01 -0.59744351909192D-16
   2   2   3   2 -0.58541332077098D+01  0.29374291158474D-15
   3   2   3   2 -0.11708266394796D+02  0.99852412962678D-16
 K-point:  5.00000000E-01  5.00000000E-01  0.00000000E+00
 Band:  1
   1   1   1   1 -0.11227662984212D+02 -0.27370205175321D-15
   2   1   1   1 -0.87151034673715D+01 -0.98629483423834D-16
   3   1   1   1 -0.39590354949192D+01 -0.21923303362772D-15
   1   2   1   1  0.11364546942250D+01  0.51824814349879D-15
   2   2   1   1  0.13429362846671D+01 -0.41241489340685D-15
   3   2   1   1  0.21953808957754D+01  0.50874839125561D-15
   1   1   2   1 -0.87151034673715D+01  0.13050655068201D-15
   2   1   2   1 -0.11227662957537D+02  0.12866098433069D-15
   3   1   2   1 -0.39590354951361D+01 -0.31452340965399D-15
   1   2   2   1  0.13429362809176D+01  0.18916321428358D-15
   2   2   2   1  0.11364546947300D+01 -0.34332672153904D-15
   3   2   2   1  0.21953808959776D+01  0.41360440205498D-15
   1   1   3   1 -0.39590354949192D+01  0.29594175637823D-15
   2   1   3   1 -0.39590354951361D+01  0.34559428862622D-15
   3   1   3   1 -0.79180709223448D+01 -0.20496183961852D-16
   1   2   3   1  0.21953808942573D+01  0.96714254751372D-17
   2   2   3   1  0.21953808943444D+01  0.49516747914016D-17
   3   2   3   1  0.43907617739880D+01  0.31517239229933D-15
   1   1   1   2  0.11364546942250D+01 -0.22440690405829D-15
   2   1   1   2  0.13429362809176D+01 -0.39499570935352D-15
   3   1   1   2  0.21953808942573D+01 -0.64342586136125D-16
   1   2   1   2 -0.74660659974268D+01  0.68755108408275D-16
   2   2   1   2 -0.54109471821731D+01 -0.13765222132055D-15
   3   2   1   2 -0.35015948068166D+01  0.65126698054179D-15
   1   1   2   2  0.13429362846671D+01  0.12300440234660D-15
   2   1   2   2  0.11364546947300D+01 -0.16539993275184D-15
   3   1   2   2  0.21953808943444D+01  0.20761357691467D-15
   1   2   2   2 -0.54109471821732D+01  0.11077478835087D-15
   2   2   2   2 -0.74660660155164D+01 -0.21698747404883D-15
   3   2   2   2 -0.35015948064770D+01  0.79103101704689D-15
   1   1   3   2  0.21953808957754D+01 -0.35600166144540D-15
   2   1   3   2  0.21953808959776D+01  0.40743854613125D-16
   3   1   3   2  0.43907617739880D+01 -0.32361587914549D-15
   1   2   3   2 -0.35015948068166D+01 -0.45549348763922D-15
   2   2   3   2 -0.35015948064770D+01 -0.31468465392742D-15
   3   2   3   2 -0.70031895565640D+01  0.23475001223473D-16
 Band:  2
   1   1   1   1 -0.74660658191534D+01  0.39651050280397D-15
   2   1   1   1 -0.39644710380099D+01  0.15658369453181D-15
   3   1   1   1 -0.20551188202177D+01  0.53568602479516D-15
   1   2   1   1  0.11364545157235D+01 -0.94801975395606D-15
   2   2   1   1 -0.10589263732343D+01 -0.25043624358515D-15
   3   2   1   1 -0.20648158998361D+00  0.80723216073664D-16
   1   1   2   1 -0.39644710380099D+01 -0.27710044053046D-15
   2   1   2   1 -0.74660658361884D+01 -0.98099436492355D-16
   3   1   2   1 -0.20551188204778D+01  0.58581564011623D-15
   1   2   2   1 -0.10589263774698D+01  0.73970056960413D-15
   2   2   2   1  0.11364545102505D+01 -0.58053150125028D-15
   3   2   2   1 -0.20648159218424D+00  0.12769075048278D-15
   1   1   3   1 -0.20551188202177D+01 -0.14382033056617D-15
   2   1   3   1 -0.20551188204779D+01 -0.27512633307283D-15
   3   1   3   1 -0.41102376610354D+01  0.23600923392446D-16
   1   2   3   1 -0.20648158892787D+00  0.35369846709815D-16
   2   2   3   1 -0.20648158765931D+00 -0.86342844492263D-16
   3   2   3   1 -0.41296317735858D+00  0.22744732375822D-15
   1   1   1   2  0.11364545157235D+01  0.83654037452241D-15
   2   1   1   2 -0.10589263774698D+01 -0.57465211761281D-15
   3   1   1   2 -0.20648158892787D+00 -0.11210336413000D-15
   1   2   1   2 -0.11227662740063D+02 -0.48604596393281D-15
   2   2   1   2 -0.72686272833224D+01 -0.51005712646213D-16
   3   2   1   2 -0.25125594955571D+01  0.51240442295454D-15
   1   1   2   2 -0.10589263732343D+01 -0.10964977780115D-15
   2   1   2   2  0.11364545102505D+01  0.60110794290017D-15
   3   1   2   2 -0.20648158765930D+00  0.22207522743373D-15
   1   2   2   2 -0.72686272833224D+01 -0.76248410732269D-16
   2   2   2   2 -0.11227662733539D+02 -0.29338303165863D-15
   3   2   2   2 -0.25125594930627D+01  0.59366710038191D-15
   1   1   3   2 -0.20648158998361D+00 -0.13005212222982D-15
   2   1   3   2 -0.20648159218424D+00 -0.20123948277622D-15
   3   1   3   2 -0.41296317735858D+00 -0.23430967050351D-15
   1   2   3   2 -0.25125594955571D+01 -0.79582255078603D-16
   2   2   3   2 -0.25125594930627D+01 -0.26587898190377D-15
   3   2   3   2 -0.50251189914370D+01  0.62853196415102D-16
 Band:  3
   1   1   1   1 -0.19025860351484D+02 -0.33221296334057D-15
   2   1   1   1 -0.10628418629567D+02  0.32165243005762D-15
   3   1   1   1 -0.19032768808161D+02 -0.98627944136009D-15
   1   2   1   1  0.89957704733117D-02  0.50957689840152D-15
   2   2   1   1 -0.21520508523791D-02 -0.10728583415347D-14
   3   2   1   1 -0.17844939783503D+01  0.26366684947689D-14
   1   1   2   1 -0.10628418629567D+02 -0.70020390020893D-15
   2   1   2   1 -0.13614582131433D+02 -0.55065419996335D-16
   3   1   2   1 -0.13621490573751D+02 -0.19396981416020D-14
   1   2   2   1 -0.21520538261763D-02 -0.40606999653783D-15
   2   2   2   1  0.89957719860436D-02 -0.98375996983797D-15
   3   2   2   1 -0.17844939797348D+01  0.13664883598368D-14
   1   1   3   1 -0.19032768808161D+02  0.52217105222311D-15
   2   1   3   1 -0.13621490573751D+02  0.18864849219884D-14
   3   1   3   1 -0.32654259412532D+02 -0.11243728628897D-15
   1   2   3   1 -0.17844939811405D+01 -0.19235841289294D-14
   2   2   3   1 -0.17844939809722D+01 -0.27538738323421D-14
   3   2   3   1 -0.35689879302448D+01  0.61227982910094D-15
   1   1   1   2  0.89957704733108D-02  0.15660033252569D-15
   2   1   1   2 -0.21520538261759D-02  0.17906587416051D-15
   3   1   1   2 -0.17844939811405D+01  0.16160622884144D-14
   1   2   1   2 -0.13614582137081D+02  0.11981971390412D-15
   2   2   1   2 -0.10628418634771D+02 -0.24954974455097D-15
   3   2   1   2 -0.13621490585126D+02 -0.39954145248162D-14
   1   1   2   2 -0.21520508523800D-02  0.10494713214371D-14
   2   1   2   2  0.89957719860436D-02  0.47364122276403D-15
   3   1   2   2 -0.17844939809722D+01  0.24485945214269D-14
   1   2   2   2 -0.10628418634771D+02  0.44992585999524D-15
   2   2   2   2 -0.19025860367030D+02  0.23871985574384D-15
   3   2   2   2 -0.19032768826772D+02 -0.19961450842464D-14
   1   1   3   2 -0.17844939783503D+01 -0.22392996979310D-14
   2   1   3   2 -0.17844939797348D+01 -0.16519627802366D-14
   3   1   3   2 -0.35689879302448D+01 -0.12043148918872D-14
   1   2   3   2 -0.13621490585126D+02  0.38966804357425D-14
   2   2   3   2 -0.19032768826772D+02  0.14501023986689D-14
   3   2   3   2 -0.32654259440229D+02 -0.32507803895171D-15
 Band:  4
   1   1   1   1 -0.13614581894506D+02 -0.29003485476394D-15
   2   1   1   1  0.69087321336924D-02 -0.39842874458262D-15
   3   1   1   1 -0.29861634916313D+01  0.13522562784251D-15
   1   2   1   1  0.89955132691697D-02  0.76047810641781D-15
   2   2   1   1  0.17934894778155D+01  0.64753610023107D-15
   3   2   1   1  0.11147819464204D-01  0.44111083946657D-15
   1   1   2   1  0.69087321336905D-02  0.36857587681020D-15
   2   1   2   1 -0.19025860085598D+02 -0.16274541201792D-15
   3   1   2   1 -0.83974417148222D+01 -0.11679248484632D-15
   1   2   2   1  0.17934894856447D+01  0.12133237480302D-14
   2   2   2   1  0.89955172342757D-02  0.32955142158914D-15
   3   2   2   1  0.11147822440681D-01 -0.16197778309304D-15
   1   1   3   1 -0.29861634916313D+01 -0.24341323702965D-15
   2   1   3   1 -0.83974417148222D+01  0.69000043627358D-16
   3   1   3   1 -0.11383605225966D+02 -0.26019040928795D-16
   1   2   3   1  0.11147821292651D-01 -0.18082063930268D-15
   2   2   3   1  0.11147821899570D-01 -0.87086927981454D-15
   3   2   3   1  0.22295648497436D-01 -0.45127224713539D-15
   1   1   1   2  0.89955132691670D-02 -0.65159682853908D-15
   2   1   1   2  0.17934894856447D+01 -0.11106542809477D-14
   3   1   1   2  0.11147821292651D-01  0.44698401983471D-15
   1   2   1   2 -0.19025860141916D+02 -0.25439432521929D-16
   2   2   1   2  0.69087283388610D-02 -0.81211887466075D-15
   3   2   1   2 -0.83974417331900D+01  0.61217029077838D-16
   1   1   2   2  0.17934894778155D+01 -0.53646829407809D-15
   2   1   2   2  0.89955172342739D-02 -0.25332957500297D-15
   3   1   2   2  0.11147821899570D-01  0.62252223939641D-15
   1   2   2   2  0.69087283388645D-02  0.94984730117408D-15
   2   2   2   2 -0.13614581885248D+02 -0.58259909544067D-16
   3   2   2   2 -0.29861635005239D+01 -0.55331330726762D-15
   1   1   3   2  0.11147819464204D-01 -0.21270911041782D-15
   2   1   3   2  0.11147822440681D-01  0.12822916193671D-15
   3   1   3   2  0.22295648497436D-01 -0.15000194832940D-16
   1   2   3   2 -0.83974417331900D+01 -0.19177672010067D-15
   2   2   3   2 -0.29861635005239D+01  0.61642267536969D-15
   3   2   3   2 -0.11383605236661D+02 -0.42372158350588D-16
 Band:  5
   1   1   1   1 -0.65867024107284D+01  0.13527738274693D-15
   2   1   1   1 -0.50969690223671D+01  0.82068728634882D-16
   3   1   1   1 -0.42167177154863D+01 -0.28251594705745D-14
   1   2   1   1  0.22394881624626D+01 -0.69334016123695D-16
   2   2   1   1  0.24239028863975D+01  0.60728379202421D-15
   3   2   1   1  0.49469639112066D+01  0.89872951056034D-15
   1   1   2   1 -0.50969690223671D+01  0.80248536903018D-16
   2   1   2   1 -0.65867023891227D+01  0.19759885004812D-15
   3   1   2   1 -0.42167177185587D+01 -0.30321662948268D-14
   1   2   2   1  0.24239028838059D+01  0.28152423830584D-15
   2   2   2   1  0.22394881648546D+01  0.86269188838936D-15
   3   2   2   1  0.49469639151138D+01  0.17092938003590D-14
   1   1   3   1 -0.42167177154863D+01  0.29777198623829D-14
   2   1   3   1 -0.42167177185587D+01  0.33705095045978D-14
   3   1   3   1 -0.84334354375064D+01 -0.25561538437122D-16
   1   2   3   1  0.49469639200021D+01  0.12144092088389D-15
   2   2   3   1  0.49469639218436D+01  0.14103516954932D-15
   3   2   3   1  0.98939277831736D+01  0.92065046423686D-17
   1   1   1   2  0.22394881624626D+01 -0.28564554753436D-15
   2   1   1   2  0.24239028838059D+01 -0.60543861445854D-15
   3   1   1   2  0.49469639200021D+01 -0.57178740714461D-15
   1   2   1   2 -0.61618125070566D+01 -0.31181545781956D-15
   2   2   1   2 -0.46651520516178D+01  0.49557357474286D-15
   3   2   1   2 -0.42236448071382D+01  0.38612438638660D-16
   1   1   2   2  0.24239028863975D+01 -0.48016134616376D-15
   2   1   2   2  0.22394881648546D+01 -0.87780087074544D-15
   3   1   2   2  0.49469639218436D+01 -0.43721101474164D-15
   1   2   2   2 -0.46651520516178D+01 -0.29665645831722D-15
   2   2   2   2 -0.61618125280880D+01  0.52387687839667D-16
   3   2   2   2 -0.42236448093801D+01 -0.23703151441045D-15
   1   1   3   2  0.49469639112066D+01 -0.47221520620099D-15
   2   1   3   2  0.49469639151138D+01 -0.12694643297701D-14
   3   1   3   2  0.98939277831736D+01  0.46090808824919D-16
   1   2   3   2 -0.42236448071382D+01  0.13789566313084D-15
   2   2   3   2 -0.42236448093801D+01  0.39617279694873D-15
   3   2   3   2 -0.84472896256971D+01  0.28831101075939D-16
 Band:  6
   1   1   1   1 -0.61618125357347D+01 -0.49109054031907D-16
   2   1   1   1 -0.19381677325517D+01 -0.16568222032629D-15
   3   1   1   1 -0.14966604916610D+01  0.16235311232713D-15
   1   2   1   1  0.22394881313812D+01 -0.27019012033135D-15
   2   2   1   1 -0.27074757586032D+01  0.34317782452270D-15
   3   2   1   1 -0.18441472397115D+00  0.10445222867161D-15
   1   1   2   1 -0.19381677325517D+01  0.30584276789301D-15
   2   1   2   1 -0.61618125255994D+01  0.23697761625976D-15
   3   1   2   1 -0.14966604943123D+01  0.23206864707135D-15
   1   2   2   1 -0.27074757572698D+01 -0.82140920336600D-16
   2   2   2   1  0.22394881280229D+01  0.18426625590383D-17
   3   2   2   1 -0.18441472403595D+00 -0.92904447705711D-17
   1   1   3   1 -0.14966604916610D+01  0.20588743888341D-17
   2   1   3   1 -0.14966604943123D+01 -0.18672096592436D-15
   3   1   3   1 -0.29933209245906D+01  0.29195947123271D-16
   1   2   3   1 -0.18441472463879D+00  0.61302300693307D-16
   2   2   3   1 -0.18441472397628D+00  0.53246780992594D-16
   3   2   3   1 -0.36882944679562D+00  0.69520659781404D-16
   1   1   1   2  0.22394881313812D+01  0.33851502772668D-15
   2   1   1   2 -0.27074757572698D+01  0.93963930215556D-16
   3   1   1   2 -0.18441472463879D+00 -0.53637229107096D-16
   1   2   1   2 -0.65867023971923D+01  0.92634197686713D-16
   2   2   1   2 -0.23699846860143D+01 -0.37156183561078D-16
   3   2   1   2 -0.14897333943242D+01 -0.40262645088379D-15
   1   1   2   2 -0.27074757586032D+01 -0.23046983531841D-15
   2   1   2   2  0.22394881280229D+01  0.15533576662785D-15
   3   1   2   2 -0.18441472397628D+00 -0.30349015512833D-16
   1   2   2   2 -0.23699846860143D+01  0.12008785355078D-15
   2   2   2   2 -0.65867023999924D+01 -0.42043077548593D-15
   3   2   2   2 -0.14897333934678D+01 -0.58541806203174D-15
   1   1   3   2 -0.18441472397115D+00 -0.19053356668372D-15
   2   1   3   2 -0.18441472403595D+00 -0.14249042804277D-16
   3   1   3   2 -0.36882944679562D+00 -0.70935971645650D-16
   1   2   3   2 -0.14897333943242D+01 -0.24949288719119D-15
   2   2   3   2 -0.14897333934678D+01  0.64696714645297D-17
   3   2   3   2 -0.29794667402383D+01  0.24354245386147D-16
 Band:  7
   1   1   1   1 -0.43678138661864D+02 -0.75148652560024D-15
   2   1   1   1 -0.18566587534098D+02  0.98449542786392D-16
   3   1   1   1 -0.43138350461676D+02  0.25032101150418D-15
   1   2   1   1 -0.44996038804266D+01 -0.97026247064343D-15
   2   2   1   1 -0.37536493216375D+01 -0.71613320778659D-15
   3   2   1   1 -0.54682633543912D+01 -0.16772012700669D-15
   1   1   2   1 -0.18566587534098D+02 -0.32826597021383D-15
   2   1   2   1 -0.21908201683985D+02 -0.26543847111785D-17
   3   1   2   1 -0.21368412941042D+02  0.18353936046335D-14
   1   2   2   1 -0.37536493237571D+01 -0.10370559321277D-14
   2   2   2   1 -0.44996038926278D+01 -0.27439781942499D-14
   3   2   2   1 -0.54682633605726D+01 -0.12554146848216D-14
   1   1   3   1 -0.43138350461676D+02 -0.16587759233569D-14
   2   1   3   1 -0.21368412941042D+02 -0.16366477583514D-14
   3   1   3   1 -0.64506764787578D+02 -0.13434262954941D-14
   1   2   3   1 -0.54682633597542D+01 -0.18584978363479D-14
   2   2   3   1 -0.54682633682239D+01 -0.32546157756938D-15
   3   2   3   1 -0.10936526755290D+02  0.35300207818587D-14
   1   1   1   2 -0.44996038804266D+01  0.27653160993165D-14
   2   1   1   2 -0.37536493237571D+01  0.96522051655993D-15
   3   1   1   2 -0.54682633597542D+01  0.18615129635629D-14
   1   2   1   2 -0.21908202271455D+02 -0.64352423398104D-16
   2   2   1   2 -0.18566588262513D+02  0.16409493444991D-14
   3   2   1   2 -0.21368413702832D+02  0.12325913027468D-14
   1   1   2   2 -0.37536493216375D+01  0.12626959995649D-15
   2   1   2   2 -0.44996038926278D+01  0.29838539422556D-14
   3   1   2   2 -0.54682633682239D+01 -0.13076152828422D-14
   1   2   2   2 -0.18566588262513D+02 -0.25329510979280D-14
   2   2   2   2 -0.43678139806595D+02 -0.22099571169635D-15
   3   2   2   2 -0.43138351441854D+02  0.11372391536957D-14
   1   1   3   2 -0.54682633543912D+01  0.17772851086654D-14
   2   1   3   2 -0.54682633605726D+01  0.17867245989949D-14
   3   1   3   2 -0.10936526755290D+02 -0.31270197300058D-14
   1   2   3   2 -0.21368413702832D+02 -0.21243698902156D-14
   2   2   3   2 -0.43138351441854D+02 -0.16251699862442D-14
   3   2   3   2 -0.64506765638170D+02  0.46040965789856D-15
 Band:  8
   1   1   1   1 -0.21908200762395D+02 -0.43513064514822D-15
   2   1   1   1 -0.53978714440884D+00 -0.11422526086954D-14
   3   1   1   1 -0.33416139375189D+01 -0.17696125159489D-15
   1   2   1   1 -0.44996052749366D+01 -0.25058621373424D-14
   2   2   1   1  0.96865808962109D+00 -0.27291703487601D-15
   3   2   1   1 -0.74595457335154D+00 -0.30514534921890D-15
   1   1   2   1 -0.53978714440884D+00  0.93365117915238D-15
   2   1   2   1 -0.43678138566720D+02 -0.19207754622642D-15
   3   1   2   1 -0.25111551493961D+02 -0.40460967162937D-15
   1   2   2   1  0.96865810998005D+00 -0.70462467531213D-15
   2   2   2   1 -0.44996052667483D+01 -0.68997562590821D-15
   3   2   2   1 -0.74595456888161D+00 -0.86789319683382D-15
   1   1   3   1 -0.33416139375189D+01 -0.52923270559092D-16
   2   1   3   1 -0.25111551493961D+02  0.21825034992511D-15
   3   1   3   1 -0.28453165322470D+02 -0.22496078272470D-15
   1   2   3   1 -0.74595457503152D+00  0.34693780569309D-15
   2   2   3   1 -0.74595456726355D+00  0.64688852615962D-15
   3   2   3   1 -0.14919091320177D+01 -0.66028323092347D-15
   1   1   1   2 -0.44996052749366D+01  0.31710142320769D-14
   2   1   1   2  0.96865810998005D+00  0.25932609131396D-14
   3   1   1   2 -0.74595457503152D+00  0.18219925205953D-14
   1   2   1   2 -0.43678139040101D+02 -0.27641509841060D-15
   2   2   1   2 -0.53978722090149D+00  0.31697869369385D-15
   3   2   1   2 -0.25111551712668D+02 -0.70197218044893D-15
   1   1   2   2  0.96865808962109D+00 -0.39005625448846D-16
   2   1   2   2 -0.44996052667483D+01 -0.66768117530711D-15
   3   1   2   2 -0.74595456726355D+00 -0.47007201235654D-16
   1   2   2   2 -0.53978722090149D+00 -0.20711865961442D-15
   2   2   2   2 -0.21908200811086D+02 -0.37391988958971D-16
   3   2   2   2 -0.33416140090828D+01 -0.36085011703516D-16
   1   1   3   2 -0.74595457335154D+00  0.10581379998016D-14
   2   1   3   2 -0.74595456888161D+00  0.91572780954082D-16
   3   1   3   2 -0.14919091320177D+01 -0.53433524439142D-15
   1   2   3   2 -0.25111551712669D+02 -0.20041932818159D-15
   2   2   3   2 -0.33416140090828D+01 -0.31341024341008D-15
   3   2   3   2 -0.28453165502246D+02 -0.59995521444737D-15
 K-point:  0.00000000E+00  0.00000000E+00  5.00000000E-01
 Band:  1
   1   1   1   1 -0.36118886826212D+01 -0.48370991097160D-17
   2   1   1   1 -0.18059443433204D+01 -0.20250198458066D-15
   3   1   1   1 -0.18059443441750D+01 -0.27952700200497D-15
   1   2   1   1  0.15044375208837D+01  0.40558291865373D-15
   2   2   1   1  0.75221876525004D+00 -0.30407670110394D-16
   3   2   1   1  0.75221876226309D+00  0.25619839520920D-15
   1   1   2   1 -0.18059443433204D+01  0.23235446097447D-15
   2   1   2   1 -0.36118886807528D+01 -0.95351714804958D-16
   3   1   2   1 -0.18059443425368D+01 -0.10182770958922D-17
   1   2   2   1  0.75221876414554D+00 -0.25689164592488D-15
   2   2   2   1  0.15044375228665D+01 -0.18107561843732D-15
   3   2   2   1  0.75221876206345D+00  0.62998232596546D-16
   1   1   3   1 -0.18059443441750D+01  0.29155523597970D-15
   2   1   3   1 -0.18059443425368D+01 -0.39724067618753D-16
   3   1   3   1 -0.45692769990263D+01  0.34187551742235D-15
   1   2   3   1  0.75221876310806D+00 -0.23678933744160D-15
   2   2   3   1  0.75221876465848D+00 -0.38390573073683D-15
   3   2   3   1  0.12337347713595D+00  0.10112767663518D-15
   1   1   1   2  0.15044375208837D+01 -0.37615169462842D-15
   2   1   1   2  0.75221876414554D+00  0.29447542954749D-15
   3   1   1   2  0.75221876310806D+00  0.24937729347778D-15
   1   2   1   2 -0.36118886783638D+01  0.74217503407823D-17
   2   2   1   2 -0.18059443424279D+01  0.17719564298568D-15
   3   2   1   2 -0.18059443445141D+01 -0.81872864894286D-16
   1   1   2   2  0.75221876525004D+00  0.67736207802702D-16
   2   1   2   2  0.15044375228665D+01  0.24569903479426D-15
   3   1   2   2  0.75221876465848D+00  0.37155156810490D-15
   1   2   2   2 -0.18059443424279D+01 -0.19656789769449D-15
   2   2   2   2 -0.36118886826563D+01  0.13357268380318D-16
   3   2   2   2 -0.18059443418314D+01 -0.15222342905550D-16
   1   1   3   2  0.75221876226309D+00 -0.24572525303545D-15
   2   1   3   2  0.75221876206345D+00 -0.22336825283436D-17
   3   1   3   2  0.12337347713595D+00 -0.82046373688253D-17
   1   2   3   2 -0.18059443445141D+01  0.56358261577706D-16
   2   2   3   2 -0.18059443418314D+01  0.19055038516547D-15
   3   2   3   2 -0.45692769945292D+01  0.15471878150706D-15
 Band:  2
   1   1   1   1 -0.54584505671039D+01 -0.45300044917955D-16
   2   1   1   1 -0.27292252828185D+01 -0.12277818806763D-15
   3   1   1   1 -0.27292252842213D+01  0.33883119678364D-15
   1   2   1   1 -0.17299340488258D+00  0.37510018788857D-15
   2   2   1   1 -0.86496700595740D-01 -0.98456441092328D-16
   3   2   1   1 -0.86496705977352D-01  0.11241530696636D-14
   1   1   2   1 -0.27292252828185D+01  0.77795801130382D-16
   2   1   2   1 -0.54584505659245D+01  0.54002233955429D-17
   3   1   2   1 -0.27292252888079D+01  0.14720827644044D-15
   1   2   2   1 -0.86496701187950D-01  0.14956588705225D-15
   2   2   2   1 -0.17299340416899D+00 -0.58155080909197D-16
   3   2   2   1 -0.86496702723239D-01  0.55916498840417D-15
   1   1   3   1 -0.27292252842213D+01 -0.37095882854702D-15
   2   1   3   1 -0.27292252888079D+01 -0.46582836956662D-16
   3   1   3   1 -0.14018557198162D+02  0.13022026657385D-15
   1   2   3   1 -0.86496702962434D-01 -0.40192182757648D-15
   2   2   3   1 -0.86496706469100D-01  0.52286252433498D-15
   3   2   3   1  0.14598797737562D+01  0.37798962863718D-15
   1   1   1   2 -0.17299340488258D+00 -0.41282453211038D-15
   2   1   1   2 -0.86496701187949D-01 -0.26762433978681D-15
   3   1   1   2 -0.86496702962434D-01  0.78495757800171D-15
   1   2   1   2 -0.54584505669400D+01 -0.12340775059991D-15
   2   2   1   2 -0.27292252819255D+01  0.17861280987526D-15
   3   2   1   2 -0.27292252874599D+01  0.63503604659687D-15
   1   1   2   2 -0.86496700595740D-01  0.62103513243271D-16
   2   1   2   2 -0.17299340416899D+00  0.12645051453817D-15
   3   1   2   2 -0.86496706469100D-01 -0.15588565292617D-15
   1   2   2   2 -0.27292252819255D+01 -0.17804490482187D-16
   2   2   2   2 -0.54584505666510D+01 -0.83595338146924D-16
   3   2   2   2 -0.27292252842380D+01  0.66738319105351D-16
   1   1   3   2 -0.86496705977352D-01 -0.10161537728640D-14
   2   1   3   2 -0.86496702723239D-01 -0.23540247683388D-15
   3   1   3   2  0.14598797737562D+01  0.30241090330474D-15
   1   2   3   2 -0.27292252874599D+01 -0.87827176352852D-15
   2   2   3   2 -0.27292252842380D+01  0.10535932995774D-15
   3   2   3   2 -0.14018557195931D+02 -0.27902883982828D-15
 Band:  3
   1   1   1   1 -0.32030658633374D+02 -0.35107678425255D-16
   2   1   1   1 -0.29227494215185D+02 -0.95532509636385D-15
   3   1   1   1 -0.20735326278530D+02 -0.29991302786907D-15
   1   2   1   1 -0.11591821810947D+01 -0.28705512378018D-14
   2   2   1   1 -0.10389773002364D+01 -0.26370247049373D-14
   3   2   1   1  0.48659239473306D+00 -0.54847537833004D-15
   1   1   2   1 -0.29227494215185D+02  0.41157563981168D-15
   2   1   2   1 -0.38613531144082D+02 -0.97209722534638D-15
   3   1   2   1 -0.22850909296334D+02  0.23577681183535D-15
   1   2   2   1 -0.10389772842316D+01 -0.51982200257230D-15
   2   2   2   1 -0.13880534522168D+01 -0.15370231824908D-14
   3   2   2   1  0.10654556843185D+00  0.56311972703133D-15
   1   1   3   1 -0.20735326278530D+02 -0.15224822014160D-16
   2   1   3   1 -0.22850909296334D+02 -0.91375196550456D-15
   3   1   3   1 -0.23131784458175D+02 -0.27530909575925D-15
   1   2   3   1  0.48659240057396D+00 -0.62813453338332D-15
   2   2   3   1  0.10654556807788D+00 -0.45171910214987D-15
   3   2   3   1  0.15877622431983D+01  0.71483243049520D-16
   1   1   1   2 -0.11591821810947D+01  0.27010980567179D-14
   2   1   1   2 -0.10389772842316D+01  0.18165537594783D-14
   3   1   1   2  0.48659240057396D+00  0.40496493973101D-15
   1   2   1   2 -0.32030658603639D+02  0.32306977193780D-16
   2   2   1   2 -0.29227494221988D+02  0.53787298266240D-14
   3   2   1   2 -0.20735326288601D+02  0.24682774570965D-14
   1   1   2   2 -0.10389773002364D+01  0.27131155257388D-14
   2   1   2   2 -0.13880534522168D+01  0.15160435167647D-14
   3   1   2   2  0.10654556807788D+00  0.10331826220938D-15
[...]
   1   2   1   1  0.42435071018634D-07  0.22185506605403D-13
   2   2   1   1  0.13745706215439D+01 -0.11440405650353D-12
   3   2   1   1  0.13745705341020D+01  0.13483740699199D-12
   1   1   2   1 -0.73471052113025D+01  0.13178721107202D-12
   2   1   2   1 -0.32254956172948D+02 -0.10209937156189D-14
   3   1   2   1  0.87225143879605D+01 -0.38459372221218D-11
   1   2   2   1  0.11722981132003D+01  0.28754549890450D-12
   2   2   2   1  0.37771744877257D+01  0.15149942049766D-12
   3   2   2   1  0.11722973547733D+01  0.38460324775034D-11
   1   1   3   1 -0.11733983859976D+02  0.13368821163063D-12
   2   1   3   1  0.87225143879605D+01  0.38473467201691D-11
   3   1   3   1 -0.36641838661716D+02 -0.10620614767009D-14
   1   2   3   1  0.11722984156570D+01 -0.26750194549639D-12
   2   2   3   1  0.13745715084417D+01  0.34436127091328D-11
   3   2   3   1 -0.12303024929187D+01  0.72105002834053D-15
   1   1   1   2  0.42435071517464D-07 -0.22263448403216D-13
   2   1   1   2  0.11722981132003D+01 -0.28600946969552D-12
   3   1   1   2  0.11722984156570D+01  0.26612880153638D-12
   1   2   1   2 -0.18826124474277D+02 -0.64846129269505D-16
   2   2   1   2 -0.10622823769199D+02 -0.26755039031612D-12
   3   2   1   2 -0.82033010312444D+01 -0.26654702058436D-12
   1   1   2   2  0.13745706215439D+01  0.11841189348197D-12
   2   1   2   2  0.37771744877257D+01 -0.15301161077238D-12
   3   1   2   2  0.13745715084417D+01 -0.34461649193748D-11
   1   2   2   2 -0.10622823769199D+02  0.26744535612494D-12
   2   2   2   2 -0.35247293924881D+02  0.88206822687113D-15
   3   2   2   2  0.90058936799034D+01  0.34446875411047D-11
   1   1   3   2  0.13745705341020D+01 -0.14009679696383D-12
   2   1   3   2  0.11722973547733D+01 -0.38447524852392D-11
   3   1   3   2 -0.12303024929187D+01  0.36207499845535D-14
   1   2   3   2 -0.82033010312444D+01  0.26691472441609D-12
   2   2   3   2  0.90058936799034D+01 -0.34450691026218D-11
   3   2   3   2 -0.32827775063758D+02  0.17526588929653D-15
 K-point:  5.00000000E-01  5.00000000E-01  5.00000000E-01
 Band:  1
   1   1   1   1 -0.44296711584237D+01  0.41912822846163D-15
   2   1   1   1 -0.26456125874779D+01 -0.38488450866851D-15
   3   1   1   1 -0.20710090248775D+01  0.36932347704712D-14
   1   2   1   1 -0.35018166509433D+00  0.56377998047416D-15
   2   2   1   1  0.58092430044947D+00  0.20747577840345D-14
   3   2   1   1 -0.66960241478464D+00 -0.50342882047713D-14
   1   1   2   1 -0.26456125874779D+01  0.72854008642693D-15
   2   1   2   1 -0.44296711542769D+01  0.10540667877518D-15
   3   1   2   1 -0.20710090483902D+01  0.35229025355707D-14
   1   2   2   1  0.58092429713871D+00  0.16352673832115D-14
   2   2   2   1 -0.35018166590402D+00  0.97516236206358D-15
   3   2   2   1 -0.66960239049420D+00 -0.46232055579039D-14
   1   1   3   1 -0.20710090248775D+01 -0.36423120182310D-14
   2   1   3   1 -0.20710090483902D+01 -0.34527594479994D-14
   3   1   3   1 -0.81868623036099D+01 -0.13803112573072D-15
   1   2   3   1 -0.66960239740779D+00 -0.50382425709340D-14
   2   2   3   1 -0.66960241740402D+00 -0.48476848647239D-14
   3   2   3   1  0.44503257578889D+01  0.55284019789197D-14
   1   1   1   2 -0.35018166509433D+00 -0.56205117917810D-15
   2   1   1   2  0.58092429713871D+00 -0.15193666909656D-14
   3   1   1   2 -0.66960239740779D+00  0.48856909706950D-14
   1   2   1   2 -0.44296711382760D+01 -0.96626578007076D-16
   2   2   1   2 -0.26456125756336D+01 -0.23150706290433D-15
   3   2   1   2 -0.20710090234840D+01 -0.50221894263986D-14
   1   1   2   2  0.58092430044947D+00 -0.20601422536690D-14
   2   1   2   2 -0.35018166590402D+00 -0.88796863387431D-15
   3   1   2   2 -0.66960241740402D+00  0.47083723997660D-14
   1   2   2   2 -0.26456125756336D+01  0.48892650155403D-15
   2   2   2   2 -0.44296711484882D+01  0.23683136978570D-15
   3   2   2   2 -0.20710090079700D+01 -0.45273107272215D-14
   1   1   3   2 -0.66960241478464D+00  0.50417833783823D-14
   2   1   3   2 -0.66960239049420D+00  0.47236607622574D-14
   3   1   3   2  0.44503257578889D+01 -0.57822942248163D-14
   1   2   3   2 -0.20710090234840D+01  0.48676555813119D-14
   2   2   3   2 -0.20710090079700D+01  0.45682988425629D-14
   3   2   3   2 -0.81868622824657D+01 -0.15609483469855D-15
 Band:  2
   1   1   1   1 -0.89489183215151D+01 -0.36533644607910D-16
   2   1   1   1 -0.60854916248972D+01  0.10376841445538D-15
   3   1   1   1 -0.65959790323943D+01 -0.18902360786837D-14
   1   2   1   1 -0.48262867265482D+01  0.77706792251605D-14
   2   2   1   1 -0.42315131534715D+01  0.10444328060502D-13
   3   2   1   1 -0.34265589478072D+01  0.27599575168003D-14
   1   1   2   1 -0.60854916248972D+01 -0.11942922211598D-15
   2   1   2   1 -0.89489183527947D+01 -0.22113521264521D-15
   3   1   2   1 -0.65959790438559D+01 -0.25165952033997D-14
   1   2   2   1 -0.42315130943854D+01  0.88950585746589D-14
   2   2   2   1 -0.48262867247012D+01  0.10086337256105D-13
   3   2   2   1 -0.34265589228668D+01  0.34573487389969D-14
   1   1   3   1 -0.65959790323943D+01  0.16634979606694D-14
   2   1   3   1 -0.65959790438559D+01  0.20906187979662D-14
   3   1   3   1 -0.97960738696496D+01 -0.13668061190156D-15
   1   2   3   1 -0.34265589143375D+01  0.42142079059041D-14
   2   2   3   1 -0.34265589367142D+01  0.59344566103235D-14
   3   2   3   1 -0.26782127032596D+01  0.14930306934561D-15
   1   1   1   2 -0.48262867265482D+01 -0.80451920819977D-14
   2   1   1   2 -0.42315130943854D+01 -0.87912917162508D-14
   3   1   1   2 -0.34265589143375D+01 -0.37462923293034D-14
   1   2   1   2 -0.89489182741461D+01  0.17076998119184D-15
   2   2   1   2 -0.60854915554140D+01 -0.35170382753639D-14
   3   2   1   2 -0.65959789780574D+01  0.34932780518589D-14
   1   1   2   2 -0.42315131534715D+01 -0.10579183875837D-13
   2   1   2   2 -0.48262867247012D+01 -0.96898066032707D-14
   3   1   2   2 -0.34265589367142D+01 -0.53478117478241D-14
   1   2   2   2 -0.60854915554140D+01  0.35216721347510D-14
   2   2   2   2 -0.89489182372129D+01 -0.24362561887664D-15
   3   2   2   2 -0.65959789615597D+01  0.53324013296694D-14
   1   1   3   2 -0.34265589478072D+01 -0.32735837040597D-14
   2   1   3   2 -0.34265589228668D+01 -0.33117990052334D-14
   3   1   3   2 -0.26782127032596D+01  0.28223082131396D-15
   1   2   3   2 -0.65959789780574D+01 -0.37648543634916D-14
   2   2   3   2 -0.65959789615597D+01 -0.47530671571626D-14
   3   2   3   2 -0.97960737909047D+01  0.46948142041009D-15
 Band:  3
   1   1   1   1 -0.19392019507654D+02 -0.60197514706555D-15
   2   1   1   1  0.34629070539172D+00 -0.17726172667642D-12
   3   1   1   1 -0.84422324399361D+01  0.13355823258395D-15
   1   2   1   1  0.22589678731506D+01 -0.49685001928933D-15
   2   2   1   1  0.11853551925995D+01 -0.17752091216949D-12
   3   2   1   1  0.23609003840008D+01 -0.98384947801926D-15
   1   1   2   1  0.34629070539172D+00  0.17784460078586D-12
   2   1   2   1 -0.22493376970682D+02  0.19165735880708D-16
   3   1   2   1 -0.55226189056390D+01 -0.96938111206722D-15
   1   2   2   1  0.11853552003448D+01  0.17892756905221D-12
   2   2   2   1  0.15977156673196D+01  0.14467416023055D-14
   3   2   2   1  0.25359744421791D+01  0.36712734133461D-15
   1   1   3   1 -0.84422324399361D+01 -0.33594344970210D-16
   2   1   3   1 -0.55226189056390D+01  0.98859689952351D-15
   3   1   3   1 -0.12984586389447D+02  0.79643296362507D-16
   1   2   3   1  0.23609003923238D+01  0.47032083393247D-15
   2   2   3   1  0.25359744374073D+01 -0.76227413995127D-15
   3   2   3   1  0.26812133731613D+01 -0.13517001304865D-14
   1   1   1   2  0.22589678731506D+01 -0.45359989759589D-15
   2   1   1   2  0.11853552003448D+01 -0.17848998184358D-12
   3   1   1   2  0.23609003923238D+01 -0.53700277663195D-15
   1   2   1   2 -0.19392019497927D+02 -0.44058056826230D-15
   2   2   1   2  0.34629070046517D+00 -0.17525224843638D-12
   3   2   1   2 -0.84422324488072D+01  0.26924794379478D-15
   1   1   2   2  0.11853551925995D+01  0.17697310920078D-12
   2   1   2   2  0.15977156673196D+01 -0.10993308438127D-14
   3   1   2   2  0.25359744374073D+01  0.85094485899008D-15
   1   2   2   2  0.34629070046517D+00  0.17528638519635D-12
   2   2   2   2 -0.22493376875733D+02  0.92181760646680D-15
   3   2   2   2 -0.55226188498366D+01  0.21884463087820D-14
   1   1   3   2  0.23609003840008D+01  0.90786962578245D-15
   2   1   3   2  0.25359744421791D+01  0.10134196247482D-15
   3   1   3   2  0.26812133731613D+01  0.13849773975418D-14
   1   2   3   2 -0.84422324488072D+01 -0.11337532655863D-14
   2   2   3   2 -0.55226188498366D+01 -0.18811261623828D-14
   3   2   3   2 -0.12984586359749D+02 -0.25311773384007D-15
 Band:  4
   1   1   1   1 -0.16491828863856D+02  0.73055506866265D-16
   2   1   1   1 -0.86730324956439D+01 -0.29771459800544D-13
   3   1   1   1 -0.67710675307896D-01 -0.20748407369063D-14
   1   2   1   1 -0.19023391291555D+00  0.81251008818981D-15
   2   2   1   1  0.10761286262856D+01 -0.30227715556762D-13
   3   2   1   1  0.13411541660316D+01  0.17500570084294D-14
   1   1   2   1 -0.86730324956439D+01  0.29505289390725D-13
   2   1   2   1 -0.13390471098114D+02 -0.15652833114721D-15
   3   1   2   1 -0.29873242498927D+01 -0.64026722088651D-15
   1   2   2   1  0.10761286190212D+01  0.29280448000253D-13
   2   2   2   1  0.47101862342673D+00 -0.18879529621724D-15
   3   2   2   1  0.11660801183400D+01  0.10600216365622D-14
   1   1   3   1 -0.67710675307896D-01  0.22320376733571D-14
   2   1   3   1 -0.29873242498927D+01  0.11040006547459D-14
   3   1   3   1 -0.23241568278331D+02 -0.21295507430375D-15
   1   2   3   1  0.13411541681497D+01 -0.86883265353359D-15
   2   2   3   1  0.11660801161255D+01 -0.11677374056395D-14
   3   2   3   1  0.34978518568855D+01 -0.16748531380608D-14
   1   1   1   2 -0.19023391291555D+00 -0.62507479492856D-15
   2   1   1   2  0.10761286190212D+01 -0.29484948010880D-13
   3   1   1   2  0.13411541681497D+01 -0.21911778207115D-15
   1   2   1   2 -0.16491828832120D+02 -0.37193949029174D-16
   2   2   1   2 -0.86730324867317D+01 -0.29229744818265D-13
   3   2   1   2 -0.67710684388419D-01 -0.13295433850199D-15
   1   1   2   2  0.10761286262856D+01  0.30786566853212D-13
   2   1   2   2  0.47101862342673D+00  0.95292176862449D-15
   3   1   2   2  0.11660801161255D+01  0.69191603215639D-15
   1   2   2   2 -0.86730324867317D+01  0.29645747034200D-13
   2   2   2   2 -0.13390471097373D+02 -0.17851784933987D-15
   3   2   2   2 -0.29873242380318D+01  0.77831190560431D-15
   1   1   3   2  0.13411541660316D+01 -0.21727133973035D-14
   2   1   3   2  0.11660801183400D+01 -0.12257721659562D-14
   3   1   3   2  0.34978518568855D+01  0.23488547902950D-14
   1   2   3   2 -0.67710684388419D-01  0.21461834060472D-15
   2   2   3   2 -0.29873242380318D+01  0.45900789462342D-15
   3   2   3   2 -0.23241568261311D+02 -0.49798146239056D-15
 Band:  5
   1   1   1   1 -0.15980014845477D+02 -0.71628180503568D-15
   2   1   1   1 -0.79292918419099D+01  0.66941699731090D-13
   3   1   1   1 -0.50751230879286D+00  0.49015904963309D-14
   1   2   1   1 -0.61454299978217D+00  0.14158848117498D-14
   2   2   1   1  0.11453480724759D+01  0.64381979291396D-13
   3   2   1   1 -0.13837013810477D+01 -0.75529541281982D-14
   1   1   2   1 -0.79292918419099D+01 -0.67378151095529D-13
   2   1   2   1 -0.12928472482517D+02 -0.52412465708153D-16
   3   1   2   1 -0.11655044244881D+01  0.87565663924292D-14
   1   2   2   1  0.11453480742414D+01 -0.67721788207267D-13
   2   2   2   1 -0.70314927777973D+00  0.15187017350386D-14
   3   2   2   1 -0.51160802308913D+00  0.11990840013941D-14
   1   1   3   1 -0.50751230879286D+00 -0.45354267323201D-14
   2   1   3   1 -0.11655044244881D+01 -0.76550883131127D-14
   3   1   3   1 -0.24592073040043D+02  0.73709482656754D-16
   1   2   3   1 -0.13837014054842D+01 -0.21709487107989D-14
   2   2   3   1 -0.51160807486763D+00 -0.93872117139004D-14
   3   2   3   1 -0.11851503340756D+01 -0.15518675092984D-13
   1   1   1   2 -0.61454299978217D+00 -0.11662937628389D-14
   2   1   1   2  0.11453480742414D+01  0.67092857179728D-13
   3   1   1   2 -0.13837014054842D+01  0.24378583471824D-14
   1   2   1   2 -0.15980014859837D+02  0.61003354658880D-15
   2   2   1   2 -0.79292918377092D+01  0.64393305942624D-13
   3   2   1   2 -0.50751228626036D+00 -0.61584698655772D-14
   1   1   2   2  0.11453480724759D+01 -0.63688811167457D-13
   2   1   2   2 -0.70314927777973D+00 -0.18901719535692D-14
   3   1   2   2 -0.51160807486763D+00  0.86690809556405D-14
   1   2   2   2 -0.79292918377092D+01 -0.63675491943701D-13
   2   2   2   2 -0.12928472460386D+02  0.13956930576271D-15
   3   2   2   2 -0.11655044187020D+01  0.10021222803158D-13
   1   1   3   2 -0.13837013810477D+01  0.82287965261259D-14
   2   1   3   2 -0.51160802308913D+00 -0.93996042146229D-15
   3   1   3   2 -0.11851503340756D+01  0.16212097598156D-13
   1   2   3   2 -0.50751228626035D+00  0.66228701390813D-14
   2   2   3   2 -0.11655044187020D+01 -0.10756114868892D-13
   3   2   3   2 -0.24592072982433D+02 -0.19374859684108D-15
 Band:  6
   1   1   1   1 -0.27990728435716D+02  0.76505851091882D-15
   2   1   1   1  0.14490929838709D+02  0.13391394247038D-12
   3   1   1   1 -0.54225113957328D+01 -0.27554451956705D-16
   1   2   1   1 -0.10430302868251D+02 -0.71188117556016D-14
   2   2   1   1  0.11081999243303D+02  0.14257095705763D-12
   3   2   1   1 -0.54554406350348D+00  0.37325549358934D-14
   1   1   2   1  0.14490929838709D+02 -0.13440313184756D-12
   2   1   2   1 -0.31042270205101D+02  0.43436165465133D-16
   3   1   2   1 -0.47645190961677D+01 -0.29468512279106D-15
   1   2   2   1  0.11081999179663D+02 -0.12164520885165D-12
   2   2   2   1 -0.10341696155484D+02 -0.13592162845899D-13
   3   2   2   1 -0.14176373172226D+01  0.38361841007490D-15
   1   1   3   1 -0.54225113957328D+01  0.18087707435152D-15
   2   1   3   1 -0.47645190961677D+01  0.33497938306204D-15
   3   1   3   1 -0.10439881735199D+02 -0.88446516646224D-17
   1   2   3   1 -0.54554406290948D+00 -0.29959643917153D-14
   2   2   3   1 -0.14176373250312D+01 -0.24860773166840D-16
   3   2   3   1 -0.25921437303582D+01  0.10558198058818D-15
   1   1   1   2 -0.10430302868251D+02  0.64940118345492D-14
   2   1   1   2  0.11081999179663D+02  0.12141079288176D-12
   3   1   1   2 -0.54554406290948D+00  0.34138883776210D-14
   1   2   1   2 -0.27990728361197D+02  0.64471651576933D-15
   2   2   1   2  0.14490929902714D+02  0.13597696109152D-12
   3   2   1   2 -0.54225113333433D+01 -0.48748817452890D-16
   1   1   2   2  0.11081999243303D+02 -0.14169734526045D-12
   2   1   2   2 -0.10341696155484D+02  0.14282677094840D-13
   3   1   2   2 -0.14176373250312D+01 -0.35394294592204D-15
   1   2   2   2  0.14490929902714D+02 -0.13649752366137D-12
   2   2   2   2 -0.31042270389724D+02  0.23785451940664D-15
   3   2   2   2 -0.47645191504523D+01  0.32334659441413D-14
   1   1   3   2 -0.54554406350348D+00 -0.36652934638764D-14
   2   1   3   2 -0.14176373172226D+01 -0.87533584586411D-15
   3   1   3   2 -0.25921437303582D+01 -0.16462057318623D-15
   1   2   3   2 -0.54225113333433D+01 -0.28416043260568D-15
   2   2   3   2 -0.47645191504523D+01 -0.35441659588819D-14
   3   2   3   2 -0.10439881712411D+02 -0.26375437556108D-15
 Band:  7
   1   1   1   1  0.83565136154168D+01  0.68514539952401D-16
   2   1   1   1 -0.14331495426303D+02 -0.10407264152548D-13
   3   1   1   1  0.12973835006737D+01 -0.14207142506854D-13
   1   2   1   1  0.14476856186696D+02 -0.10640955898533D-13
   2   2   1   1 -0.89098220433139D+01  0.47346285973282D-14
   3   2   1   1  0.12999744991208D+01  0.21268927572716D-14
   1   1   2   1 -0.14331495426303D+02  0.10366795054811D-13
   2   1   2   1  0.83565135021899D+01  0.21312563463050D-15
   3   1   2   1  0.12973836514131D+01 -0.14940519320302D-13
   1   2   2   1 -0.89098220041859D+01  0.14247148179112D-13
   2   2   2   1  0.14476856078938D+02 -0.22042958868109D-13
   3   2   2   1  0.12999745154480D+01 -0.22698033940759D-14
   1   1   3   1  0.12973835006737D+01  0.13738483978599D-13
   2   1   3   1  0.12973836514131D+01  0.14281907164973D-13
   3   1   3   1 -0.41429595316888D+01 -0.31494245739066D-15
   1   2   3   1  0.12999744789069D+01  0.10976040098935D-13
   2   2   3   1  0.12999746280505D+01  0.89609843349471D-14
   3   2   3   1  0.27623847047549D+01  0.16450001046682D-13
   1   1   1   2  0.14476856186696D+02  0.10596957416624D-13
   2   1   1   2 -0.89098220041859D+01 -0.14236732928724D-13
   3   1   1   2  0.12999744789069D+01 -0.11029107478168D-13
   1   2   1   2  0.83565135638775D+01 -0.22363564408435D-15
   2   2   1   2 -0.14331495254396D+02  0.68401091525976D-15
   3   2   1   2  0.12973836486445D+01  0.71489249864712D-14
   1   1   2   2 -0.89098220433139D+01 -0.44402804072168D-14
   2   1   2   2  0.14476856078938D+02  0.22190094635778D-13
   3   1   2   2  0.12999746280505D+01 -0.88323846705331D-14
   1   2   2   2 -0.14331495254396D+02 -0.68497341189524D-15
   2   2   2   2  0.83565135435782D+01  0.45686083567306D-16
   3   2   2   2  0.12973836925340D+01  0.30477403440371D-14
   1   1   3   2  0.12999744991208D+01 -0.19633133019772D-14
   2   1   3   2  0.12999745154480D+01  0.24141855371837D-14
   3   1   3   2  0.27623847047549D+01 -0.16727775201319D-13
   1   2   3   2  0.12973836486445D+01 -0.71009453731669D-14
   2   2   3   2  0.12973836925340D+01 -0.27896039488767D-14
   3   2   3   2 -0.41429594701056D+01  0.39786404543053D-15
 Band:  8
   1   1   1   1 -0.23045149450038D+02 -0.73017406303977D-15
   2   1   1   1 -0.19770370065071D+02 -0.19627471260362D-15
   3   1   1   1 -0.22177811210885D+02 -0.34947437091670D-14
   1   2   1   1 -0.10796619065543D+02 -0.95383427936927D-14
   2   2   1   1 -0.86161076109229D+01 -0.13310610078857D-13
   3   2   1   1 -0.76319828863907D+01 -0.58125203277796D-14
   1   1   2   1 -0.19770370065071D+02  0.35907810037677D-15
   2   1   2   1 -0.23045149645648D+02  0.93187373774804D-15
   3   1   2   1 -0.22177811309384D+02  0.16058033183963D-14
   1   2   2   1 -0.86161075760307D+01 -0.94703805288308D-14
   2   2   2   1 -0.10796619068372D+02 -0.24069055114665D-15
   3   2   2   1 -0.76319828452837D+01 -0.21563967373146D-14
   1   1   3   1 -0.22177811210885D+02  0.32460822080126D-14
   2   1   3   1 -0.22177811309384D+02 -0.19241816540004D-15
   3   1   3   1 -0.29670581948867D+02 -0.24827769445876D-16
   1   2   3   1 -0.76319828522792D+01 -0.26211810390243D-14
   2   2   3   1 -0.76319828882905D+01 -0.15004585483895D-15
   3   2   3   1 -0.63473874524940D+01  0.17462742877006D-14
   1   1   1   2 -0.10796619065543D+02  0.93811648395796D-14
   2   1   1   2 -0.86161075760307D+01  0.11833206873635D-13
   3   1   1   2 -0.76319828522792D+01  0.41805941135532D-14
   1   2   1   2 -0.23045150375639D+02  0.42810204029990D-15
   2   2   1   2 -0.19770370686856D+02 -0.11765192530003D-14
   3   2   1   2 -0.22177811988199D+02  0.28000150863515D-14
   1   1   2   2 -0.86161076109229D+01  0.13025959351152D-13
   2   1   2   2 -0.10796619068372D+02  0.36247645267090D-14
   3   1   2   2 -0.76319828882905D+01  0.28230210029254D-14
   1   2   2   2 -0.19770370686856D+02  0.15747297288193D-14
   2   2   2   2 -0.23045150168760D+02  0.10846507924218D-14
   3   2   2   2 -0.22177811893105D+02  0.34098614840534D-14
   1   1   3   2 -0.76319828863907D+01  0.45196352120069D-14
   2   1   3   2 -0.76319828452837D+01  0.38370382676164D-14
   3   1   3   2 -0.63473874524940D+01 -0.13002752203939D-14
   1   2   3   2 -0.22177811988199D+02 -0.14371080317456D-14
   2   2   3   2 -0.22177811893105D+02 -0.25627869375829D-14
   3   2   3   2 -0.29670582872687D+02  0.31923705527497D-14

 List of bloks and their characteristics 
  
 2nd eigenvalue derivatives   - # elements :      36
 qpt  0.00000000E+00  0.00000000E+00  0.00000000E+00   1.0
  
 2nd eigenvalue derivatives   - # elements :      36
 qpt  5.00000000E-01  5.00000000E-01  0.00000000E+00   1.0
