
.Version 8.11.12 of ABINIT 
.(MPI version, prepared for a x86_64_linux_gnu9.2 computer) 

.Copyright (C) 1998-2020 ABINIT group . 
 ABINIT comes with ABSOLUTELY NO WARRANTY.
 It is free software, and you are welcome to redistribute it
 under certain conditions (GNU General Public License,
 see ~abinit/COPYING or http://www.gnu.org/copyleft/gpl.txt).

 ABINIT is a project of the Universite Catholique de Louvain,
 Corning Inc. and other collaborators, see ~abinit/doc/developers/contributors.txt .
 Please read https://docs.abinit.org/theory/acknowledgments for suggested
 acknowledgments of the ABINIT effort.
 For more information, see https://www.abinit.org .

.Starting date : Mon 25 Nov 2019.
- ( at 08h31 )
  
- input  file    -> t47.in
- output file    -> t47.out
- root for input  files -> t47i
- root for output files -> t47o


 DATASET    1 : space group Fm -3 m (#225); Bravais cF (face-center cubic)
================================================================================
 Values of the parameters that define the memory need for DATASET  1.
     intxc =       0    ionmov =       0      iscf =      17    lmnmax =      32
     lnmax =       8     mgfft =      15  mpssoang =       4    mqgrid =    3001
     natom =       1  nloc_mem =       2    nspden =       2   nspinor =       1
    nsppol =       2      nsym =      48    n1xccc =       1    ntypat =       1
    occopt =       3   xclevel =       1
-    mband =          24        mffmem =           1         mkmem =           1
       mpw =         108          nfft =        3375          nkpt =           1
 PAW method is used; the additional fine FFT grid is defined by:
   mgfftf=        18    nfftf =      5832
================================================================================
P This job should need less than                       8.235 Mbytes of memory.
  Rough estimation (10% accuracy) of disk space for files :
_ WF disk file :      0.081 Mbytes ; DEN or POT disk file :      0.091 Mbytes.
================================================================================


 DATASET    2 : space group Fm -3 m (#225); Bravais cF (face-center cubic)
================================================================================
 Values of the parameters that define the memory need for DATASET  2.
     intxc =       0    ionmov =       0      iscf =      17    lmnmax =      32
     lnmax =       8     mgfft =      15  mpssoang =       4    mqgrid =    3001
     natom =       1  nloc_mem =       2    nspden =       2   nspinor =       1
    nsppol =       2      nsym =      48    n1xccc =       1    ntypat =       1
    occopt =       3   xclevel =       1
-    mband =          24        mffmem =           1         mkmem =           1
       mpw =         108          nfft =        3375          nkpt =           1
 PAW method is used; the additional fine FFT grid is defined by:
   mgfftf=        18    nfftf =      5832
================================================================================
P This job should need less than                       8.235 Mbytes of memory.
  Rough estimation (10% accuracy) of disk space for files :
_ WF disk file :      0.081 Mbytes ; DEN or POT disk file :      0.091 Mbytes.
================================================================================

--------------------------------------------------------------------------------
------------- Echo of variables that govern the present computation ------------
--------------------------------------------------------------------------------
-
- outvars: echo of selected default values                                      
-   iomode0 =  0 , fftalg0 =312 , wfoptalg0 = 10
-
- outvars: echo of global parameters not present in the input file              
-  max_nthreads =    0
-
 -outvars: echo values of preprocessed input variables --------
            acell      7.4000000000E+00  7.4000000000E+00  7.4000000000E+00 Bohr
              amu      1.57250000E+02
         dmatpawu1       1.00000    0.00000    0.00000    0.00000    0.00000
                         0.00000    0.00000    0.00000    1.00000    0.00000
                         0.00000    0.00000    0.00000    0.00000    0.00000
                         0.00000    1.00000    0.00000    0.00000    0.00000
                         0.00000    0.00000    0.00000    0.00000    1.00000
                         0.00000    0.00000    0.00000    0.00000    0.00000
                         0.00000    0.00000    1.00000    0.00000    0.00000
                         0.00000    0.00000    0.00000    0.00000    0.00000
                         1.00000    0.00000    0.00000    0.00000    0.00000
                         0.00000    0.00000    0.00000    1.00000    0.00000
                         0.00000    0.00000    0.00000    0.00000    0.00000
                         0.00000    0.00000    0.00000    0.00000    0.00000
                         0.00000    0.00000    0.00000    0.00000    0.00000
                         0.00000    0.00000    0.00000    0.00000    0.00000
                         0.00000    0.00000    0.00000    0.00000    0.00000
                         0.00000    0.00000    0.00000    0.00000    0.00000
                         0.00000    0.00000    0.00000    0.00000    0.00000
                         0.00000    0.00000    0.00000    0.00000    0.00000
                         0.00000    0.00000    0.00000    0.00000    0.00000
                         0.00000    0.00000    0.00000
         dmatpawu2     -10.00000  -10.00000  -10.00000  -10.00000  -10.00000
                       -10.00000  -10.00000  -10.00000  -10.00000  -10.00000
                       -10.00000  -10.00000  -10.00000  -10.00000  -10.00000
                       -10.00000  -10.00000  -10.00000  -10.00000  -10.00000
                       -10.00000  -10.00000  -10.00000  -10.00000  -10.00000
                       -10.00000  -10.00000  -10.00000  -10.00000  -10.00000
                       -10.00000  -10.00000  -10.00000  -10.00000  -10.00000
                       -10.00000  -10.00000  -10.00000  -10.00000  -10.00000
                       -10.00000  -10.00000  -10.00000  -10.00000  -10.00000
                       -10.00000  -10.00000  -10.00000  -10.00000  -10.00000
                       -10.00000  -10.00000  -10.00000  -10.00000  -10.00000
                       -10.00000  -10.00000  -10.00000  -10.00000  -10.00000
                       -10.00000  -10.00000  -10.00000  -10.00000  -10.00000
                       -10.00000  -10.00000  -10.00000  -10.00000  -10.00000
                       -10.00000  -10.00000  -10.00000  -10.00000  -10.00000
                       -10.00000  -10.00000  -10.00000  -10.00000  -10.00000
                       -10.00000  -10.00000  -10.00000  -10.00000  -10.00000
                       -10.00000  -10.00000  -10.00000  -10.00000  -10.00000
                       -10.00000  -10.00000  -10.00000  -10.00000  -10.00000
                       -10.00000  -10.00000  -10.00000
        dmatpuopt           1
        dmftbandf1          0
        dmftbandf2         20
        dmftbandi1          0
        dmftbandi2          1
        dmft_iter1          0
        dmft_iter2          1
        dmft_nwli1          0
        dmft_nwli2      20000
        dmft_nwlo1          0
        dmft_nwlo2         32
  dmft_occnd_imag1          1
  dmft_occnd_imag2          0
        dmft_rslf1          0
        dmft_rslf2          1
        dmft_solv1          5
        dmft_solv2          2
             ecut      8.00000000E+00 Hartree
-          fftalg         312
           getwfk          -1
           istwfk        1
              ixc           7
           jdtset        1    2
              kpt      5.00000000E-01  0.00000000E+00  0.00000000E+00
         kptrlatt        1   -1    1     -1    1    1     -1   -1    1
          kptrlen      7.40000000E+00
            lpawu           3
P           mkmem           1
            natom           1
            nband          24
           ndtset           2
            ngfft          15      15      15
          ngfftdg          18      18      18
             nkpt           1
           nspden           2
           nsppol           2
            nstep1         30
            nstep2          2
             nsym          48
           ntypat           1
              occ      1.000000  1.000000  1.000000  1.000000  1.000000  1.000000
                       1.000000  1.000000  1.000000  0.000000  0.000000  0.000000
                       0.000000  0.000000  0.000000  0.000000  0.000000  0.000000
                       0.000000  0.000000  0.000000  0.000000  0.000000  0.000000
                       1.000000  1.000000  1.000000  1.000000  1.000000  1.000000
                       1.000000  1.000000  1.000000  0.000000  0.000000  0.000000
                       0.000000  0.000000  0.000000  0.000000  0.000000  0.000000
                       0.000000  0.000000  0.000000  0.000000  0.000000  0.000000
           occopt           3
        optforces1          2
        optforces2          0
        pawecutdg      1.20000000E+01 Hartree
        pawprtvol          -1
           prtvol           4
            rprim      0.0000000000E+00  5.0000000000E-01  5.0000000000E-01
                       5.0000000000E-01  0.0000000000E+00  5.0000000000E-01
                       5.0000000000E-01  5.0000000000E-01  0.0000000000E+00
           shiftk      5.00000000E-01  5.00000000E-01  5.00000000E-01
          spgroup         225
           spinat      0.0000000000E+00  0.0000000000E+00  7.0000000000E+00
           symrel      1  0  0   0  1  0   0  0  1      -1  0  0   0 -1  0   0  0 -1
                       0 -1  1   0 -1  0   1 -1  0       0  1 -1   0  1  0  -1  1  0
                      -1  0  0  -1  0  1  -1  1  0       1  0  0   1  0 -1   1 -1  0
                       0  1 -1   1  0 -1   0  0 -1       0 -1  1  -1  0  1   0  0  1
                      -1  0  0  -1  1  0  -1  0  1       1  0  0   1 -1  0   1  0 -1
                       0 -1  1   1 -1  0   0 -1  0       0  1 -1  -1  1  0   0  1  0
                       1  0  0   0  0  1   0  1  0      -1  0  0   0  0 -1   0 -1  0
                       0  1 -1   0  0 -1   1  0 -1       0 -1  1   0  0  1  -1  0  1
                      -1  0  1  -1  1  0  -1  0  0       1  0 -1   1 -1  0   1  0  0
                       0 -1  0   1 -1  0   0 -1  1       0  1  0  -1  1  0   0  1 -1
                       1  0 -1   0  0 -1   0  1 -1      -1  0  1   0  0  1   0 -1  1
                       0  1  0   0  0  1   1  0  0       0 -1  0   0  0 -1  -1  0  0
                       1  0 -1   0  1 -1   0  0 -1      -1  0  1   0 -1  1   0  0  1
                       0 -1  0   0 -1  1   1 -1  0       0  1  0   0  1 -1  -1  1  0
                      -1  0  1  -1  0  0  -1  1  0       1  0 -1   1  0  0   1 -1  0
                       0  1  0   1  0  0   0  0  1       0 -1  0  -1  0  0   0  0 -1
                       0  0 -1   0  1 -1   1  0 -1       0  0  1   0 -1  1  -1  0  1
                       1 -1  0   0 -1  1   0 -1  0      -1  1  0   0  1 -1   0  1  0
                       0  0  1   1  0  0   0  1  0       0  0 -1  -1  0  0   0 -1  0
                      -1  1  0  -1  0  0  -1  0  1       1 -1  0   1  0  0   1  0 -1
                       0  0  1   0  1  0   1  0  0       0  0 -1   0 -1  0  -1  0  0
                       1 -1  0   0 -1  0   0 -1  1      -1  1  0   0  1  0   0  1 -1
                       0  0 -1   1  0 -1   0  1 -1       0  0  1  -1  0  1   0 -1  1
                      -1  1  0  -1  0  1  -1  0  0       1 -1  0   1  0 -1   1  0  0
           tolvrs      1.00000000E-05
           tsmear      3.67500000E-03 Hartree
            typat      1
            upawu      2.30000000E-01 Hartree
        usedmatpu1         10
        usedmatpu2          0
          usedmft1          0
          usedmft2          1
          usepawu1          1
          usepawu2         10
           useylm           1
            znucl       64.00000

================================================================================

 chkinp: Checking input parameters for consistency, jdtset=   1.

 chkinp: Checking input parameters for consistency, jdtset=   2.

================================================================================
== DATASET  1 ==================================================================
-   nproc =    1

 Exchange-correlation functional for the present dataset will be:
  LDA: Perdew-Wang 92 LSD fit to Ceperley-Alder data - ixc=7
 Citation for XC functional:
  J.P.Perdew and Y.Wang, PRB 45, 13244 (1992)

 Real(R)+Recip(G) space primitive vectors, cartesian coordinates (Bohr,Bohr^-1):
 R(1)=  0.0000000  3.7000000  3.7000000  G(1)= -0.1351351  0.1351351  0.1351351
 R(2)=  3.7000000  0.0000000  3.7000000  G(2)=  0.1351351 -0.1351351  0.1351351
 R(3)=  3.7000000  3.7000000  0.0000000  G(3)=  0.1351351  0.1351351 -0.1351351
 Unit cell volume ucvol=  1.0130600E+02 bohr^3
 Angles (23,13,12)=  6.00000000E+01  6.00000000E+01  6.00000000E+01 degrees

 Coarse grid specifications (used for wave-functions):

 getcut: wavevector=  0.0000  0.0000  0.0000  ngfft=  15  15  15
         ecut(hartree)=      8.000   => boxcut(ratio)=   2.11206

 Fine grid specifications (used for densities):

 getcut: wavevector=  0.0000  0.0000  0.0000  ngfft=  18  18  18
         ecut(hartree)=     12.000   => boxcut(ratio)=   2.21277

 getcut : COMMENT -
  Note that boxcut > 2.2 ; recall that boxcut=Gcut(box)/Gcut(sphere) = 2
  is sufficient for exact treatment of convolution.
  Such a large boxcut is a waste : you could raise ecut
  e.g. ecut=   14.689057 Hartrees makes boxcut=2


--- Pseudopotential description ------------------------------------------------
- pspini: atom type   1  psp file is /home/buildbot/bb/ABINIT/abiref_gnu_9.2_openmpi/trunk__gonze3/tests/Psps_for_tests/64gd.paw
- pspatm: opening atomic psp file    /home/buildbot/bb/ABINIT/abiref_gnu_9.2_openmpi/trunk__gonze3/tests/Psps_for_tests/64gd.paw
- Paw atomic data for element Gd - Generated by AtomPAW (N. Holzwarth) + AtomPAW2Abinit v3.0.5
- 64.00000  18.00000  20061212                znucl, zion, pspdat
    7    7    3    0       508   0.00000      pspcod,pspxc,lmax,lloc,mmax,r2well
 Pseudopotential format is: paw3
 basis_size (lnmax)=  8 (lmn_size= 32), orbitals=   0   0   1   1   2   2   3   3
 Spheres core radius: rc_sph= 2.53945782
 3 radial meshes are used:
  - mesh 1: r(i)=AA*[exp(BB*(i-1))-1], size= 508 , AA= 0.28076E-03 BB= 0.17969E-01
  - mesh 2: r(i)=AA*[exp(BB*(i-1))-1], size= 526 , AA= 0.28076E-03 BB= 0.17969E-01
  - mesh 3: r(i)=AA*[exp(BB*(i-1))-1], size= 584 , AA= 0.28076E-03 BB= 0.17969E-01
 Shapefunction is SIN type: shapef(r)=[sin(pi*r/rshp)/(pi*r/rshp)]**2
 Radius for shape functions = sphere core radius
 Radial grid used for partial waves is grid 1
 Radial grid used for projectors is grid  1
 Radial grid used for (t)core density is grid 2
 Radial grid used for Vloc is grid 3
 Compensation charge density is taken into account in XC energy/potential
 pspatm: atomic psp has been read  and splines computed

   1.01347208E+03                                ecore*ucvol(ha*bohr**3)
--------------------------------------------------------------------------------

P newkpt: treating     24 bands with npw=     108 for ikpt=   1 by node    0
P newkpt: treating     24 bands with npw=     108 for ikpt=   1 by node    0
_setup2: Arith. and geom. avg. npw (full set) are     108.000     108.000


 ******************************************
 LDA+U Method used: FLL
 ******************************************

================================================================================

     iter   Etot(hartree)     deltaE(h) residm    nres2    magn
 ETOT  1  -133.65223268534    -1.34E+02 9.50E+00 3.67E+01 2.000
 ETOT  2  -124.55512936556     9.10E+00 7.30E-01 3.53E+02 1.574
 ETOT  3  -116.21421395053     8.34E+00 2.23E+00 2.03E+02 4.000
 ETOT  4  -117.13725436047    -9.23E-01 3.84E-01 1.61E+02 4.000
 ETOT  5  -119.83728240860    -2.70E+00 1.25E-01 2.88E+02 4.000
 ETOT  6  -112.79309781421     7.04E+00 7.09E+00 5.17E+00 7.811
 ETOT  7  -113.04186308871    -2.49E-01 1.12E+00 1.83E+01 6.000
 ETOT  8  -113.15579018044    -1.14E-01 4.50E-02 2.09E+01 6.000
 ETOT  9  -112.76558584087     3.90E-01 6.70E-01 3.35E+00 7.995
 ETOT 10  -112.75416985766     1.14E-02 3.26E-01 1.55E+00 7.997
 ETOT 11  -112.66834698429     8.58E-02 2.30E-01 1.11E+00 8.000
 ETOT 12  -112.67101920863    -2.67E-03 4.89E-04 9.66E-01 8.000
 ETOT 13  -112.65483600075     1.62E-02 8.85E-02 2.22E-01 8.000
 ETOT 14  -112.65850279912    -3.67E-03 3.84E-03 2.59E-01 8.000
 ETOT 15  -112.65431225443     4.19E-03 8.44E-03 2.06E-01 8.000
 ETOT 16  -112.65435436924    -4.21E-05 7.46E-04 1.78E-01 8.000
 ETOT 17  -112.65835316150    -4.00E-03 1.39E-02 2.54E-02 8.000
 ETOT 18  -112.65810725942     2.46E-04 5.64E-03 1.69E-03 8.000
 ETOT 19  -112.65810503521     2.22E-06 5.72E-05 2.54E-04 8.000
 ETOT 20  -112.65810356582     1.47E-06 6.37E-05 5.91E-05 8.000
 ETOT 21  -112.65810245438     1.11E-06 2.85E-05 8.19E-08 8.000

 At SCF step   21       nres2   =  8.19E-08 < tolvrs=  1.00E-05 =>converged.

 Cartesian components of stress tensor (hartree/bohr^3)
  sigma(1 1)= -2.06977518E-03  sigma(3 2)=  0.00000000E+00
  sigma(2 2)= -2.06977518E-03  sigma(3 1)=  0.00000000E+00
  sigma(3 3)= -2.06977518E-03  sigma(2 1)=  0.00000000E+00

 Integrated electronic and magnetization densities in atomic spheres:
 ---------------------------------------------------------------------
 Radius=ratsph(iatom), smearing ratsm=  0.0000. Diff(up-dn)=approximate z local magnetic moment.
 Atom    Radius    up_density   dn_density  Total(up+dn)  Diff(up-dn)
    1   2.53946    12.288323     4.514725     16.803049     7.773598
 ---------------------------------------------------------------------
  Sum:             12.288323     4.514725     16.803049     7.773598
 Total magnetization (from the atomic spheres):             7.773598
 Total magnetization (exact up - dn):                       7.999895

 PAW TEST:
 ==== Compensation charge inside spheres ============
 The following values must be close to each other ...
 Compensation charge over spherical meshes =      6.844599879606108
 Compensation charge over fine fft grid    =      6.844455058246010

 ==== Results concerning PAW augmentation regions ====

 Total pseudopotential strength Dij (hartree):
 Atom #  1 - Spin component 1
   1.08951  -0.30654   0.00000   0.00000   0.00000   0.00000   0.00000   0.00000   0.00000   0.00000   0.00000   0.00000   0.00000   0.00000   0.00000   0.00000   0.00000   0.00000   0.00000   0.00000   0.00000   0.00000   0.00000   0.00000   0.00000   0.00000   0.00000   0.00000   0.00000   0.00000   0.00000   0.00000
  -0.30654   0.10914   0.00000   0.00000   0.00000   0.00000   0.00000   0.00000   0.00000   0.00000   0.00000   0.00000   0.00000   0.00000   0.00000   0.00000   0.00000   0.00000   0.00000   0.00000   0.00000   0.00000   0.00000   0.00000   0.00000   0.00000   0.00000   0.00000   0.00000   0.00000   0.00000   0.00000
   0.00000   0.00000   0.20715   0.00000   0.00000  -0.19715   0.00000   0.00000   0.00000   0.00000   0.00000   0.00000   0.00000   0.00000   0.00000   0.00000   0.00000   0.00000   0.00051   0.00000   0.00039   0.00000   0.00000   0.00000   0.00000  -0.00011   0.00000  -0.00009   0.00000   0.00000   0.00000   0.00000
   0.00000   0.00000   0.00000   0.20715   0.00000   0.00000  -0.19715   0.00000   0.00000   0.00000   0.00000   0.00000   0.00000   0.00000   0.00000   0.00000   0.00000   0.00000   0.00000   0.00000   0.00000  -0.00064   0.00000   0.00000   0.00000   0.00000   0.00000   0.00000   0.00014   0.00000   0.00000   0.00000
   0.00000   0.00000   0.00000   0.00000   0.20715   0.00000   0.00000  -0.19715   0.00000   0.00000   0.00000   0.00000   0.00000   0.00000   0.00000   0.00000   0.00000   0.00000   0.00000   0.00000   0.00000   0.00000   0.00039   0.00000  -0.00051   0.00000   0.00000   0.00000   0.00000  -0.00009   0.00000   0.00011
   0.00000   0.00000  -0.19715   0.00000   0.00000   0.54180   0.00000   0.00000   0.00000   0.00000   0.00000   0.00000   0.00000   0.00000   0.00000   0.00000   0.00000   0.00000  -0.00037   0.00000  -0.00029   0.00000   0.00000   0.00000   0.00000  -0.00017   0.00000  -0.00013   0.00000   0.00000   0.00000   0.00000
   0.00000   0.00000   0.00000  -0.19715   0.00000   0.00000   0.54180   0.00000   0.00000   0.00000   0.00000   0.00000   0.00000   0.00000   0.00000   0.00000   0.00000   0.00000   0.00000   0.00000   0.00000   0.00047   0.00000   0.00000   0.00000   0.00000   0.00000   0.00000   0.00022   0.00000   0.00000   0.00000
   0.00000   0.00000   0.00000   0.00000  -0.19715   0.00000   0.00000   0.54180   0.00000   0.00000   0.00000   0.00000   0.00000   0.00000   0.00000   0.00000   0.00000   0.00000   0.00000   0.00000   0.00000   0.00000  -0.00029   0.00000   0.00037   0.00000   0.00000   0.00000   0.00000  -0.00013   0.00000   0.00017
   0.00000   0.00000   0.00000   0.00000   0.00000   0.00000   0.00000   0.00000   0.09538   0.00000   0.00000   0.00000   0.00000  -0.37159   0.00000   0.00000   0.00000   0.00000   0.00000   0.00000   0.00000   0.00000   0.00000   0.00000   0.00000   0.00000   0.00000   0.00000   0.00000   0.00000   0.00000   0.00000
   0.00000   0.00000   0.00000   0.00000   0.00000   0.00000   0.00000   0.00000   0.00000   0.09538   0.00000   0.00000   0.00000   0.00000  -0.37159   0.00000   0.00000   0.00000   0.00000   0.00000   0.00000   0.00000   0.00000   0.00000   0.00000   0.00000   0.00000   0.00000   0.00000   0.00000   0.00000   0.00000
   0.00000   0.00000   0.00000   0.00000   0.00000   0.00000   0.00000   0.00000   0.00000   0.00000   0.09530   0.00000   0.00000   0.00000   0.00000  -0.37085   0.00000   0.00000   0.00000   0.00000   0.00000   0.00000   0.00000   0.00000   0.00000   0.00000   0.00000   0.00000   0.00000   0.00000   0.00000   0.00000
   0.00000   0.00000   0.00000   0.00000   0.00000   0.00000   0.00000   0.00000   0.00000   0.00000   0.00000   0.09538   0.00000   0.00000   0.00000   0.00000  -0.37159   0.00000   0.00000   0.00000   0.00000   0.00000   0.00000   0.00000   0.00000   0.00000   0.00000   0.00000   0.00000   0.00000   0.00000   0.00000
   0.00000   0.00000   0.00000   0.00000   0.00000   0.00000   0.00000   0.00000   0.00000   0.00000   0.00000   0.00000   0.09530   0.00000   0.00000   0.00000   0.00000  -0.37085   0.00000   0.00000   0.00000   0.00000   0.00000   0.00000   0.00000   0.00000   0.00000   0.00000   0.00000   0.00000   0.00000   0.00000
   0.00000   0.00000   0.00000   0.00000   0.00000   0.00000   0.00000   0.00000  -0.37159   0.00000   0.00000   0.00000   0.00000   1.78251   0.00000   0.00000   0.00000   0.00000   0.00000   0.00000   0.00000   0.00000   0.00000   0.00000   0.00000   0.00000   0.00000   0.00000   0.00000   0.00000   0.00000   0.00000
   0.00000   0.00000   0.00000   0.00000   0.00000   0.00000   0.00000   0.00000   0.00000  -0.37159   0.00000   0.00000   0.00000   0.00000   1.78251   0.00000   0.00000   0.00000   0.00000   0.00000   0.00000   0.00000   0.00000   0.00000   0.00000   0.00000   0.00000   0.00000   0.00000   0.00000   0.00000   0.00000
   0.00000   0.00000   0.00000   0.00000   0.00000   0.00000   0.00000   0.00000   0.00000   0.00000  -0.37085   0.00000   0.00000   0.00000   0.00000   1.77964   0.00000   0.00000   0.00000   0.00000   0.00000   0.00000   0.00000   0.00000   0.00000   0.00000   0.00000   0.00000   0.00000   0.00000   0.00000   0.00000
   0.00000   0.00000   0.00000   0.00000   0.00000   0.00000   0.00000   0.00000   0.00000   0.00000   0.00000  -0.37159   0.00000   0.00000   0.00000   0.00000   1.78251   0.00000   0.00000   0.00000   0.00000   0.00000   0.00000   0.00000   0.00000   0.00000   0.00000   0.00000   0.00000   0.00000   0.00000   0.00000
   0.00000   0.00000   0.00000   0.00000   0.00000   0.00000   0.00000   0.00000   0.00000   0.00000   0.00000   0.00000  -0.37085   0.00000   0.00000   0.00000   0.00000   1.77964   0.00000   0.00000   0.00000   0.00000   0.00000   0.00000   0.00000   0.00000   0.00000   0.00000   0.00000   0.00000   0.00000   0.00000
   0.00000   0.00000   0.00051   0.00000   0.00000  -0.00037   0.00000   0.00000   0.00000   0.00000   0.00000   0.00000   0.00000   0.00000   0.00000   0.00000   0.00000   0.00000   0.19180   0.00000   0.00030   0.00000   0.00000   0.00000   0.00000  -0.38935   0.00000   0.00001   0.00000   0.00000   0.00000   0.00000
   0.00000   0.00000   0.00000   0.00000   0.00000   0.00000   0.00000   0.00000   0.00000   0.00000   0.00000   0.00000   0.00000   0.00000   0.00000   0.00000   0.00000   0.00000   0.00000   0.19360   0.00000   0.00000   0.00000   0.00000   0.00000   0.00000  -0.38945   0.00000   0.00000   0.00000   0.00000   0.00000
   0.00000   0.00000   0.00039   0.00000   0.00000  -0.00029   0.00000   0.00000   0.00000   0.00000   0.00000   0.00000   0.00000   0.00000   0.00000   0.00000   0.00000   0.00000   0.00030   0.00000   0.19165   0.00000   0.00000   0.00000   0.00000   0.00001   0.00000  -0.38936   0.00000   0.00000   0.00000   0.00000
   0.00000   0.00000   0.00000  -0.00064   0.00000   0.00000   0.00047   0.00000   0.00000   0.00000   0.00000   0.00000   0.00000   0.00000   0.00000   0.00000   0.00000   0.00000   0.00000   0.00000   0.00000   0.19203   0.00000   0.00000   0.00000   0.00000   0.00000   0.00000  -0.38935   0.00000   0.00000   0.00000
   0.00000   0.00000   0.00000   0.00000   0.00039   0.00000   0.00000  -0.00029   0.00000   0.00000   0.00000   0.00000   0.00000   0.00000   0.00000   0.00000   0.00000   0.00000   0.00000   0.00000   0.00000   0.00000   0.19165   0.00000  -0.00030   0.00000   0.00000   0.00000   0.00000  -0.38936   0.00000  -0.00001
   0.00000   0.00000   0.00000   0.00000   0.00000   0.00000   0.00000   0.00000   0.00000   0.00000   0.00000   0.00000   0.00000   0.00000   0.00000   0.00000   0.00000   0.00000   0.00000   0.00000   0.00000   0.00000   0.00000   0.19142   0.00000   0.00000   0.00000   0.00000   0.00000   0.00000  -0.38936   0.00000
   0.00000   0.00000   0.00000   0.00000  -0.00051   0.00000   0.00000   0.00037   0.00000   0.00000   0.00000   0.00000   0.00000   0.00000   0.00000   0.00000   0.00000   0.00000   0.00000   0.00000   0.00000   0.00000  -0.00030   0.00000   0.19180   0.00000   0.00000   0.00000   0.00000  -0.00001   0.00000  -0.38935
   0.00000   0.00000  -0.00011   0.00000   0.00000  -0.00017   0.00000   0.00000   0.00000   0.00000   0.00000   0.00000   0.00000   0.00000   0.00000   0.00000   0.00000   0.00000  -0.38935   0.00000   0.00001   0.00000   0.00000   0.00000   0.00000   0.36724   0.00000   0.00006   0.00000   0.00000   0.00000   0.00000
   0.00000   0.00000   0.00000   0.00000   0.00000   0.00000   0.00000   0.00000   0.00000   0.00000   0.00000   0.00000   0.00000   0.00000   0.00000   0.00000   0.00000   0.00000   0.00000  -0.38945   0.00000   0.00000   0.00000   0.00000   0.00000   0.00000   0.36699   0.00000   0.00000   0.00000   0.00000   0.00000
   0.00000   0.00000  -0.00009   0.00000   0.00000  -0.00013   0.00000   0.00000   0.00000   0.00000   0.00000   0.00000   0.00000   0.00000   0.00000   0.00000   0.00000   0.00000   0.00001   0.00000  -0.38936   0.00000   0.00000   0.00000   0.00000   0.00006   0.00000   0.36720   0.00000   0.00000   0.00000   0.00000
   0.00000   0.00000   0.00000   0.00014   0.00000   0.00000   0.00022   0.00000   0.00000   0.00000   0.00000   0.00000   0.00000   0.00000   0.00000   0.00000   0.00000   0.00000   0.00000   0.00000   0.00000  -0.38935   0.00000   0.00000   0.00000   0.00000   0.00000   0.00000   0.36729   0.00000   0.00000   0.00000
   0.00000   0.00000   0.00000   0.00000  -0.00009   0.00000   0.00000  -0.00013   0.00000   0.00000   0.00000   0.00000   0.00000   0.00000   0.00000   0.00000   0.00000   0.00000   0.00000   0.00000   0.00000   0.00000  -0.38936   0.00000  -0.00001   0.00000   0.00000   0.00000   0.00000   0.36720   0.00000  -0.00006
   0.00000   0.00000   0.00000   0.00000   0.00000   0.00000   0.00000   0.00000   0.00000   0.00000   0.00000   0.00000   0.00000   0.00000   0.00000   0.00000   0.00000   0.00000   0.00000   0.00000   0.00000   0.00000   0.00000  -0.38936   0.00000   0.00000   0.00000   0.00000   0.00000   0.00000   0.36715   0.00000
   0.00000   0.00000   0.00000   0.00000   0.00011   0.00000   0.00000   0.00017   0.00000   0.00000   0.00000   0.00000   0.00000   0.00000   0.00000   0.00000   0.00000   0.00000   0.00000   0.00000   0.00000   0.00000  -0.00001   0.00000  -0.38935   0.00000   0.00000   0.00000   0.00000  -0.00006   0.00000   0.36724
   max. value=  1.78E+00, min. value=  0.00E+00
 Atom #  1 - Spin component 2
   0.93088  -0.27828   0.00000   0.00000   0.00000   0.00000   0.00000   0.00000   0.00000   0.00000   0.00000   0.00000   0.00000   0.00000   0.00000   0.00000   0.00000   0.00000   0.00000   0.00000   0.00000   0.00000   0.00000   0.00000   0.00000   0.00000   0.00000   0.00000   0.00000   0.00000   0.00000   0.00000
  -0.27828   0.09769   0.00000   0.00000   0.00000   0.00000   0.00000   0.00000   0.00000   0.00000   0.00000   0.00000   0.00000   0.00000   0.00000   0.00000   0.00000   0.00000   0.00000   0.00000   0.00000   0.00000   0.00000   0.00000   0.00000   0.00000   0.00000   0.00000   0.00000   0.00000   0.00000   0.00000
   0.00000   0.00000   0.14938   0.00000   0.00000  -0.21439   0.00000   0.00000   0.00000   0.00000   0.00000   0.00000   0.00000   0.00000   0.00000   0.00000   0.00000   0.00000   0.00027   0.00000   0.00021   0.00000   0.00000   0.00000   0.00000  -0.00007   0.00000  -0.00005   0.00000   0.00000   0.00000   0.00000
   0.00000   0.00000   0.00000   0.14938   0.00000   0.00000  -0.21439   0.00000   0.00000   0.00000   0.00000   0.00000   0.00000   0.00000   0.00000   0.00000   0.00000   0.00000   0.00000   0.00000   0.00000  -0.00034   0.00000   0.00000   0.00000   0.00000   0.00000   0.00000   0.00009   0.00000   0.00000   0.00000
   0.00000   0.00000   0.00000   0.00000   0.14938   0.00000   0.00000  -0.21439   0.00000   0.00000   0.00000   0.00000   0.00000   0.00000   0.00000   0.00000   0.00000   0.00000   0.00000   0.00000   0.00000   0.00000   0.00021   0.00000  -0.00027   0.00000   0.00000   0.00000   0.00000  -0.00005   0.00000   0.00007
   0.00000   0.00000  -0.21439   0.00000   0.00000   0.54431   0.00000   0.00000   0.00000   0.00000   0.00000   0.00000   0.00000   0.00000   0.00000   0.00000   0.00000   0.00000  -0.00027   0.00000  -0.00021   0.00000   0.00000   0.00000   0.00000  -0.00005   0.00000  -0.00004   0.00000   0.00000   0.00000   0.00000
   0.00000   0.00000   0.00000  -0.21439   0.00000   0.00000   0.54431   0.00000   0.00000   0.00000   0.00000   0.00000   0.00000   0.00000   0.00000   0.00000   0.00000   0.00000   0.00000   0.00000   0.00000   0.00035   0.00000   0.00000   0.00000   0.00000   0.00000   0.00000   0.00006   0.00000   0.00000   0.00000
   0.00000   0.00000   0.00000   0.00000  -0.21439   0.00000   0.00000   0.54431   0.00000   0.00000   0.00000   0.00000   0.00000   0.00000   0.00000   0.00000   0.00000   0.00000   0.00000   0.00000   0.00000   0.00000  -0.00021   0.00000   0.00027   0.00000   0.00000   0.00000   0.00000  -0.00004   0.00000   0.00005
   0.00000   0.00000   0.00000   0.00000   0.00000   0.00000   0.00000   0.00000   0.06940   0.00000   0.00000   0.00000   0.00000  -0.33204   0.00000   0.00000   0.00000   0.00000   0.00000   0.00000   0.00000   0.00000   0.00000   0.00000   0.00000   0.00000   0.00000   0.00000   0.00000   0.00000   0.00000   0.00000
   0.00000   0.00000   0.00000   0.00000   0.00000   0.00000   0.00000   0.00000   0.00000   0.06940   0.00000   0.00000   0.00000   0.00000  -0.33204   0.00000   0.00000   0.00000   0.00000   0.00000   0.00000   0.00000   0.00000   0.00000   0.00000   0.00000   0.00000   0.00000   0.00000   0.00000   0.00000   0.00000
   0.00000   0.00000   0.00000   0.00000   0.00000   0.00000   0.00000   0.00000   0.00000   0.00000   0.06938   0.00000   0.00000   0.00000   0.00000  -0.33171   0.00000   0.00000   0.00000   0.00000   0.00000   0.00000   0.00000   0.00000   0.00000   0.00000   0.00000   0.00000   0.00000   0.00000   0.00000   0.00000
   0.00000   0.00000   0.00000   0.00000   0.00000   0.00000   0.00000   0.00000   0.00000   0.00000   0.00000   0.06940   0.00000   0.00000   0.00000   0.00000  -0.33204   0.00000   0.00000   0.00000   0.00000   0.00000   0.00000   0.00000   0.00000   0.00000   0.00000   0.00000   0.00000   0.00000   0.00000   0.00000
   0.00000   0.00000   0.00000   0.00000   0.00000   0.00000   0.00000   0.00000   0.00000   0.00000   0.00000   0.00000   0.06938   0.00000   0.00000   0.00000   0.00000  -0.33171   0.00000   0.00000   0.00000   0.00000   0.00000   0.00000   0.00000   0.00000   0.00000   0.00000   0.00000   0.00000   0.00000   0.00000
   0.00000   0.00000   0.00000   0.00000   0.00000   0.00000   0.00000   0.00000  -0.33204   0.00000   0.00000   0.00000   0.00000   1.72155   0.00000   0.00000   0.00000   0.00000   0.00000   0.00000   0.00000   0.00000   0.00000   0.00000   0.00000   0.00000   0.00000   0.00000   0.00000   0.00000   0.00000   0.00000
   0.00000   0.00000   0.00000   0.00000   0.00000   0.00000   0.00000   0.00000   0.00000  -0.33204   0.00000   0.00000   0.00000   0.00000   1.72155   0.00000   0.00000   0.00000   0.00000   0.00000   0.00000   0.00000   0.00000   0.00000   0.00000   0.00000   0.00000   0.00000   0.00000   0.00000   0.00000   0.00000
   0.00000   0.00000   0.00000   0.00000   0.00000   0.00000   0.00000   0.00000   0.00000   0.00000  -0.33171   0.00000   0.00000   0.00000   0.00000   1.72017   0.00000   0.00000   0.00000   0.00000   0.00000   0.00000   0.00000   0.00000   0.00000   0.00000   0.00000   0.00000   0.00000   0.00000   0.00000   0.00000
   0.00000   0.00000   0.00000   0.00000   0.00000   0.00000   0.00000   0.00000   0.00000   0.00000   0.00000  -0.33204   0.00000   0.00000   0.00000   0.00000   1.72155   0.00000   0.00000   0.00000   0.00000   0.00000   0.00000   0.00000   0.00000   0.00000   0.00000   0.00000   0.00000   0.00000   0.00000   0.00000
   0.00000   0.00000   0.00000   0.00000   0.00000   0.00000   0.00000   0.00000   0.00000   0.00000   0.00000   0.00000  -0.33171   0.00000   0.00000   0.00000   0.00000   1.72017   0.00000   0.00000   0.00000   0.00000   0.00000   0.00000   0.00000   0.00000   0.00000   0.00000   0.00000   0.00000   0.00000   0.00000
   0.00000   0.00000   0.00027   0.00000   0.00000  -0.00027   0.00000   0.00000   0.00000   0.00000   0.00000   0.00000   0.00000   0.00000   0.00000   0.00000   0.00000   0.00000   0.59106   0.00000  -0.00019   0.00000   0.00000   0.00000   0.00000  -0.48356   0.00000   0.00010   0.00000   0.00000   0.00000   0.00000
   0.00000   0.00000   0.00000   0.00000   0.00000   0.00000   0.00000   0.00000   0.00000   0.00000   0.00000   0.00000   0.00000   0.00000   0.00000   0.00000   0.00000   0.00000   0.00000   0.59199   0.00000   0.00000   0.00000   0.00000   0.00000   0.00000  -0.48373   0.00000   0.00000   0.00000   0.00000   0.00000
   0.00000   0.00000   0.00021   0.00000   0.00000  -0.00021   0.00000   0.00000   0.00000   0.00000   0.00000   0.00000   0.00000   0.00000   0.00000   0.00000   0.00000   0.00000  -0.00019   0.00000   0.59116   0.00000   0.00000   0.00000   0.00000   0.00010   0.00000  -0.48361   0.00000   0.00000   0.00000   0.00000
   0.00000   0.00000   0.00000  -0.00034   0.00000   0.00000   0.00035   0.00000   0.00000   0.00000   0.00000   0.00000   0.00000   0.00000   0.00000   0.00000   0.00000   0.00000   0.00000   0.00000   0.00000   0.59091   0.00000   0.00000   0.00000   0.00000   0.00000   0.00000  -0.48348   0.00000   0.00000   0.00000
   0.00000   0.00000   0.00000   0.00000   0.00021   0.00000   0.00000  -0.00021   0.00000   0.00000   0.00000   0.00000   0.00000   0.00000   0.00000   0.00000   0.00000   0.00000   0.00000   0.00000   0.00000   0.00000   0.59116   0.00000   0.00019   0.00000   0.00000   0.00000   0.00000  -0.48361   0.00000  -0.00010
   0.00000   0.00000   0.00000   0.00000   0.00000   0.00000   0.00000   0.00000   0.00000   0.00000   0.00000   0.00000   0.00000   0.00000   0.00000   0.00000   0.00000   0.00000   0.00000   0.00000   0.00000   0.00000   0.00000   0.59131   0.00000   0.00000   0.00000   0.00000   0.00000   0.00000  -0.48369   0.00000
   0.00000   0.00000   0.00000   0.00000  -0.00027   0.00000   0.00000   0.00027   0.00000   0.00000   0.00000   0.00000   0.00000   0.00000   0.00000   0.00000   0.00000   0.00000   0.00000   0.00000   0.00000   0.00000   0.00019   0.00000   0.59106   0.00000   0.00000   0.00000   0.00000  -0.00010   0.00000  -0.48356
   0.00000   0.00000  -0.00007   0.00000   0.00000  -0.00005   0.00000   0.00000   0.00000   0.00000   0.00000   0.00000   0.00000   0.00000   0.00000   0.00000   0.00000   0.00000  -0.48356   0.00000   0.00010   0.00000   0.00000   0.00000   0.00000   0.35583   0.00000   0.00000   0.00000   0.00000   0.00000   0.00000
   0.00000   0.00000   0.00000   0.00000   0.00000   0.00000   0.00000   0.00000   0.00000   0.00000   0.00000   0.00000   0.00000   0.00000   0.00000   0.00000   0.00000   0.00000   0.00000  -0.48373   0.00000   0.00000   0.00000   0.00000   0.00000   0.00000   0.35572   0.00000   0.00000   0.00000   0.00000   0.00000
   0.00000   0.00000  -0.00005   0.00000   0.00000  -0.00004   0.00000   0.00000   0.00000   0.00000   0.00000   0.00000   0.00000   0.00000   0.00000   0.00000   0.00000   0.00000   0.00010   0.00000  -0.48361   0.00000   0.00000   0.00000   0.00000   0.00000   0.00000   0.35583   0.00000   0.00000   0.00000   0.00000
   0.00000   0.00000   0.00000   0.00009   0.00000   0.00000   0.00006   0.00000   0.00000   0.00000   0.00000   0.00000   0.00000   0.00000   0.00000   0.00000   0.00000   0.00000   0.00000   0.00000   0.00000  -0.48348   0.00000   0.00000   0.00000   0.00000   0.00000   0.00000   0.35583   0.00000   0.00000   0.00000
   0.00000   0.00000   0.00000   0.00000  -0.00005   0.00000   0.00000  -0.00004   0.00000   0.00000   0.00000   0.00000   0.00000   0.00000   0.00000   0.00000   0.00000   0.00000   0.00000   0.00000   0.00000   0.00000  -0.48361   0.00000  -0.00010   0.00000   0.00000   0.00000   0.00000   0.35583   0.00000  -0.00000
   0.00000   0.00000   0.00000   0.00000   0.00000   0.00000   0.00000   0.00000   0.00000   0.00000   0.00000   0.00000   0.00000   0.00000   0.00000   0.00000   0.00000   0.00000   0.00000   0.00000   0.00000   0.00000   0.00000  -0.48369   0.00000   0.00000   0.00000   0.00000   0.00000   0.00000   0.35583   0.00000
   0.00000   0.00000   0.00000   0.00000   0.00007   0.00000   0.00000   0.00005   0.00000   0.00000   0.00000   0.00000   0.00000   0.00000   0.00000   0.00000   0.00000   0.00000   0.00000   0.00000   0.00000   0.00000  -0.00010   0.00000  -0.48356   0.00000   0.00000   0.00000   0.00000  -0.00000   0.00000   0.35583
   max. value=  1.72E+00, min. value=  0.00E+00


 Augmentation waves occupancies Rhoij:
 Atom #  1 - Spin component 1
   0.97627  -0.06482   0.00000   0.00000   0.00000   0.00000   0.00000   0.00000   0.00000   0.00000   0.00000   0.00000   0.00000   0.00000   0.00000   0.00000   0.00000   0.00000   0.00000   0.00000   0.00000   0.00000   0.00000   0.00000   0.00000   0.00000   0.00000   0.00000   0.00000   0.00000   0.00000   0.00000
  -0.06482   1.14187   0.00000   0.00000   0.00000   0.00000   0.00000   0.00000   0.00000   0.00000   0.00000   0.00000   0.00000   0.00000   0.00000   0.00000   0.00000   0.00000   0.00000   0.00000   0.00000   0.00000   0.00000   0.00000   0.00000   0.00000   0.00000   0.00000   0.00000   0.00000   0.00000   0.00000
   0.00000   0.00000   0.98017   0.00000   0.00000  -0.00265   0.00000   0.00000   0.00000   0.00000   0.00000   0.00000   0.00000   0.00000   0.00000   0.00000   0.00000   0.00000   0.00659   0.00000   0.00511   0.00000   0.00000   0.00000   0.00000  -0.00134   0.00000  -0.00104   0.00000   0.00000   0.00000   0.00000
   0.00000   0.00000   0.00000   0.98017   0.00000   0.00000  -0.00265   0.00000   0.00000   0.00000   0.00000   0.00000   0.00000   0.00000   0.00000   0.00000   0.00000   0.00000   0.00000   0.00000   0.00000  -0.00834   0.00000   0.00000   0.00000   0.00000   0.00000   0.00000   0.00170   0.00000   0.00000   0.00000
   0.00000   0.00000   0.00000   0.00000   0.98017   0.00000   0.00000  -0.00265   0.00000   0.00000   0.00000   0.00000   0.00000   0.00000   0.00000   0.00000   0.00000   0.00000   0.00000   0.00000   0.00000   0.00000   0.00511   0.00000  -0.00659   0.00000   0.00000   0.00000   0.00000  -0.00104   0.00000   0.00134
   0.00000   0.00000  -0.00265   0.00000   0.00000   0.00414   0.00000   0.00000   0.00000   0.00000   0.00000   0.00000   0.00000   0.00000   0.00000   0.00000   0.00000   0.00000   0.00044   0.00000   0.00034   0.00000   0.00000   0.00000   0.00000   0.00024   0.00000   0.00019   0.00000   0.00000   0.00000   0.00000
   0.00000   0.00000   0.00000  -0.00265   0.00000   0.00000   0.00414   0.00000   0.00000   0.00000   0.00000   0.00000   0.00000   0.00000   0.00000   0.00000   0.00000   0.00000   0.00000   0.00000   0.00000  -0.00055   0.00000   0.00000   0.00000   0.00000   0.00000   0.00000  -0.00031   0.00000   0.00000   0.00000
   0.00000   0.00000   0.00000   0.00000  -0.00265   0.00000   0.00000   0.00414   0.00000   0.00000   0.00000   0.00000   0.00000   0.00000   0.00000   0.00000   0.00000   0.00000   0.00000   0.00000   0.00000   0.00000   0.00034   0.00000  -0.00044   0.00000   0.00000   0.00000   0.00000   0.00019   0.00000  -0.00024
   0.00000   0.00000   0.00000   0.00000   0.00000   0.00000   0.00000   0.00000   0.57816   0.00000   0.00000   0.00000   0.00000   0.02654   0.00000   0.00000   0.00000   0.00000   0.00000   0.00000   0.00000   0.00000   0.00000   0.00000   0.00000   0.00000   0.00000   0.00000   0.00000   0.00000   0.00000   0.00000
   0.00000   0.00000   0.00000   0.00000   0.00000   0.00000   0.00000   0.00000   0.00000   0.57816   0.00000   0.00000   0.00000   0.00000   0.02654   0.00000   0.00000   0.00000   0.00000   0.00000   0.00000   0.00000   0.00000   0.00000   0.00000   0.00000   0.00000   0.00000   0.00000   0.00000   0.00000   0.00000
   0.00000   0.00000   0.00000   0.00000   0.00000   0.00000   0.00000   0.00000   0.00000   0.00000   0.50678   0.00000   0.00000   0.00000   0.00000   0.01123   0.00000   0.00000   0.00000   0.00000   0.00000   0.00000   0.00000   0.00000   0.00000   0.00000   0.00000   0.00000   0.00000   0.00000   0.00000   0.00000
   0.00000   0.00000   0.00000   0.00000   0.00000   0.00000   0.00000   0.00000   0.00000   0.00000   0.00000   0.57816   0.00000   0.00000   0.00000   0.00000   0.02654   0.00000   0.00000   0.00000   0.00000   0.00000   0.00000   0.00000   0.00000   0.00000   0.00000   0.00000   0.00000   0.00000   0.00000   0.00000
   0.00000   0.00000   0.00000   0.00000   0.00000   0.00000   0.00000   0.00000   0.00000   0.00000   0.00000   0.00000   0.50678   0.00000   0.00000   0.00000   0.00000   0.01123   0.00000   0.00000   0.00000   0.00000   0.00000   0.00000   0.00000   0.00000   0.00000   0.00000   0.00000   0.00000   0.00000   0.00000
   0.00000   0.00000   0.00000   0.00000   0.00000   0.00000   0.00000   0.00000   0.02654   0.00000   0.00000   0.00000   0.00000   0.00142   0.00000   0.00000   0.00000   0.00000   0.00000   0.00000   0.00000   0.00000   0.00000   0.00000   0.00000   0.00000   0.00000   0.00000   0.00000   0.00000   0.00000   0.00000
   0.00000   0.00000   0.00000   0.00000   0.00000   0.00000   0.00000   0.00000   0.00000   0.02654   0.00000   0.00000   0.00000   0.00000   0.00142   0.00000   0.00000   0.00000   0.00000   0.00000   0.00000   0.00000   0.00000   0.00000   0.00000   0.00000   0.00000   0.00000   0.00000   0.00000   0.00000   0.00000
   0.00000   0.00000   0.00000   0.00000   0.00000   0.00000   0.00000   0.00000   0.00000   0.00000   0.01123   0.00000   0.00000   0.00000   0.00000   0.00025   0.00000   0.00000   0.00000   0.00000   0.00000   0.00000   0.00000   0.00000   0.00000   0.00000   0.00000   0.00000   0.00000   0.00000   0.00000   0.00000
   0.00000   0.00000   0.00000   0.00000   0.00000   0.00000   0.00000   0.00000   0.00000   0.00000   0.00000   0.02654   0.00000   0.00000   0.00000   0.00000   0.00142   0.00000   0.00000   0.00000   0.00000   0.00000   0.00000   0.00000   0.00000   0.00000   0.00000   0.00000   0.00000   0.00000   0.00000   0.00000
   0.00000   0.00000   0.00000   0.00000   0.00000   0.00000   0.00000   0.00000   0.00000   0.00000   0.00000   0.00000   0.01123   0.00000   0.00000   0.00000   0.00000   0.00025   0.00000   0.00000   0.00000   0.00000   0.00000   0.00000   0.00000   0.00000   0.00000   0.00000   0.00000   0.00000   0.00000   0.00000
   0.00000   0.00000   0.00659   0.00000   0.00000   0.00044   0.00000   0.00000   0.00000   0.00000   0.00000   0.00000   0.00000   0.00000   0.00000   0.00000   0.00000   0.00000   1.00375   0.00000  -0.00249   0.00000   0.00000   0.00000   0.00000   0.01565   0.00000   0.00337   0.00000   0.00000   0.00000   0.00000
   0.00000   0.00000   0.00000   0.00000   0.00000   0.00000   0.00000   0.00000   0.00000   0.00000   0.00000   0.00000   0.00000   0.00000   0.00000   0.00000   0.00000   0.00000   0.00000   1.00228   0.00000   0.00000   0.00000   0.00000   0.00000   0.00000   0.00714   0.00000   0.00000   0.00000   0.00000   0.00000
   0.00000   0.00000   0.00511   0.00000   0.00000   0.00034   0.00000   0.00000   0.00000   0.00000   0.00000   0.00000   0.00000   0.00000   0.00000   0.00000   0.00000   0.00000  -0.00249   0.00000   1.00504   0.00000   0.00000   0.00000   0.00000   0.00337   0.00000   0.01391   0.00000   0.00000   0.00000   0.00000
   0.00000   0.00000   0.00000  -0.00834   0.00000   0.00000  -0.00055   0.00000   0.00000   0.00000   0.00000   0.00000   0.00000   0.00000   0.00000   0.00000   0.00000   0.00000   0.00000   0.00000   0.00000   1.00182   0.00000   0.00000   0.00000   0.00000   0.00000   0.00000   0.01826   0.00000   0.00000   0.00000
   0.00000   0.00000   0.00000   0.00000   0.00511   0.00000   0.00000   0.00034   0.00000   0.00000   0.00000   0.00000   0.00000   0.00000   0.00000   0.00000   0.00000   0.00000   0.00000   0.00000   0.00000   0.00000   1.00504   0.00000   0.00249   0.00000   0.00000   0.00000   0.00000   0.01391   0.00000  -0.00337
   0.00000   0.00000   0.00000   0.00000   0.00000   0.00000   0.00000   0.00000   0.00000   0.00000   0.00000   0.00000   0.00000   0.00000   0.00000   0.00000   0.00000   0.00000   0.00000   0.00000   0.00000   0.00000   0.00000   1.00697   0.00000   0.00000   0.00000   0.00000   0.00000   0.00000   0.01130   0.00000
   0.00000   0.00000   0.00000   0.00000  -0.00659   0.00000   0.00000  -0.00044   0.00000   0.00000   0.00000   0.00000   0.00000   0.00000   0.00000   0.00000   0.00000   0.00000   0.00000   0.00000   0.00000   0.00000   0.00249   0.00000   1.00375   0.00000   0.00000   0.00000   0.00000  -0.00337   0.00000   0.01565
   0.00000   0.00000  -0.00134   0.00000   0.00000   0.00024   0.00000   0.00000   0.00000   0.00000   0.00000   0.00000   0.00000   0.00000   0.00000   0.00000   0.00000   0.00000   0.01565   0.00000   0.00337   0.00000   0.00000   0.00000   0.00000   0.00329   0.00000  -0.00074   0.00000   0.00000   0.00000   0.00000
   0.00000   0.00000   0.00000   0.00000   0.00000   0.00000   0.00000   0.00000   0.00000   0.00000   0.00000   0.00000   0.00000   0.00000   0.00000   0.00000   0.00000   0.00000   0.00000   0.00714   0.00000   0.00000   0.00000   0.00000   0.00000   0.00000   0.00165   0.00000   0.00000   0.00000   0.00000   0.00000
   0.00000   0.00000  -0.00104   0.00000   0.00000   0.00019   0.00000   0.00000   0.00000   0.00000   0.00000   0.00000   0.00000   0.00000   0.00000   0.00000   0.00000   0.00000   0.00337   0.00000   0.01391   0.00000   0.00000   0.00000   0.00000  -0.00074   0.00000   0.00367   0.00000   0.00000   0.00000   0.00000
   0.00000   0.00000   0.00000   0.00170   0.00000   0.00000  -0.00031   0.00000   0.00000   0.00000   0.00000   0.00000   0.00000   0.00000   0.00000   0.00000   0.00000   0.00000   0.00000   0.00000   0.00000   0.01826   0.00000   0.00000   0.00000   0.00000   0.00000   0.00000   0.00272   0.00000   0.00000   0.00000
   0.00000   0.00000   0.00000   0.00000  -0.00104   0.00000   0.00000   0.00019   0.00000   0.00000   0.00000   0.00000   0.00000   0.00000   0.00000   0.00000   0.00000   0.00000   0.00000   0.00000   0.00000   0.00000   0.01391   0.00000  -0.00337   0.00000   0.00000   0.00000   0.00000   0.00367   0.00000   0.00074
   0.00000   0.00000   0.00000   0.00000   0.00000   0.00000   0.00000   0.00000   0.00000   0.00000   0.00000   0.00000   0.00000   0.00000   0.00000   0.00000   0.00000   0.00000   0.00000   0.00000   0.00000   0.00000   0.00000   0.01130   0.00000   0.00000   0.00000   0.00000   0.00000   0.00000   0.00425   0.00000
   0.00000   0.00000   0.00000   0.00000   0.00134   0.00000   0.00000  -0.00024   0.00000   0.00000   0.00000   0.00000   0.00000   0.00000   0.00000   0.00000   0.00000   0.00000   0.00000   0.00000   0.00000   0.00000  -0.00337   0.00000   0.01565   0.00000   0.00000   0.00000   0.00000   0.00074   0.00000   0.00329
   max. value=  1.14E+00, min. value=  0.00E+00
 Atom #  1 - Spin component 2
   1.04129   0.11803   0.00000   0.00000   0.00000   0.00000   0.00000   0.00000   0.00000   0.00000   0.00000   0.00000   0.00000   0.00000   0.00000   0.00000   0.00000   0.00000   0.00000   0.00000   0.00000   0.00000   0.00000   0.00000   0.00000   0.00000   0.00000   0.00000   0.00000   0.00000   0.00000   0.00000
   0.11803   1.13202   0.00000   0.00000   0.00000   0.00000   0.00000   0.00000   0.00000   0.00000   0.00000   0.00000   0.00000   0.00000   0.00000   0.00000   0.00000   0.00000   0.00000   0.00000   0.00000   0.00000   0.00000   0.00000   0.00000   0.00000   0.00000   0.00000   0.00000   0.00000   0.00000   0.00000
   0.00000   0.00000   0.98883   0.00000   0.00000   0.03405   0.00000   0.00000   0.00000   0.00000   0.00000   0.00000   0.00000   0.00000   0.00000   0.00000   0.00000   0.00000  -0.00085   0.00000  -0.00066   0.00000   0.00000   0.00000   0.00000   0.00015   0.00000   0.00012   0.00000   0.00000   0.00000   0.00000
   0.00000   0.00000   0.00000   0.98883   0.00000   0.00000   0.03405   0.00000   0.00000   0.00000   0.00000   0.00000   0.00000   0.00000   0.00000   0.00000   0.00000   0.00000   0.00000   0.00000   0.00000   0.00107   0.00000   0.00000   0.00000   0.00000   0.00000   0.00000  -0.00019   0.00000   0.00000   0.00000
   0.00000   0.00000   0.00000   0.00000   0.98883   0.00000   0.00000   0.03405   0.00000   0.00000   0.00000   0.00000   0.00000   0.00000   0.00000   0.00000   0.00000   0.00000   0.00000   0.00000   0.00000   0.00000  -0.00066   0.00000   0.00085   0.00000   0.00000   0.00000   0.00000   0.00012   0.00000  -0.00015
   0.00000   0.00000   0.03405   0.00000   0.00000   0.00480   0.00000   0.00000   0.00000   0.00000   0.00000   0.00000   0.00000   0.00000   0.00000   0.00000   0.00000   0.00000  -0.00011   0.00000  -0.00008   0.00000   0.00000   0.00000   0.00000  -0.00019   0.00000  -0.00015   0.00000   0.00000   0.00000   0.00000
   0.00000   0.00000   0.00000   0.03405   0.00000   0.00000   0.00480   0.00000   0.00000   0.00000   0.00000   0.00000   0.00000   0.00000   0.00000   0.00000   0.00000   0.00000   0.00000   0.00000   0.00000   0.00013   0.00000   0.00000   0.00000   0.00000   0.00000   0.00000   0.00024   0.00000   0.00000   0.00000
   0.00000   0.00000   0.00000   0.00000   0.03405   0.00000   0.00000   0.00480   0.00000   0.00000   0.00000   0.00000   0.00000   0.00000   0.00000   0.00000   0.00000   0.00000   0.00000   0.00000   0.00000   0.00000  -0.00008   0.00000   0.00011   0.00000   0.00000   0.00000   0.00000  -0.00015   0.00000   0.00019
   0.00000   0.00000   0.00000   0.00000   0.00000   0.00000   0.00000   0.00000   0.39849   0.00000   0.00000   0.00000   0.00000   0.02900   0.00000   0.00000   0.00000   0.00000   0.00000   0.00000   0.00000   0.00000   0.00000   0.00000   0.00000   0.00000   0.00000   0.00000   0.00000   0.00000   0.00000   0.00000
   0.00000   0.00000   0.00000   0.00000   0.00000   0.00000   0.00000   0.00000   0.00000   0.39849   0.00000   0.00000   0.00000   0.00000   0.02900   0.00000   0.00000   0.00000   0.00000   0.00000   0.00000   0.00000   0.00000   0.00000   0.00000   0.00000   0.00000   0.00000   0.00000   0.00000   0.00000   0.00000
   0.00000   0.00000   0.00000   0.00000   0.00000   0.00000   0.00000   0.00000   0.00000   0.00000   0.00000   0.00000   0.00000   0.00000   0.00000   0.00000   0.00000   0.00000   0.00000   0.00000   0.00000   0.00000   0.00000   0.00000   0.00000   0.00000   0.00000   0.00000   0.00000   0.00000   0.00000   0.00000
   0.00000   0.00000   0.00000   0.00000   0.00000   0.00000   0.00000   0.00000   0.00000   0.00000   0.00000   0.39849   0.00000   0.00000   0.00000   0.00000   0.02900   0.00000   0.00000   0.00000   0.00000   0.00000   0.00000   0.00000   0.00000   0.00000   0.00000   0.00000   0.00000   0.00000   0.00000   0.00000
   0.00000   0.00000   0.00000   0.00000   0.00000   0.00000   0.00000   0.00000   0.00000   0.00000   0.00000   0.00000   0.00000   0.00000   0.00000   0.00000   0.00000   0.00000   0.00000   0.00000   0.00000   0.00000   0.00000   0.00000   0.00000   0.00000   0.00000   0.00000   0.00000   0.00000   0.00000   0.00000
   0.00000   0.00000   0.00000   0.00000   0.00000   0.00000   0.00000   0.00000   0.02900   0.00000   0.00000   0.00000   0.00000   0.00215   0.00000   0.00000   0.00000   0.00000   0.00000   0.00000   0.00000   0.00000   0.00000   0.00000   0.00000   0.00000   0.00000   0.00000   0.00000   0.00000   0.00000   0.00000
   0.00000   0.00000   0.00000   0.00000   0.00000   0.00000   0.00000   0.00000   0.00000   0.02900   0.00000   0.00000   0.00000   0.00000   0.00215   0.00000   0.00000   0.00000   0.00000   0.00000   0.00000   0.00000   0.00000   0.00000   0.00000   0.00000   0.00000   0.00000   0.00000   0.00000   0.00000   0.00000
   0.00000   0.00000   0.00000   0.00000   0.00000   0.00000   0.00000   0.00000   0.00000   0.00000   0.00000   0.00000   0.00000   0.00000   0.00000   0.00000   0.00000   0.00000   0.00000   0.00000   0.00000   0.00000   0.00000   0.00000   0.00000   0.00000   0.00000   0.00000   0.00000   0.00000   0.00000   0.00000
   0.00000   0.00000   0.00000   0.00000   0.00000   0.00000   0.00000   0.00000   0.00000   0.00000   0.00000   0.02900   0.00000   0.00000   0.00000   0.00000   0.00215   0.00000   0.00000   0.00000   0.00000   0.00000   0.00000   0.00000   0.00000   0.00000   0.00000   0.00000   0.00000   0.00000   0.00000   0.00000
   0.00000   0.00000   0.00000   0.00000   0.00000   0.00000   0.00000   0.00000   0.00000   0.00000   0.00000   0.00000   0.00000   0.00000   0.00000   0.00000   0.00000   0.00000   0.00000   0.00000   0.00000   0.00000   0.00000   0.00000   0.00000   0.00000   0.00000   0.00000   0.00000   0.00000   0.00000   0.00000
   0.00000   0.00000  -0.00085   0.00000   0.00000  -0.00011   0.00000   0.00000   0.00000   0.00000   0.00000   0.00000   0.00000   0.00000   0.00000   0.00000   0.00000   0.00000   0.00035   0.00000  -0.00044   0.00000   0.00000   0.00000   0.00000   0.00061   0.00000  -0.00078   0.00000   0.00000   0.00000   0.00000
   0.00000   0.00000   0.00000   0.00000   0.00000   0.00000   0.00000   0.00000   0.00000   0.00000   0.00000   0.00000   0.00000   0.00000   0.00000   0.00000   0.00000   0.00000   0.00000   0.00023   0.00000   0.00000   0.00000   0.00000   0.00000   0.00000   0.00042   0.00000   0.00000   0.00000   0.00000   0.00000
   0.00000   0.00000  -0.00066   0.00000   0.00000  -0.00008   0.00000   0.00000   0.00000   0.00000   0.00000   0.00000   0.00000   0.00000   0.00000   0.00000   0.00000   0.00000  -0.00044   0.00000   0.00058   0.00000   0.00000   0.00000   0.00000  -0.00078   0.00000   0.00102   0.00000   0.00000   0.00000   0.00000
   0.00000   0.00000   0.00000   0.00107   0.00000   0.00000   0.00013   0.00000   0.00000   0.00000   0.00000   0.00000   0.00000   0.00000   0.00000   0.00000   0.00000   0.00000   0.00000   0.00000   0.00000   0.00000   0.00000   0.00000   0.00000   0.00000   0.00000   0.00000   0.00001   0.00000   0.00000   0.00000
   0.00000   0.00000   0.00000   0.00000  -0.00066   0.00000   0.00000  -0.00008   0.00000   0.00000   0.00000   0.00000   0.00000   0.00000   0.00000   0.00000   0.00000   0.00000   0.00000   0.00000   0.00000   0.00000   0.00058   0.00000   0.00044   0.00000   0.00000   0.00000   0.00000   0.00102   0.00000   0.00078
   0.00000   0.00000   0.00000   0.00000   0.00000   0.00000   0.00000   0.00000   0.00000   0.00000   0.00000   0.00000   0.00000   0.00000   0.00000   0.00000   0.00000   0.00000   0.00000   0.00000   0.00000   0.00000   0.00000   0.00092   0.00000   0.00000   0.00000   0.00000   0.00000   0.00000   0.00163   0.00000
   0.00000   0.00000   0.00000   0.00000   0.00085   0.00000   0.00000   0.00011   0.00000   0.00000   0.00000   0.00000   0.00000   0.00000   0.00000   0.00000   0.00000   0.00000   0.00000   0.00000   0.00000   0.00000   0.00044   0.00000   0.00035   0.00000   0.00000   0.00000   0.00000   0.00078   0.00000   0.00061
   0.00000   0.00000   0.00015   0.00000   0.00000  -0.00019   0.00000   0.00000   0.00000   0.00000   0.00000   0.00000   0.00000   0.00000   0.00000   0.00000   0.00000   0.00000   0.00061   0.00000  -0.00078   0.00000   0.00000   0.00000   0.00000   0.00109   0.00000  -0.00138   0.00000   0.00000   0.00000   0.00000
   0.00000   0.00000   0.00000   0.00000   0.00000   0.00000   0.00000   0.00000   0.00000   0.00000   0.00000   0.00000   0.00000   0.00000   0.00000   0.00000   0.00000   0.00000   0.00000   0.00042   0.00000   0.00000   0.00000   0.00000   0.00000   0.00000   0.00077   0.00000   0.00000   0.00000   0.00000   0.00000
   0.00000   0.00000   0.00012   0.00000   0.00000  -0.00015   0.00000   0.00000   0.00000   0.00000   0.00000   0.00000   0.00000   0.00000   0.00000   0.00000   0.00000   0.00000  -0.00078   0.00000   0.00102   0.00000   0.00000   0.00000   0.00000  -0.00138   0.00000   0.00180   0.00000   0.00000   0.00000   0.00000
   0.00000   0.00000   0.00000  -0.00019   0.00000   0.00000   0.00024   0.00000   0.00000   0.00000   0.00000   0.00000   0.00000   0.00000   0.00000   0.00000   0.00000   0.00000   0.00000   0.00000   0.00000   0.00001   0.00000   0.00000   0.00000   0.00000   0.00000   0.00000   0.00002   0.00000   0.00000   0.00000
   0.00000   0.00000   0.00000   0.00000   0.00012   0.00000   0.00000  -0.00015   0.00000   0.00000   0.00000   0.00000   0.00000   0.00000   0.00000   0.00000   0.00000   0.00000   0.00000   0.00000   0.00000   0.00000   0.00102   0.00000   0.00078   0.00000   0.00000   0.00000   0.00000   0.00180   0.00000   0.00138
   0.00000   0.00000   0.00000   0.00000   0.00000   0.00000   0.00000   0.00000   0.00000   0.00000   0.00000   0.00000   0.00000   0.00000   0.00000   0.00000   0.00000   0.00000   0.00000   0.00000   0.00000   0.00000   0.00000   0.00163   0.00000   0.00000   0.00000   0.00000   0.00000   0.00000   0.00287   0.00000
   0.00000   0.00000   0.00000   0.00000  -0.00015   0.00000   0.00000   0.00019   0.00000   0.00000   0.00000   0.00000   0.00000   0.00000   0.00000   0.00000   0.00000   0.00000   0.00000   0.00000   0.00000   0.00000   0.00078   0.00000   0.00061   0.00000   0.00000   0.00000   0.00000   0.00138   0.00000   0.00109
   max. value=  1.13E+00, min. value=  0.00E+00

 "PAW+U" part of augmentation waves occupancies Rhoij:
 Atom #  1 - L=3 ONLY - Spin component 1
   1.00375   0.00000  -0.00249   0.00000   0.00000   0.00000   0.00000   0.01565   0.00000   0.00337   0.00000   0.00000   0.00000   0.00000
   0.00000   1.00228   0.00000   0.00000   0.00000   0.00000   0.00000   0.00000   0.00714   0.00000   0.00000   0.00000   0.00000   0.00000
  -0.00249   0.00000   1.00504   0.00000   0.00000   0.00000   0.00000   0.00337   0.00000   0.01391   0.00000   0.00000   0.00000   0.00000
   0.00000   0.00000   0.00000   1.00182   0.00000   0.00000   0.00000   0.00000   0.00000   0.00000   0.01826   0.00000   0.00000   0.00000
   0.00000   0.00000   0.00000   0.00000   1.00504   0.00000   0.00249   0.00000   0.00000   0.00000   0.00000   0.01391   0.00000  -0.00337
   0.00000   0.00000   0.00000   0.00000   0.00000   1.00697   0.00000   0.00000   0.00000   0.00000   0.00000   0.00000   0.01130   0.00000
   0.00000   0.00000   0.00000   0.00000   0.00249   0.00000   1.00375   0.00000   0.00000   0.00000   0.00000  -0.00337   0.00000   0.01565
   0.01565   0.00000   0.00337   0.00000   0.00000   0.00000   0.00000   0.00329   0.00000  -0.00074   0.00000   0.00000   0.00000   0.00000
   0.00000   0.00714   0.00000   0.00000   0.00000   0.00000   0.00000   0.00000   0.00165   0.00000   0.00000   0.00000   0.00000   0.00000
   0.00337   0.00000   0.01391   0.00000   0.00000   0.00000   0.00000  -0.00074   0.00000   0.00367   0.00000   0.00000   0.00000   0.00000
   0.00000   0.00000   0.00000   0.01826   0.00000   0.00000   0.00000   0.00000   0.00000   0.00000   0.00272   0.00000   0.00000   0.00000
   0.00000   0.00000   0.00000   0.00000   0.01391   0.00000  -0.00337   0.00000   0.00000   0.00000   0.00000   0.00367   0.00000   0.00074
   0.00000   0.00000   0.00000   0.00000   0.00000   0.01130   0.00000   0.00000   0.00000   0.00000   0.00000   0.00000   0.00425   0.00000
   0.00000   0.00000   0.00000   0.00000  -0.00337   0.00000   0.01565   0.00000   0.00000   0.00000   0.00000   0.00074   0.00000   0.00329
 Atom #  1 - L=3 ONLY - Spin component 2
   0.00035   0.00000  -0.00044   0.00000   0.00000   0.00000   0.00000   0.00061   0.00000  -0.00078   0.00000   0.00000   0.00000   0.00000
   0.00000   0.00023   0.00000   0.00000   0.00000   0.00000   0.00000   0.00000   0.00042   0.00000   0.00000   0.00000   0.00000   0.00000
  -0.00044   0.00000   0.00058   0.00000   0.00000   0.00000   0.00000  -0.00078   0.00000   0.00102   0.00000   0.00000   0.00000   0.00000
   0.00000   0.00000   0.00000   0.00000   0.00000   0.00000   0.00000   0.00000   0.00000   0.00000   0.00001   0.00000   0.00000   0.00000
   0.00000   0.00000   0.00000   0.00000   0.00058   0.00000   0.00044   0.00000   0.00000   0.00000   0.00000   0.00102   0.00000   0.00078
   0.00000   0.00000   0.00000   0.00000   0.00000   0.00092   0.00000   0.00000   0.00000   0.00000   0.00000   0.00000   0.00163   0.00000
   0.00000   0.00000   0.00000   0.00000   0.00044   0.00000   0.00035   0.00000   0.00000   0.00000   0.00000   0.00078   0.00000   0.00061
   0.00061   0.00000  -0.00078   0.00000   0.00000   0.00000   0.00000   0.00109   0.00000  -0.00138   0.00000   0.00000   0.00000   0.00000
   0.00000   0.00042   0.00000   0.00000   0.00000   0.00000   0.00000   0.00000   0.00077   0.00000   0.00000   0.00000   0.00000   0.00000
  -0.00078   0.00000   0.00102   0.00000   0.00000   0.00000   0.00000  -0.00138   0.00000   0.00180   0.00000   0.00000   0.00000   0.00000
   0.00000   0.00000   0.00000   0.00001   0.00000   0.00000   0.00000   0.00000   0.00000   0.00000   0.00002   0.00000   0.00000   0.00000
   0.00000   0.00000   0.00000   0.00000   0.00102   0.00000   0.00078   0.00000   0.00000   0.00000   0.00000   0.00180   0.00000   0.00138
   0.00000   0.00000   0.00000   0.00000   0.00000   0.00163   0.00000   0.00000   0.00000   0.00000   0.00000   0.00000   0.00287   0.00000
   0.00000   0.00000   0.00000   0.00000   0.00078   0.00000   0.00061   0.00000   0.00000   0.00000   0.00000   0.00138   0.00000   0.00109

 ---------- LDA+U DATA --------------------------------------------------- 

 ====== For Atom     1, occupations for correlated orbitals. lpawu =   3

 Atom   1. Occ. for lpawu and for spin  1 =   6.86891
 Atom   1. Occ. for lpawu and for spin  2 =   0.00242
 => On atom   1,  local Mag. for lpawu is       -6.866489

 == Occupation matrix for correlated orbitals:

 Occupation matrix for spin  1
     0.98074    0.00000   -0.00279    0.00000    0.00000    0.00000    0.00000
     0.00000    0.98017    0.00000    0.00000    0.00000    0.00000    0.00000
    -0.00279    0.00000    0.98218    0.00000    0.00000    0.00000    0.00000
     0.00000    0.00000    0.00000    0.97858    0.00000    0.00000    0.00000
     0.00000    0.00000    0.00000    0.00000    0.98218    0.00000    0.00279
     0.00000    0.00000    0.00000    0.00000    0.00000    0.98433    0.00000
     0.00000    0.00000    0.00000    0.00000    0.00279    0.00000    0.98074


 Occupation matrix for spin  2
     0.00028    0.00000   -0.00036    0.00000    0.00000    0.00000    0.00000
     0.00000    0.00018    0.00000    0.00000    0.00000    0.00000    0.00000
    -0.00036    0.00000    0.00047    0.00000    0.00000    0.00000    0.00000
     0.00000    0.00000    0.00000    0.00000    0.00000    0.00000    0.00000
     0.00000    0.00000    0.00000    0.00000    0.00047    0.00000    0.00036
     0.00000    0.00000    0.00000    0.00000    0.00000    0.00074    0.00000
     0.00000    0.00000    0.00000    0.00000    0.00036    0.00000    0.00028



================================================================================

 ----iterations are completed or convergence reached----

 Mean square residual over all n,k,spin=   13.874E-07; max=  28.453E-06
   0.5000  0.0000  0.0000    1  3.08412E-06 kpt; spin; max resid(k); each band:
  3.34E-08 6.49E-08 3.78E-08 3.78E-08 5.23E-07 2.81E-07 2.81E-07 1.59E-08
  2.75E-10 2.75E-10 6.74E-11 2.25E-08 2.00E-08 2.00E-08 1.06E-06 5.11E-09
  5.12E-09 3.08E-06 3.67E-08 2.75E-06 2.75E-06 2.43E-08 2.34E-08 2.34E-08
   0.5000  0.0000  0.0000    2  2.84532E-05 kpt; spin; max resid(k); each band:
  4.66E-08 8.39E-08 4.05E-08 4.05E-08 2.48E-08 1.63E-08 1.61E-08 3.21E-06
  9.61E-07 9.59E-07 1.59E-07 4.09E-08 4.09E-08 2.25E-10 3.39E-06 4.95E-09
  4.88E-09 6.76E-06 4.16E-08 5.62E-06 5.54E-06 2.41E-08 1.99E-08 2.85E-05
 reduced coordinates (array xred) for    1 atoms
       0.000000000000      0.000000000000      0.000000000000
 rms dE/dt=  0.0000E+00; max dE/dt=  0.0000E+00; dE/dt below (all hartree)
    1       0.000000000000      0.000000000000      0.000000000000

 cartesian coordinates (angstrom) at end:
    1      0.00000000000000     0.00000000000000     0.00000000000000

 cartesian forces (hartree/bohr) at end:
    1     -0.00000000000000    -0.00000000000000    -0.00000000000000
 frms,max,avg= 0.0000000E+00 0.0000000E+00   0.000E+00  0.000E+00  0.000E+00 h/b

 cartesian forces (eV/Angstrom) at end:
    1     -0.00000000000000    -0.00000000000000    -0.00000000000000
 frms,max,avg= 0.0000000E+00 0.0000000E+00   0.000E+00  0.000E+00  0.000E+00 e/A
 length scales=  7.400000000000  7.400000000000  7.400000000000 bohr
              =  3.915911343566  3.915911343566  3.915911343566 angstroms
 prteigrs : about to open file t47o_DS1_EIG
 Fermi (or HOMO) energy (hartree) =   0.61955   Average Vxc (hartree)=  -0.53815
 Magnetization (Bohr magneton)=  7.99999982E+00
 Total spin up =  1.29999999E+01   Total spin down =  5.00000009E+00
 Eigenvalues (hartree) for nkpt=   1  k points, SPIN UP:
 kpt#   1, nband= 24, wtk=  1.00000, kpt=  0.5000  0.0000  0.0000 (reduced coord)
  -1.03409   -0.34658   -0.15334   -0.15334    0.33284    0.34251    0.34251    0.35325
   0.35522    0.35522    0.36201    0.45275    0.61955    0.61955    0.85385    1.01622
   1.01622    1.10173    1.34923    1.40938    1.40938    1.80331    1.90598    1.90598
      occupation numbers for kpt#   1
   1.00000    1.00000    1.00000    1.00000    1.00000    1.00000    1.00000    1.00000
   1.00000    1.00000    1.00000    1.00000    0.50000    0.50000    0.00000    0.00000
   0.00000    0.00000    0.00000    0.00000    0.00000    0.00000    0.00000    0.00000
 Eigenvalues (hartree) for nkpt=   1  k points, SPIN DOWN:
 kpt#   1, nband= 24, wtk=  1.00000, kpt=  0.5000  0.0000  0.0000 (reduced coord)
  -0.91418   -0.26215   -0.05022   -0.05022    0.50640    0.68163    0.68163    0.70363
   0.74567    0.74567    0.75971    0.77094    0.77094    0.78138    0.94686    1.09506
   1.09506    1.18374    1.41810    1.48600    1.48600    1.86413    1.98096    1.98107
      occupation numbers for kpt#   1
   1.00000    1.00000    1.00000    1.00000    1.00000    0.00000    0.00000    0.00000
   0.00000    0.00000    0.00000    0.00000    0.00000    0.00000    0.00000    0.00000
   0.00000    0.00000    0.00000    0.00000    0.00000    0.00000    0.00000    0.00000
 Total charge density [el/Bohr^3]
      Maximum=    1.0448E+00  at reduced coord.    0.0000    0.0000    0.0000
 Next maximum=    1.0259E+00  at reduced coord.    0.0000    0.0556    0.9444
      Minimum=    7.1984E-03  at reduced coord.    0.5000    0.5000    0.5000
 Next minimum=    8.0600E-03  at reduced coord.    0.5000    0.5000    0.4444
   Integrated=    1.8000E+01
 Spin up density      [el/Bohr^3]
      Maximum=    8.4134E-01  at reduced coord.    0.0000    0.0000    0.0000
 Next maximum=    8.1825E-01  at reduced coord.    0.0000    0.0556    0.9444
      Minimum=    4.7536E-03  at reduced coord.    0.5000    0.5000    0.5000
 Next minimum=    5.3243E-03  at reduced coord.    0.5000    0.5000    0.4444
   Integrated=    1.3000E+01
 Spin down density    [el/Bohr^3]
      Maximum=    2.1144E-01  at reduced coord.    0.0000    0.1111    0.8889
 Next maximum=    2.1144E-01  at reduced coord.    0.1111    0.0000    0.8889
      Minimum=    2.4449E-03  at reduced coord.    0.5000    0.5000    0.5000
 Next minimum=    2.7357E-03  at reduced coord.    0.5000    0.5000    0.4444
   Integrated=    5.0000E+00
 Magnetization (spin up - spin down) [el/Bohr^3]
      Maximum=    6.3791E-01  at reduced coord.    0.0000    0.0000    0.0000
 Next maximum=    6.1062E-01  at reduced coord.    0.0000    0.0556    0.9444
      Minimum=    2.3330E-04  at reduced coord.    0.2778    0.2222    0.2222
 Next minimum=    2.3330E-04  at reduced coord.    0.2222    0.2778    0.2222
   Integrated=    7.9999E+00
 Relative magnetization (=zeta, between -1 and 1)
      Maximum=    6.1057E-01  at reduced coord.    0.0000    0.0000    0.0000
 Next maximum=    5.9521E-01  at reduced coord.    0.0000    0.0556    0.9444
      Minimum=    4.6358E-03  at reduced coord.    0.2778    0.2222    0.2222
 Next minimum=    4.6358E-03  at reduced coord.    0.2222    0.2778    0.2222

--------------------------------------------------------------------------------
 Components of total free energy (in Hartree) :

    Kinetic energy  =  1.16532485114142E+01
    Hartree energy  =  1.27263168432615E+01
    XC energy       = -1.09998011840970E+01
    Ewald energy    = -1.00371304865735E+02
    PspCore energy  =  1.00040676772558E+01
    Loc. psp. energy= -4.19287830772042E+01
    Spherical terms =  6.26336440469717E+00
    >>>>> Internal E= -1.12652891690407E+02

    -kT*entropy     = -5.09463784392033E-03
    >>>>>>>>> Etotal= -1.12657986328251E+02

 "Double-counting" decomposition of free energy:
    Band energy     =  1.05813224134858E+00
    Ewald energy    =-1.00371304865735E+02
    PspCore energy  =  1.00040676772558E+01
    Dble-C XC-energy= -9.27665520278991E+00
    Spherical terms = -1.40672476666194E+01
    >>>>> Internal E= -1.12653007816540E+02

    -kT*entropy     = -5.09463784392033E-03
    >>>> Etotal (DC)= -1.12658102454384E+02

  >Total energy in eV           = -3.06557971087268E+03
  >Total DC energy in eV        = -3.06558287082545E+03
--------------------------------------------------------------------------------



 Cartesian components of stress tensor (hartree/bohr^3)
  sigma(1 1)= -2.06977518E-03  sigma(3 2)=  0.00000000E+00
  sigma(2 2)= -2.06977518E-03  sigma(3 1)=  0.00000000E+00
  sigma(3 3)= -2.06977518E-03  sigma(2 1)=  0.00000000E+00

-Cartesian components of stress tensor (GPa)         [Pressure=  6.0895E+01 GPa]
- sigma(1 1)= -6.08948778E+01  sigma(3 2)=  0.00000000E+00
- sigma(2 2)= -6.08948778E+01  sigma(3 1)=  0.00000000E+00
- sigma(3 3)= -6.08948778E+01  sigma(2 1)=  0.00000000E+00

================================================================================
== DATASET  2 ==================================================================
-   nproc =    1

 mkfilename : getwfk/=0, take file _WFK from output of DATASET   1.

 Exchange-correlation functional for the present dataset will be:
  LDA: Perdew-Wang 92 LSD fit to Ceperley-Alder data - ixc=7
 Citation for XC functional:
  J.P.Perdew and Y.Wang, PRB 45, 13244 (1992)

 Real(R)+Recip(G) space primitive vectors, cartesian coordinates (Bohr,Bohr^-1):
 R(1)=  0.0000000  3.7000000  3.7000000  G(1)= -0.1351351  0.1351351  0.1351351
 R(2)=  3.7000000  0.0000000  3.7000000  G(2)=  0.1351351 -0.1351351  0.1351351
 R(3)=  3.7000000  3.7000000  0.0000000  G(3)=  0.1351351  0.1351351 -0.1351351
 Unit cell volume ucvol=  1.0130600E+02 bohr^3
 Angles (23,13,12)=  6.00000000E+01  6.00000000E+01  6.00000000E+01 degrees

 Coarse grid specifications (used for wave-functions):

 getcut: wavevector=  0.0000  0.0000  0.0000  ngfft=  15  15  15
         ecut(hartree)=      8.000   => boxcut(ratio)=   2.11206

 Fine grid specifications (used for densities):

 getcut: wavevector=  0.0000  0.0000  0.0000  ngfft=  18  18  18
         ecut(hartree)=     12.000   => boxcut(ratio)=   2.21277

 getcut : COMMENT -
  Note that boxcut > 2.2 ; recall that boxcut=Gcut(box)/Gcut(sphere) = 2
  is sufficient for exact treatment of convolution.
  Such a large boxcut is a waste : you could raise ecut
  e.g. ecut=   14.689057 Hartrees makes boxcut=2

--------------------------------------------------------------------------------

-inwffil : will read wavefunctions from disk file t47o_DS1_WFK
P newkpt: treating     24 bands with npw=     108 for ikpt=   1 by node    0
P newkpt: treating     24 bands with npw=     108 for ikpt=   1 by node    0
_setup2: Arith. and geom. avg. npw (full set) are     108.000     108.000

-       ( number of procs used in dmft ) =  1


 ******************************************
 DFT+DMFT Method is used
 ******************************************

 DMFT uses the Hubbard one solver

================================================================================

     iter   Etot(hartree)     deltaE(h) residm    nres2    magn
 (Edmft  1   0.02942855991)

  == The DFT+DMFT occupation matrix for correlated electrons is ==

   -------> For Correlated Atom   1

          -- polarization spin component  1
        0.98988  -0.00000  -0.00517  -0.00000   0.00000   0.00000   0.00000
        0.00000   0.99014  -0.00000  -0.00000  -0.00000  -0.00000   0.00000
       -0.00517   0.00000   0.99255  -0.00000  -0.00000  -0.00000  -0.00000
        0.00000  -0.00000  -0.00000   0.98587  -0.00000   0.00000   0.00000
        0.00000   0.00000   0.00000   0.00000   0.99255   0.00000   0.00517
        0.00000  -0.00000   0.00000   0.00000  -0.00000   0.99656   0.00000
        0.00000   0.00000   0.00000  -0.00000   0.00517  -0.00000   0.98988

          -- polarization spin component  2
        0.07071   0.00000   0.05335  -0.00000  -0.00000   0.00000  -0.00000
       -0.00000   0.07147  -0.00000  -0.00000   0.00000  -0.00000   0.00000
        0.05335   0.00000   0.04317  -0.00000  -0.00000   0.00000  -0.00000
        0.00000  -0.00000   0.00000   0.11204  -0.00000   0.00000  -0.00000
       -0.00000  -0.00000  -0.00000  -0.00000   0.04317  -0.00000  -0.05335
        0.00000  -0.00000  -0.00000  -0.00000   0.00000   0.00184   0.00000
        0.00000   0.00000  -0.00000  -0.00000  -0.05335  -0.00000   0.07071

 ETOT  1  -112.62895469887    -1.13E+02 1.76E-06 3.08E-01 7.070
 (Edmft  2   0.00137297623)

  == The DFT+DMFT occupation matrix for correlated electrons is ==

   -------> For Correlated Atom   1

          -- polarization spin component  1
        0.98328  -0.00000  -0.00856  -0.00000  -0.00000   0.00000  -0.00000
       -0.00000   0.98415   0.00000   0.00000   0.00000  -0.00000   0.00000
       -0.00856   0.00000   0.98770   0.00000   0.00000   0.00000  -0.00000
        0.00000   0.00000   0.00000   0.97665   0.00000   0.00000   0.00000
       -0.00000   0.00000  -0.00000   0.00000   0.98770  -0.00000   0.00856
       -0.00000   0.00000  -0.00000   0.00000   0.00000   0.99433  -0.00000
       -0.00000   0.00000   0.00000  -0.00000   0.00856   0.00000   0.98328

          -- polarization spin component  2
        0.00092  -0.00000  -0.00046   0.00000  -0.00000   0.00000  -0.00000
       -0.00000   0.00077   0.00000   0.00000   0.00000  -0.00000   0.00000
       -0.00046   0.00000   0.00115  -0.00000   0.00000  -0.00000  -0.00000
        0.00000   0.00000  -0.00000   0.00056  -0.00000   0.00000   0.00000
        0.00000  -0.00000   0.00000  -0.00000   0.00115  -0.00000   0.00046
       -0.00000  -0.00000  -0.00000  -0.00000   0.00000   0.00151   0.00000
       -0.00000   0.00000  -0.00000   0.00000   0.00046  -0.00000   0.00092

 ETOT  2  -112.67209933643    -4.31E-02 5.94E-07 6.29E-01 7.990

 Cartesian components of stress tensor (hartree/bohr^3)
  sigma(1 1)= -5.59257284E-03  sigma(3 2)=  0.00000000E+00
  sigma(2 2)= -5.59257284E-03  sigma(3 1)=  0.00000000E+00
  sigma(3 3)= -5.59257284E-03  sigma(2 1)=  0.00000000E+00


 scprqt:  WARNING -
  nstep=    2 was not enough SCF cycles to converge;
  density residual=  6.293E-01 exceeds tolvrs=  1.000E-05

 Integrated electronic and magnetization densities in atomic spheres:
 ---------------------------------------------------------------------
 Radius=ratsph(iatom), smearing ratsm=  0.0000. Diff(up-dn)=approximate z local magnetic moment.
 Atom    Radius    up_density   dn_density  Total(up+dn)  Diff(up-dn)
    1   2.53946    12.231290     4.500946     16.732237     7.730344
 ---------------------------------------------------------------------
  Sum:             12.231290     4.500946     16.732237     7.730344
 Total magnetization (from the atomic spheres):             7.730344
 Total magnetization (exact up - dn):                       7.990353

 PAW TEST:
 ==== Compensation charge inside spheres ============
 The following values must be close to each other ...
 Compensation charge over spherical meshes =      7.048389021559984
 Compensation charge over fine fft grid    =      6.659588564491944

 ==== Results concerning PAW augmentation regions ====

 Total pseudopotential strength Dij (hartree):
 Atom #  1 - Spin component 1
   1.10122  -0.30908   0.00000   0.00000   0.00000   0.00000   0.00000   0.00000   0.00000   0.00000   0.00000   0.00000   0.00000   0.00000   0.00000   0.00000   0.00000   0.00000   0.00000   0.00000   0.00000   0.00000   0.00000   0.00000   0.00000   0.00000   0.00000   0.00000   0.00000   0.00000   0.00000   0.00000
  -0.30908   0.10994   0.00000   0.00000   0.00000   0.00000   0.00000   0.00000   0.00000   0.00000   0.00000   0.00000   0.00000   0.00000   0.00000   0.00000   0.00000   0.00000   0.00000   0.00000   0.00000   0.00000   0.00000   0.00000   0.00000   0.00000   0.00000   0.00000   0.00000   0.00000   0.00000   0.00000
   0.00000   0.00000   0.22730   0.00000   0.00000  -0.21560   0.00000   0.00000   0.00000   0.00000   0.00000   0.00000   0.00000   0.00000   0.00000   0.00000   0.00000   0.00000   0.00044   0.00000   0.00034   0.00000   0.00000   0.00000   0.00000  -0.00034   0.00000  -0.00027   0.00000   0.00000   0.00000   0.00000
[...]
      occupation numbers for kpt#   1
   0.99840    0.99887    0.99901    0.99901    0.99944    0.99857    0.99941    0.99945
   0.99918    0.99948    0.99948    0.99948    0.49936    0.49936    0.00179    0.00074
   0.00074    0.00136    0.00097    0.00113    0.00000    0.00000    0.00000    0.00000
 Eigenvalues (hartree) for nkpt=   1  k points, SPIN DOWN:
 kpt#   1, nband= 24, wtk=  1.00000, kpt=  0.5000  0.0000  0.0000 (reduced coord)
  -0.88139   -0.25049   -0.02534   -0.02534    0.50459    0.66924    0.67974    0.67974
   0.71930    0.71930    0.73730    0.75033    0.75033    0.76460    0.94884    1.10650
   1.10650    1.19485    1.42369    1.49773    1.49773    1.86467    1.97892    1.97892
      occupation numbers for kpt#   1
   0.99847    0.99892    0.99907    0.99907    0.99947    0.00047    0.00041    0.00041
   0.00054    0.00054    0.00055    0.00056    0.00056    0.00057    0.00067    0.00078
   0.00078    0.00085    0.00101    0.00106    0.00000    0.00000    0.00000    0.00000
 Total charge density [el/Bohr^3]
      Maximum=    1.0166E+00  at reduced coord.    0.0000    0.0000    0.0000
 Next maximum=    9.9848E-01  at reduced coord.    0.0000    0.0556    0.9444
      Minimum=    1.0132E-02  at reduced coord.    0.5000    0.5000    0.5000
 Next minimum=    1.0852E-02  at reduced coord.    0.5000    0.5000    0.4444
   Integrated=    1.8000E+01
 Spin up density      [el/Bohr^3]
      Maximum=    8.1978E-01  at reduced coord.    0.0000    0.0000    0.0000
 Next maximum=    7.9744E-01  at reduced coord.    0.0000    0.0556    0.9444
      Minimum=    7.2925E-03  at reduced coord.    0.5000    0.5000    0.5000
 Next minimum=    7.7166E-03  at reduced coord.    0.5000    0.5000    0.4444
   Integrated=    1.2995E+01
 Spin down density    [el/Bohr^3]
      Maximum=    2.0516E-01  at reduced coord.    0.0000    0.1111    0.8889
 Next maximum=    2.0516E-01  at reduced coord.    0.1111    0.0000    0.8889
      Minimum=    2.8399E-03  at reduced coord.    0.5000    0.5000    0.5000
 Next minimum=    3.1353E-03  at reduced coord.    0.5000    0.5000    0.4444
   Integrated=    5.0048E+00
 Magnetization (spin up - spin down) [el/Bohr^3]
      Maximum=    6.2292E-01  at reduced coord.    0.0000    0.0000    0.0000
 Next maximum=    5.9641E-01  at reduced coord.    0.0000    0.0556    0.9444
      Minimum=    1.2339E-03  at reduced coord.    0.2778    0.2222    0.2222
 Next minimum=    1.2339E-03  at reduced coord.    0.2222    0.2778    0.2222
   Integrated=    7.9904E+00
 Relative magnetization (=zeta, between -1 and 1)
      Maximum=    6.1272E-01  at reduced coord.    0.0000    0.0000    0.0000
 Next maximum=    5.9732E-01  at reduced coord.    0.0000    0.0556    0.9444
      Minimum=    2.3412E-02  at reduced coord.    0.2778    0.2222    0.2222
 Next minimum=    2.3412E-02  at reduced coord.    0.2222    0.2778    0.2222

--------------------------------------------------------------------------------
 Components of total free energy (in Hartree) :

    Kinetic energy  =  1.18251601270772E+01
    Hartree energy  =  1.29990027637826E+01
    XC energy       = -1.09839837424510E+01
    Ewald energy    = -1.00371304865735E+02
    PspCore energy  =  1.00040676772558E+01
    Loc. psp. energy= -4.23907620621375E+01
    Spherical terms =  6.70325504622432E+00
    >>>>> Internal E= -1.12214565055984E+02

    >>>>>>>>> Etotal= -1.12214565055984E+02

 "Double-counting" decomposition of free energy:
    Band energy     =  2.82714938264465E+00
    Ewald energy    =-1.00371304865735E+02
    PspCore energy  =  1.00040676772558E+01
    Dble-C XC-energy= -9.55799456395569E+00
    Spherical terms = -1.55740169666353E+01
    >>>>> Internal E= -1.12672099336426E+02

    >>>> Etotal (DC)= -1.12672099336426E+02

  >Total energy in eV           = -3.05351360442131E+03
  >Total DC energy in eV        = -3.06596374535553E+03
--------------------------------------------------------------------------------



 Cartesian components of stress tensor (hartree/bohr^3)
  sigma(1 1)= -5.59257284E-03  sigma(3 2)=  0.00000000E+00
  sigma(2 2)= -5.59257284E-03  sigma(3 1)=  0.00000000E+00
  sigma(3 3)= -5.59257284E-03  sigma(2 1)=  0.00000000E+00

-Cartesian components of stress tensor (GPa)         [Pressure=  1.6454E+02 GPa]
- sigma(1 1)= -1.64539146E+02  sigma(3 2)=  0.00000000E+00
- sigma(2 2)= -1.64539146E+02  sigma(3 1)=  0.00000000E+00
- sigma(3 3)= -1.64539146E+02  sigma(2 1)=  0.00000000E+00

== END DATASET(S) ==============================================================
================================================================================
  
 -outvars: echo values of variables after computation  --------
            acell      7.4000000000E+00  7.4000000000E+00  7.4000000000E+00 Bohr
              amu      1.57250000E+02
         dmatpawu1       1.00000    0.00000    0.00000    0.00000    0.00000
                         0.00000    0.00000    0.00000    1.00000    0.00000
                         0.00000    0.00000    0.00000    0.00000    0.00000
                         0.00000    1.00000    0.00000    0.00000    0.00000
                         0.00000    0.00000    0.00000    0.00000    1.00000
                         0.00000    0.00000    0.00000    0.00000    0.00000
                         0.00000    0.00000    1.00000    0.00000    0.00000
                         0.00000    0.00000    0.00000    0.00000    0.00000
                         1.00000    0.00000    0.00000    0.00000    0.00000
                         0.00000    0.00000    0.00000    1.00000    0.00000
                         0.00000    0.00000    0.00000    0.00000    0.00000
                         0.00000    0.00000    0.00000    0.00000    0.00000
                         0.00000    0.00000    0.00000    0.00000    0.00000
                         0.00000    0.00000    0.00000    0.00000    0.00000
                         0.00000    0.00000    0.00000    0.00000    0.00000
                         0.00000    0.00000    0.00000    0.00000    0.00000
                         0.00000    0.00000    0.00000    0.00000    0.00000
                         0.00000    0.00000    0.00000    0.00000    0.00000
                         0.00000    0.00000    0.00000    0.00000    0.00000
                         0.00000    0.00000    0.00000
         dmatpawu2     -10.00000  -10.00000  -10.00000  -10.00000  -10.00000
                       -10.00000  -10.00000  -10.00000  -10.00000  -10.00000
                       -10.00000  -10.00000  -10.00000  -10.00000  -10.00000
                       -10.00000  -10.00000  -10.00000  -10.00000  -10.00000
                       -10.00000  -10.00000  -10.00000  -10.00000  -10.00000
                       -10.00000  -10.00000  -10.00000  -10.00000  -10.00000
                       -10.00000  -10.00000  -10.00000  -10.00000  -10.00000
                       -10.00000  -10.00000  -10.00000  -10.00000  -10.00000
                       -10.00000  -10.00000  -10.00000  -10.00000  -10.00000
                       -10.00000  -10.00000  -10.00000  -10.00000  -10.00000
                       -10.00000  -10.00000  -10.00000  -10.00000  -10.00000
                       -10.00000  -10.00000  -10.00000  -10.00000  -10.00000
                       -10.00000  -10.00000  -10.00000  -10.00000  -10.00000
                       -10.00000  -10.00000  -10.00000  -10.00000  -10.00000
                       -10.00000  -10.00000  -10.00000  -10.00000  -10.00000
                       -10.00000  -10.00000  -10.00000  -10.00000  -10.00000
                       -10.00000  -10.00000  -10.00000  -10.00000  -10.00000
                       -10.00000  -10.00000  -10.00000  -10.00000  -10.00000
                       -10.00000  -10.00000  -10.00000  -10.00000  -10.00000
                       -10.00000  -10.00000  -10.00000
        dmatpuopt           1
        dmftbandf1          0
        dmftbandf2         20
        dmftbandi1          0
        dmftbandi2          1
        dmft_iter1          0
        dmft_iter2          1
        dmft_nwli1          0
        dmft_nwli2      20000
        dmft_nwlo1          0
        dmft_nwlo2         32
  dmft_occnd_imag1          1
  dmft_occnd_imag2          0
        dmft_rslf1          0
        dmft_rslf2          1
        dmft_solv1          5
        dmft_solv2          2
             ecut      8.00000000E+00 Hartree
           etotal1    -1.1265810245E+02
           etotal2    -1.1267209934E+02
            fcart1    -0.0000000000E+00 -0.0000000000E+00 -0.0000000000E+00
            fcart2     9.9999999999E+99  9.9999999999E+99  9.9999999999E+99
-          fftalg         312
           getwfk          -1
           istwfk        1
              ixc           7
           jdtset        1    2
              kpt      5.00000000E-01  0.00000000E+00  0.00000000E+00
         kptrlatt        1   -1    1     -1    1    1     -1   -1    1
          kptrlen      7.40000000E+00
            lpawu           3
P           mkmem           1
            natom           1
            nband          24
           ndtset           2
            ngfft          15      15      15
          ngfftdg          18      18      18
             nkpt           1
           nspden           2
           nsppol           2
            nstep1         30
            nstep2          2
             nsym          48
           ntypat           1
              occ1     1.000000  1.000000  1.000000  1.000000  1.000000  1.000000
                       1.000000  1.000000  1.000000  1.000000  1.000000  1.000000
                       0.500000  0.500000  0.000000  0.000000  0.000000  0.000000
                       0.000000  0.000000  0.000000  0.000000  0.000000  0.000000
                       1.000000  1.000000  1.000000  1.000000  1.000000  0.000000
                       0.000000  0.000000  0.000000  0.000000  0.000000  0.000000
                       0.000000  0.000000  0.000000  0.000000  0.000000  0.000000
                       0.000000  0.000000  0.000000  0.000000  0.000000  0.000000
              occ2     0.998398  0.998871  0.999015  0.999015  0.999440  0.998567
                       0.999407  0.999447  0.999185  0.999477  0.999477  0.999484
                       0.499358  0.499358  0.001793  0.000738  0.000738  0.001361
                       0.000973  0.001125  0.000000  0.000000  0.000000  0.000000
                       0.998474  0.998917  0.999067  0.999067  0.999469  0.000474
                       0.000414  0.000414  0.000536  0.000539  0.000547  0.000561
                       0.000561  0.000569  0.000674  0.000783  0.000783  0.000851
                       0.001009  0.001063  0.000000  0.000000  0.000000  0.000000
           occopt           3
        optforces1          2
        optforces2          0
        pawecutdg      1.20000000E+01 Hartree
        pawprtvol          -1
           prtvol           4
            rprim      0.0000000000E+00  5.0000000000E-01  5.0000000000E-01
                       5.0000000000E-01  0.0000000000E+00  5.0000000000E-01
                       5.0000000000E-01  5.0000000000E-01  0.0000000000E+00
           shiftk      5.00000000E-01  5.00000000E-01  5.00000000E-01
          spgroup         225
           spinat      0.0000000000E+00  0.0000000000E+00  7.0000000000E+00
           strten1    -2.0697751767E-03 -2.0697751767E-03 -2.0697751767E-03
                       0.0000000000E+00  0.0000000000E+00  0.0000000000E+00
           strten2    -5.5925728402E-03 -5.5925728402E-03 -5.5925728402E-03
                       0.0000000000E+00  0.0000000000E+00  0.0000000000E+00
           symrel      1  0  0   0  1  0   0  0  1      -1  0  0   0 -1  0   0  0 -1
                       0 -1  1   0 -1  0   1 -1  0       0  1 -1   0  1  0  -1  1  0
                      -1  0  0  -1  0  1  -1  1  0       1  0  0   1  0 -1   1 -1  0
                       0  1 -1   1  0 -1   0  0 -1       0 -1  1  -1  0  1   0  0  1
                      -1  0  0  -1  1  0  -1  0  1       1  0  0   1 -1  0   1  0 -1
                       0 -1  1   1 -1  0   0 -1  0       0  1 -1  -1  1  0   0  1  0
                       1  0  0   0  0  1   0  1  0      -1  0  0   0  0 -1   0 -1  0
                       0  1 -1   0  0 -1   1  0 -1       0 -1  1   0  0  1  -1  0  1
                      -1  0  1  -1  1  0  -1  0  0       1  0 -1   1 -1  0   1  0  0
                       0 -1  0   1 -1  0   0 -1  1       0  1  0  -1  1  0   0  1 -1
                       1  0 -1   0  0 -1   0  1 -1      -1  0  1   0  0  1   0 -1  1
                       0  1  0   0  0  1   1  0  0       0 -1  0   0  0 -1  -1  0  0
                       1  0 -1   0  1 -1   0  0 -1      -1  0  1   0 -1  1   0  0  1
                       0 -1  0   0 -1  1   1 -1  0       0  1  0   0  1 -1  -1  1  0
                      -1  0  1  -1  0  0  -1  1  0       1  0 -1   1  0  0   1 -1  0
                       0  1  0   1  0  0   0  0  1       0 -1  0  -1  0  0   0  0 -1
                       0  0 -1   0  1 -1   1  0 -1       0  0  1   0 -1  1  -1  0  1
                       1 -1  0   0 -1  1   0 -1  0      -1  1  0   0  1 -1   0  1  0
                       0  0  1   1  0  0   0  1  0       0  0 -1  -1  0  0   0 -1  0
                      -1  1  0  -1  0  0  -1  0  1       1 -1  0   1  0  0   1  0 -1
                       0  0  1   0  1  0   1  0  0       0  0 -1   0 -1  0  -1  0  0
                       1 -1  0   0 -1  0   0 -1  1      -1  1  0   0  1  0   0  1 -1
                       0  0 -1   1  0 -1   0  1 -1       0  0  1  -1  0  1   0 -1  1
                      -1  1  0  -1  0  1  -1  0  0       1 -1  0   1  0 -1   1  0  0
           tolvrs      1.00000000E-05
           tsmear      3.67500000E-03 Hartree
            typat      1
            upawu      2.30000000E-01 Hartree
        usedmatpu1         10
        usedmatpu2          0
          usedmft1          0
          usedmft2          1
          usepawu1          1
          usepawu2         10
           useylm           1
            znucl       64.00000

================================================================================


- Timing analysis has been suppressed with timopt=0



================================================================================

 Suggested references for the acknowledgment of ABINIT usage.

 The users of ABINIT have little formal obligations with respect to the ABINIT group
 (those specified in the GNU General Public License, http://www.gnu.org/copyleft/gpl.txt).
 However, it is common practice in the scientific literature,
 to acknowledge the efforts of people that have made the research possible.
 In this spirit, please find below suggested citations of work written by ABINIT developers,
 corresponding to implementations inside of ABINIT that you have used in the present run.
 Note also that it will be of great value to readers of publications presenting these results,
 to read papers enabling them to understand the theoretical formalism and details
 of the ABINIT implementation.
 For information on why they are suggested, see also https://docs.abinit.org/theory/acknowledgments.
-
- [1] A self-consistent DFT + DMFT scheme in the projector augmented wave method: 
- applications to cerium, Ce2O3 and Pu2O3 with the Hubbard I solver and comparison to DFT + U,
- B. Amadon,  J. Phys.: Condens. Matter 24 075604 (2012).
- Comment : Describes the self-consistent implementation of DFT+DMFT in PAW
- DOI and bibtex: see https://docs.abinit.org/theory/bibliography/#amadon2012
-
- [2] Plane-wave based electronic structure calculations for correlated materials.
- using dynamical mean-field theory and projected local orbitals,
- B. Amadon, F. Lechermann, A. Georges, F. Jollet, T.O. Wehling, A.I. Lichenstein,
- Phys. Rev. B 77, 205112 (2008).
- Comment: to be cited in case the computation of overlap operator for Wannier90 interface within PAW is used,
- i.e. prtwant=2 and usepaw=1. The paper describes also the DFT+DMFT implementation on Wannier functions
- DOI and bibtex: see https://docs.abinit.org/theory/bibliography/#amadon2008
-
- [3] Gamma and beta cerium: LDA+U calculations of ground-state parameters.
- B. Amadon, F. Jollet and M. Torrent, Phys. Rev. B 77, 155104 (2008).
- Comment: LDA+U calculations, usepawu/=0. Strong suggestion to cite this paper.
- DOI and bibtex: see https://docs.abinit.org/theory/bibliography/#amadon2008a
-
- [4] Implementation of the Projector Augmented-Wave Method in the ABINIT code.
- M. Torrent, F. Jollet, F. Bottin, G. Zerah, and X. Gonze Comput. Mat. Science 42, 337, (2008).
- Comment: PAW calculations. Strong suggestion to cite this paper.
- DOI and bibtex: see https://docs.abinit.org/theory/bibliography/#torrent2008
-
- [5] Recent developments in the ABINIT software package.
- Computer Phys. Comm. 205, 106 (2016).
- X.Gonze, F.Jollet, F.Abreu Araujo, D.Adams, B.Amadon, T.Applencourt,
- C.Audouze, J.-M.Beuken, J.Bieder, A.Bokhanchuk, E.Bousquet, F.Bruneval
- D.Caliste, M.Cote, F.Dahm, F.Da Pieve, M.Delaveau, M.Di Gennaro,
- B.Dorado, C.Espejo, G.Geneste, L.Genovese, A.Gerossier, M.Giantomassi,
- Y.Gillet, D.R.Hamann, L.He, G.Jomard, J.Laflamme Janssen, S.Le Roux,
- A.Levitt, A.Lherbier, F.Liu, I.Lukacevic, A.Martin, C.Martins,
- M.J.T.Oliveira, S.Ponce, Y.Pouillon, T.Rangel, G.-M.Rignanese,
- A.H.Romero, B.Rousseau, O.Rubel, A.A.Shukri, M.Stankovski, M.Torrent,
- M.J.Van Setten, B.Van Troeye, M.J.Verstraete, D.Waroquier, J.Wiktor,
- B.Xu, A.Zhou, J.W.Zwanziger.
- Comment: the fourth generic paper describing the ABINIT project.
- Note that a version of this paper, that is not formatted for Computer Phys. Comm. 
- is available at https://www.abinit.org/about/ABINIT16.pdf .
- The licence allows the authors to put it on the Web.
- DOI and bibtex: see https://docs.abinit.org/theory/bibliography/#gonze2016
-
- [6] ABINIT: First-principles approach of materials and nanosystem properties.
- Computer Phys. Comm. 180, 2582-2615 (2009).
- X. Gonze, B. Amadon, P.-M. Anglade, J.-M. Beuken, F. Bottin, P. Boulanger, F. Bruneval,
- D. Caliste, R. Caracas, M. Cote, T. Deutsch, L. Genovese, Ph. Ghosez, M. Giantomassi
- S. Goedecker, D.R. Hamann, P. Hermet, F. Jollet, G. Jomard, S. Leroux, M. Mancini, S. Mazevet,
- M.J.T. Oliveira, G. Onida, Y. Pouillon, T. Rangel, G.-M. Rignanese, D. Sangalli, R. Shaltaf,
- M. Torrent, M.J. Verstraete, G. Zerah, J.W. Zwanziger
- Comment: the third generic paper describing the ABINIT project.
- Note that a version of this paper, that is not formatted for Computer Phys. Comm. 
- is available at https://www.abinit.org/about/ABINIT_CPC_v10.pdf .
- The licence allows the authors to put it on the Web.
- DOI and bibtex: see https://docs.abinit.org/theory/bibliography/#gonze2009
-
- [7] A brief introduction to the ABINIT software package.
- Z. Kristallogr. 220, 558-562 (2005).
- X. Gonze, G.-M. Rignanese, M. Verstraete, J.-M. Beuken, Y. Pouillon, R. Caracas, F. Jollet,
- M. Torrent, G. Zerah, M. Mikami, Ph. Ghosez, M. Veithen, J.-Y. Raty, V. Olevano, F. Bruneval,
- L. Reining, R. Godby, G. Onida, D.R. Hamann, and D.C. Allan.
- Comment: the second generic paper describing the ABINIT project. Note that this paper
- should be cited especially if you are using the GW part of ABINIT, as several authors
- of this part are not in the list of authors of the first or third paper.
- The .pdf of the latter paper is available at https://www.abinit.org/about/zfk_0505-06_558-562.pdf.
- Note that it should not redistributed (Copyright by Oldenburg Wissenshaftverlag,
- the licence allows the authors to put it on the Web).
- DOI and bibtex: see https://docs.abinit.org/theory/bibliography/#gonze2005
-
- Proc.   0 individual time (sec): cpu=         33.1  wall=         34.5

================================================================================

 Calculation completed.
.Delivered  15 WARNINGs and   6 COMMENTs to log file.
+Overall time at end (sec) : cpu=         33.1  wall=         34.5
