
 **** DERIVATIVE DATABASE ****    
+DDB, Version number    100401

 He BCC primitive cell  DDB file

    usepaw         0
     natom         1
      nkpt         8
    nsppol         1
      nsym         1
    ntypat         1
    occopt         1
     nband         4
     acell  0.43000000000000D+01  0.43000000000000D+01  0.43000000000000D+01
       amu  0.40026020000000D+01
   dilatmx  0.10000000000000D+01
      ecut  0.80000000000000D+01
    ecutsm  0.00000000000000D+00
     intxc         0
      iscf         7
       ixc         1
       kpt  0.25000000000000D+00  0.25000000000000D+00  0.25000000000000D+00
           -0.25000000000000D+00  0.25000000000000D+00  0.25000000000000D+00
            0.25000000000000D+00 -0.25000000000000D+00  0.25000000000000D+00
           -0.25000000000000D+00 -0.25000000000000D+00  0.25000000000000D+00
            0.25000000000000D+00  0.25000000000000D+00 -0.25000000000000D+00
           -0.25000000000000D+00  0.25000000000000D+00 -0.25000000000000D+00
            0.25000000000000D+00 -0.25000000000000D+00 -0.25000000000000D+00
           -0.25000000000000D+00 -0.25000000000000D+00 -0.25000000000000D+00
    kptnrm  0.10000000000000D+01
     ngfft        10   10   10
    nspden         1
   nspinor         1
       occ  0.20000000000000D+01  0.00000000000000D+00  0.00000000000000D+00
            0.00000000000000D+00
     rprim -0.50000000000000D+00  0.50000000000000D+00  0.50000000000000D+00
            0.50000000000000D+00 -0.50000000000000D+00  0.50000000000000D+00
            0.50000000000000D+00  0.50000000000000D+00 -0.50000000000000D+00
  dfpt_sciss  0.00000000000000D+00
    spinat  0.00000000000000D+00  0.00000000000000D+00  0.00000000000000D+00
    symafm         1
    symrel         1    0    0    0    1    0    0    0    1
     tnons  0.00000000000000D+00  0.00000000000000D+00  0.00000000000000D+00
    tolwfr  0.10000000000000D+01
   tphysel  0.00000000000000D+00
    tsmear  0.10000000000000D-01
     typat         1
       wtk  0.12500000000000D+00  0.12500000000000D+00  0.12500000000000D+00
            0.12500000000000D+00  0.12500000000000D+00  0.12500000000000D+00
            0.12500000000000D+00  0.12500000000000D+00
      xred  0.00000000000000D+00  0.00000000000000D+00  0.00000000000000D+00
     znucl  0.20000000000000D+01
      zion  0.20000000000000D+01
 
  Description of the potentials (KB energies)
  vrsio8 (for pseudopotentials)=100401
  usepaw =  0
  dimekb =  1       lmnmax=  1
  Atom type=    1   pspso=  0   nekb=   0
  iln lpsang iproj  ekb(:)
 
 **** Database of total energy derivatives ****
 Number of data blocks=    8
  
 2nd derivatives (non-stat.)  - # elements :       9
 qpt  0.00000000E+00  0.00000000E+00  0.00000000E+00   1.0
   1   1   1   1 -0.13413542632179D-06  0.00000000000000D+00
   2   1   1   1  0.44715820379793D-07  0.00000000000000D+00
   3   1   1   1  0.44706160551300D-07  0.00000000000000D+00
   1   1   2   1  0.44715937619344D-07  0.00000000000000D+00
   2   1   2   1 -0.13413572652610D-06  0.00000000000000D+00
   3   1   2   1  0.44713534208540D-07  0.00000000000000D+00
   1   1   3   1  0.44706280899476D-07  0.00000000000000D+00
   2   1   3   1  0.44713532876273D-07  0.00000000000000D+00
   3   1   3   1 -0.13413554889041D-06  0.00000000000000D+00
  
 2nd derivatives (non-stat.)  - # elements :       9
 qpt  5.00000000E-01  0.00000000E+00  0.00000000E+00   1.0
   1   1   1   1  0.28820388654725D+01  0.00000000000000D+00
   2   1   1   1 -0.63897776993738D+00  0.96287257030150D-16
   3   1   1   1 -0.63897776997062D+00  0.43186497339340D-16
   1   1   2   1 -0.63897722125842D+00 -0.47971697925221D-16
   2   1   2   1  0.12792063475029D+01  0.00000000000000D+00
   3   1   2   1 -0.12519786628880D-02  0.12163545215765D-15
   1   1   3   1 -0.63897722129177D+00 -0.10702364081835D-15
   2   1   3   1 -0.12519786628880D-02 -0.16518968813032D-15
   3   1   3   1  0.12792063475525D+01  0.00000000000000D+00
  
 2nd derivatives (non-stat.)  - # elements :       9
 qpt  0.00000000E+00  5.00000000E-01  0.00000000E+00   1.0
   1   1   1   1  0.12792063474426D+01  0.00000000000000D+00
   2   1   1   1 -0.63897722123426D+00  0.30665986970822D-15
   3   1   1   1 -0.12519786580754D-02  0.53047067792889D-16
   1   1   2   1 -0.63897776991331D+00 -0.24010728076520D-15
   2   1   2   1  0.28820388654759D+01  0.00000000000000D+00
   3   1   2   1 -0.63897776996533D+00  0.11132094136562D-15
   1   1   3   1 -0.12519786580754D-02 -0.12070646134852D-15
   2   1   3   1 -0.63897722128631D+00 -0.23875110810239D-15
   3   1   3   1  0.12792063475418D+01  0.00000000000000D+00
  
 2nd derivatives (non-stat.)  - # elements :       9
 qpt  5.00000000E-01  5.00000000E-01  0.00000000E+00   1.0
   1   1   1   1  0.28820388860243D+01  0.00000000000000D+00
   2   1   1   1 -0.16040833829354D+01  0.29242973098894D-16
   3   1   1   1 -0.63897775156067D+00  0.98555165116484D-16
   1   1   2   1 -0.16040833829354D+01 -0.16995252313545D-15
   2   1   2   1  0.28820388860269D+01  0.00000000000000D+00
   3   1   2   1 -0.63897775155534D+00  0.16722918037136D-15
   1   1   3   1 -0.63897720268284D+00 -0.26486352853224D-16
   2   1   3   1 -0.63897720267720D+00 -0.90019455938289D-16
   3   1   3   1  0.12792063684699D+01  0.00000000000000D+00
  
 2nd derivatives (non-stat.)  - # elements :       9
 qpt  0.00000000E+00  0.00000000E+00  5.00000000E-01   1.0
   1   1   1   1  0.12792063474314D+01  0.00000000000000D+00
   2   1   1   1 -0.12519786398366D-02  0.16024380450990D-15
   3   1   1   1 -0.63897722124288D+00  0.11976968664569D-15
   1   1   2   1 -0.12519786398353D-02 -0.16470235024198D-15
   2   1   2   1  0.12792063474809D+01  0.00000000000000D+00
   3   1   2   1 -0.63897722126094D+00  0.16236580083883D-15
   1   1   3   1 -0.63897776992199D+00 -0.13400124460135D-15
   2   1   3   1 -0.63897776994013D+00 -0.28833616465490D-15
   3   1   3   1  0.28820388654778D+01  0.00000000000000D+00
  
 2nd derivatives (non-stat.)  - # elements :       9
 qpt  5.00000000E-01  0.00000000E+00  5.00000000E-01   1.0
   1   1   1   1  0.28820388860261D+01  0.00000000000000D+00
   2   1   1   1 -0.63897775152689D+00  0.15088588039935D-15
   3   1   1   1 -0.16040833829708D+01  0.72472461349006D-16
   1   1   2   1 -0.63897720264914D+00 -0.22381177673180D-15
   2   1   2   1  0.12792063684095D+01  0.00000000000000D+00
   3   1   2   1 -0.63897720265370D+00  0.22686035436275D-15
   1   1   3   1 -0.16040833829708D+01 -0.19018520627282D-17
   2   1   3   1 -0.63897775153192D+00 -0.12791921579789D-15
   3   1   3   1  0.28820388860314D+01  0.00000000000000D+00
  
 2nd derivatives (non-stat.)  - # elements :       9
 qpt  0.00000000E+00  5.00000000E-01  5.00000000E-01   1.0
   1   1   1   1  0.12792063683494D+01  0.00000000000000D+00
   2   1   1   1 -0.63897720262453D+00  0.21752204716819D-15
   3   1   1   1 -0.63897720263415D+00 -0.28502417289761D-16
   1   1   2   1 -0.63897775150244D+00 -0.19959448896677D-15
   2   1   2   1  0.28820388860282D+01  0.00000000000000D+00
   3   1   2   1 -0.16040833829911D+01  0.17099400739355D-15
   1   1   3   1 -0.63897775151222D+00  0.26519922668390D-16
   2   1   3   1 -0.16040833829911D+01 -0.46578930276010D-15
   3   1   3   1  0.28820388860310D+01  0.00000000000000D+00
  
 2nd derivatives (non-stat.)  - # elements :       9
 qpt  5.00000000E-01  5.00000000E-01  5.00000000E-01   1.0
   1   1   1   1  0.11693662695945D+01  0.00000000000000D+00
   2   1   1   1 -0.38978878041701D+00  0.73488441474658D-15
   3   1   1   1 -0.38978878045274D+00  0.21977042192283D-15
   1   1   2   1 -0.38978878041700D+00 -0.80981240283974D-15
   2   1   2   1  0.11693662696449D+01  0.00000000000000D+00
   3   1   2   1 -0.38978878047021D+00  0.66022158119730D-15
   1   1   3   1 -0.38978878045271D+00 -0.10958062460969D-15
   2   1   3   1 -0.38978878047020D+00 -0.81668295932451D-15
   3   1   3   1  0.11693662696955D+01  0.00000000000000D+00
