
 **** DERIVATIVE DATABASE ****    
+DDB, Version number    100401

 He BCC primitive cell  EIGR2D file

    usepaw         0
     natom         1
      nkpt         8
    nsppol         1
      nsym         1
    ntypat         1
    occopt         1
     nband         4
     acell  0.43000000000000D+01  0.43000000000000D+01  0.43000000000000D+01
       amu  0.40026020000000D+01
   dilatmx  0.10000000000000D+01
      ecut  0.80000000000000D+01
    ecutsm  0.00000000000000D+00
     intxc         0
      iscf         7
       ixc         1
       kpt  0.25000000000000D+00  0.25000000000000D+00  0.25000000000000D+00
           -0.25000000000000D+00  0.25000000000000D+00  0.25000000000000D+00
            0.25000000000000D+00 -0.25000000000000D+00  0.25000000000000D+00
           -0.25000000000000D+00 -0.25000000000000D+00  0.25000000000000D+00
            0.25000000000000D+00  0.25000000000000D+00 -0.25000000000000D+00
           -0.25000000000000D+00  0.25000000000000D+00 -0.25000000000000D+00
            0.25000000000000D+00 -0.25000000000000D+00 -0.25000000000000D+00
           -0.25000000000000D+00 -0.25000000000000D+00 -0.25000000000000D+00
    kptnrm  0.10000000000000D+01
     ngfft        10   10   10
    nspden         1
   nspinor         1
       occ  0.20000000000000D+01  0.00000000000000D+00  0.00000000000000D+00
            0.00000000000000D+00
     rprim -0.50000000000000D+00  0.50000000000000D+00  0.50000000000000D+00
            0.50000000000000D+00 -0.50000000000000D+00  0.50000000000000D+00
            0.50000000000000D+00  0.50000000000000D+00 -0.50000000000000D+00
  dfpt_sciss  0.00000000000000D+00
    spinat  0.00000000000000D+00  0.00000000000000D+00  0.00000000000000D+00
    symafm         1
    symrel         1    0    0    0    1    0    0    0    1
     tnons  0.00000000000000D+00  0.00000000000000D+00  0.00000000000000D+00
    tolwfr  0.10000000000000D+01
   tphysel  0.00000000000000D+00
    tsmear  0.10000000000000D-01
     typat         1
       wtk  0.12500000000000D+00  0.12500000000000D+00  0.12500000000000D+00
            0.12500000000000D+00  0.12500000000000D+00  0.12500000000000D+00
            0.12500000000000D+00  0.12500000000000D+00
      xred  0.00000000000000D+00  0.00000000000000D+00  0.00000000000000D+00
     znucl  0.20000000000000D+01
      zion  0.20000000000000D+01
 
  Description of the potentials (KB energies)
  vrsio8 (for pseudopotentials)=100401
  usepaw =  0
  dimekb =  1       lmnmax=  1
  Atom type=    1   pspso=  0   nekb=   0
  iln lpsang iproj  ekb(:)
 
 **** Database of total energy derivatives ****
 Number of data blocks=    8
  
 2nd eigenvalue derivatives   - # elements :       9
 qpt  0.00000000E+00  0.00000000E+00  0.00000000E+00   1.0
 K-point:  2.50000000E-01  2.50000000E-01  2.50000000E-01
 Band:  1
   1   1   1   1 -0.39942356688318D+01 -0.36981981485798D-17
   2   1   1   1  0.13314118896043D+01  0.11420722583357D-12
   3   1   1   1  0.13314118896238D+01  0.10145369807202D-12
   1   1   2   1  0.13314118896043D+01 -0.11420407268180D-12
   2   1   2   1 -0.39942356688771D+01 -0.12335693957956D-17
   3   1   2   1  0.13314118896488D+01  0.37854836609735D-12
   1   1   3   1  0.13314118896238D+01 -0.10146109044656D-12
   2   1   3   1  0.13314118896488D+01 -0.37854795797782D-12
   3   1   3   1 -0.39942356689221D+01  0.47148004464811D-17
 Band:  2
   1   1   1   1 -0.26303988664135D+00  0.25384010859801D-18
   2   1   1   1  0.27566803871834D+00  0.26791018755504D-02
   3   1   1   1 -0.29182782174113D+00  0.37901216695441D-02
   1   1   2   1  0.27566803871834D+00 -0.26791018755504D-02
   2   1   2   1  0.13193921937734D+00  0.65983730020079D-18
   3   1   2   1 -0.96382755518642D+00  0.28552103089645D-01
   1   1   3   1 -0.29182782174113D+00 -0.37901216695441D-02
   2   1   3   1 -0.96382755518642D+00 -0.28552103089645D-01
   3   1   3   1  0.22476349178056D+01  0.14209927180063D-17
 Band:  3
   1   1   1   1 -0.32033561756991D+00  0.78484810666264D-18
   2   1   1   1  0.79145408750858D-01  0.46762106835928D-02
   3   1   1   1  0.13273841763402D+00  0.20708520136084D-03
   1   1   2   1  0.79145408750858D-01 -0.46762106835928D-02
   2   1   2   1  0.14826612256765D+01  0.92436907785390D-18
   3   1   2   1  0.82400990377652D-01 -0.28714548752968D-01
   1   1   3   1  0.13273841763402D+00 -0.20708520136084D-03
   2   1   3   1  0.82400990377652D-01  0.28714548752968D-01
   3   1   3   1 -0.32006351257299D+00  0.23464675510913D-18
 Band:  4
   1   1   1   1  0.22881958726238D+01  0.10244532006509D-17
   2   1   1   1 -0.92308690360250D+00 -0.73553125590536D-02
   3   1   1   1 -0.40918405203954D+00 -0.39972068708191D-02
   1   1   2   1 -0.92308690360250D+00  0.73553125590536D-02
   2   1   2   1  0.90219923391964D-01  0.92487352502715D-18
   3   1   2   1  0.31315310864305D+00  0.16244566363706D-03
   1   1   3   1 -0.40918405203954D+00  0.39972068708191D-02
   2   1   3   1  0.31315310864305D+00 -0.16244566363706D-03
   3   1   3   1 -0.22275103675372D+00 -0.44877369834154D-18
 K-point: -2.50000000E-01  2.50000000E-01  2.50000000E-01
 Band:  1
   1   1   1   1 -0.14995549986153D+01 -0.11942497957609D-17
   2   1   1   1  0.53060007442378D+00  0.33655226950662D-14
   3   1   1   1  0.53060007442732D+00  0.19808701346631D-14
   1   1   2   1  0.53060007442378D+00 -0.33660355579210D-14
   2   1   2   1 -0.14995549986215D+01 -0.20596083688226D-17
   3   1   2   1  0.43835484977032D+00  0.13942109573507D-14
   1   1   3   1  0.53060007442732D+00 -0.19789114418311D-14
   2   1   3   1  0.43835484977032D+00 -0.13942710968132D-14
   3   1   3   1 -0.14995549986292D+01  0.15875131820937D-17
 Band:  2
   1   1   1   1 -0.27372321936318D+01 -0.27890300496509D-17
   2   1   1   1  0.29421384580286D+00  0.56812666768031D-14
   3   1   1   1  0.29421384578176D+00  0.84478782470556D-13
   1   1   2   1  0.29421384580286D+00 -0.56804021919487D-14
   2   1   2   1 -0.27372321936333D+01 -0.17737287118512D-18
   3   1   2   1  0.21488045020487D+01 -0.78937685695806D-13
   1   1   3   1  0.29421384578176D+00 -0.84472979866504D-13
   2   1   3   1  0.21488045020487D+01  0.78934513449445D-13
   3   1   3   1 -0.27372321935845D+01  0.94252936777117D-18
 Band:  3
   1   1   1   1 -0.15455136708922D+01  0.44517105011595D-16
   2   1   1   1  0.20502347344785D+00 -0.25334884218862D-04
   3   1   1   1  0.18335278505047D+00  0.25334884246280D-04
   1   1   2   1  0.20502347344785D+00  0.25334884218836D-04
   2   1   2   1  0.17519132069408D+01  0.27056580874790D-17
   3   1   2   1 -0.21402894654144D+01 -0.70815323128821D-12
   1   1   3   1  0.18335278505047D+00 -0.25334884246260D-04
   2   1   3   1 -0.21402894654144D+01  0.70815378927580D-12
   3   1   3   1  0.17519132068819D+01  0.85679667427331D-18
 Band:  4
   1   1   1   1  0.17519132069522D+01 -0.31449171996597D-18
   2   1   1   1  0.18335278501811D+00  0.25334884064627D-04
   3   1   1   1  0.20502347344416D+00 -0.25334883628047D-04
   1   1   2   1  0.18335278501811D+00 -0.25334884064640D-04
   2   1   2   1 -0.15455136708812D+01  0.18276102368932D-16
   3   1   2   1  0.11571374123942D+01 -0.62991382258152D-13
   1   1   3   1  0.20502347344416D+00  0.25334883628069D-04
   2   1   3   1  0.11571374123942D+01  0.63008543008224D-13
   3   1   3   1 -0.15455136708917D+01 -0.12960736173996D-16
 K-point:  2.50000000E-01 -2.50000000E-01  2.50000000E-01
 Band:  1
   1   1   1   1 -0.14995549986146D+01  0.19703977484916D-18
   2   1   1   1  0.53060007442391D+00 -0.33604195169657D-14
   3   1   1   1  0.43835484976698D+00  0.33317363874959D-14
   1   1   2   1  0.53060007442391D+00  0.33587138248279D-14
   2   1   2   1 -0.14995549986225D+01  0.21562254485533D-17
   3   1   2   1  0.53060007443153D+00 -0.39004819470783D-16
   1   1   3   1  0.43835484976698D+00 -0.33298913159194D-14
   2   1   3   1  0.53060007443153D+00  0.37076142042779D-16
   3   1   3   1 -0.14995549986302D+01 -0.11534022698180D-17
 Band:  2
   1   1   1   1 -0.27372321936513D+01 -0.23271082019602D-17
   2   1   1   1  0.29421384580371D+00 -0.26508137598262D-13
   3   1   1   1  0.21488045020436D+01 -0.16380296779715D-13
   1   1   2   1  0.29421384580371D+00  0.26507112738496D-13
   2   1   2   1 -0.27372321936024D+01  0.24661191078116D-17
   3   1   2   1  0.29421384575506D+00  0.42305447670630D-13
   1   1   3   1  0.21488045020436D+01  0.16367053554523D-13
   2   1   3   1  0.29421384575506D+00 -0.42308084806371D-13
   3   1   3   1 -0.27372321935535D+01 -0.16375450668519D-17
 Band:  3
   1   1   1   1  0.19937096127244D+00  0.12097594840577D-16
   2   1   1   1 -0.47740898723695D+00  0.35032235218565D-03
   3   1   1   1 -0.58774721973338D+00 -0.40735651941291D-12
   1   1   2   1 -0.47740898723695D+00 -0.35032235218567D-03
   2   1   2   1  0.70285748135277D-02  0.13071032163789D-16
   3   1   2   1  0.86578524570417D+00  0.35032235257247D-03
   1   1   3   1 -0.58774721973338D+00  0.40734453404281D-12
   2   1   3   1  0.86578524570417D+00 -0.35032235257246D-03
   3   1   3   1  0.19937096119974D+00  0.80280594284015D-17
 Band:  4
   1   1   1   1  0.70285748186598D-02  0.11342406942671D-17
   2   1   1   1  0.86578524570077D+00 -0.35032235233080D-03
   3   1   1   1 -0.39540483328223D+00  0.15671034518471D-12
   1   1   2   1  0.86578524570077D+00  0.35032235233079D-03
   2   1   2   1  0.19937096120742D+00 -0.25961373682269D-16
   3   1   2   1 -0.47740898717362D+00 -0.35032235217725D-03
   1   1   3   1 -0.39540483328223D+00 -0.15672176363473D-12
   2   1   3   1 -0.47740898717362D+00  0.35032235217725D-03
   3   1   3   1  0.70285747516932D-02  0.23592793269265D-16
 K-point: -2.50000000E-01 -2.50000000E-01  2.50000000E-01
 Band:  1
   1   1   1   1 -0.14995549986156D+01 -0.30130490369591D-18
   2   1   1   1  0.43835484976457D+00 -0.31005338426890D-14
   3   1   1   1  0.53060007442729D+00  0.12081836046748D-14
   1   1   2   1  0.43835484976457D+00  0.30985606483591D-14
   2   1   2   1 -0.14995549986235D+01 -0.75825762604514D-18
   3   1   2   1  0.53060007443158D+00  0.12677059687048D-14
   1   1   3   1  0.53060007442729D+00 -0.12070060987930D-14
   2   1   3   1  0.53060007443158D+00 -0.12689161888422D-14
   3   1   3   1 -0.14995549986293D+01 -0.95314087946818D-18
 Band:  2
   1   1   1   1 -0.27372321936340D+01  0.68655525331273D-18
   2   1   1   1  0.21488045020490D+01 -0.48098834667407D-13
   3   1   1   1  0.29421384578197D+00 -0.17679300085119D-13
   1   1   2   1  0.21488045020490D+01  0.48089098424666D-13
   2   1   2   1 -0.27372321935851D+01  0.56627314370277D-17
   3   1   2   1  0.29421384575414D+00 -0.52591404685584D-13
   1   1   3   1  0.29421384578197D+00  0.17685280941773D-13
   2   1   3   1  0.29421384575414D+00  0.52590781044412D-13
   3   1   3   1 -0.27372321935861D+01 -0.34429697188747D-17
 Band:  3
   1   1   1   1 -0.15439980555913D+01  0.76036285146594D-16
   2   1   1   1  0.11556217970928D+01  0.32350628488366D-12
   3   1   1   1  0.16338393442207D+00 -0.60927374424033D-05
   1   1   2   1  0.11556217970928D+01 -0.32350925931079D-12
   2   1   2   1 -0.15439980556005D+01 -0.60158809518644D-16
   3   1   2   1  0.22499232411005D+00  0.60927366163094D-05
   1   1   3   1  0.16338393442207D+00  0.60927374423733D-05
   2   1   3   1  0.22499232411005D+00 -0.60927366162979D-05
   3   1   3   1  0.17503975915888D+01  0.11399053345626D-17
 Band:  4
   1   1   1   1  0.17503975916599D+01 -0.22440426542778D-17
   2   1   1   1 -0.21387738501213D+01  0.17263839792102D-12
   3   1   1   1  0.22499232407175D+00  0.60927361353556D-05
   1   1   2   1 -0.21387738501213D+01 -0.17264312210838D-12
   2   1   2   1  0.17503975915989D+01  0.46881153759153D-17
   3   1   2   1  0.16338393442621D+00 -0.60927373891305D-05
   1   1   3   1  0.22499232407175D+00 -0.60927361353542D-05
   2   1   3   1  0.16338393442621D+00  0.60927373891301D-05
   3   1   3   1 -0.15439980555918D+01 -0.54616124448567D-16
 K-point:  2.50000000E-01  2.50000000E-01 -2.50000000E-01
 Band:  1
   1   1   1   1 -0.14995549986156D+01  0.36857019231561D-18
   2   1   1   1  0.43835484976456D+00  0.31890161668734D-14
   3   1   1   1  0.53060007442729D+00 -0.12158742693418D-14
   1   1   2   1  0.43835484976456D+00 -0.31863668271095D-14
   2   1   2   1 -0.14995549986235D+01  0.65895779340057D-18
   3   1   2   1  0.53060007443158D+00 -0.11466076904276D-14
   1   1   3   1  0.53060007442729D+00  0.12117557631985D-14
   2   1   3   1  0.53060007443158D+00  0.11455021203299D-14
   3   1   3   1 -0.14995549986293D+01  0.19003564467507D-17
 Band:  2
   1   1   1   1 -0.27372321936340D+01  0.66336023340421D-17
   2   1   1   1  0.21488045020490D+01  0.48549024205685D-13
   3   1   1   1  0.29421384578198D+00  0.18029083546580D-13
   1   1   2   1  0.21488045020490D+01 -0.48546361615589D-13
   2   1   2   1 -0.27372321935851D+01  0.54254113613697D-17
   3   1   2   1  0.29421384575413D+00  0.53623449576164D-13
   1   1   3   1  0.29421384578198D+00 -0.18026960622284D-13
   2   1   3   1  0.29421384575413D+00 -0.53626969913756D-13
   3   1   3   1 -0.27372321935861D+01 -0.11655514441187D-17
 Band:  3
   1   1   1   1 -0.15437800629959D+01 -0.93509625464861D-16
   2   1   1   1  0.11554038044974D+01 -0.32060757228079D-12
   3   1   1   1  0.16150128492245D+00 -0.57082157234790D-04
   1   1   2   1  0.11554038044974D+01  0.32069876183864D-12
   2   1   2   1 -0.15437800630051D+01  0.17120727950906D-17
   3   1   2   1  0.22687497360962D+00  0.57082158059197D-04
   1   1   3   1  0.16150128492245D+00  0.57082157234777D-04
   2   1   3   1  0.22687497360962D+00 -0.57082158059192D-04
   3   1   3   1  0.17501795989942D+01  0.94191836969102D-18
 Band:  4
   1   1   1   1  0.17501795990653D+01 -0.33716406662315D-17
   2   1   1   1 -0.21385558575266D+01 -0.17565618723065D-12
   3   1   1   1  0.22687497357135D+00  0.57082158541582D-04
   1   1   2   1 -0.21385558575266D+01  0.17565734763140D-12
   2   1   2   1  0.17501795990043D+01  0.56254111753232D-18
   3   1   2   1  0.16150128492665D+00 -0.57082157286708D-04
   1   1   3   1  0.22687497357135D+00 -0.57082158541582D-04
   2   1   3   1  0.16150128492665D+00  0.57082157286705D-04
   3   1   3   1 -0.15437800629965D+01 -0.23191178707272D-16
 K-point: -2.50000000E-01  2.50000000E-01 -2.50000000E-01
 Band:  1
   1   1   1   1 -0.14995549986146D+01  0.97658285878510D-18
   2   1   1   1  0.53060007442391D+00  0.37250956125070D-14
   3   1   1   1  0.43835484976698D+00 -0.36968121240388D-14
   1   1   2   1  0.53060007442391D+00 -0.37260511501843D-14
   2   1   2   1 -0.14995549986225D+01  0.18820949612431D-17
   3   1   2   1  0.53060007443153D+00  0.50100353205766D-16
   1   1   3   1  0.43835484976698D+00  0.36914982495883D-14
   2   1   3   1  0.53060007443153D+00 -0.44550029408000D-16
   3   1   3   1 -0.14995549986302D+01 -0.31490122580354D-17
 Band:  2
   1   1   1   1 -0.27372321936513D+01 -0.13082831345027D-17
   2   1   1   1  0.29421384580370D+00  0.29060016226810D-13
   3   1   1   1  0.21488045020436D+01  0.13781854500683D-13
   1   1   2   1  0.29421384580370D+00 -0.29057953108944D-13
   2   1   2   1 -0.27372321936024D+01  0.32060670696592D-17
   3   1   2   1  0.29421384575507D+00 -0.42186782293681D-13
   1   1   3   1  0.21488045020436D+01 -0.13788947825308D-13
   2   1   3   1  0.29421384575507D+00  0.42183585258910D-13
   3   1   3   1 -0.27372321935535D+01 -0.50135157036223D-17
 Band:  3
   1   1   1   1  0.19662996690810D+00 -0.16395353377420D-16
   2   1   1   1 -0.47747339695826D+00  0.55988473523875D-04
   3   1   1   1 -0.58500622536908D+00  0.40774741987368D-12
   1   1   2   1 -0.47747339695826D+00 -0.55988473523840D-04
   2   1   2   1  0.97695691778208D-02 -0.91268927094564D-17
   3   1   2   1  0.86584965542548D+00  0.55988473131756D-04
   1   1   3   1 -0.58500622536908D+00 -0.40771665903012D-12
   2   1   3   1  0.86584965542548D+00 -0.55988473131792D-04
   3   1   3   1  0.19662996683547D+00 -0.76213105464422D-17
 Band:  4
   1   1   1   1  0.97695691829927D-02  0.14394779175111D-17
   2   1   1   1  0.86584965542208D+00 -0.55988473380425D-04
   3   1   1   1 -0.39814582764652D+00 -0.15493085992557D-12
   1   1   2   1  0.86584965542208D+00  0.55988473380416D-04
   2   1   2   1  0.19662996684312D+00 -0.10848271637401D-16
   3   1   2   1 -0.47747339689493D+00 -0.55988473527308D-04
   1   1   3   1 -0.39814582764652D+00  0.15494151787397D-12
   2   1   3   1 -0.47747339689493D+00  0.55988473527336D-04
   3   1   3   1  0.97695691159490D-02 -0.11173565086205D-16
 K-point:  2.50000000E-01 -2.50000000E-01 -2.50000000E-01
 Band:  1
   1   1   1   1 -0.14995549986153D+01 -0.45477731837476D-18
   2   1   1   1  0.53060007442378D+00 -0.34969229845524D-14
   3   1   1   1  0.53060007442732D+00 -0.18937152154745D-14
   1   1   2   1  0.53060007442378D+00  0.34955146193789D-14
   2   1   2   1 -0.14995549986215D+01 -0.88223252379406D-18
   3   1   2   1  0.43835484977032D+00 -0.15829601534141D-14
   1   1   3   1  0.53060007442732D+00  0.18938537433930D-14
   2   1   3   1  0.43835484977032D+00  0.15818918492615D-14
   3   1   3   1 -0.14995549986292D+01  0.14981130524773D-17
 Band:  2
   1   1   1   1 -0.27372321936318D+01  0.80411008862377D-18
   2   1   1   1  0.29421384580287D+00 -0.63947802738114D-14
   3   1   1   1  0.29421384578175D+00 -0.84256745172692D-13
   1   1   2   1  0.29421384580287D+00  0.63874065011879D-14
   2   1   2   1 -0.27372321936333D+01  0.65790181235322D-17
   3   1   2   1  0.21488045020487D+01  0.78032714817139D-13
   1   1   3   1  0.29421384578175D+00  0.84248128172448D-13
   2   1   3   1  0.21488045020487D+01 -0.78021384209150D-13
   3   1   3   1 -0.27372321935845D+01  0.94696463914713D-17
 Band:  3
   1   1   1   1 -0.15455683953071D+01  0.13834812135732D-16
   2   1   1   1  0.20353518500728D+00 -0.43062250033292D-04
   3   1   1   1  0.18484107349101D+00  0.43062250004588D-04
   1   1   2   1  0.20353518500728D+00  0.43062250033275D-04
   2   1   2   1  0.17519679313555D+01 -0.56872005098527D-17
   3   1   2   1 -0.21403441898290D+01  0.70965309288123D-12
   1   1   3   1  0.18484107349101D+00 -0.43062250004584D-04
   2   1   3   1 -0.21403441898290D+01 -0.70964786351359D-12
   3   1   3   1  0.17519679312965D+01 -0.32681455139699D-17
 Band:  4
   1   1   1   1  0.17519679313668D+01  0.68164325773681D-17
   2   1   1   1  0.18484107345867D+00  0.43062250188400D-04
   3   1   1   1  0.20353518500363D+00 -0.43062250623063D-04
   1   1   2   1  0.18484107345867D+00 -0.43062250188391D-04
   2   1   2   1 -0.15455683952962D+01  0.97053500002750D-17
   3   1   2   1  0.11571921368091D+01  0.62825959883384D-13
   1   1   3   1  0.20353518500363D+00  0.43062250623062D-04
   2   1   3   1  0.11571921368091D+01 -0.62857267109033D-13
   3   1   3   1 -0.15455683953066D+01  0.13049599908261D-16
 K-point: -2.50000000E-01 -2.50000000E-01 -2.50000000E-01
 Band:  1
   1   1   1   1 -0.39942356688317D+01 -0.19877374467111D-17
   2   1   1   1  0.13314118896043D+01 -0.11420057902075D-12
   3   1   1   1  0.13314118896239D+01 -0.10199754053264D-12
   1   1   2   1  0.13314118896043D+01  0.11419954471009D-12
   2   1   2   1 -0.39942356688771D+01 -0.38699301691479D-18
   3   1   2   1  0.13314118896488D+01 -0.37933667292044D-12
   1   1   3   1  0.13314118896239D+01  0.10199159943654D-12
   2   1   3   1  0.13314118896488D+01  0.37933083441522D-12
   3   1   3   1 -0.39942356689221D+01  0.39288986886576D-17
 Band:  2
   1   1   1   1 -0.26302222592607D+00  0.61432471392595D-18
   2   1   1   1  0.27568592103849D+00 -0.26828724946197D-02
   3   1   1   1 -0.29188657314440D+00 -0.38014768726987D-02
   1   1   2   1  0.27568592103849D+00  0.26828724946197D-02
   2   1   2   1  0.13190292122265D+00 -0.11036121352915D-17
   3   1   2   1 -0.96378912514717D+00 -0.28604426656470D-01
   1   1   3   1 -0.29188657314440D+00  0.38014768726987D-02
   2   1   3   1 -0.96378912514717D+00  0.28604426656470D-01
   3   1   3   1  0.22476559942889D+01 -0.92348048576312D-18
 Band:  3
   1   1   1   1 -0.32033521811723D+00  0.32289255455664D-18
   2   1   1   1  0.79119782108139D-01 -0.46695485827374D-02
   3   1   1   1  0.13273868570088D+00 -0.20797241417442D-03
   1   1   2   1  0.79119782108139D-01  0.46695485827374D-02
   2   1   2   1  0.14827007334285D+01  0.26797869616888D-18
   3   1   2   1  0.82384913835165D-01  0.28772448536940D-01
   1   1   3   1  0.13273868570088D+00  0.20797241417442D-03
   2   1   3   1  0.82384913835165D-01 -0.28772448536940D-01
   3   1   3   1 -0.32006198465930D+00  0.17875051605548D-17
 Band:  4
   1   1   1   1  0.22881778124558D+01 -0.26941737828231D-18
   2   1   1   1 -0.92307915927994D+00  0.73524210772676D-02
   3   1   1   1 -0.40912556870313D+00  0.40094492867869D-02
   1   1   2   1 -0.92307915927994D+00 -0.73524210772676D-02
   2   1   2   1  0.90216713794688D-01 -0.35045419957261D-18
   3   1   2   1  0.31313075514629D+00 -0.16802188078464D-03
   1   1   3   1 -0.40912556870313D+00 -0.40094492867869D-02
   2   1   3   1  0.31313075514629D+00  0.16802188078464D-03
   3   1   3   1 -0.22277364115069D+00  0.98356431181185D-18
  
 2nd eigenvalue derivatives   - # elements :       9
 qpt  5.00000000E-01  0.00000000E+00  0.00000000E+00   1.0
 K-point:  2.50000000E-01  2.50000000E-01  2.50000000E-01
 Band:  1
   1   1   1   1 -0.36318984339679D+01 -0.72033672732169D-18
   2   1   1   1  0.68414367685050D+00  0.42881809854099D-13
   3   1   1   1  0.68414367683824D+00  0.67890502316737D-13
   1   1   2   1  0.68414367685050D+00 -0.42884714532178D-13
   2   1   2   1 -0.26102084538678D+01  0.34671244014792D-17
   3   1   2   1  0.12419207351780D+01 -0.28167207163705D-13
   1   1   3   1  0.68414367683824D+00 -0.67885946079180D-13
   2   1   3   1  0.12419207351780D+01  0.28165591599119D-13
   3   1   3   1 -0.26102084538432D+01 -0.65230760422257D-17
 Band:  2
   1   1   1   1 -0.18068711082227D+01 -0.31625124866791D-17
   2   1   1   1  0.27656377325058D-01 -0.11543024491072D-01
   3   1   1   1  0.45936118598835D+00  0.18646205574239D-01
   1   1   2   1  0.27656377325058D-01  0.11543024491072D-01
   2   1   2   1 -0.48638233650929D+00 -0.63447103985214D-18
   3   1   2   1  0.28753676630244D+00 -0.11566680975801D-02
   1   1   3   1  0.45936118598835D+00 -0.18646205574239D-01
   2   1   3   1  0.28753676630244D+00  0.11566680975801D-02
   3   1   3   1 -0.98922067755957D+00  0.12208883984983D-17
 Band:  3
   1   1   1   1 -0.12714005184059D+01 -0.10492573458968D-17
   2   1   1   1  0.71258442703745D+00  0.19501681893133D-01
   3   1   1   1  0.18666125402279D+00 -0.14139842916060D-01
   1   1   2   1  0.71258442703745D+00 -0.19501681893133D-01
   2   1   2   1 -0.93999071898548D+00 -0.12756880001326D-17
   3   1   2   1 -0.20096598407240D-01  0.11632489022058D-02
   1   1   3   1  0.18666125402279D+00  0.14139842916060D-01
   2   1   3   1 -0.20096598407240D-01 -0.11632489022058D-02
   3   1   3   1 -0.51153632529749D+00 -0.13069672024939D-17
 Band:  4
   1   1   1   1  0.83482373515496D+00  0.58690361806167D-18
   2   1   1   1  0.25502823955598D+00 -0.79586574017499D-02
   3   1   1   1  0.34924660392980D+00 -0.45063626583595D-02
   1   1   2   1  0.25502823955598D+00  0.79586574017499D-02
   2   1   2   1 -0.77861820855663D+00  0.43557241073573D-18
   3   1   2   1 -0.52987201883220D-01 -0.65808038328188D-05
   1   1   3   1  0.34924660392980D+00  0.45063626583595D-02
   2   1   3   1 -0.52987201883220D-01  0.65808038328221D-05
   3   1   3   1 -0.70423426122605D+00 -0.28150543235411D-17
 K-point: -2.50000000E-01  2.50000000E-01  2.50000000E-01
 Band:  1
   1   1   1   1 -0.38061139235303D+01 -0.84378176083110D-18
   2   1   1   1  0.90004228538486D+00  0.19479657956264D-13
   3   1   1   1  0.90004228539651D+00  0.11126556673844D-12
   1   1   2   1  0.90004228538486D+00 -0.19479413618448D-13
   2   1   2   1 -0.21098919812558D+01 -0.99630073777708D-18
   3   1   2   1  0.30980724220589D+00  0.47296014269704D-13
   1   1   3   1  0.90004228539651D+00 -0.11126716470387D-12
   2   1   3   1  0.30980724220589D+00 -0.47294428329880D-13
   3   1   3   1 -0.21098919812819D+01  0.66292237449195D-18
 Band:  2
   1   1   1   1 -0.45418522040123D+00  0.36558947355180D-17
   2   1   1   1 -0.70501488301527D+00  0.45393254875609D-12
   3   1   1   1 -0.70501488306668D+00 -0.32029205306870D-12
   1   1   2   1 -0.70501488301527D+00 -0.45393172628098D-12
   2   1   2   1  0.11578625097068D+01  0.34497606157894D-17
   3   1   2   1  0.25216766564082D+00  0.12807455526595D-11
   1   1   3   1 -0.70501488306668D+00  0.32029727933395D-12
   2   1   3   1  0.25216766564082D+00 -0.12807455467422D-11
   3   1   3   1  0.11578625098039D+01  0.33348049218124D-17
 Band:  3
   1   1   1   1 -0.69637427105437D+00 -0.34861676876559D-18
   2   1   1   1  0.20407463566898D+00 -0.12672978096403D-04
   3   1   1   1  0.18169197941585D+00  0.12672978131354D-04
   1   1   2   1  0.20407463566898D+00  0.12672978096411D-04
   2   1   2   1  0.40079103941550D+00 -0.47594177525864D-17
   3   1   2   1 -0.78655781379540D+00 -0.63401058741817D-12
   1   1   3   1  0.18169197941585D+00 -0.12672978131356D-04
   2   1   3   1 -0.78655781379540D+00  0.63400610084897D-12
   3   1   3   1  0.40079103931802D+00 -0.36941502964580D-18
 Band:  4
   1   1   1   1  0.29935387736347D+01 -0.59451809609245D-17
   2   1   1   1 -0.12531275220058D+00  0.12672978025267D-04
   3   1   1   1 -0.10293009592775D+00 -0.12672977840927D-04
   1   1   2   1 -0.12531275220058D+00 -0.12672978025267D-04
   2   1   2   1 -0.13414677564936D+00 -0.76358634347185D-18
   3   1   2   1  0.36238947107389D+00  0.33442257420864D-12
   1   1   3   1 -0.10293009592775D+00  0.12672977840926D-04
   2   1   3   1  0.36238947107389D+00 -0.33442295000786D-12
   3   1   3   1 -0.13414677559053D+00 -0.16608845125389D-17
 K-point:  2.50000000E-01 -2.50000000E-01  2.50000000E-01
 Band:  1
   1   1   1   1 -0.20128522613914D+01  0.19024203821842D-19
   2   1   1   1  0.55101920180389D+00 -0.15078482139672D-14
   3   1   1   1  0.66325685224851D+00  0.13611729635068D-12
   1   1   2   1  0.55101920180389D+00  0.15087017281616D-14
   2   1   2   1 -0.16584069859597D+01  0.46779922234943D-18
   3   1   2   1  0.44413076642318D+00 -0.66690623714361D-13
   1   1   3   1  0.66325685224851D+00 -0.13611639053477D-12
   2   1   3   1  0.44413076642318D+00  0.66692904880394D-13
   3   1   3   1 -0.16584069870875D+01  0.13408051565805D-17
 Band:  2
   1   1   1   1 -0.34397172155794D+01 -0.73228173871286D-17
   2   1   1   1  0.21708052448736D+01 -0.35448189029803D-11
   3   1   1   1 -0.19222258714266D+00  0.29094522815125D-12
   1   1   2   1  0.21708052448736D+01  0.35448304945961D-11
   2   1   2   1 -0.31273417867469D+01 -0.62063085871472D-17
   3   1   2   1  0.11487585583491D+01  0.10715667138300D-11
   1   1   3   1 -0.19222258714266D+00 -0.29095921452356D-12
   2   1   3   1  0.11487585583491D+01 -0.10715581016066D-11
   3   1   3   1 -0.31273417841075D+01 -0.19468023006381D-17
 Band:  3
   1   1   1   1 -0.45125145078122D+00  0.19107600624708D-16
   2   1   1   1 -0.29118600532143D+00  0.24911940569473D-03
   3   1   1   1 -0.38520035538148D+00 -0.38736511385961D-04
   1   1   2   1 -0.29118600532142D+00 -0.24911940569475D-03
   2   1   2   1 -0.92791584158087D-01 -0.58672387147223D-18
   3   1   2   1  0.65625951989569D+00  0.28785599570341D-03
   1   1   3   1 -0.38520035538148D+00  0.38736511385996D-04
   2   1   3   1  0.65625951989569D+00 -0.28785599570347D-03
   3   1   3   1  0.61335793739798D-01 -0.46693801627697D-16
 Band:  4
   1   1   1   1  0.16435929751829D+00  0.18798589642059D-17
   2   1   1   1  0.16947504092913D+01 -0.24911941556120D-03
   3   1   1   1 -0.12342828283680D+01  0.38736507841102D-04
   1   1   2   1  0.16947504092913D+01  0.24911941556120D-03
   2   1   2   1  0.13264401377275D+01  0.89825654340004D-18
   3   1   2   1 -0.16739889352894D+01 -0.28785599655673D-03
   1   1   3   1 -0.12342828283680D+01 -0.38736507841100D-04
   2   1   3   1 -0.16739889352894D+01  0.28785599655674D-03
   3   1   3   1  0.11723127566177D+01  0.29270997739755D-17
 K-point: -2.50000000E-01 -2.50000000E-01  2.50000000E-01
 Band:  1
   1   1   1   1 -0.20128523088476D+01  0.51601745263340D-18
   2   1   1   1  0.66325686658963D+00 -0.60609026579739D-15
   3   1   1   1  0.55101921888531D+00  0.28737475135771D-13
   1   1   2   1  0.66325686658963D+00  0.60548425144902D-15
   2   1   2   1 -0.16584069924657D+01  0.12050473081134D-18
   3   1   2   1  0.44413076176554D+00 -0.16597616847157D-14
   1   1   3   1  0.55101921888531D+00 -0.28738529064927D-13
   2   1   3   1  0.44413076176554D+00  0.16563633838863D-14
   3   1   3   1 -0.16584069920809D+01  0.34783060539183D-17
 Band:  2
   1   1   1   1 -0.34397173297583D+01  0.40111057920965D-16
   2   1   1   1 -0.19222254753032D+00 -0.12561312015719D-11
   3   1   1   1  0.21708052838067D+01  0.61021348658194D-12
   1   1   2   1 -0.19222254753032D+00  0.12561409774662D-11
   2   1   2   1 -0.31273418014725D+01  0.42803613515215D-18
   3   1   2   1  0.11487585468982D+01  0.29155692575686D-12
   1   1   3   1  0.21708052838067D+01 -0.61023915754894D-12
   2   1   3   1  0.11487585468982D+01 -0.29155834270369D-12
   3   1   3   1 -0.31273418005480D+01  0.11156104217119D-16
 Band:  3
   1   1   1   1 -0.77332627990047D+00  0.34092999925673D-17
   2   1   1   1  0.17934382310296D+00  0.67369606100727D-06
   3   1   1   1  0.30238722464800D+00 -0.43326326396844D-05
   1   1   2   1  0.17934382310296D+00 -0.67369606100927D-06
   2   1   2   1 -0.73211802042475D+00 -0.12024980933138D-16
   3   1   2   1 -0.45542386373241D+00  0.50063314824511D-05
   1   1   3   1  0.30238722464800D+00  0.43326326396775D-05
   2   1   3   1 -0.45542386373241D+00 -0.50063314824585D-05
   3   1   3   1  0.19077399487263D+01  0.29704821638195D-17
 Band:  4
   1   1   1   1  0.48643421376244D+00  0.24743424062297D-16
   2   1   1   1 -0.17988270363267D+01 -0.67370767407423D-06
   3   1   1   1  0.11011771498510D+01  0.43326321058539D-05
   1   1   2   1 -0.17988270363267D+01  0.67370767406596D-06
   2   1   2   1  0.19657665838327D+01  0.20095381461448D-17
   3   1   2   1 -0.56230554295092D+00 -0.50063286765741D-05
   1   1   3   1  0.11011771498510D+01 -0.43326321058956D-05
   2   1   3   1 -0.56230554295092D+00  0.50063286765788D-05
   3   1   3   1 -0.67409138569307D+00  0.17726367311110D-16
 K-point:  2.50000000E-01  2.50000000E-01 -2.50000000E-01
 Band:  1
   1   1   1   1 -0.20128522613887D+01  0.10036963122759D-17
   2   1   1   1  0.66325685224195D+00  0.99841368006368D-15
   3   1   1   1  0.55101920180759D+00 -0.29189667883352D-13
   1   1   2   1  0.66325685224195D+00 -0.99637875328578D-15
   2   1   2   1 -0.16584069870772D+01 -0.11849853221274D-17
   3   1   2   1  0.44413076642357D+00  0.15720048388867D-14
   1   1   3   1  0.55101920180759D+00  0.29189621180005D-13
   2   1   3   1  0.44413076642357D+00 -0.15741315954225D-14
   3   1   3   1 -0.16584069859705D+01 -0.28912751811954D-17
 Band:  2
   1   1   1   1 -0.34397172154585D+01  0.17282143857382D-16
   2   1   1   1 -0.19222258715573D+00  0.12565263915973D-11
   3   1   1   1  0.21708052447679D+01 -0.60540632152666D-12
   1   1   2   1 -0.19222258715573D+00 -0.12565235047612D-11
   2   1   2   1 -0.31273417842131D+01 -0.77329879595323D-17
   3   1   2   1  0.11487585583503D+01 -0.28669016836885D-12
   1   1   3   1  0.21708052447679D+01  0.60539273066543D-12
   2   1   3   1  0.11487585583503D+01  0.28669977590075D-12
   3   1   3   1 -0.31273417866554D+01 -0.75063451930115D-18
 Band:  3
   1   1   1   1 -0.77420836281184D+00  0.16957003442281D-17
   2   1   1   1  0.18056420357241D+00  0.63117973637835D-05
   3   1   1   1  0.29959263855281D+00 -0.40591970820738D-04
   1   1   2   1  0.18056420357241D+00 -0.63117973637698D-05
   2   1   2   1 -0.73371653435616D+00 -0.13153208958284D-16
   3   1   2   1 -0.45215773815017D+00  0.46903779596220D-04
   1   1   3   1  0.29959263855281D+00  0.40591970820746D-04
   2   1   3   1 -0.45215773815017D+00 -0.46903779596251D-04
   3   1   3   1  0.19057920710891D+01 -0.10251276581289D-16
 Band:  4
   1   1   1   1  0.48731620946028D+00 -0.20096120359012D-17
   2   1   1   1 -0.18000473873605D+01 -0.63117857419735D-05
   3   1   1   1  0.11039717655474D+01  0.40591971359105D-04
   1   1   2   1 -0.18000473873605D+01  0.63117857419799D-05
   2   1   2   1  0.19673650848797D+01 -0.46788647205122D-17
   3   1   2   1 -0.56557167724435D+00 -0.46903782405675D-04
   1   1   3   1  0.11039717655474D+01 -0.40591971359128D-04
   2   1   3   1 -0.56557167724435D+00  0.46903782405672D-04
   3   1   3   1 -0.67214351769685D+00  0.66738209883424D-17
 K-point: -2.50000000E-01  2.50000000E-01 -2.50000000E-01
 Band:  1
   1   1   1   1 -0.20128523088503D+01 -0.18207844014706D-17
   2   1   1   1  0.55101921888161D+00  0.15611155974203D-14
   3   1   1   1  0.66325686659619D+00 -0.13589677834840D-12
   1   1   2   1  0.55101921888161D+00 -0.15583491983141D-14
   2   1   2   1 -0.16584069920701D+01  0.43772781243509D-18
   3   1   2   1  0.44413076176515D+00  0.66924609178485D-13
   1   1   3   1  0.66325686659619D+00  0.13589713319227D-12
   2   1   3   1  0.44413076176515D+00 -0.66924613754470D-13
   3   1   3   1 -0.16584069924760D+01 -0.13466760395513D-17
 Band:  2
   1   1   1   1 -0.34397173298793D+01  0.11646495259968D-16
   2   1   1   1  0.21708052839124D+01  0.35517926943454D-11
   3   1   1   1 -0.19222254751725D+00 -0.29808157667434D-12
   1   1   2   1  0.21708052839124D+01 -0.35517955546933D-11
   2   1   2   1 -0.31273418006394D+01 -0.59679016022979D-17
   3   1   2   1  0.11487585468970D+01 -0.10718507378159D-11
   1   1   3   1 -0.19222254751725D+00  0.29809716666056D-12
   2   1   3   1  0.11487585468970D+01  0.10718606999745D-11
   3   1   3   1 -0.31273418013669D+01  0.44235002505715D-17
 Band:  3
   1   1   1   1 -0.45230627453465D+00  0.31342314972216D-16
   2   1   1   1 -0.29187046911076D+00  0.39814241564590D-04
   3   1   1   1 -0.38354508012853D+00 -0.61908543628606D-05
   1   1   2   1 -0.29187046911076D+00 -0.39814241564643D-04
   2   1   2   1 -0.90655840453534D-01  0.24919049771457D-16
   3   1   2   1  0.65637126405344D+00  0.46005108557911D-04
   1   1   3   1 -0.38354508012853D+00  0.61908543628103D-05
   2   1   3   1  0.65637126405344D+00 -0.46005108557860D-04
   3   1   3   1  0.59078727625989D-01  0.79090599060931D-17
 Band:  4
   1   1   1   1  0.16541420848527D+00  0.78878737880042D-17
   2   1   1   1  0.16954348434794D+01 -0.39814231694553D-04
   3   1   1   1 -0.12359381330566D+01  0.61908579190894D-05
   1   1   2   1  0.16954348434794D+01  0.39814231694552D-04
   2   1   2   1  0.13243044036640D+01  0.25772262630569D-17
   3   1   2   1 -0.16741006707360D+01 -0.46005107698247D-04
   1   1   3   1 -0.12359381330566D+01 -0.61908579190939D-05
   2   1   3   1 -0.16741006707360D+01  0.46005107698247D-04
   3   1   3   1  0.11745698356159D+01 -0.12248155928585D-17
 K-point:  2.50000000E-01 -2.50000000E-01 -2.50000000E-01
 Band:  1
   1   1   1   1 -0.38061138576715D+01  0.23116709944527D-17
   2   1   1   1  0.90004226179259D+00 -0.19254711304403D-13
   3   1   1   1  0.90004226180425D+00 -0.11134714556598D-12
   1   1   2   1  0.90004226179259D+00  0.19254232409932D-13
   2   1   2   1 -0.21098919728753D+01 -0.30148870416318D-17
   3   1   2   1  0.30980725065835D+00 -0.47250843455205D-13
   1   1   3   1  0.90004226180425D+00  0.11135046963771D-12
   2   1   3   1  0.30980725065835D+00  0.47252013958845D-13
   3   1   3   1 -0.21098919729013D+01 -0.90464295172299D-18
 Band:  2
   1   1   1   1 -0.45418508557988D+00  0.12362981910347D-17
   2   1   1   1 -0.70501492581160D+00 -0.45562720280852D-12
   3   1   1   1 -0.70501492586301D+00  0.32177379860850D-12
   1   1   2   1 -0.70501492581160D+00  0.45562230844128D-12
   2   1   2   1  0.11578625231888D+01  0.43492020427825D-17
   3   1   2   1  0.25216767925834D+00 -0.12841309971128D-11
   1   1   3   1 -0.70501492586301D+00 -0.32178042903272D-12
   2   1   3   1  0.25216767925834D+00  0.12841359418805D-11
   3   1   3   1  0.11578625232859D+01  0.16970754466876D-17
 Band:  3
   1   1   1   1 -0.69643550931910D+00  0.36561231917460D-17
   2   1   1   1  0.20254254620519D+00 -0.21540534162900D-04
   3   1   1   1  0.18323425892989D+00  0.21540534127139D-04
   1   1   2   1  0.20254254620519D+00  0.21540534162897D-04
   2   1   2   1  0.40079991887509D+00  0.30049712311490D-17
   3   1   2   1 -0.78657688339562D+00  0.49462457002782D-12
   1   1   3   1  0.18323425892989D+00 -0.21540534127137D-04
   2   1   3   1 -0.78657688339562D+00 -0.49462283505619D-12
   3   1   3   1  0.40079991893217D+00 -0.40229960158673D-17
 Band:  4
   1   1   1   1  0.29935998869233D+01  0.22341998757601D-17
   2   1   1   1 -0.12378062152935D+00  0.21540534235359D-04
   3   1   1   1 -0.10447233423435D+00 -0.21540534418264D-04
   1   1   2   1 -0.12378062152935D+00 -0.21540534235354D-04
   2   1   2   1 -0.13415566706581D+00 -0.14868970596802D-18
   3   1   2   1  0.36240852546385D+00 -0.19303618400399D-12
   1   1   3   1 -0.10447233423435D+00  0.21540534418265D-04
   2   1   3   1  0.36240852546385D+00  0.19303449719373D-12
   3   1   3   1 -0.13415566716153D+00 -0.38424809298598D-18
 K-point: -2.50000000E-01 -2.50000000E-01 -2.50000000E-01
 Band:  1
   1   1   1   1 -0.36318985849557D+01  0.20482772403195D-17
   2   1   1   1  0.68414372425234D+00 -0.43102611720232D-13
   3   1   1   1  0.68414372424008D+00 -0.67971496452837D-13
   1   1   2   1  0.68414372425234D+00  0.43101120120681D-13
   2   1   2   1 -0.26102084728927D+01  0.12672939845035D-17
   3   1   2   1  0.12419207245823D+01  0.28257355343345D-13
   1   1   3   1  0.68414372424008D+00  0.67960582780231D-13
   2   1   3   1  0.12419207245823D+01 -0.28262002624802D-13
   3   1   3   1 -0.26102084728681D+01 -0.10757926649787D-17
 Band:  2
   1   1   1   1 -0.18068918757380D+01  0.14807095964504D-16
   2   1   1   1  0.27666570005672D-01  0.11565097583437D-01
   3   1   1   1  0.45936056650333D+00 -0.18684886758466D-01
   1   1   2   1  0.27666570005672D-01 -0.11565097583437D-01
   2   1   2   1 -0.48637455047008D+00 -0.10505765955763D-17
   3   1   2   1  0.28752446294944D+00  0.11587877502972D-02
   1   1   3   1  0.45936056650333D+00  0.18684886758466D-01
   2   1   3   1  0.28752446294944D+00 -0.11587877502972D-02
   3   1   3   1 -0.98922652651019D+00 -0.18606707279051D-17
 Band:  3
   1   1   1   1 -0.12714420904740D+01  0.16810463560104D-17
   2   1   1   1  0.71258148974174D+00 -0.19524324320321D-01
   3   1   1   1  0.18665634439266D+00  0.14168826146241D-01
   1   1   2   1  0.71258148974174D+00  0.19524324320321D-01
   2   1   2   1 -0.93999501744374D+00  0.23435710243888D-17
   3   1   2   1 -0.20092631065188D-01 -0.11655944500139D-02
   1   1   3   1  0.18665634439266D+00 -0.14168826146241D-01
   2   1   3   1 -0.20092631065188D-01  0.11655944500139D-02
   3   1   3   1 -0.51153159852933D+00 -0.24391261484224D-18
 Band:  4
   1   1   1   1  0.83488615389590D+00 -0.16561643754438D-17
   2   1   1   1  0.25502095904850D+00  0.79592267365725D-02
   3   1   1   1  0.34925210792238D+00  0.45160606124067D-02
   1   1   2   1  0.25502095904850D+00 -0.79592267365725D-02
   2   1   2   1 -0.77862168549376D+00  0.86475065468879D-18
   3   1   2   1 -0.52978860627994D-01  0.68066989222432D-05
   1   1   3   1  0.34925210792238D+00 -0.45160606124067D-02
   2   1   3   1 -0.52978860627994D-01 -0.68066989222406D-05
   3   1   3   1 -0.70423312839978D+00  0.32357474004757D-18
  
 2nd eigenvalue derivatives   - # elements :       9
 qpt  0.00000000E+00  5.00000000E-01  0.00000000E+00   1.0
 K-point:  2.50000000E-01  2.50000000E-01  2.50000000E-01
 Band:  1
   1   1   1   1 -0.26102084539014D+01  0.47694453147857D-17
   2   1   1   1  0.68414367689357D+00 -0.56830435989648D-13
   3   1   1   1  0.12419207351572D+01  0.36611158884032D-14
   1   1   2   1  0.68414367689357D+00  0.56828941781337D-13
   2   1   2   1 -0.36318984339970D+01  0.43398647001630D-17
   3   1   2   1  0.68414367686873D+00  0.67861974195357D-13
   1   1   3   1  0.12419207351572D+01 -0.36702544510411D-14
   2   1   3   1  0.68414367686873D+00 -0.67863669282437D-13
   3   1   3   1 -0.26102084538522D+01  0.31296137115519D-17
 Band:  2
   1   1   1   1 -0.42481380052726D+00  0.14883232592296D-17
   2   1   1   1  0.17218552758568D+00  0.30109792703273D-02
   3   1   1   1  0.76774816059147D-01 -0.15354082727916D-03
   1   1   2   1  0.17218552758568D+00 -0.30109792703273D-02
   2   1   2   1 -0.19631423414528D+01 -0.25924468537690D-17
   3   1   2   1  0.47636634547508D+00  0.31419429142686D-01
   1   1   3   1  0.76774816059147D-01  0.15354082727917D-03
   2   1   3   1  0.47636634547508D+00 -0.31419429142686D-01
   3   1   3   1 -0.10215270013617D+01 -0.71586057472668D-18
 Band:  3
   1   1   1   1 -0.75627479360612D+00  0.10847659528205D-18
   2   1   1   1  0.36299379216312D+00  0.66733209853331D-02
   3   1   1   1  0.24500665511917D-01 -0.83891647036087D-05
   1   1   2   1  0.36299379216312D+00 -0.66733209853331D-02
   2   1   2   1  0.16684496449903D+01  0.18998936986946D-18
   3   1   2   1  0.36427311718971D+00 -0.29989596772057D-01
   1   1   3   1  0.24500665511917D-01  0.83891647036086D-05
   2   1   3   1  0.36427311718971D+00  0.29989596772057D-01
   3   1   3   1 -0.75633946494941D+00 -0.13879848751535D-17
 Band:  4
   1   1   1   1 -0.10239026698838D+01  0.30356898240155D-18
   2   1   1   1  0.46008972410230D+00 -0.96843002552871D-02
   3   1   1   1  0.11317748449529D+00  0.16192999223103D-03
   1   1   2   1  0.46008972410230D+00  0.96843002552871D-02
   2   1   2   1 -0.19487551949744D+01  0.51157695841681D-18
   3   1   2   1  0.15462958122012D+00 -0.14298323701412D-02
   1   1   3   1  0.11317748449529D+00 -0.16192999223103D-03
   2   1   3   1  0.15462958122012D+00  0.14298323701412D-02
   3   1   3   1 -0.42712479776961D+00  0.15331018432004D-17
 K-point: -2.50000000E-01  2.50000000E-01  2.50000000E-01
 Band:  1
   1   1   1   1 -0.16584069859474D+01  0.96259599059893D-18
   2   1   1   1  0.55101920180019D+00 -0.55057575596369D-13
   3   1   1   1  0.44413076642027D+00 -0.11886261940375D-12
   1   1   2   1  0.55101920180019D+00  0.55056606402230D-13
   2   1   2   1 -0.20128522614022D+01  0.96572510085737D-18
   3   1   2   1  0.66325685225299D+00  0.19740853507560D-12
   1   1   3   1  0.44413076642027D+00  0.11885919500079D-12
   2   1   3   1  0.66325685225299D+00 -0.19740753099490D-12
   3   1   3   1 -0.16584069870900D+01  0.16203342421533D-17
 Band:  2
   1   1   1   1 -0.31273417867302D+01  0.48637300743772D-17
   2   1   1   1  0.21708052447190D+01  0.35814242133541D-11
   3   1   1   1  0.11487585583547D+01  0.20207121837467D-11
   1   1   2   1  0.21708052447190D+01 -0.35814360906754D-11
   2   1   2   1 -0.34397172153300D+01  0.41639639035813D-17
   3   1   2   1 -0.19222258703961D+00 -0.22895713001572D-11
   1   1   3   1  0.11487585583547D+01 -0.20207161766685D-11
   2   1   3   1 -0.19222258703961D+00  0.22895571568055D-11
   3   1   3   1 -0.31273417840610D+01 -0.77284743566569D-17
 Band:  3
   1   1   1   1 -0.69411379811958D+00  0.19719036283884D-16
   2   1   1   1  0.10713649608510D+01 -0.18016002561898D-04
   3   1   1   1 -0.52766247299536D+00  0.20817392655154D-04
   1   1   2   1  0.10713649608510D+01  0.18016002561873D-04
   2   1   2   1  0.47678099285873D+00  0.12594914908576D-17
   3   1   2   1 -0.17854150045964D+01 -0.28013821394539D-05
   1   1   3   1 -0.52766247299536D+00 -0.20817392655133D-04
   2   1   3   1 -0.17854150045964D+01  0.28013821394563D-05
   3   1   3   1  0.19481731459170D+01  0.25437326962267D-17
 Band:  4
   1   1   1   1  0.19277623515707D+01  0.34246347264794D-17
   2   1   1   1  0.33219944294037D+00  0.18016015800724D-04
   3   1   1   1 -0.49006694241130D+00 -0.20817393730020D-04
   1   1   2   1  0.33219944294037D+00 -0.18016015800727D-04
   2   1   2   1 -0.76367314651140D+00  0.67822938690930D-18
   3   1   2   1  0.16593182108783D+00  0.28013725083628D-05
   1   1   3   1 -0.49006694241130D+00  0.20817393730007D-04
   2   1   3   1  0.16593182108783D+00 -0.28013725083550D-05
   3   1   3   1 -0.71452459579119D+00 -0.37219868358929D-16
 K-point:  2.50000000E-01 -2.50000000E-01  2.50000000E-01
 Band:  1
   1   1   1   1 -0.21098919812270D+01 -0.34324504451535D-18
   2   1   1   1  0.90004228536553D+00  0.27008190677124D-13
   3   1   1   1  0.30980724220597D+00  0.18034148835778D-13
   1   1   2   1  0.90004228536553D+00 -0.27008987174395D-13
   2   1   2   1 -0.38061139235284D+01  0.24377318283558D-17
   3   1   2   1  0.90004228539116D+00  0.18862810490696D-12
   1   1   3   1  0.30980724220597D+00 -0.18033424045180D-13
   2   1   3   1  0.90004228539116D+00 -0.18862979821186D-12
   3   1   3   1 -0.21098919812791D+01 -0.63942770938183D-18
 Band:  2
   1   1   1   1  0.11578625096710D+01 -0.22944359130529D-17
   2   1   1   1 -0.70501488296196D+00  0.80357777453163D-12
   3   1   1   1  0.25216766559451D+00  0.34808976033711D-12
   1   1   2   1 -0.70501488296196D+00 -0.80357629485407D-12
   2   1   2   1 -0.45418522045077D+00  0.46166009741437D-17
   3   1   2   1 -0.70501488306053D+00  0.92025231911260D-12
   1   1   3   1  0.25216766559451D+00 -0.34807783837009D-12
   2   1   3   1 -0.70501488306053D+00 -0.92025733907969D-12
   3   1   3   1  0.11578625098652D+01 -0.33869186174055D-17
 Band:  3
   1   1   1   1  0.14892387575085D+00 -0.89291950440968D-18
   2   1   1   1 -0.64532684331217D+00  0.17523772233008D-03
   3   1   1   1 -0.24559382462248D+00  0.36998751667103D-14
   1   1   2   1 -0.64532684331217D+00 -0.17523772233008D-03
   2   1   2   1  0.10409639920984D+01  0.11448996032569D-17
   3   1   2   1  0.74199663648429D+00  0.17523772253877D-03
   1   1   3   1 -0.24559382462248D+00 -0.37023383385209D-14
   2   1   3   1  0.74199663648429D+00 -0.17523772253878D-03
   3   1   3   1  0.14892387475286D+00  0.10204730954589D-17
 Band:  4
   1   1   1   1  0.11772038802716D+00 -0.27014697232752D-17
   2   1   1   1  0.72408872677424D+00 -0.17523772245842D-03
   3   1   1   1 -0.17857451809447D+00  0.15349298144571D-12
   1   1   2   1  0.72408872677424D+00  0.17523772245842D-03
   2   1   2   1  0.12562005104929D+01 -0.60166276012070D-18
   3   1   2   1 -0.66323475298317D+00 -0.17523772242886D-03
   1   1   3   1 -0.17857451809447D+00 -0.15348948489370D-12
   2   1   3   1 -0.66323475298317D+00  0.17523772242886D-03
   3   1   3   1  0.11772038894785D+00  0.48406327864333D-18
 K-point: -2.50000000E-01 -2.50000000E-01  2.50000000E-01
 Band:  1
   1   1   1   1 -0.16584069924572D+01 -0.87334395798426D-18
   2   1   1   1  0.66325686658726D+00 -0.25524245533227D-14
   3   1   1   1  0.44413076176229D+00 -0.11419274818437D-13
   1   1   2   1  0.66325686658726D+00  0.25557193600202D-14
   2   1   2   1 -0.20128523088556D+01 -0.17146794894692D-17
   3   1   2   1  0.55101921888580D+00  0.26878017800990D-13
   1   1   3   1  0.44413076176229D+00  0.11419240532513D-13
   2   1   3   1  0.55101921888580D+00 -0.26879102144071D-13
   3   1   3   1 -0.16584069920787D+01 -0.12109425932525D-17
 Band:  2
   1   1   1   1 -0.31273418015177D+01  0.78026248258634D-18
   2   1   1   1 -0.19222254744050D+00  0.42089120324715D-12
   3   1   1   1  0.11487585469036D+01  0.72224193012356D-12
   1   1   2   1 -0.19222254744050D+00 -0.42089395931986D-12
   2   1   2   1 -0.34397173293812D+01 -0.13890552620435D-16
   3   1   2   1  0.21708052835353D+01 -0.17051028244720D-12
   1   1   3   1  0.11487585469036D+01 -0.72225019170558D-12
   2   1   3   1  0.21708052835353D+01  0.17053440714985D-12
   3   1   3   1 -0.31273418004272D+01  0.12149368072898D-17
 Band:  3
   1   1   1   1 -0.67409138547464D+00 -0.16372927947252D-16
   2   1   1   1  0.13521964002847D+00  0.67369745965168D-06
   3   1   1   1 -0.56230554255657D+00 -0.50063341288465D-05
   1   1   2   1  0.13521964002847D+00 -0.67369745965492D-06
   2   1   2   1 -0.74180088067161D+00  0.33765653407503D-17
   3   1   2   1  0.39536643341210D+00  0.43326298717864D-05
   1   1   3   1 -0.56230554255657D+00  0.50063341288260D-05
   2   1   3   1  0.39536643341210D+00 -0.43326298717821D-05
   3   1   3   1  0.19657665835340D+01 -0.71916226903657D-17
 Band:  4
   1   1   1   1  0.19077399488263D+01 -0.16052678613891D-17
   2   1   1   1 -0.17547028530586D+01 -0.67368584031281D-06
   3   1   1   1 -0.45542386413822D+00  0.50063391428842D-05
   1   1   2   1 -0.17547028530586D+01  0.67368584033358D-06
   2   1   2   1  0.45490881406208D+00 -0.40622690496394D-16
   3   1   2   1  0.10081979410357D+01 -0.43326382438909D-05
   1   1   3   1 -0.45542386413822D+00 -0.50063391428937D-05
   2   1   3   1  0.10081979410357D+01  0.43326382439107D-05
   3   1   3   1 -0.73211802078482D+00  0.11610381985199D-16
 K-point:  2.50000000E-01  2.50000000E-01 -2.50000000E-01
 Band:  1
   1   1   1   1 -0.16584069870687D+01  0.27015318597325D-17
   2   1   1   1  0.66325685223958D+00  0.23395450192399D-14
   3   1   1   1  0.44413076642032D+00  0.11489930827984D-13
   1   1   2   1  0.66325685223958D+00 -0.23384835705734D-14
   2   1   2   1 -0.20128522613967D+01  0.97313190191688D-18
   3   1   2   1  0.55101920180808D+00 -0.27105513819919D-13
   1   1   3   1  0.44413076642032D+00 -0.11493656477302D-13
   2   1   3   1  0.55101920180808D+00  0.27103759167295D-13
   3   1   3   1 -0.16584069859683D+01  0.25429439176817D-17
 Band:  2
   1   1   1   1 -0.31273417842584D+01 -0.50564490621571D-17
   2   1   1   1 -0.19222258706590D+00 -0.41819046862338D-12
   3   1   1   1  0.11487585583556D+01 -0.72101145009566D-12
   1   1   2   1 -0.19222258706590D+00  0.41819795567921D-12
   2   1   2   1 -0.34397172150813D+01  0.89601802706410D-17
   3   1   2   1  0.21708052444965D+01  0.17414892651420D-12
   1   1   3   1  0.11487585583556D+01  0.72102130970742D-12
   2   1   3   1  0.21708052444965D+01 -0.17414961231359D-12
   3   1   3   1 -0.31273417865347D+01 -0.77392521169191D-17
 Band:  3
   1   1   1   1 -0.67214350531426D+00  0.59704099831778D-17
   2   1   1   1  0.13374329781930D+00  0.63117959713355D-05
   3   1   1   1 -0.56557166838892D+00 -0.46903776950962D-04
   1   1   2   1  0.13374329781930D+00 -0.63117959713331D-05
   2   1   2   1 -0.74075623634356D+00 -0.48311693620698D-17
   3   1   2   1  0.39825442655797D+00  0.40591973577184D-04
   1   1   3   1 -0.56557166838892D+00  0.46903776950968D-04
   2   1   3   1  0.39825442655797D+00 -0.40591973577187D-04
   3   1   3   1  0.19673650996270D+01  0.19786811400211D-17
 Band:  4
   1   1   1   1  0.19057920557816D+01  0.46867958005860D-18
   2   1   1   1 -0.17532264814138D+01 -0.63118075944813D-05
   3   1   1   1 -0.45215774701707D+00  0.46903771937045D-04
   1   1   2   1 -0.17532264814138D+01  0.63118075944872D-05
   2   1   2   1  0.45386408252051D+00  0.34960638227112D-17
   3   1   2   1  0.10053099774911D+01 -0.40591965210968D-04
   1   1   3   1 -0.45215774701707D+00 -0.46903771937043D-04
   2   1   3   1  0.10053099774911D+01  0.40591965210969D-04
   3   1   3   1 -0.73371654651888D+00 -0.17768659900279D-17
 K-point: -2.50000000E-01  2.50000000E-01 -2.50000000E-01
 Band:  1
   1   1   1   1 -0.21098919728465D+01 -0.13220854150450D-18
   2   1   1   1  0.90004226177327D+00 -0.26866552114268D-13
   3   1   1   1  0.30980725065843D+00 -0.17941874717914D-13
   1   1   2   1  0.90004226177327D+00  0.26864659985564D-13
   2   1   2   1 -0.38061138576696D+01 -0.14169195418803D-17
   3   1   2   1  0.90004226179889D+00 -0.18923461987156D-12
   1   1   3   1  0.30980725065843D+00  0.17942667798815D-13
   2   1   3   1  0.90004226179889D+00  0.18923048496491D-12
   3   1   3   1 -0.21098919728985D+01  0.28420139382401D-17
 Band:  2
   1   1   1   1  0.11578625231529D+01  0.52292059157733D-18
   2   1   1   1 -0.70501492575829D+00 -0.80051973125908D-12
   3   1   1   1  0.25216767921203D+00 -0.35349624029488D-12
   1   1   2   1 -0.70501492575829D+00  0.80052598599398D-12
   2   1   2   1 -0.45418508562942D+00  0.26291120038470D-17
   3   1   2   1 -0.70501492585686D+00 -0.91795192534191D-12
   1   1   3   1  0.25216767921203D+00  0.35349716896892D-12
   2   1   3   1 -0.70501492585686D+00  0.91795186802336D-12
   3   1   3   1  0.11578625233471D+01 -0.59741420062333D-17
 Band:  3
   1   1   1   1  0.14847920743362D+00 -0.16651308037694D-17
   2   1   1   1 -0.64564855660938D+00  0.28006470734492D-04
   3   1   1   1 -0.24463876657220D+00 -0.28159660572145D-12
   1   1   2   1 -0.64564855660938D+00 -0.28006470734490D-04
   2   1   2   1  0.10440311826201D+01 -0.79059126098001D-18
   3   1   2   1  0.74180799174097D+00  0.28006470521477D-04
   1   1   3   1 -0.24463876657220D+00  0.28159684500826D-12
   2   1   3   1  0.74180799174097D+00 -0.28006470521476D-04
   3   1   3   1  0.14847919517725D+00 -0.36148865166967D-17
 Band:  4
   1   1   1   1  0.11816504438753D+00 -0.37824333874936D-17
   2   1   1   1  0.72441048127888D+00 -0.28006470607033D-04
   3   1   1   1 -0.17952959135501D+00  0.12474121231401D-12
   1   1   2   1  0.72441048127888D+00  0.28006470607031D-04
   2   1   2   1  0.12531331949950D+01  0.11459982682037D-18
   3   1   2   1 -0.66304606703243D+00 -0.28006470630845D-04
   1   1   3   1 -0.17952959135501D+00 -0.12474162354851D-12
   2   1   3   1 -0.66304606703243D+00  0.28006470630846D-04
   3   1   3   1  0.11816505656662D+00  0.26715241077190D-17
 K-point:  2.50000000E-01 -2.50000000E-01 -2.50000000E-01
 Band:  1
   1   1   1   1 -0.16584069920577D+01  0.12191190613336D-17
   2   1   1   1  0.55101921887791D+00  0.55202867864013D-13
   3   1   1   1  0.44413076176224D+00  0.11892752528822D-12
   1   1   2   1  0.55101921887791D+00 -0.55202362923798D-13
   2   1   2   1 -0.20128523088611D+01  0.18979564127149D-17
   3   1   2   1  0.66325686660068D+00 -0.19714693069978D-12
   1   1   3   1  0.44413076176224D+00 -0.11892648808633D-12
   2   1   3   1  0.66325686660068D+00  0.19714525808887D-12
   3   1   3   1 -0.16584069924785D+01  0.45611768633285D-18
 Band:  2
   1   1   1   1 -0.31273418006227D+01  0.19385777182350D-17
   2   1   1   1  0.21708052837578D+01 -0.35854269974115D-11
   3   1   1   1  0.11487585469026D+01 -0.20198656759700D-11
   1   1   2   1  0.21708052837578D+01  0.35854067813667D-11
   2   1   2   1 -0.34397173296298D+01  0.13628603542193D-16
   3   1   2   1 -0.19222254741421D+00  0.22847536623025D-11
   1   1   3   1  0.11487585469026D+01  0.20198522801973D-11
   2   1   3   1 -0.19222254741421D+00 -0.22847255872526D-11
   3   1   3   1 -0.31273418013204D+01  0.69120778465182D-17
 Band:  3
   1   1   1   1 -0.69555940262289D+00 -0.79917130020276D-17
   2   1   1   1  0.10691305343908D+01 -0.30622212775815D-04
   3   1   1   1 -0.52508049837724D+00  0.35383774799666D-04
   1   1   2   1  0.10691305343908D+01  0.30622212775803D-04
   2   1   2   1  0.47603992372740D+00  0.29680482713203D-16
   3   1   2   1 -0.17843812464576D+01 -0.47615545415085D-05
   1   1   3   1 -0.52508049837724D+00 -0.35383774799674D-04
   2   1   3   1 -0.17843812464576D+01  0.47615545415103D-05
   3   1   3   1  0.19468152490785D+01 -0.47717499459985D-17
 Band:  4
   1   1   1   1  0.19292079657151D+01  0.68772090172406D-17
   2   1   1   1  0.33443383979930D+00  0.30622199540231D-04
   3   1   1   1 -0.49264890831822D+00 -0.35383773725089D-04
   1   1   2   1  0.33443383979930D+00 -0.30622199540236D-04
   2   1   2   1 -0.76293199016656D+00 -0.48026919486804D-17
   3   1   2   1  0.16489803351334D+00  0.47615641761102D-05
   1   1   3   1 -0.49264890831822D+00  0.35383773725093D-04
   2   1   3   1  0.16489803351334D+00 -0.47615641761089D-05
   3   1   3   1 -0.71316668606834D+00 -0.77298160727032D-17
 K-point: -2.50000000E-01 -2.50000000E-01 -2.50000000E-01
 Band:  1
   1   1   1   1 -0.26102084729263D+01 -0.25328647931133D-17
   2   1   1   1  0.68414372429542D+00  0.58165523557127D-13
   3   1   1   1  0.12419207245615D+01 -0.36627116507373D-14
   1   1   2   1  0.68414372429542D+00 -0.58166730301109D-13
   2   1   2   1 -0.36318985849848D+01  0.22760749518270D-17
   3   1   2   1  0.68414372427057D+00 -0.68796693106018D-13
   1   1   3   1  0.12419207245615D+01  0.36591887819065D-14
   2   1   3   1  0.68414372427057D+00  0.68790285786188D-13
   3   1   3   1 -0.26102084728771D+01  0.52738804910542D-17
 Band:  2
   1   1   1   1 -0.42481459725397D+00 -0.23319689390340D-17
   2   1   1   1  0.17217417296559D+00 -0.30175615748690D-02
   3   1   1   1  0.76793100388909D-01  0.15400081717669D-03
   1   1   2   1  0.17217417296559D+00  0.30175615748690D-02
   2   1   2   1 -0.19631352376619D+01 -0.20170899015767D-17
   3   1   2   1  0.47636357784399D+00 -0.31479322388816D-01
   1   1   3   1  0.76793100388909D-01 -0.15400081717669D-03
   2   1   3   1  0.47636357784399D+00  0.31479322388816D-01
   3   1   3   1 -0.10215286089135D+01 -0.22112120725816D-18
 Band:  3
   1   1   1   1 -0.75627460964567D+00 -0.11776580518727D-18
   2   1   1   1  0.36298836023447D+00 -0.66703077991339D-02
   3   1   1   1  0.24500513616976D-01  0.84251187694960D-05
   1   1   2   1  0.36298836023447D+00  0.66703077991339D-02
   2   1   2   1  0.16684534260764D+01  0.39733174821936D-18
   3   1   2   1  0.36427153805471D+00  0.30048868729159D-01
   1   1   3   1  0.24500513616976D-01 -0.84251187694964D-05
   2   1   3   1  0.36427153805471D+00 -0.30048868729159D-01
   3   1   3   1 -0.75633954918769D+00 -0.19475717990079D-18
 Band:  4
   1   1   1   1 -0.10239020464737D+01 -0.91822146140146D-18
   2   1   1   1  0.46010648552847D+00  0.96878693736291D-02
   3   1   1   1  0.11315935730473D+00 -0.16242593619668D-03
   1   1   2   1  0.46010648552847D+00 -0.96878693736291D-02
   2   1   2   1 -0.19487660006940D+01  0.33375118898207D-17
   3   1   2   1  0.15463390286363D+00  0.14304536591704D-02
   1   1   3   1  0.11315935730473D+00  0.16242593619668D-03
   2   1   3   1  0.15463390286363D+00 -0.14304536591704D-02
   3   1   3   1 -0.42712309533569D+00 -0.12672497683374D-17
  
 2nd eigenvalue derivatives   - # elements :       9
 qpt  5.00000000E-01  5.00000000E-01  0.00000000E+00   1.0
 K-point:  2.50000000E-01  2.50000000E-01  2.50000000E-01
 Band:  1
   1   1   1   1 -0.36318984128938D+01 -0.38626063271507D-17
   2   1   1   1  0.22636113289697D+01  0.48138032471157D-14
   3   1   1   1  0.68414369401721D+00 -0.25897071397476D-13
   1   1   2   1  0.22636113289697D+01 -0.48180132779638D-14
   2   1   2   1 -0.36318984129566D+01 -0.10662579429579D-17
   3   1   2   1  0.68414369404895D+00 -0.99501942111447D-14
   1   1   3   1  0.68414369401721D+00  0.25896879542817D-13
   2   1   3   1  0.68414369404895D+00  0.99583322594927D-14
   3   1   3   1 -0.26102084364178D+01 -0.50272045572951D-17
 Band:  2
   1   1   1   1 -0.18094485796381D+01  0.95768206470192D-17
   2   1   1   1  0.13326733198647D+01  0.29416430990414D-02
   3   1   1   1  0.44986499171166D+00 -0.12932652758554D-01
   1   1   2   1  0.13326733198647D+01 -0.29416430990414D-02
   2   1   2   1 -0.17402558091988D+01 -0.39076419717327D-17
   3   1   2   1  0.24080718011275D+00  0.11622447508145D-01
   1   1   3   1  0.44986499171166D+00  0.12932652758554D-01
   2   1   3   1  0.24080718011275D+00 -0.11622447508145D-01
   3   1   3   1 -0.98676381150138D+00  0.71704129790681D-18
 Band:  3
   1   1   1   1 -0.12214889579461D+01  0.10995098411921D-17
   2   1   1   1  0.31175578632862D+00  0.51344605509485D-02
   3   1   1   1  0.19436127682777D+00  0.14452020832356D-01
   1   1   2   1  0.31175578632862D+00 -0.51344605509485D-02
   2   1   2   1 -0.90563846169155D+00  0.50741016532804D-18
   3   1   2   1  0.34937897171747D+00 -0.13297164333492D-01
   1   1   3   1  0.19436127682777D+00 -0.14452020832356D-01
   2   1   3   1  0.34937897171747D+00  0.13297164333492D-01
   3   1   3   1 -0.51789362628456D+00 -0.20252532727250D-17
 Band:  4
   1   1   1   1  0.78748963462439D+00  0.55471073736044D-18
   2   1   1   1 -0.13915190263579D+01 -0.80761036498645D-02
   3   1   1   1  0.35104276571858D+00 -0.15193680728874D-02
   1   1   2   1 -0.13915190263579D+01  0.80761036498645D-02
   2   1   2   1  0.40244636803215D+00  0.17020785475332D-17
   3   1   2   1  0.40508288237140D+00  0.16747168265415D-02
   1   1   3   1  0.35104276571858D+00  0.15193680728874D-02
   2   1   3   1  0.40508288237140D+00 -0.16747168265415D-02
   3   1   3   1 -0.70033383705416D+00 -0.51616878218824D-18
 K-point: -2.50000000E-01  2.50000000E-01  2.50000000E-01
 Band:  1
   1   1   1   1 -0.20128523043643D+01 -0.86051736832467D-18
   2   1   1   1  0.79857635600367D+00 -0.11554281640827D-14
   3   1   1   1  0.55101922251883D+00 -0.28216365021466D-14
   1   1   2   1  0.79857635600367D+00  0.11552559673681D-14
   2   1   2   1 -0.20128522623180D+01 -0.12302397119376D-17
   3   1   2   1  0.66325685178753D+00  0.14428513166304D-14
   1   1   3   1  0.55101922251883D+00  0.28206776905586D-14
   2   1   3   1  0.66325685178753D+00 -0.14416606163936D-14
   3   1   3   1 -0.16584069871486D+01 -0.51970573529801D-18
 Band:  2
   1   1   1   1 -0.34397173181574D+01  0.17297956927066D-16
   2   1   1   1  0.14611350760759D+01 -0.13244428360373D-12
   3   1   1   1  0.21708052944857D+01 -0.86769025228766D-12
   1   1   2   1  0.14611350760759D+01  0.13245469586521D-12
   2   1   2   1 -0.34397172148876D+01 -0.17125149211126D-16
   3   1   2   1 -0.19222258692891D+00  0.10843607948878D-11
   1   1   3   1  0.21708052944857D+01  0.86769941534432D-12
   2   1   3   1 -0.19222258692891D+00 -0.10843756334532D-11
   3   1   3   1 -0.31273417843219D+01 -0.57410506293321D-17
 Band:  3
   1   1   1   1 -0.76367316508315D+00 -0.92964268586614D-18
   2   1   1   1  0.26554218929302D+00 -0.15214631365515D-04
   3   1   1   1  0.33219943403219D+00  0.18016011673444D-04
   1   1   2   1  0.26554218929302D+00  0.15214631365499D-04
   2   1   2   1  0.46569196554580D+00  0.42388295606444D-17
   3   1   2   1 -0.17698943684083D+01  0.28013743848078D-05
   1   1   3   1  0.33219943403219D+00 -0.18016011673447D-04
   2   1   3   1 -0.17698943684083D+01 -0.28013743848114D-05
   3   1   3   1  0.19277623369557D+01 -0.35955989768059D-17
 Band:  4
   1   1   1   1  0.47678108876419D+00 -0.55289990872013D-17
   2   1   1   1  0.23726842755882D+00  0.15214630163210D-04
   3   1   1   1  0.10713649323769D+01 -0.18016009617807D-04
   1   1   2   1  0.23726842755882D+00 -0.15214630163222D-04
   2   1   2   1 -0.75258411973778D+00 -0.92223181847042D-17
   3   1   2   1  0.15041118414267D+00 -0.28013766419496D-05
   1   1   3   1  0.10713649323769D+01  0.18016009617784D-04
   2   1   3   1  0.15041118414267D+00  0.28013766419638D-05
   3   1   3   1 -0.69411378620944D+00  0.10314291280473D-16
 K-point:  2.50000000E-01 -2.50000000E-01  2.50000000E-01
 Band:  1
   1   1   1   1 -0.20128522623148D+01 -0.20643900675943D-18
   2   1   1   1  0.79857635600332D+00  0.91104626032579D-14
   3   1   1   1  0.66325685178387D+00 -0.28733275214063D-13
   1   1   2   1  0.79857635600332D+00 -0.91090657496821D-14
   2   1   2   1 -0.20128523043670D+01 -0.51541226376334D-18
   3   1   2   1  0.55101922251829D+00  0.36090058939275D-13
   1   1   3   1  0.66325685178387D+00  0.28738610247013D-13
   2   1   3   1  0.55101922251829D+00 -0.36092748806930D-13
   3   1   3   1 -0.16584069871440D+01 -0.10272253994678D-17
 Band:  2
   1   1   1   1 -0.34397172150366D+01 -0.17603834229285D-17
   2   1   1   1  0.14611350760747D+01 -0.19311042293079D-12
   3   1   1   1 -0.19222258688436D+00  0.82698203235684D-12
   1   1   2   1  0.14611350760747D+01  0.19311794156622D-12
   2   1   2   1 -0.34397173180005D+01  0.23773224715608D-18
   3   1   2   1  0.21708052943703D+01 -0.97866485941616D-12
   1   1   3   1 -0.19222258688436D+00 -0.82697625411482D-12
   2   1   3   1  0.21708052943703D+01  0.97865981615340D-12
   3   1   3   1 -0.31273417842475D+01  0.60819969489396D-17
 Band:  3
   1   1   1   1  0.23606946056787D+00  0.12753288078568D-16
   2   1   1   1 -0.62482681306021D+00  0.21038285692926D-03
   3   1   1   1 -0.13472016112601D+01  0.38736502191742D-04
   1   1   2   1 -0.62482681306021D+00 -0.21038285692926D-03
   2   1   2   1  0.16435933629920D+00  0.14212734746149D-17
   3   1   2   1  0.16947503875514D+01  0.24911941439717D-03
   1   1   3   1 -0.13472016112601D+01 -0.38736502191749D-04
   2   1   3   1  0.16947503875514D+01 -0.24911941439716D-03
   3   1   3   1  0.13264401390295D+01  0.28039686892903D-17
 Band:  4
   1   1   1   1 -0.52296161492226D+00 -0.16673161937564D-16
   2   1   1   1  0.11276374299127D+01 -0.21038285801143D-03
   3   1   1   1 -0.27228157289797D+00 -0.38736502128724D-04
   1   1   2   1  0.11276374299127D+01  0.21038285801140D-03
   2   1   2   1 -0.45125141245145D+00 -0.10261050369578D-16
   3   1   2   1 -0.29118602119544D+00 -0.24911941429588D-03
   1   1   3   1 -0.27228157289797D+00  0.38736502128745D-04
   2   1   3   1 -0.29118602119545D+00  0.24911941429588D-03
   3   1   3   1 -0.92791588334979D-01  0.44678679403712D-17
 K-point: -2.50000000E-01 -2.50000000E-01  2.50000000E-01
 Band:  1
   1   1   1   1 -0.38061139252330D+01  0.15945535772712D-17
   2   1   1   1  0.20060295249889D+01  0.66836037987336D-13
   3   1   1   1  0.90004228469818D+00 -0.40920912914916D-13
   1   1   2   1  0.20060295249889D+01 -0.66835520824336D-13
   2   1   2   1 -0.38061139252153D+01  0.22042805735839D-17
   3   1   2   1  0.90004228469043D+00  0.89965443022787D-13
   1   1   3   1  0.90004228469818D+00  0.40921581284323D-13
   2   1   3   1  0.90004228469043D+00 -0.89966588089141D-13
   3   1   3   1 -0.21098919810426D+01 -0.19475772070564D-17
 Band:  2
   1   1   1   1 -0.45418522155181D+00  0.13157925672140D-16
   2   1   1   1  0.18642145776529D+01  0.84698403085610D-13
   3   1   1   1 -0.70501488327251D+00  0.61179353670198D-12
   1   1   2   1  0.18642145776529D+01 -0.84705927187481D-13
   2   1   2   1 -0.45418522160348D+00  0.16528562235882D-16
   3   1   2   1 -0.70501488324382D+00  0.96140730103071D-12
   1   1   3   1 -0.70501488327251D+00 -0.61179501072128D-12
   2   1   3   1 -0.70501488324382D+00 -0.96140863586369D-12
   3   1   3   1  0.11578625105919D+01 -0.65255757893195D-17
 Band:  3
   1   1   1   1 -0.69467825519018D+00 -0.28355045332364D-17
   2   1   1   1  0.30919402066358D+00  0.39517224632440D-12
   3   1   1   1  0.16092596255425D+00 -0.30477003842660D-05
   1   1   2   1  0.30919402066358D+00 -0.39516950382859D-12
   2   1   2   1 -0.69467825519264D+00  0.19190974431122D-17
   3   1   2   1  0.22455843169966D+00  0.30476995832961D-05
   1   1   3   1  0.16092596255425D+00  0.30477003842690D-05
   2   1   3   1  0.22455843169966D+00 -0.30476995832953D-05
   3   1   3   1  0.40054516270919D+00  0.21504514256880D-17
 Band:  4
   1   1   1   1  0.29918427589044D+01  0.99313770002657D-18
   2   1   1   1 -0.27638819811583D+01  0.63344051942409D-13
   3   1   1   1 -0.82164078556627D-01  0.30477032452134D-05
   1   1   2   1 -0.27638819811583D+01 -0.63347187152973D-13
   2   1   2   1  0.29918427588993D+01  0.22373945617878D-17
   3   1   2   1 -0.14579654769888D+00 -0.30476962184013D-05
   1   1   3   1 -0.82164078556627D-01 -0.30477032452119D-05
   2   1   3   1 -0.14579654769888D+00  0.30476962183992D-05
   3   1   3   1 -0.13390089909399D+00 -0.44306258374886D-18
 K-point:  2.50000000E-01  2.50000000E-01 -2.50000000E-01
 Band:  1
   1   1   1   1 -0.38061138542357D+01 -0.20769588229214D-18
   2   1   1   1  0.20060294876234D+01 -0.67187769695377D-13
   3   1   1   1  0.90004226787373D+00  0.40842323695508D-13
   1   1   2   1  0.20060294876234D+01  0.67189405339932D-13
   2   1   2   1 -0.38061138542180D+01  0.76638714693295D-18
   3   1   2   1  0.90004226786597D+00 -0.90584907355167D-13
   1   1   3   1  0.90004226787373D+00 -0.40840517401883D-13
   2   1   3   1  0.90004226786597D+00  0.90583574584143D-13
   3   1   3   1 -0.21098919642815D+01  0.36676404875243D-17
 Band:  2
   1   1   1   1 -0.45418506889311D+00  0.10476020766988D-16
   2   1   1   1  0.18642144791979D+01 -0.84585033189270D-13
   3   1   1   1 -0.70501491037316D+00 -0.61111967581298D-12
   1   1   2   1  0.18642144791979D+01  0.84576400337219D-13
   2   1   2   1 -0.45418506894478D+00 -0.18793927943785D-17
   3   1   2   1 -0.70501491034447D+00 -0.96042617679321D-12
   1   1   3   1 -0.70501491037316D+00  0.61111688115230D-12
   2   1   3   1 -0.70501491034447D+00  0.96042959786983D-12
   3   1   3   1  0.11578625375557D+01 -0.17701010307456D-17
 Band:  3
   1   1   1   1 -0.69443431569208D+00 -0.22997220973078D-17
   2   1   1   1  0.30899067344330D+00 -0.39250516010017D-12
   3   1   1   1  0.15896116388049D+00 -0.28553551164476D-04
   1   1   2   1  0.30899067344330D+00  0.39250751692964D-12
   2   1   2   1 -0.69443431569455D+00 -0.45081874825478D-17
   3   1   2   1  0.22648263809672D+00  0.28553551965828D-04
   1   1   3   1  0.15896116388049D+00  0.28553551164473D-04
   2   1   3   1  0.22648263809672D+00 -0.28553551965822D-04
   3   1   3   1  0.40050980131611D+00 -0.15077274479207D-17
 Band:  4
   1   1   1   1  0.29915986799443D+01  0.23175498993600D-17
   2   1   1   1 -0.27636785488208D+01 -0.66068607414513D-13
   3   1   1   1 -0.80199252713096D-01  0.28553548302224D-04
   1   1   2   1 -0.27636785488208D+01  0.66064854886503D-13
   2   1   2   1  0.29915986799391D+01 -0.24533012853040D-17
   3   1   2   1 -0.14772072692616D+00 -0.28553555331735D-04
   1   1   3   1 -0.80199252713096D-01 -0.28553548302224D-04
   2   1   3   1 -0.14772072692616D+00  0.28553555331738D-04
   3   1   3   1 -0.13386556161460D+00 -0.10839107517704D-18
 K-point: -2.50000000E-01  2.50000000E-01 -2.50000000E-01
 Band:  1
   1   1   1   1 -0.20128523043666D+01 -0.97305726113199D-18
   2   1   1   1  0.79857635600332D+00 -0.93681980596113D-14
   3   1   1   1  0.66325687244262D+00  0.28850142576729D-13
   1   1   2   1  0.79857635600332D+00  0.93678757878534D-14
   2   1   2   1 -0.20128522623152D+01  0.27426922954795D-17
   3   1   2   1  0.55101920114113D+00 -0.36466106444166D-13
   1   1   3   1  0.66325687244262D+00 -0.28852042955327D-13
   2   1   3   1  0.55101920114113D+00  0.36469017465102D-13
   3   1   3   1 -0.16584069864221D+01  0.13101023349630D-17
 Band:  2
   1   1   1   1 -0.34397173182775D+01  0.14848827980111D-16
   2   1   1   1  0.14611350760747D+01  0.19617459530410D-12
   3   1   1   1 -0.19222253354588D+00 -0.83229321563566D-12
   1   1   2   1  0.14611350760747D+01 -0.19620151016631D-12
   2   1   2   1 -0.34397172147596D+01  0.82410854557869D-17
   3   1   2   1  0.21708052444364D+01  0.97759189078770D-12
   1   1   3   1 -0.19222253354588D+00  0.83231631596499D-12
   2   1   3   1  0.21708052444364D+01 -0.97760664511905D-12
   3   1   3   1 -0.31273417876144D+01  0.11822699176613D-17
 Band:  3
   1   1   1   1  0.23508055209377D+00 -0.43343937216034D-17
   2   1   1   1 -0.62491085037853D+00  0.33623361063180D-04
   3   1   1   1 -0.13456386021893D+01  0.61908633657578D-05
   1   1   2   1 -0.62491085037852D+00 -0.33623361063180D-04
   2   1   2   1  0.16541416906170D+00  0.48773754471262D-17
   3   1   2   1  0.16954348629603D+01  0.39814232289578D-04
   1   1   3   1 -0.13456386021893D+01 -0.61908633657568D-05
   2   1   3   1  0.16954348629603D+01 -0.39814232289579D-04
   3   1   3   1  0.13243043951800D+01 -0.33084357836749D-17
 Band:  4
   1   1   1   1 -0.52197262832397D+00 -0.14362471182581D-17
   2   1   1   1  0.11277214672309D+01 -0.33623359993398D-04
   3   1   1   1 -0.27384462263798D+00 -0.61908634267443D-05
   1   1   2   1  0.11277214672309D+01  0.33623359993432D-04
   2   1   2   1 -0.45230632333809D+00  0.77105420319954D-17
   3   1   2   1 -0.29187045914753D+00 -0.39814232389423D-04
   1   1   3   1 -0.27384462263798D+00  0.61908634267048D-05
   2   1   3   1 -0.29187045914753D+00  0.39814232389396D-04
   3   1   3   1 -0.90655841242130D-01  0.21812392365188D-16
 K-point:  2.50000000E-01 -2.50000000E-01 -2.50000000E-01
 Band:  1
   1   1   1   1 -0.20128522623124D+01 -0.18186429357876D-17
   2   1   1   1  0.79857635600367D+00  0.15480447673327D-14
   3   1   1   1  0.55101920114167D+00  0.24140992644205D-14
   1   1   2   1  0.79857635600367D+00 -0.15491237116318D-14
   2   1   2   1 -0.20128523043698D+01  0.17445993546957D-17
   3   1   2   1  0.66325687244628D+00 -0.14211500334995D-14
   1   1   3   1  0.55101920114167D+00 -0.24155576147898D-14
   2   1   3   1  0.66325687244628D+00  0.14198888012010D-14
   3   1   3   1 -0.16584069864267D+01 -0.13461561619908D-17
 Band:  2
   1   1   1   1 -0.34397172149165D+01 -0.18167463146533D-16
   2   1   1   1  0.14611350760759D+01  0.12738832495081D-12
   3   1   1   1  0.21708052445518D+01  0.86756421861866D-12
   1   1   2   1  0.14611350760759D+01 -0.12736646935230D-12
   2   1   2   1 -0.34397173181285D+01  0.34688678460964D-17
   3   1   2   1 -0.19222253359042D+00 -0.10867258460931D-11
   1   1   3   1  0.21708052445518D+01 -0.86754704925973D-12
   2   1   3   1 -0.19222253359042D+00  0.10867168703778D-11
   3   1   3   1 -0.31273417876888D+01 -0.13304045625142D-16
 Band:  3
   1   1   1   1 -0.76293198308409D+00  0.12968420128827D-17
   2   1   1   1  0.26360038571341D+00 -0.25860636622608D-04
   3   1   1   1  0.33443383953224D+00  0.30622203701781D-04
   1   1   2   1  0.26360038571341D+00  0.25860636622593D-04
   2   1   2   1  0.46647403089880D+00 -0.97322718855328D-17
   3   1   2   1 -0.17709924468732D+01  0.47615622434969D-05
   1   1   3   1  0.33443383953224D+00 -0.30622203701797D-04
   2   1   3   1 -0.17709924468732D+01 -0.47615622434687D-05
   3   1   3   1  0.19292079670427D+01 -0.66630040826071D-18
 Band:  4
   1   1   1   1  0.47603982864097D+00 -0.61999077053606D-16
   2   1   1   1  0.23921023113840D+00  0.25860637825603D-04
   3   1   1   1  0.10691305643337D+01 -0.30622205761093D-04
   1   1   2   1  0.23921023113840D+00 -0.25860637825631D-04
   2   1   2   1 -0.75336610696659D+00  0.13757369905477D-17
   3   1   2   1  0.15150922193839D+00 -0.47615599842132D-05
   1   1   3   1  0.10691305643337D+01  0.30622205761142D-04
   2   1   3   1  0.15150922193839D+00  0.47615599842171D-05
   3   1   3   1 -0.69555941305304D+00  0.45327886226800D-17
 K-point: -2.50000000E-01 -2.50000000E-01 -2.50000000E-01
 Band:  1
   1   1   1   1 -0.36318985845454D+01  0.15507935397791D-17
   2   1   1   1  0.22636114412958D+01 -0.55797581334649D-14
   3   1   1   1  0.68414372365894D+00  0.25979076490370D-13
   1   1   2   1  0.22636114412958D+01  0.55816806399542D-14
   2   1   2   1 -0.36318985846082D+01  0.13513051068857D-17
   3   1   2   1  0.68414372369067D+00  0.92920059612785D-14
   1   1   3   1  0.68414372365894D+00 -0.25978630783332D-13
   2   1   3   1  0.68414372369067D+00 -0.92924016923121D-14
   3   1   3   1 -0.26102084744677D+01 -0.10333004386784D-17
 Band:  2
   1   1   1   1 -0.18094723220982D+01 -0.44302869557123D-17
   2   1   1   1  0.13327017129977D+01 -0.29457832242602D-02
   3   1   1   1  0.44985115725106D+00  0.12954216143889D-01
   1   1   2   1  0.13327017129977D+01  0.29457832242603D-02
   2   1   2   1 -0.17402889950783D+01 -0.14387056092217D-16
   3   1   2   1  0.24082387925131D+00 -0.11641431225376D-01
   1   1   3   1  0.44985115725106D+00 -0.12954216143889D-01
   2   1   3   1  0.24082387925131D+00  0.11641431225376D-01
   3   1   3   1 -0.98676629487691D+00 -0.16089782516040D-17
 Band:  3
   1   1   1   1 -0.12214467417665D+01 -0.17780082476940D-17
   2   1   1   1  0.31170647767703D+00 -0.51271455920525D-02
   3   1   1   1  0.19436678702966D+00 -0.14482341517362D-01
   1   1   2   1  0.31170647767703D+00  0.51271455920525D-02
   2   1   2   1 -0.90558935275540D+00 -0.66409085247341D-18
   3   1   2   1  0.34938221383962D+00  0.13325175402391D-01
   1   1   3   1  0.19436678702966D+00  0.14482341517362D-01
   2   1   3   1  0.34938221383963D+00 -0.13325175402391D-01
   3   1   3   1 -0.51789897640692D+00 -0.13870632449947D-17
 Band:  4
   1   1   1   1  0.78747125053257D+00 -0.32052889429851D-18
   2   1   1   1 -0.13914981686367D+01  0.80729288161876D-02
   3   1   1   1  0.35105107407572D+00  0.15281253725588D-02
   1   1   2   1 -0.13914981686367D+01 -0.80729288161876D-02
   2   1   2   1  0.40243053460313D+00 -0.16605080397809D-17
   3   1   2   1  0.40506292520913D+00 -0.16837441782107D-02
   1   1   3   1  0.35105107407572D+00 -0.15281253725588D-02
   2   1   3   1  0.40506292520913D+00  0.16837441782107D-02
   3   1   3   1 -0.70032598226864D+00 -0.28038255507946D-17
  
 2nd eigenvalue derivatives   - # elements :       9
 qpt  0.00000000E+00  0.00000000E+00  5.00000000E-01   1.0
 K-point:  2.50000000E-01  2.50000000E-01  2.50000000E-01
 Band:  1
   1   1   1   1 -0.26102084539110D+01  0.61038666202530D-17
   2   1   1   1  0.12419207351378D+01 -0.86193155650311D-14
   3   1   1   1  0.68414367692359D+00  0.60811508323879D-13
   1   1   2   1  0.12419207351378D+01  0.86266035217591D-14
   2   1   2   1 -0.26102084538864D+01 -0.80708653645557D-17
   3   1   2   1  0.68414367691159D+00  0.44591994013736D-13
   1   1   3   1  0.68414367692359D+00 -0.60812778373235D-13
   2   1   3   1  0.68414367691159D+00 -0.44590499183255D-13
   3   1   3   1 -0.36318984340257D+01  0.74428683540237D-17
 Band:  2
   1   1   1   1 -0.69567251082328D+00 -0.91072884325708D-20
   2   1   1   1 -0.40529108940128D-01 -0.10853249856454D-03
   3   1   1   1  0.36375233798015D+00  0.70033529320734D-02
   1   1   2   1 -0.40529108940128D-01  0.10853249856454D-03
   2   1   2   1 -0.78954737059972D+00  0.40823200051089D-18
   3   1   2   1  0.23622834721939D+00  0.28508278023493D-01
   1   1   3   1  0.36375233798015D+00 -0.70033529320734D-02
   2   1   3   1  0.23622834721939D+00 -0.28508278023493D-01
   3   1   3   1  0.87097461274592D+00  0.34238080888366D-18
 Band:  3
   1   1   1   1 -0.51161386573297D+00 -0.13297140871219D-17
   2   1   1   1 -0.19001116553725D-01 -0.18943698694334D-03
   3   1   1   1  0.18551687219051D+00  0.88600153499400D-03
   1   1   2   1 -0.19001116553725D-01  0.18943698694334D-03
   2   1   2   1 -0.94013293076755D+00  0.43645416860165D-19
   3   1   2   1  0.71271937020033D+00 -0.32187080315330D-01
   1   1   3   1  0.18551687219051D+00 -0.88600153499400D-03
   2   1   3   1  0.71271937020033D+00  0.32187080315330D-01
   3   1   3   1 -0.12670058184015D+01 -0.56704281509888D-17
 Band:  4
   1   1   1   1 -0.99770488745023D+00  0.38674576862089D-18
   2   1   1   1  0.27398319160369D+00  0.29796948609384D-03
   3   1   1   1  0.44599983363186D+00 -0.78893544672062D-02
   1   1   2   1  0.27398319160369D+00 -0.29796948609384D-03
   2   1   2   1 -0.47531096267103D+00  0.12038159973965D-17
   3   1   2   1  0.46321326392970D-01  0.36788022924428D-02
   1   1   3   1  0.44599983363186D+00  0.78893544672062D-02
   2   1   3   1  0.46321326392970D-01 -0.36788022924428D-02
   3   1   3   1 -0.18474166857454D+01 -0.15488663450185D-17
 K-point: -2.50000000E-01  2.50000000E-01  2.50000000E-01
 Band:  1
   1   1   1   1 -0.16584069859453D+01  0.10991556074962D-17
   2   1   1   1  0.44413076641836D+00 -0.94518760181393D-15
   3   1   1   1  0.55101920179943D+00 -0.23009802311495D-13
   1   1   2   1  0.44413076641836D+00  0.94222789900198D-15
   2   1   2   1 -0.16584069870819D+01  0.13708963062516D-17
   3   1   2   1  0.66325685225067D+00  0.21456185653220D-13
   1   1   3   1  0.55101920179943D+00  0.23008543375088D-13
   2   1   3   1  0.66325685225067D+00 -0.21457790621305D-13
   3   1   3   1 -0.20128522614093D+01  0.72754081539067D-18
 Band:  2
   1   1   1   1 -0.31273417866084D+01  0.66373629382406D-17
   2   1   1   1  0.11487585583551D+01  0.21809419808268D-12
   3   1   1   1  0.21708052444500D+01 -0.12942963578570D-11
   1   1   2   1  0.11487585583551D+01 -0.21810801286379D-12
   2   1   2   1 -0.31273417841062D+01 -0.11488383472145D-17
   3   1   2   1 -0.19222258694842D+00  0.11669755330731D-11
   1   1   3   1  0.21708052444500D+01  0.12942849144024D-11
[...]
 Band:  4
   1   1   1   1 -0.99503909178728D+00  0.14538143487458D-17
   2   1   1   1  0.27608504516553D+00  0.13957975527738D-02
   3   1   1   1  0.43492543637683D+00 -0.18560745532610D-02
   1   1   2   1  0.27608504516553D+00 -0.13957975527738D-02
   2   1   2   1 -0.17933296326407D+01 -0.67218487357462D-17
   3   1   2   1  0.13676902012500D+01 -0.18448735029037D-03
   1   1   3   1  0.43492543637683D+00  0.18560745532610D-02
   2   1   3   1  0.13676902012500D+01  0.18448735029037D-03
   3   1   3   1 -0.18481595522363D+01  0.56872500267171D-17
  
 2nd eigenvalue derivatives   - # elements :       9
 qpt  5.00000000E-01  5.00000000E-01  5.00000000E-01   1.0
 K-point:  2.50000000E-01  2.50000000E-01  2.50000000E-01
 Band:  1
   1   1   1   1 -0.53473413310701D+01 -0.31593331194273D-17
   2   1   1   1  0.17824470934898D+01 -0.19509407397220D-12
   3   1   1   1  0.17824470934910D+01 -0.16516320538217D-12
   1   1   2   1  0.17824470934898D+01  0.19509942563474D-12
   2   1   2   1 -0.53473413310800D+01  0.23033099171080D-17
   3   1   2   1  0.17824470934989D+01 -0.61780859501817D-12
   1   1   3   1  0.17824470934910D+01  0.16516878108071D-12
   2   1   3   1  0.17824470934989D+01  0.61779702487279D-12
   3   1   3   1 -0.53473413310899D+01 -0.56186868467809D-18
 Band:  2
   1   1   1   1 -0.30372797397746D+00  0.85476866609963D-18
   2   1   1   1  0.39550742795957D+00  0.37902891801334D-02
   3   1   1   1 -0.49204933948236D+00  0.53621168035446D-02
   1   1   2   1  0.39550742795957D+00 -0.37902891801334D-02
   2   1   2   1  0.30026867554100D+00  0.17244508977491D-17
   3   1   2   1 -0.15005503494233D+01  0.40394405497472D-01
   1   1   3   1 -0.49204933948236D+00 -0.53621168035446D-02
   2   1   3   1 -0.15005503494233D+01 -0.40394405497472D-01
   3   1   3   1  0.35355616175531D+01  0.41045305293188D-18
 Band:  3
   1   1   1   1 -0.39134381899016D+00  0.45154351282872D-18
   2   1   1   1  0.76855436947499D-01  0.66157210940279D-02
   3   1   1   1  0.19295465035593D+00  0.29297608851164D-03
   1   1   2   1  0.76855436947499D-01 -0.66157210940279D-02
   2   1   2   1  0.23657743083183D+01  0.15677796711536D-17
   3   1   2   1  0.81697223380022D-01 -0.40624227307360D-01
   1   1   3   1  0.19295465035593D+00 -0.29297608851164D-03
   2   1   3   1  0.81697223380022D-01  0.40624227307360D-01
   3   1   3   1 -0.39092771974678D+00 -0.64131082233625D-18
 Band:  4
   1   1   1   1  0.35975868751989D+01  0.81839809744981D-18
   2   1   1   1 -0.14398678818282D+01 -0.10406010274005D-01
   3   1   1   1 -0.66841032778988D+00 -0.56550928919122D-02
   1   1   2   1 -0.14398678818282D+01  0.10406010274005D-01
   2   1   2   1  0.23647209837069D+00  0.54418750850488D-19
   3   1   2   1  0.45134810912437D+00  0.22982181042060D-03
   1   1   3   1 -0.66841032778988D+00  0.56550928919122D-02
   2   1   3   1  0.45134810912437D+00 -0.22982181042060D-03
   3   1   3   1 -0.24211881557759D+00  0.14133154502526D-17
 K-point: -2.50000000E-01  2.50000000E-01  2.50000000E-01
 Band:  1
   1   1   1   1 -0.18479914620357D+01 -0.62147261415148D-18
   2   1   1   1  0.36240099408110D+00  0.71745829475357D-14
   3   1   1   1  0.36240099408685D+00 -0.51981224235636D-13
   1   1   2   1  0.36240099408110D+00 -0.71738155431383D-14
   2   1   2   1 -0.18479914141290D+01 -0.50972449969538D-18
   3   1   2   1  0.11231894272852D+01  0.59295727996509D-13
   1   1   3   1  0.36240099408685D+00  0.51980053587903D-13
   2   1   3   1  0.11231894272852D+01 -0.59294080055875D-13
   3   1   3   1 -0.18479914141405D+01  0.12454085320091D-17
 Band:  2
   1   1   1   1 -0.16447596230560D+01 -0.28661033759824D-17
   2   1   1   1  0.30972076642483D+00  0.11198855847249D-12
   3   1   1   1  0.30972076634328D+00 -0.32731833083588D-12
   1   1   2   1  0.30972076642483D+00 -0.11197865581932D-12
   2   1   2   1 -0.16447594971753D+01  0.12759817951946D-17
   3   1   2   1  0.10253179641797D+01  0.43944188599609D-12
   1   1   3   1  0.30972076634328D+00  0.32731070454150D-12
   2   1   3   1  0.10253179641797D+01 -0.43942786857245D-12
   3   1   3   1 -0.16447594970089D+01  0.10967337852996D-18
 Band:  3
   1   1   1   1 -0.83613969710708D+00  0.18562854305512D-16
   2   1   1   1  0.16180336796966D+00 -0.19064988814561D-04
   3   1   1   1  0.13503141546563D+00  0.19064988583851D-04
   1   1   2   1  0.16180336796966D+00  0.19064988814561D-04
   2   1   2   1  0.43232357313122D+00  0.15440924892617D-17
   3   1   2   1 -0.72915835633777D+00 -0.77963775840927D-12
   1   1   3   1  0.13503141546563D+00 -0.19064988583846D-04
   2   1   3   1 -0.72915835633777D+00  0.77963988351172D-12
   3   1   3   1  0.43232357297685D+00  0.21330156655177D-17
 Band:  4
   1   1   1   1  0.43232369987171D+00 -0.62732978798730D-18
   2   1   1   1  0.13503138680495D+00  0.19064988727458D-04
   3   1   1   1  0.16180333926500D+00 -0.19064988299914D-04
   1   1   2   1  0.13503138680495D+00 -0.19064988727481D-04
   2   1   2   1 -0.83613965058114D+00  0.17416963290445D-16
   3   1   2   1  0.53930492442928D+00  0.40869230763420D-12
   1   1   3   1  0.16180333926500D+00  0.19064988299923D-04
   2   1   3   1  0.53930492442928D+00 -0.40871709612925D-12
   3   1   3   1 -0.83613965033752D+00  0.69015410096735D-17
 K-point:  2.50000000E-01 -2.50000000E-01  2.50000000E-01
 Band:  1
   1   1   1   1 -0.18479914141194D+01 -0.19035036911706D-17
   2   1   1   1  0.36240099408115D+00  0.18818975533426D-13
   3   1   1   1  0.11231894272815D+01  0.11576209008971D-13
   1   1   2   1  0.36240099408116D+00 -0.18821126450424D-13
   2   1   2   1 -0.18479914620450D+01  0.34047686318756D-17
   3   1   2   1  0.36240099409228D+00 -0.30143995053982D-13
   1   1   3   1  0.11231894272815D+01 -0.11575332343160D-13
   2   1   3   1  0.36240099409228D+00  0.30141205675823D-13
   3   1   3   1 -0.18479914141423D+01  0.17355977986909D-17
 Band:  2
   1   1   1   1 -0.16447594972465D+01 -0.50484796938502D-17
   2   1   1   1  0.30972076642456D+00  0.59529803744236D-13
   3   1   1   1  0.10253179641686D+01  0.13799455471284D-12
   1   1   2   1  0.30972076642456D+00 -0.59528353823888D-13
   2   1   2   1 -0.16447596229824D+01  0.92053803452454D-17
   3   1   2   1  0.30972076625957D+00 -0.19726939850155D-12
   1   1   3   1  0.10253179641686D+01 -0.13799637388605D-12
   2   1   3   1  0.30972076625957D+00  0.19727208835254D-12
   3   1   3   1 -0.16447594969138D+01  0.51005012822842D-17
 Band:  3
   1   1   1   1 -0.16491263956273D+00 -0.19182530231684D-17
   2   1   1   1 -0.68127320703303D+00  0.26362431806572D-03
   3   1   1   1 -0.13192211624317D+00  0.40340186785926D-13
   1   1   2   1 -0.68127320703303D+00 -0.26362431806571D-03
   2   1   2   1 -0.23890340231775D+00 -0.82304791773980D-17
   3   1   2   1  0.97810796347997D+00  0.26362431782740D-03
   1   1   3   1 -0.13192211624317D+00 -0.40334760451369D-13
   2   1   3   1  0.97810796347997D+00 -0.26362431782741D-03
   3   1   3   1 -0.16491264060374D+00 -0.26749459517128D-17
 Band:  4
   1   1   1   1 -0.23890343793550D+00 -0.47700363941511D-17
   2   1   1   1  0.97810796180813D+00 -0.26362431810997D-03
   3   1   1   1 -0.57931315661431D-01  0.12734126582494D-12
   1   1   2   1  0.97810796180813D+00  0.26362431810997D-03
   2   1   2   1 -0.16491259486924D+00 -0.85512980349104D-18
   3   1   2   1 -0.68127320879465D+00 -0.26362431795124D-03
   1   1   3   1 -0.57931315661431D-01 -0.12734608928719D-12
   2   1   3   1 -0.68127320879465D+00  0.26362431795122D-03
   3   1   3   1 -0.23890343671600D+00  0.80450463012069D-17
 K-point: -2.50000000E-01 -2.50000000E-01  2.50000000E-01
 Band:  1
   1   1   1   1 -0.18479914680947D+01 -0.23614372269315D-17
   2   1   1   1  0.11231894689733D+01 -0.39560639202862D-14
   3   1   1   1  0.36240098810779D+00  0.39456206992386D-13
   1   1   2   1  0.11231894689733D+01  0.39555048428162D-14
   2   1   2   1 -0.18479914681061D+01  0.15465083564419D-17
   3   1   2   1  0.36240098811363D+00  0.31642696489469D-13
   1   1   3   1  0.36240098810779D+00 -0.39457580108694D-13
   2   1   3   1  0.36240098811363D+00 -0.31644897624667D-13
   3   1   3   1 -0.18479914200384D+01  0.18267013253520D-17
 Band:  2
   1   1   1   1 -0.16447596373767D+01 -0.18094013863592D-16
   2   1   1   1  0.10253180788071D+01 -0.13609459005349D-12
   3   1   1   1  0.30972075041414D+00  0.34416764059389D-12
   1   1   2   1  0.10253180788071D+01  0.13610563515733D-12
   2   1   2   1 -0.16447596372103D+01  0.13235074359998D-17
   3   1   2   1  0.30972075032964D+00  0.19609529907301D-12
   1   1   3   1  0.30972075041414D+00 -0.34415983373773D-12
   2   1   3   1  0.30972075032964D+00 -0.19610094822753D-12
   3   1   3   1 -0.16447595145437D+01 -0.10254944693382D-16
 Band:  3
   1   1   1   1 -0.83555665355230D+00 -0.65423700347526D-18
   2   1   1   1  0.53872189551180D+00 -0.22876876254235D-11
   3   1   1   1  0.11036192421542D+00 -0.45849012994936D-05
   1   1   2   1  0.53872189551180D+00  0.22876984957498D-11
   2   1   2   1 -0.83555665373984D+00 -0.45417854884003D-17
   3   1   2   1  0.18647288332992D+00  0.45849003470906D-05
   1   1   3   1  0.11036192421542D+00  0.45849012994911D-05
   2   1   3   1  0.18647288332992D+00 -0.45849003470815D-05
   3   1   3   1  0.43174055389235D+00 -0.11951209519073D-17
 Band:  4
   1   1   1   1  0.43174066711716D+00  0.11871627923143D-17
   2   1   1   1 -0.72857539775159D+00  0.25358645002651D-13
   3   1   1   1  0.18647284059946D+00  0.45849060997314D-05
   1   1   2   1 -0.72857539775159D+00 -0.25363227289000D-13
   2   1   2   1  0.43174066739397D+00  0.16882818470801D-17
   3   1   2   1  0.11036188144077D+00 -0.45848977803619D-05
   1   1   3   1  0.18647284059946D+00 -0.45849060997286D-05
   2   1   3   1  0.11036188144077D+00  0.45848977803657D-05
   3   1   3   1 -0.83555662188590D+00  0.43600306696903D-16
 K-point:  2.50000000E-01  2.50000000E-01 -2.50000000E-01
 Band:  1
   1   1   1   1 -0.18479914141218D+01 -0.27333095579229D-17
   2   1   1   1  0.11231894272778D+01  0.39536804594924D-14
   3   1   1   1  0.36240099408688D+00 -0.39297238154694D-13
   1   1   2   1  0.11231894272778D+01 -0.39548317356562D-14
   2   1   2   1 -0.18479914141332D+01 -0.21592449256765D-18
   3   1   2   1  0.36240099409272D+00 -0.31421774530950D-13
   1   1   3   1  0.36240099408688D+00  0.39299351986499D-13
   2   1   3   1  0.36240099409272D+00  0.31422912501980D-13
   3   1   3   1 -0.18479914620547D+01  0.25052815957240D-18
 Band:  2
   1   1   1   1 -0.16447594971549D+01  0.53048835269454D-17
   2   1   1   1  0.10253179641595D+01  0.13548458087849D-12
   3   1   1   1  0.30972076634306D+00 -0.34449955431116D-12
   1   1   2   1  0.10253179641595D+01 -0.13548460999518D-12
   2   1   2   1 -0.16447594969886D+01  0.23006166660277D-17
   3   1   2   1  0.30972076625856D+00 -0.19710801205477D-12
   1   1   3   1  0.30972076634306D+00  0.34450294011035D-12
   2   1   3   1  0.30972076625856D+00  0.19711291713849D-12
   3   1   3   1 -0.16447596229115D+01  0.12024776170583D-19
 Band:  3
   1   1   1   1 -0.83547276152600D+00 -0.12679135880474D-16
   2   1   1   1  0.53863803535921D+00  0.23065104472387D-11
   3   1   1   1  0.10803605967076D+00 -0.42955423822405D-04
   1   1   2   1  0.53863803535921D+00 -0.23064914825453D-11
   2   1   2   1 -0.83547276132180D+00 -0.64117109500546D-17
   3   1   2   1  0.18879866660587D+00  0.42955424770500D-04
   1   1   3   1  0.10803605967076D+00  0.42955423822400D-04
   2   1   3   1  0.18879866660587D+00 -0.42955424770493D-04
   3   1   3   1  0.43165681056254D+00 -0.84657877520507D-18
 Band:  4
   1   1   1   1  0.43165668406996D+00  0.21129040904893D-18
   2   1   1   1 -0.72849146726197D+00 -0.42017736586541D-13
   3   1   1   1  0.18879869505953D+00  0.42955419020332D-04
   1   1   2   1 -0.72849146726197D+00  0.42015637263946D-13
   2   1   2   1  0.43165668395502D+00  0.30299812604955D-17
   3   1   2   1  0.10803608808024D+00 -0.42955427337058D-04
   1   1   3   1  0.18879869505953D+00 -0.42955419020338D-04
   2   1   3   1  0.10803608808024D+00  0.42955427337064D-04
   3   1   3   1 -0.83547280770222D+00 -0.21488854938908D-16
 K-point: -2.50000000E-01  2.50000000E-01 -2.50000000E-01
 Band:  1
   1   1   1   1 -0.18479914680923D+01  0.31375264352889D-18
   2   1   1   1  0.36240098810207D+00 -0.18514889936737D-13
   3   1   1   1  0.11231894689770D+01 -0.11787069819848D-13
   1   1   2   1  0.36240098810207D+00  0.18517805905643D-13
   2   1   2   1 -0.18479914200287D+01 -0.19345805939961D-17
   3   1   2   1  0.36240098811320D+00  0.30249437193832D-13
   1   1   3   1  0.11231894689770D+01  0.11786468267321D-13
   2   1   3   1  0.36240098811320D+00 -0.30246997085767D-13
   3   1   3   1 -0.18479914681152D+01  0.18469194932065D-18
 Band:  2
   1   1   1   1 -0.16447596374683D+01 -0.53077108053376D-17
   2   1   1   1  0.30972075049564D+00 -0.62931944292168D-13
   3   1   1   1  0.10253180788162D+01 -0.13455572488567D-12
   1   1   2   1  0.30972075049564D+00  0.62928508741826D-13
   2   1   2   1 -0.16447595146146D+01  0.46896350146703D-17
   3   1   2   1  0.30972075033065D+00  0.19738700736858D-12
   1   1   3   1  0.10253180788162D+01  0.13455342717368D-12
   2   1   3   1  0.30972075033065D+00 -0.19738846826443D-12
   3   1   3   1 -0.16447596371356D+01  0.67544069639989D-17
 Band:  3
   1   1   1   1 -0.16596699845972D+00  0.88005119823624D-17
   2   1   1   1 -0.68135277360248D+00  0.42132404702085D-04
   3   1   1   1 -0.13086774024464D+00 -0.23020862726867D-12
   1   1   2   1 -0.68135277360248D+00 -0.42132404702090D-04
   2   1   2   1 -0.23784901986917D+00 -0.66403029675991D-19
   3   1   2   1  0.97818753604867D+00  0.42132404884174D-04
   1   1   3   1 -0.13086774024464D+00  0.23019463033567D-12
   2   1   3   1  0.97818753604867D+00 -0.42132404884181D-04
   3   1   3   1 -0.16596700811311D+00  0.71815699336815D-17
 Band:  4
   1   1   1   1 -0.23784898801760D+00 -0.19089112511696D-17
   2   1   1   1  0.97818753846217D+00 -0.42132404665870D-04
   3   1   1   1 -0.58985761996999D-01  0.82610092381062D-13
   1   1   2   1  0.97818753846217D+00  0.42132404665879D-04
   2   1   2   1 -0.16596704817168D+00 -0.16199544335055D-17
   3   1   2   1 -0.68135277127878D+00 -0.42132404772249D-04
   1   1   3   1 -0.58985761996999D-01 -0.82606287132476D-13
   2   1   3   1 -0.68135277127878D+00  0.42132404772248D-04
   3   1   3   1 -0.23784897818572D+00  0.13549043313715D-17
 K-point:  2.50000000E-01 -2.50000000E-01 -2.50000000E-01
 Band:  1
   1   1   1   1 -0.18479914200193D+01  0.15670585298369D-18
   2   1   1   1  0.36240098810201D+00 -0.73347286480923D-14
   3   1   1   1  0.36240098810776D+00  0.52177396001900D-13
   1   1   2   1  0.36240098810201D+00  0.73367533477670D-14
   2   1   2   1 -0.18479914681019D+01 -0.23030673078198D-17
   3   1   2   1  0.11231894689807D+01 -0.59400300279285D-13
   1   1   3   1  0.36240098810776D+00 -0.52177811900016D-13
   2   1   3   1  0.11231894689807D+01  0.59399172287941D-13
   3   1   3   1 -0.18479914681134D+01 -0.59360444726117D-18
 Band:  2
   1   1   1   1 -0.16447595146882D+01 -0.62408704277945D-17
   2   1   1   1  0.30972075049591D+00 -0.11095174887350D-12
   3   1   1   1  0.30972075041437D+00  0.32705807514344D-12
   1   1   2   1  0.30972075049591D+00  0.11095428082371D-12
   2   1   2   1 -0.16447596373970D+01  0.14829008184362D-16
   3   1   2   1  0.10253180788273D+01 -0.43771872583369D-12
   1   1   3   1  0.30972075041437D+00 -0.32705336103433D-12
   2   1   3   1  0.10253180788273D+01  0.43771588763073D-12
   3   1   3   1 -0.16447596372307D+01 -0.98572357697868D-18
 Band:  3
   1   1   1   1 -0.83616070475476D+00  0.39986155856544D-17
   2   1   1   1  0.15996470690634D+00 -0.32405172170804D-04
   3   1   1   1  0.13687001535871D+00  0.32405172397889D-04
   1   1   2   1  0.15996470690634D+00  0.32405172170811D-04
   2   1   2   1  0.43234474993969D+00  0.37772933293693D-17
   3   1   2   1 -0.72917948040827D+00  0.71973806414560D-12
   1   1   3   1  0.13687001535871D+00 -0.32405172397897D-04
   2   1   3   1 -0.72917948040827D+00 -0.71974359379221D-12
   3   1   3   1  0.43234474990284D+00 -0.65583959025325D-18
 Band:  4
   1   1   1   1  0.43234463666554D+00  0.35972567423278D-17
   2   1   1   1  0.13687005795284D+00  0.32405172260732D-04
   3   1   1   1  0.15996474945650D+00 -0.32405172682552D-04
   1   1   2   1  0.13687005795284D+00 -0.32405172260745D-04
   2   1   2   1 -0.83616073636869D+00 -0.23850605032022D-17
   3   1   2   1  0.53932597816275D+00 -0.34520501157833D-12
   1   1   3   1  0.15996474945650D+00  0.32405172682569D-04
   2   1   3   1  0.53932597816275D+00  0.34521903425970D-12
   3   1   3   1 -0.83616073624258D+00 -0.18761954901675D-16
 K-point: -2.50000000E-01 -2.50000000E-01 -2.50000000E-01
 Band:  1
   1   1   1   1 -0.53473414784035D+01 -0.97934278237310D-18
   2   1   1   1  0.17824471604595D+01  0.19503961702559D-12
   3   1   1   1  0.17824471604608D+01  0.16460990691792D-12
   1   1   2   1  0.17824471604595D+01 -0.19503304507209D-12
   2   1   2   1 -0.53473414784134D+01 -0.68313038094006D-17
   3   1   2   1  0.17824471604686D+01  0.61689769655765D-12
   1   1   3   1  0.17824471604608D+01 -0.16460902400025D-12
   2   1   3   1  0.17824471604686D+01 -0.61689594264783D-12
   3   1   3   1 -0.53473414784232D+01 -0.10368015197508D-17
 Band:  2
   1   1   1   1 -0.30370095757306D+00  0.23756690713931D-19
   2   1   1   1  0.39553443233248D+00 -0.37956237276380D-02
   3   1   1   1 -0.49213761732790D+00 -0.53781816989381D-02
   1   1   2   1  0.39553443233248D+00  0.37956237276380D-02
   2   1   2   1  0.30021318964517D+00 -0.74045369709271D-18
   3   1   2   1 -0.15004928539163D+01 -0.40468430938446D-01
   1   1   3   1 -0.49213761732790D+00  0.53781816989381D-02
   2   1   3   1 -0.15004928539163D+01  0.40468430938446D-01
   3   1   3   1  0.35355939221144D+01 -0.84492253112128D-18
 Band:  3
   1   1   1   1 -0.39134320334038D+00  0.13146144721806D-17
   2   1   1   1  0.76816461992357D-01 -0.66062958122109D-02
   3   1   1   1  0.19295501526059D+00 -0.29423129648039D-03
   1   1   2   1  0.76816461992357D-01  0.66062958122109D-02
   2   1   2   1  0.23658347732064D+01  0.12866353434126D-17
   3   1   2   1  0.81672444946856D-01  0.40706141762307D-01
   1   1   3   1  0.19295501526059D+00  0.29423129648039D-03
   2   1   3   1  0.81672444946856D-01 -0.40706141762307D-01
   3   1   3   1 -0.39092537846758D+00 -0.34921626370936D-18
 Band:  4
   1   1   1   1  0.35975593337553D+01 -0.23358150935351D-18
   2   1   1   1 -0.14398559524326D+01  0.10401919539693D-01
   3   1   1   1 -0.66832245603562D+00  0.56724129952738D-02
   1   1   2   1 -0.14398559524326D+01 -0.10401919539693D-01
   2   1   2   1  0.23646720998895D+00 -0.63162856026764D-18
   3   1   2   1  0.45131535086390D+00 -0.23771082439547D-03
   1   1   3   1 -0.66832245603562D+00 -0.56724129952738D-02
   2   1   3   1  0.45131535086390D+00  0.23771082439546D-03
   3   1   3   1 -0.24215337080751D+00 -0.61343908966603D-18

 List of bloks and their characteristics 
  
 2nd eigenvalue derivatives   - # elements :       9
 qpt  0.00000000E+00  0.00000000E+00  0.00000000E+00   1.0
  
 2nd eigenvalue derivatives   - # elements :       9
 qpt  5.00000000E-01  0.00000000E+00  0.00000000E+00   1.0
  
 2nd eigenvalue derivatives   - # elements :       9
 qpt  0.00000000E+00  5.00000000E-01  0.00000000E+00   1.0
  
 2nd eigenvalue derivatives   - # elements :       9
 qpt  5.00000000E-01  5.00000000E-01  0.00000000E+00   1.0
  
 2nd eigenvalue derivatives   - # elements :       9
 qpt  0.00000000E+00  0.00000000E+00  5.00000000E-01   1.0
  
 2nd eigenvalue derivatives   - # elements :       9
 qpt  5.00000000E-01  0.00000000E+00  5.00000000E-01   1.0
  
 2nd eigenvalue derivatives   - # elements :       9
 qpt  0.00000000E+00  5.00000000E-01  5.00000000E-01   1.0
  
 2nd eigenvalue derivatives   - # elements :       9
 qpt  5.00000000E-01  5.00000000E-01  5.00000000E-01   1.0
