
 **** DERIVATIVE DATABASE ****    
+DDB, Version number    100401

 He BCC primitive cell  EIGR2D file

    usepaw         0
     natom         1
      nkpt         8
    nsppol         1
      nsym         1
    ntypat         1
    occopt         1
     nband         4
     acell  0.43000000000000D+01  0.43000000000000D+01  0.43000000000000D+01
       amu  0.40026020000000D+01
   dilatmx  0.10000000000000D+01
      ecut  0.80000000000000D+01
    ecutsm  0.00000000000000D+00
     intxc         0
      iscf         7
       ixc         1
       kpt  0.25000000000000D+00  0.25000000000000D+00  0.25000000000000D+00
           -0.25000000000000D+00  0.25000000000000D+00  0.25000000000000D+00
            0.25000000000000D+00 -0.25000000000000D+00  0.25000000000000D+00
           -0.25000000000000D+00 -0.25000000000000D+00  0.25000000000000D+00
            0.25000000000000D+00  0.25000000000000D+00 -0.25000000000000D+00
           -0.25000000000000D+00  0.25000000000000D+00 -0.25000000000000D+00
            0.25000000000000D+00 -0.25000000000000D+00 -0.25000000000000D+00
           -0.25000000000000D+00 -0.25000000000000D+00 -0.25000000000000D+00
    kptnrm  0.10000000000000D+01
     ngfft        10   10   10
    nspden         1
   nspinor         1
       occ  0.20000000000000D+01  0.00000000000000D+00  0.00000000000000D+00
            0.00000000000000D+00
     rprim -0.50000000000000D+00  0.50000000000000D+00  0.50000000000000D+00
            0.50000000000000D+00 -0.50000000000000D+00  0.50000000000000D+00
            0.50000000000000D+00  0.50000000000000D+00 -0.50000000000000D+00
  dfpt_sciss  0.00000000000000D+00
    spinat  0.00000000000000D+00  0.00000000000000D+00  0.00000000000000D+00
    symafm         1
    symrel         1    0    0    0    1    0    0    0    1
     tnons  0.00000000000000D+00  0.00000000000000D+00  0.00000000000000D+00
    tolwfr  0.10000000000000D+01
   tphysel  0.00000000000000D+00
    tsmear  0.10000000000000D-01
     typat         1
       wtk  0.12500000000000D+00  0.12500000000000D+00  0.12500000000000D+00
            0.12500000000000D+00  0.12500000000000D+00  0.12500000000000D+00
            0.12500000000000D+00  0.12500000000000D+00
      xred  0.00000000000000D+00  0.00000000000000D+00  0.00000000000000D+00
     znucl  0.20000000000000D+01
      zion  0.20000000000000D+01
 
  Description of the potentials (KB energies)
  vrsio8 (for pseudopotentials)=100401
  usepaw =  0
  dimekb =  1       lmnmax=  1
  Atom type=    1   pspso=  0   nekb=   0
  iln lpsang iproj  ekb(:)
 
 **** Database of total energy derivatives ****
 Number of data blocks=    8
  
 2nd eigenvalue derivatives   - # elements :       9
 qpt  0.00000000E+00  0.00000000E+00  0.00000000E+00   1.0
 K-point:  2.50000000E-01  2.50000000E-01  2.50000000E-01
 Band:  1
   1   1   1   1 -0.39942356688318D+01  0.25414371213087D-17
   2   1   1   1  0.13314118896043D+01  0.11428023888640D-12
   3   1   1   1  0.13314118896239D+01  0.10175840186819D-12
   1   1   2   1  0.13314118896043D+01 -0.11428304498439D-12
   2   1   2   1 -0.39942356688770D+01  0.36508861995581D-18
   3   1   2   1  0.13314118896488D+01  0.37888334015759D-12
   1   1   3   1  0.13314118896239D+01 -0.10175440907700D-12
   2   1   3   1  0.13314118896488D+01 -0.37888091131517D-12
   3   1   3   1 -0.39942356689221D+01  0.20142808997513D-17
 Band:  2
   1   1   1   1 -0.26303510149303D+00  0.89196470215244D-19
   2   1   1   1  0.27566667409736D+00  0.26796511422507D-02
   3   1   1   1 -0.29184362730819D+00  0.37965161481055D-02
   1   1   2   1  0.27566667409736D+00 -0.26796511422507D-02
   2   1   2   1  0.13188757148242D+00 -0.26215615733032D-18
   3   1   2   1 -0.96376825512309D+00  0.28571937428818D-01
   1   1   3   1 -0.29184362730819D+00 -0.37965161481055D-02
   2   1   3   1 -0.96376825512309D+00 -0.28571937428818D-01
   3   1   3   1  0.22476396506769D+01 -0.47557841569486D-18
 Band:  3
   1   1   1   1 -0.32033615821297D+00  0.11067939797064D-18
   2   1   1   1  0.79174883383046D-01  0.46707223000671D-02
   3   1   1   1  0.13273866520168D+00  0.20665074177754D-03
   1   1   2   1  0.79174883383046D-01 -0.46707223000671D-02
   2   1   2   1  0.14826892535512D+01 -0.60155317989094D-18
   3   1   2   1  0.82342480514886D-01 -0.28737793615212D-01
   1   1   3   1  0.13273866520168D+00 -0.20665074177755D-03
   2   1   3   1  0.82342480514886D-01  0.28737793615212D-01
   3   1   3   1 -0.32006221214172D+00 -0.13594032756348D-19
 Band:  4
   1   1   1   1  0.22881916281185D+01 -0.14004985009730D-19
   2   1   1   1 -0.92311501361372D+00 -0.73503734422284D-02
   3   1   1   1 -0.40916849404014D+00 -0.40031668897970D-02
   1   1   2   1 -0.92311501361372D+00  0.73503734422284D-02
   2   1   2   1  0.90243543412184D-01  0.14598225423796D-17
   3   1   2   1  0.31315231844247D+00  0.16585618670894D-03
   1   1   3   1 -0.40916849404014D+00  0.40031668897970D-02
   2   1   3   1  0.31315231844247D+00 -0.16585618670894D-03
   3   1   3   1 -0.22275707005628D+00 -0.36943175822302D-18
 K-point: -2.50000000E-01  2.50000000E-01  2.50000000E-01
 Band:  1
   1   1   1   1 -0.14995549986153D+01 -0.35932282538234D-17
   2   1   1   1  0.53060007442378D+00  0.33741546622983D-14
   3   1   1   1  0.53060007442732D+00  0.19930811875048D-14
   1   1   2   1  0.53060007442378D+00 -0.33714982303840D-14
   2   1   2   1 -0.14995549986215D+01 -0.22614763119864D-17
   3   1   2   1  0.43835484977032D+00  0.13972900004733D-14
   1   1   3   1  0.53060007442732D+00 -0.19996723649658D-14
   2   1   3   1  0.43835484977032D+00 -0.13947484513808D-14
   3   1   3   1 -0.14995549986292D+01  0.33866836941050D-17
 Band:  2
   1   1   1   1 -0.27372321936318D+01 -0.12545934745195D-17
   2   1   1   1  0.29421384580286D+00  0.55414208121239D-14
   3   1   1   1  0.29421384578175D+00  0.84395592588924D-13
   1   1   2   1  0.29421384580286D+00 -0.55372451873873D-14
   2   1   2   1 -0.27372321936333D+01 -0.40446679770315D-18
   3   1   2   1  0.21488045020487D+01 -0.78916387651787D-13
   1   1   3   1  0.29421384578175D+00 -0.84390479033846D-13
   2   1   3   1  0.21488045020487D+01  0.78913697744407D-13
   3   1   3   1 -0.27372321935845D+01 -0.30817662339291D-17
 Band:  3
   1   1   1   1 -0.15455604233327D+01  0.16341186368790D-16
   2   1   1   1  0.20376640483783D+00 -0.87041193623421D-05
   3   1   1   1  0.18460985366046D+00  0.87041193904382D-05
   1   1   2   1  0.20376640483783D+00  0.87041193623565D-05
   2   1   2   1  0.17519599593811D+01 -0.20583483865467D-17
   3   1   2   1 -0.21403362178547D+01 -0.70882522145868D-12
   1   1   3   1  0.18460985366046D+00 -0.87041193904510D-05
   2   1   3   1 -0.21403362178547D+01  0.70882519311348D-12
   3   1   3   1  0.17519599593221D+01  0.29255011181028D-17
 Band:  4
   1   1   1   1  0.17519599593924D+01  0.19878010332851D-17
   2   1   1   1  0.18460985362812D+00  0.87041192078643D-05
   3   1   1   1  0.20376640483418D+00 -0.87041187722660D-05
   1   1   2   1  0.18460985362812D+00 -0.87041192078413D-05
   2   1   2   1 -0.15455604233218D+01  0.14103673656516D-16
   3   1   2   1  0.11571841648347D+01 -0.62634774712982D-13
   1   1   3   1  0.20376640483418D+00  0.87041187722738D-05
   2   1   3   1  0.11571841648347D+01  0.62591175768383D-13
   3   1   3   1 -0.15455604233322D+01 -0.41760149011863D-17
 K-point:  2.50000000E-01 -2.50000000E-01  2.50000000E-01
 Band:  1
   1   1   1   1 -0.14995549986146D+01 -0.16030923408700D-17
   2   1   1   1  0.53060007442391D+00 -0.33338189536714D-14
   3   1   1   1  0.43835484976698D+00  0.32896884560529D-14
   1   1   2   1  0.53060007442391D+00  0.33324180154172D-14
   2   1   2   1 -0.14995549986225D+01 -0.29551654724772D-18
   3   1   2   1  0.53060007443153D+00 -0.65067134951973D-16
   1   1   3   1  0.43835484976698D+00 -0.32890942190904D-14
   2   1   3   1  0.53060007443153D+00  0.67424534952719D-16
   3   1   3   1 -0.14995549986302D+01 -0.27182580566516D-17
 Band:  2
   1   1   1   1 -0.27372321936513D+01 -0.35613925511976D-17
   2   1   1   1  0.29421384580370D+00 -0.26156188130558D-13
   3   1   1   1  0.21488045020436D+01 -0.16737044951959D-13
   1   1   2   1  0.29421384580370D+00  0.26165401163933D-13
   2   1   2   1 -0.27372321936024D+01 -0.46389565351869D-17
   3   1   2   1  0.29421384575506D+00  0.42511301865219D-13
   1   1   3   1  0.21488045020436D+01  0.16729039503190D-13
   2   1   3   1  0.29421384575506D+00 -0.42505203693965D-13
   3   1   3   1 -0.27372321935535D+01 -0.47032789944959D-17
 Band:  3
   1   1   1   1  0.19911312314133D+00  0.16117836515365D-16
   2   1   1   1 -0.47741507634811D+00 -0.84017599127554D-03
   3   1   1   1 -0.58748938160228D+00 -0.40830649446326D-12
   1   1   2   1 -0.47741507634811D+00  0.84017599127554D-03
   2   1   2   1  0.72864129446368D-02 -0.12219031263398D-16
   3   1   2   1  0.86579133481533D+00 -0.84017599087451D-03
   1   1   3   1 -0.58748938160228D+00  0.40830115934204D-12
   2   1   3   1  0.86579133481533D+00  0.84017599087450D-03
   3   1   3   1  0.19911312306864D+00  0.16584986767303D-17
 Band:  4
   1   1   1   1  0.72864129497765D-02 -0.15159808077437D-16
   2   1   1   1  0.86579133481193D+00  0.84017599113057D-03
   3   1   1   1 -0.39566267141334D+00  0.15670442180865D-12
   1   1   2   1  0.86579133481193D+00 -0.84017599113057D-03
   2   1   2   1  0.19911312307631D+00  0.27203396225646D-16
   3   1   2   1 -0.47741507628477D+00  0.84017599127079D-03
   1   1   3   1 -0.39566267141334D+00 -0.15667513289789D-12
   2   1   3   1 -0.47741507628477D+00 -0.84017599127080D-03
   3   1   3   1  0.72864128828010D-02 -0.23447243756905D-16
 K-point: -2.50000000E-01 -2.50000000E-01  2.50000000E-01
 Band:  1
   1   1   1   1 -0.14995549986156D+01  0.16015797884653D-17
   2   1   1   1  0.43835484976456D+00 -0.33456417459915D-14
   3   1   1   1  0.53060007442729D+00  0.11399663381760D-14
   1   1   2   1  0.43835484976456D+00  0.33480140856359D-14
   2   1   2   1 -0.14995549986235D+01 -0.96537091658727D-18
   3   1   2   1  0.53060007443158D+00  0.96884230077472D-15
   1   1   3   1  0.53060007442729D+00 -0.11443962259597D-14
   2   1   3   1  0.53060007443158D+00 -0.96905639751974D-15
   3   1   3   1 -0.14995549986293D+01  0.68690381006695D-18
 Band:  2
   1   1   1   1 -0.27372321936340D+01  0.13269776278491D-16
   2   1   1   1  0.21488045020490D+01 -0.49735834359015D-13
   3   1   1   1  0.29421384578197D+00 -0.18467774364833D-13
   1   1   2   1  0.21488045020490D+01  0.49738050611254D-13
   2   1   2   1 -0.27372321935851D+01  0.92741299410932D-19
   3   1   2   1  0.29421384575413D+00 -0.55195665594743D-13
   1   1   3   1  0.29421384578197D+00  0.18459423163860D-13
   2   1   3   1  0.29421384575413D+00  0.55194802851833D-13
   3   1   3   1 -0.27372321935861D+01  0.34763034941400D-17
 Band:  3
   1   1   1   1 -0.15439001407978D+01 -0.71341449339861D-16
   2   1   1   1  0.11555238822993D+01  0.32218674862335D-12
   3   1   1   1  0.16252443061777D+00  0.33022032082085D-04
   1   1   2   1  0.11555238822993D+01 -0.32213229055667D-12
   2   1   2   1 -0.15439001408070D+01  0.18130732431826D-16
   3   1   2   1  0.22585182791432D+00 -0.33022032906512D-04
   1   1   3   1  0.16252443061777D+00 -0.33022032082060D-04
   2   1   3   1  0.22585182791432D+00  0.33022032906502D-04
   3   1   3   1  0.17502996767956D+01 -0.24753511569535D-17
 Band:  4
   1   1   1   1  0.17502996768667D+01 -0.24640005348012D-17
   2   1   1   1 -0.21386759353281D+01  0.17434778125426D-12
   3   1   1   1  0.22585182787604D+00 -0.33022033388770D-04
   1   1   2   1 -0.21386759353281D+01 -0.17434934737576D-12
   2   1   2   1  0.17502996768057D+01  0.18229170063697D-18
   3   1   2   1  0.16252443062194D+00  0.33022032134410D-04
   1   1   3   1  0.22585182787604D+00  0.33022033388768D-04
   2   1   3   1  0.16252443062194D+00 -0.33022032134406D-04
   3   1   3   1 -0.15439001407984D+01  0.50757917244774D-16
 K-point:  2.50000000E-01  2.50000000E-01 -2.50000000E-01
 Band:  1
   1   1   1   1 -0.14995549986156D+01  0.17832731134361D-17
   2   1   1   1  0.43835484976456D+00  0.33206913549836D-14
   3   1   1   1  0.53060007442729D+00 -0.11648302060934D-14
   1   1   2   1  0.43835484976457D+00 -0.33223962317091D-14
   2   1   2   1 -0.14995549986235D+01  0.50973604879601D-18
   3   1   2   1  0.53060007443158D+00 -0.99791748478503D-15
   1   1   3   1  0.53060007442729D+00  0.11641352956407D-14
   2   1   3   1  0.53060007443158D+00  0.10001857152317D-14
   3   1   3   1 -0.14995549986293D+01 -0.11851285720600D-17
 Band:  2
   1   1   1   1 -0.27372321936340D+01  0.63760538112365D-18
   2   1   1   1  0.21488045020490D+01  0.49227128242143D-13
   3   1   1   1  0.29421384578197D+00  0.18537155245996D-13
   1   1   2   1  0.21488045020490D+01 -0.49229094301978D-13
   2   1   2   1 -0.27372321935851D+01 -0.13784911884509D-17
   3   1   2   1  0.29421384575413D+00  0.54422605546149D-13
   1   1   3   1  0.29421384578197D+00 -0.18537415820534D-13
   2   1   3   1  0.29421384575413D+00 -0.54422638763558D-13
   3   1   3   1 -0.27372321935861D+01  0.37803961679939D-17
 Band:  3
   1   1   1   1 -0.15438301592496D+01  0.17903056120128D-16
   2   1   1   1  0.11554539007511D+01 -0.32090299924118D-12
   3   1   1   1  0.16192418639825D+00  0.52064005432474D-04
   1   1   2   1  0.11554539007511D+01  0.32092114141072D-12
   2   1   2   1 -0.15438301592588D+01 -0.29292220817601D-16
   3   1   2   1  0.22645207213383D+00 -0.52064004608388D-04
   1   1   3   1  0.16192418639825D+00 -0.52064005432481D-04
   2   1   3   1  0.22645207213383D+00  0.52064004608394D-04
   3   1   3   1  0.17502296952477D+01  0.24835561766403D-17
 Band:  4
   1   1   1   1  0.17502296953188D+01 -0.68577573581503D-17
   2   1   1   1 -0.21386059537801D+01 -0.17589666605223D-12
   3   1   1   1  0.22645207209556D+00 -0.52064004125904D-04
   1   1   2   1 -0.21386059537801D+01  0.17590378439222D-12
   2   1   2   1  0.17502296952578D+01  0.10440282004798D-17
   3   1   2   1  0.16192418640244D+00  0.52064005379980D-04
   1   1   3   1  0.22645207209556D+00  0.52064004125897D-04
   2   1   3   1  0.16192418640244D+00 -0.52064005379976D-04
   3   1   3   1 -0.15438301592502D+01 -0.24225028508301D-16
 K-point: -2.50000000E-01  2.50000000E-01 -2.50000000E-01
 Band:  1
   1   1   1   1 -0.14995549986146D+01 -0.10074583700916D-17
   2   1   1   1  0.53060007442391D+00  0.33292646300928D-14
   3   1   1   1  0.43835484976698D+00 -0.32704336790245D-14
   1   1   2   1  0.53060007442391D+00 -0.33298803492087D-14
   2   1   2   1 -0.14995549986225D+01  0.18189980959016D-17
   3   1   2   1  0.53060007443153D+00  0.27718796472130D-16
   1   1   3   1  0.43835484976698D+00  0.32740372753612D-14
   2   1   3   1  0.53060007443153D+00 -0.32091480341766D-16
   3   1   3   1 -0.14995549986302D+01 -0.12669882482503D-17
 Band:  2
   1   1   1   1 -0.27372321936513D+01  0.43883996055512D-17
   2   1   1   1  0.29421384580371D+00  0.26236328784856D-13
   3   1   1   1  0.21488045020436D+01  0.16735879979902D-13
   1   1   2   1  0.29421384580371D+00 -0.26245439569270D-13
   2   1   2   1 -0.27372321936024D+01  0.14990331379360D-17
   3   1   2   1  0.29421384575506D+00 -0.42117711881275D-13
   1   1   3   1  0.21488045020436D+01 -0.16734743384454D-13
   2   1   3   1  0.29421384575506D+00  0.42112835253813D-13
   3   1   3   1 -0.27372321935535D+01  0.38227203594917D-17
 Band:  3
   1   1   1   1  0.19652224522983D+00 -0.26728182940455D-16
   2   1   1   1 -0.47747588995363D+00  0.21981071050694D-04
   3   1   1   1 -0.58489850369082D+00  0.40802177101564D-12
   1   1   2   1 -0.47747588995363D+00 -0.21981071050680D-04
   2   1   2   1  0.98772908560911D-02 -0.10785376725280D-16
   3   1   2   1  0.86585214842085D+00  0.21981070658686D-04
   1   1   3   1 -0.58489850369082D+00 -0.40800243903679D-12
   2   1   3   1  0.86585214842085D+00 -0.21981070658671D-04
   3   1   3   1  0.19652224515722D+00  0.20804081699845D-16
 Band:  4
   1   1   1   1  0.98772908612612D-02 -0.61086201189594D-18
   2   1   1   1  0.86585214841745D+00 -0.21981070906172D-04
   3   1   1   1 -0.39825354932479D+00 -0.15583466535717D-12
   1   1   2   1  0.86585214841745D+00  0.21981070906161D-04
   2   1   2   1  0.19652224516485D+00  0.12240069727421D-16
   3   1   2   1 -0.47747588989029D+00 -0.21981071054406D-04
   1   1   3   1 -0.39825354932479D+00  0.15584821759910D-12
   2   1   3   1 -0.47747588989029D+00  0.21981071054394D-04
   3   1   3   1  0.98772907942140D-02 -0.29061592244040D-17
 K-point:  2.50000000E-01 -2.50000000E-01 -2.50000000E-01
 Band:  1
   1   1   1   1 -0.14995549986153D+01 -0.16988314132746D-17
   2   1   1   1  0.53060007442378D+00 -0.33844265092208D-14
   3   1   1   1  0.53060007442732D+00 -0.19859600070273D-14
   1   1   2   1  0.53060007442378D+00  0.33848770422005D-14
   2   1   2   1 -0.14995549986215D+01  0.15423930334834D-17
   3   1   2   1  0.43835484977032D+00 -0.14215948084019D-14
   1   1   3   1  0.53060007442732D+00  0.19836251657323D-14
   2   1   3   1  0.43835484977032D+00  0.14198983922450D-14
   3   1   3   1 -0.14995549986292D+01  0.28087989036302D-17
 Band:  2
   1   1   1   1 -0.27372321936318D+01  0.32139356464556D-18
   2   1   1   1  0.29421384580286D+00 -0.56511323517326D-14
   3   1   1   1  0.29421384578176D+00 -0.84459084881065D-13
   1   1   2   1  0.29421384580286D+00  0.56475674473285D-14
   2   1   2   1 -0.27372321936333D+01 -0.13874509364124D-18
   3   1   2   1  0.21488045020487D+01  0.78920035659073D-13
   1   1   3   1  0.29421384578176D+00  0.84456676033111D-13
   2   1   3   1  0.21488045020487D+01 -0.78921824739749D-13
   3   1   3   1 -0.27372321935845D+01  0.49155591853979D-17
 Band:  3
   1   1   1   1 -0.15454879207106D+01  0.14465647126691D-16
   2   1   1   1  0.20565713594894D+00 -0.18208105363075D-04
   3   1   1   1  0.18271912254939D+00  0.18208105335882D-04
   1   1   2   1  0.20565713594894D+00  0.18208105363075D-04
   2   1   2   1  0.17518874567593D+01  0.24857433830795D-17
   3   1   2   1 -0.21402637152329D+01  0.70794896031385D-12
   1   1   3   1  0.18271912254939D+00 -0.18208105335853D-04
   2   1   3   1 -0.21402637152329D+01 -0.70795431625604D-12
   3   1   3   1  0.17518874567004D+01 -0.85671754874977D-18
 Band:  4
   1   1   1   1  0.17518874567707D+01  0.14313089761871D-17
   2   1   1   1  0.18271912251702D+00  0.18208105517141D-04
   3   1   1   1  0.20565713594523D+00 -0.18208105954099D-04
   1   1   2   1  0.18271912251702D+00 -0.18208105517129D-04
   2   1   2   1 -0.15454879206996D+01  0.61048894721727D-16
   3   1   2   1  0.11571116622126D+01  0.63405287471829D-13
   1   1   3   1  0.20565713594523D+00  0.18208105954074D-04
   2   1   3   1  0.11571116622126D+01 -0.63498732337048D-13
   3   1   3   1 -0.15454879207101D+01  0.27175147781850D-16
 K-point: -2.50000000E-01 -2.50000000E-01 -2.50000000E-01
 Band:  1
   1   1   1   1 -0.39942356688318D+01  0.10366462454657D-17
   2   1   1   1  0.13314118896043D+01 -0.11528984546308D-12
   3   1   1   1  0.13314118896239D+01 -0.10195579277370D-12
   1   1   2   1  0.13314118896043D+01  0.11528586200837D-12
   2   1   2   1 -0.39942356688771D+01  0.50664085264109D-17
   3   1   2   1  0.13314118896488D+01 -0.37969322882433D-12
   1   1   3   1  0.13314118896239D+01  0.10195231223257D-12
   2   1   3   1  0.13314118896488D+01  0.37969500719928D-12
   3   1   3   1 -0.39942356689221D+01  0.22382460675682D-17
 Band:  2
   1   1   1   1 -0.26302100537495D+00  0.47579921935998D-18
   2   1   1   1  0.27568188241997D+00 -0.26828888057562D-02
   3   1   1   1 -0.29189052502828D+00 -0.38056792807409D-02
   1   1   2   1  0.27568188241997D+00  0.26828888057562D-02
   2   1   2   1  0.13186492060515D+00 -0.25466103994209D-18
   3   1   2   1 -0.96374490256428D+00 -0.28615575324160D-01
   1   1   3   1 -0.29189052502828D+00  0.38056792807409D-02
   2   1   3   1 -0.96374490256428D+00  0.28615575324160D-01
   3   1   3   1  0.22476565422748D+01  0.13033090367605D-17
 Band:  3
   1   1   1   1 -0.32033437384343D+00  0.58484542266743D-18
   2   1   1   1  0.79080196680214D-01 -0.47207263391760D-02
   3   1   1   1  0.13273974576260D+00 -0.20820255368770D-03
   1   1   2   1  0.79080196680214D-01  0.47207263391760D-02
   2   1   2   1  0.14827737224085D+01 -0.45784775279035D-18
   3   1   2   1  0.82349098447410D-01  0.28775388697058D-01
   1   1   3   1  0.13273974576260D+00  0.20820255368770D-03
   2   1   3   1  0.82349098447410D-01 -0.28775388697058D-01
   3   1   3   1 -0.32006147715914D+00 -0.72510762033890D-18
 Band:  4
   1   1   1   1  0.22881757476309D+01  0.32615274794842D-19
   2   1   1   1 -0.92303553523349D+00  0.74036151448416D-02
   3   1   1   1 -0.40912267688097D+00  0.40138818343422D-02
   1   1   2   1 -0.92303553523349D+00 -0.74036151448416D-02
   2   1   2   1  0.90181725432179D-01 -0.36202634493684D-18
   3   1   2   1  0.31312234795114D+00 -0.15981337321324D-03
   1   1   3   1 -0.40912267688097D+00 -0.40138818343422D-02
   2   1   3   1  0.31312234795114D+00  0.15981337321324D-03
   3   1   3   1 -0.22277469663674D+00 -0.48714093423156D-18
  
 2nd eigenvalue derivatives   - # elements :       9
 qpt  5.00000000E-01  0.00000000E+00  0.00000000E+00   1.0
 K-point:  2.50000000E-01  2.50000000E-01  2.50000000E-01
 Band:  1
   1   1   1   1 -0.36318984339679D+01  0.66279343239086D-17
   2   1   1   1  0.68414367685050D+00  0.43037224248907D-13
   3   1   1   1  0.68414367683824D+00  0.68234564832029D-13
   1   1   2   1  0.68414367685050D+00 -0.43041597747096D-13
   2   1   2   1 -0.26102084538678D+01 -0.46562751836883D-18
   3   1   2   1  0.12419207351780D+01 -0.28472162749279D-13
   1   1   3   1  0.68414367683824D+00 -0.68230407847682D-13
   2   1   3   1  0.12419207351780D+01  0.28472790683191D-13
   3   1   3   1 -0.26102084538431D+01  0.43769560038374D-17
 Band:  2
   1   1   1   1 -0.18068722059707D+01  0.60835020509938D-17
   2   1   1   1  0.27660691194016D-01 -0.11552180976924D-01
   3   1   1   1  0.45937725507583D+00  0.18662986264085D-01
   1   1   2   1  0.27660691194016D-01  0.11552180976924D-01
   2   1   2   1 -0.48637456054935D+00 -0.49928198812989D-18
   3   1   2   1  0.28751857844609D+00 -0.11574716022251D-02
   1   1   3   1  0.45937725507583D+00 -0.18662986264085D-01
   2   1   3   1  0.28751857844609D+00  0.11574716022251D-02
   3   1   3   1 -0.98922630164149D+00  0.12474302559043D-18
 Band:  3
   1   1   1   1 -0.12713734444620D+01 -0.69423900667767D-17
   2   1   1   1  0.71258402822127D+00  0.19507803220927D-01
   3   1   1   1  0.18664201985341D+00 -0.14152467501446D-01
   1   1   2   1  0.71258402822127D+00 -0.19507803220927D-01
   2   1   2   1 -0.93999525936146D+00 -0.25439758013789D-17
   3   1   2   1 -0.20078075369833D-01  0.11641905698083D-02
   1   1   3   1  0.18664201985341D+00  0.14152467501446D-01
   2   1   3   1 -0.20078075369833D-01 -0.11641905698083D-02
   3   1   3   1 -0.51153451335003D+00 -0.31189383471504D-18
 Band:  4
   1   1   1   1  0.83479775895917D+00  0.28334388166529D-18
   2   1   1   1  0.25502432450319D+00 -0.79556222436924D-02
   3   1   1   1  0.34924976901170D+00 -0.45105187628190D-02
   1   1   2   1  0.25502432450319D+00  0.79556222436924D-02
   2   1   2   1 -0.77862144414059D+00 -0.29608344379786D-18
   3   1   2   1 -0.52987537064266D-01 -0.67189667897956D-05
   1   1   3   1  0.34924976901170D+00  0.45105187628190D-02
   2   1   3   1 -0.52987537064266D-01  0.67189667897936D-05
   3   1   3   1 -0.70423044909159D+00 -0.25298314967725D-18
 K-point: -2.50000000E-01  2.50000000E-01  2.50000000E-01
 Band:  1
   1   1   1   1 -0.38061139235303D+01 -0.12263429018039D-17
   2   1   1   1  0.90004228538486D+00  0.19519424878310D-13
   3   1   1   1  0.90004228539652D+00  0.11148123553262D-12
   1   1   2   1  0.90004228538486D+00 -0.19518054784540D-13
   2   1   2   1 -0.21098919812558D+01  0.18452306014261D-18
   3   1   2   1  0.30980724220589D+00  0.47160208116283D-13
   1   1   3   1  0.90004228539652D+00 -0.11148214556224D-12
   2   1   3   1  0.30980724220589D+00 -0.47160047137991D-13
   3   1   3   1 -0.21098919812819D+01 -0.14648842385111D-17
 Band:  2
   1   1   1   1 -0.45418522040123D+00  0.80539890906071D-19
   2   1   1   1 -0.70501488301527D+00  0.45393232684315D-12
   3   1   1   1 -0.70501488306668D+00 -0.32054606248787D-12
   1   1   2   1 -0.70501488301527D+00 -0.45393210341610D-12
   2   1   2   1  0.11578625097068D+01  0.24093346429145D-17
   3   1   2   1  0.25216766564082D+00  0.12811554565832D-11
   1   1   3   1 -0.70501488306668D+00  0.32054817168422D-12
   2   1   3   1  0.25216766564082D+00 -0.12811454194145D-11
   3   1   3   1  0.11578625098039D+01 -0.21222605223812D-17
 Band:  3
   1   1   1   1 -0.69642658834497D+00  0.38558164217668D-17
   2   1   1   1  0.20278062023455D+00 -0.43539618028171D-05
   3   1   1   1  0.18299470055991D+00  0.43539618383017D-05
   1   1   2   1  0.20278062023455D+00  0.43539618028122D-05
   2   1   2   1  0.40079862401169D+00 -0.22812291923691D-17
   3   1   2   1 -0.78657410410041D+00 -0.62950070779598D-12
   1   1   3   1  0.18299470055991D+00 -0.43539618383013D-05
   2   1   3   1 -0.78657410410041D+00  0.62950447741988D-12
   3   1   3   1  0.40079862391242D+00 -0.35452341339612D-17
 Band:  4
   1   1   1   1  0.29935910909253D+01  0.76922923496184D-18
   2   1   1   1 -0.12401873676615D+00  0.43539617314978D-05
   3   1   1   1 -0.10423281707181D+00 -0.43539615480042D-05
   1   1   2   1 -0.12401873676615D+00 -0.43539617314976D-05
   2   1   2   1 -0.13415436024555D+00  0.18913571590266D-18
   3   1   2   1  0.36240576137891D+00  0.32970275889980D-12
   1   1   3   1 -0.10423281707181D+00  0.43539615480019D-05
   2   1   3   1  0.36240576137891D+00 -0.32970131337434D-12
   3   1   3   1 -0.13415436018493D+00 -0.88536347333891D-18
 K-point:  2.50000000E-01 -2.50000000E-01  2.50000000E-01
 Band:  1
   1   1   1   1 -0.20128522613914D+01  0.23733914630227D-17
   2   1   1   1  0.55101920180389D+00 -0.17265964690226D-14
   3   1   1   1  0.66325685224851D+00  0.13585691377836D-12
   1   1   2   1  0.55101920180389D+00  0.17254276988053D-14
   2   1   2   1 -0.16584069859597D+01 -0.15129075887342D-17
   3   1   2   1  0.44413076642318D+00 -0.67083888212987D-13
   1   1   3   1  0.66325685224851D+00 -0.13585552545658D-12
   2   1   3   1  0.44413076642318D+00  0.67084260553149D-13
   3   1   3   1 -0.16584069870875D+01 -0.12109254226011D-17
 Band:  2
   1   1   1   1 -0.34397172155794D+01 -0.26161669725863D-16
   2   1   1   1  0.21708052448736D+01 -0.35439411998289D-11
   3   1   1   1 -0.19222258714266D+00  0.29299864087315D-12
   1   1   2   1  0.21708052448736D+01  0.35439444933157D-11
   2   1   2   1 -0.31273417867469D+01  0.34789097927548D-17
   3   1   2   1  0.11487585583491D+01  0.10713722415569D-11
   1   1   3   1 -0.19222258714266D+00 -0.29300380490814D-12
   2   1   3   1  0.11487585583491D+01 -0.10713765134596D-11
   3   1   3   1 -0.31273417841075D+01  0.54064175735130D-17
 Band:  3
   1   1   1   1 -0.45135069527026D+00  0.21209968085697D-16
   2   1   1   1 -0.29125043575234D+00 -0.59746160277536D-03
   3   1   1   1 -0.38504462485038D+00  0.92901513405083D-04
   1   1   2   1 -0.29125043575234D+00  0.59746160277536D-03
   2   1   2   1 -0.92590708971391D-01 -0.10978877732112D-16
   3   1   2   1  0.65627008362686D+00 -0.69036330460798D-03
   1   1   3   1 -0.38504462485038D+00 -0.92901513405067D-04
   2   1   3   1  0.65627008362685D+00  0.69036330460794D-03
   3   1   3   1  0.61123448343776D-01 -0.19529219127371D-16
 Band:  4
   1   1   1   1  0.16445854200734D+00 -0.75059526141217D-17
   2   1   1   1  0.16948148397222D+01  0.59746159289386D-03
   3   1   1   1 -0.12344385588991D+01 -0.92901516955317D-04
   1   1   2   1  0.16948148397222D+01 -0.59746159289386D-03
   2   1   2   1  0.13262392625409D+01 -0.75520369996247D-18
   3   1   2   1 -0.16739994990206D+01  0.69036330374371D-03
   1   1   3   1 -0.12344385588991D+01  0.92901516955308D-04
   2   1   3   1 -0.16739994990206D+01 -0.69036330374371D-03
   3   1   3   1  0.11725251020138D+01  0.18400136316900D-18
 K-point: -2.50000000E-01 -2.50000000E-01  2.50000000E-01
 Band:  1
   1   1   1   1 -0.20128523088476D+01  0.17579898721907D-17
   2   1   1   1  0.66325686658963D+00 -0.33380567394374D-15
   3   1   1   1  0.55101921888531D+00  0.28919671016207D-13
   1   1   2   1  0.66325686658963D+00  0.33240501337510D-15
   2   1   2   1 -0.16584069924657D+01 -0.13766152700544D-17
   3   1   2   1  0.44413076176554D+00 -0.15216667605843D-14
   1   1   3   1  0.55101921888531D+00 -0.28917531003884D-13
   2   1   3   1  0.44413076176554D+00  0.15228281427695D-14
   3   1   3   1 -0.16584069920809D+01  0.72671560267589D-18
 Band:  2
   1   1   1   1 -0.34397173297583D+01 -0.25756402463471D-16
   2   1   1   1 -0.19222254753032D+00 -0.12632534208947D-11
   3   1   1   1  0.21708052838067D+01  0.60833763366209D-12
   1   1   2   1 -0.19222254753032D+00  0.12632410337967D-11
   2   1   2   1 -0.31273418014725D+01 -0.37247476291890D-17
   3   1   2   1  0.11487585468982D+01  0.28248541878957D-12
   1   1   3   1  0.21708052838067D+01 -0.60833655733616D-12
   2   1   3   1  0.11487585468982D+01 -0.28249317655525D-12
   3   1   3   1 -0.31273418005480D+01  0.70262961395150D-17
 Band:  3
   1   1   1   1 -0.77372958824142D+00  0.89723337424620D-18
   2   1   1   1  0.17990192026573D+00 -0.36513758750527D-05
   3   1   1   1  0.30111104175825D+00  0.23482459328143D-04
   1   1   2   1  0.17990192026573D+00  0.36513758750521D-05
   2   1   2   1 -0.73284909400022D+00 -0.15616980146488D-16
   3   1   2   1 -0.45393274847891D+00 -0.27133841270592D-04
   1   1   3   1  0.30111104175825D+00 -0.23482459328145D-04
   2   1   3   1 -0.45393274847891D+00  0.27133841270578D-04
   3   1   3   1  0.19068519534115D+01  0.24671335216099D-17
 Band:  4
   1   1   1   1  0.48683752210340D+00  0.37365535119845D-16
   2   1   1   1 -0.17993851334895D+01  0.36513642552722D-05
   3   1   1   1  0.11024533327407D+01 -0.23482459872314D-04
   1   1   2   1 -0.17993851334895D+01 -0.36513642552691D-05
   2   1   2   1  0.19664976574082D+01 -0.22049900268424D-17
   3   1   2   1 -0.56379665820441D+00  0.27133844082592D-04
   1   1   3   1  0.11024533327407D+01  0.23482459872310D-04
   2   1   3   1 -0.56379665820441D+00 -0.27133844082611D-04
   3   1   3   1 -0.67320339037823D+00 -0.26435894550119D-16
 K-point:  2.50000000E-01  2.50000000E-01 -2.50000000E-01
 Band:  1
   1   1   1   1 -0.20128522613887D+01  0.25206504564665D-17
   2   1   1   1  0.66325685224195D+00  0.48145864409338D-15
   3   1   1   1  0.55101920180759D+00 -0.28697728769719D-13
   1   1   2   1  0.66325685224195D+00 -0.47845215028232D-15
   2   1   2   1 -0.16584069870772D+01 -0.29992357302444D-17
   3   1   2   1  0.44413076642358D+00  0.15527738619291D-14
   1   1   3   1  0.55101920180759D+00  0.28694090923963D-13
   2   1   3   1  0.44413076642358D+00 -0.15557430637477D-14
   3   1   3   1 -0.16584069859705D+01  0.31692855833157D-17
 Band:  2
   1   1   1   1 -0.34397172154585D+01  0.93554261708493D-18
   2   1   1   1 -0.19222258715573D+00  0.12615329995070D-11
   3   1   1   1  0.21708052447679D+01 -0.60814792699254D-12
   1   1   2   1 -0.19222258715573D+00 -0.12615126816817D-11
   2   1   2   1 -0.31273417842131D+01 -0.60176661312995D-17
   3   1   2   1  0.11487585583503D+01 -0.28349843885759D-12
   1   1   3   1  0.21708052447679D+01  0.60816553429425D-12
   2   1   3   1  0.11487585583503D+01  0.28351156805433D-12
   3   1   3   1 -0.31273417866554D+01 -0.10443562784626D-16
 Band:  3
   1   1   1   1 -0.77401063864004D+00  0.11354530453966D-17
   2   1   1   1  0.18029072988492D+00 -0.57569176809120D-05
   3   1   1   1  0.30022014736113D+00  0.37023482372450D-04
   1   1   2   1  0.18029072988492D+00  0.57569176808963D-05
   2   1   2   1 -0.73335836231473D+00 -0.51829692236781D-17
   3   1   2   1 -0.45289141127543D+00 -0.42780413128649D-04
   1   1   3   1  0.30022014736113D+00 -0.37023482372456D-04
   2   1   3   1 -0.45289141127543D+00  0.42780413128655D-04
   3   1   3   1  0.19062305291704D+01 -0.12187408378746D-16
 Band:  4
   1   1   1   1  0.48711848528850D+00 -0.23795682512094D-16
   2   1   1   1 -0.17997739136730D+01  0.57569292986992D-05
   3   1   1   1  0.11033442567391D+01 -0.37023481833244D-04
   1   1   2   1 -0.17997739136730D+01 -0.57569292987120D-05
   2   1   2   1  0.19670069128383D+01  0.90000697759098D-17
   3   1   2   1 -0.56483800411908D+00  0.42780410317531D-04
   1   1   3   1  0.11033442567391D+01  0.37023481833228D-04
   2   1   3   1 -0.56483800411908D+00 -0.42780410317506D-04
   3   1   3   1 -0.67258197577823D+00  0.13194727451464D-16
 K-point: -2.50000000E-01  2.50000000E-01 -2.50000000E-01
 Band:  1
   1   1   1   1 -0.20128523088503D+01 -0.92049781685951D-18
   2   1   1   1  0.55101921888161D+00  0.16999577236291D-14
   3   1   1   1  0.66325686659619D+00 -0.13593474674420D-12
   1   1   2   1  0.55101921888161D+00 -0.17024410366628D-14
   2   1   2   1 -0.16584069920701D+01 -0.15924192553591D-17
   3   1   2   1  0.44413076176515D+00  0.66981810404915D-13
   1   1   3   1  0.66325686659619D+00  0.13593791145626D-12
   2   1   3   1  0.44413076176515D+00 -0.66978184995898D-13
   3   1   3   1 -0.16584069924760D+01 -0.35743678201827D-17
 Band:  2
   1   1   1   1 -0.34397173298793D+01 -0.30039820491919D-16
   2   1   1   1  0.21708052839124D+01  0.35451450646917D-11
   3   1   1   1 -0.19222254751725D+00 -0.29374672162487D-12
   1   1   2   1  0.21708052839124D+01 -0.35451247902159D-11
   2   1   2   1 -0.31273418006394D+01 -0.90308019231940D-17
   3   1   2   1  0.11487585468970D+01 -0.10718451621858D-11
   1   1   3   1 -0.19222254751725D+00  0.29375410512746D-12
   2   1   3   1  0.11487585468970D+01  0.10718460386966D-11
   3   1   3   1 -0.31273418013669D+01  0.71345060634362D-17
 Band:  3
   1   1   1   1 -0.45234771161731D+00 -0.83264454173001D-17
   2   1   1   1 -0.29189731045884D+00  0.15631073945332D-04
   3   1   1   1 -0.38348005427889D+00 -0.24305238396040D-05
   1   1   2   1 -0.29189731045884D+00 -0.15631073945340D-04
   2   1   2   1 -0.90571869211083D-01  0.18616229052453D-16
   3   1   2   1  0.65637558904119D+00  0.18061602720112D-04
   1   1   3   1 -0.38348005427889D+00  0.24305238396287D-05
   2   1   3   1  0.65637558904119D+00 -0.18061602720112D-04
   3   1   3   1  0.58990060265619D-01 -0.16347638966268D-16
 Band:  4
   1   1   1   1  0.16545564556794D+00  0.24855435036064D-18
   2   1   1   1  0.16954616848274D+01 -0.15631064068711D-04
   3   1   1   1 -0.12360031589063D+01  0.24305273888611D-05
   1   1   2   1  0.16954616848274D+01  0.15631064068708D-04
   2   1   2   1  0.13242204324216D+01  0.27630265058001D-17
   3   1   2   1 -0.16741049957237D+01 -0.18061601858013D-04
   1   1   3   1 -0.12360031589063D+01 -0.24305273888634D-05
   2   1   3   1 -0.16741049957237D+01  0.18061601858012D-04
   3   1   3   1  0.11746585029763D+01 -0.14901275858158D-17
 K-point:  2.50000000E-01 -2.50000000E-01 -2.50000000E-01
 Band:  1
   1   1   1   1 -0.38061138576716D+01 -0.40921893897721D-18
   2   1   1   1  0.90004226179259D+00 -0.19785962666680D-13
   3   1   1   1  0.90004226180425D+00 -0.11146155895483D-12
   1   1   2   1  0.90004226179259D+00  0.19783927008854D-13
   2   1   2   1 -0.21098919728753D+01  0.69407169924550D-18
   3   1   2   1  0.30980725065835D+00 -0.47454891750406D-13
   1   1   3   1  0.90004226180425D+00  0.11146414284699D-12
   2   1   3   1  0.30980725065835D+00  0.47458352921480D-13
   3   1   3   1 -0.21098919729013D+01  0.10632792834951D-17
 Band:  2
   1   1   1   1 -0.45418508557988D+00  0.38861117631930D-17
   2   1   1   1 -0.70501492581160D+00 -0.45450954458862D-12
   3   1   1   1 -0.70501492586301D+00  0.32076439431031D-12
   1   1   2   1 -0.70501492581160D+00  0.45449431620587D-12
   2   1   2   1  0.11578625231888D+01  0.18650689555509D-17
   3   1   2   1  0.25216767925834D+00 -0.12817262879035D-11
   1   1   3   1 -0.70501492586301D+00 -0.32077612783475D-12
   2   1   3   1  0.25216767925834D+00  0.12817304014049D-11
   3   1   3   1  0.11578625232859D+01  0.34499836983043D-17
 Band:  3
   1   1   1   1 -0.69634545599436D+00 -0.77582199446399D-19
   2   1   1   1  0.20472671912783D+00 -0.91080310278994D-05
   3   1   1   1  0.18103510094192D+00  0.91080309930316D-05
   1   1   2   1  0.20472671912783D+00  0.91080310278981D-05
   2   1   2   1  0.40078686355309D+00 -0.10598685083885D-17
   3   1   2   1 -0.78654884302608D+00  0.56985021694200D-12
   1   1   3   1  0.18103510094192D+00 -0.91080309930314D-05
   2   1   3   1 -0.78654884302608D+00 -0.56983821003437D-12
   3   1   3   1  0.40078686364876D+00 -0.64794250033922D-17
 Band:  4
   1   1   1   1  0.29935098335986D+01 -0.29257036571514D-17
   2   1   1   1 -0.12596479445199D+00  0.91080310993270D-05
   3   1   1   1 -0.10227317624639D+00 -0.91080312832413D-05
   1   1   2   1 -0.12596479445199D+00 -0.91080310993267D-05
   2   1   2   1 -0.13414261174380D+00 -0.14309783078736D-17
   3   1   2   1  0.36238048509431D+00 -0.27011181300340D-12
   1   1   3   1 -0.10227317624639D+00  0.91080312832399D-05
   2   1   3   1  0.36238048509431D+00  0.27011140417824D-12
   3   1   3   1 -0.13414261187812D+00  0.12150431907818D-17
 K-point: -2.50000000E-01 -2.50000000E-01 -2.50000000E-01
 Band:  1
   1   1   1   1 -0.36318985849557D+01  0.33847524944228D-19
   2   1   1   1  0.68414372425234D+00 -0.42929509275793D-13
   3   1   1   1  0.68414372424009D+00 -0.67906467628475D-13
   1   1   2   1  0.68414372425234D+00  0.42926796861027D-13
   2   1   2   1 -0.26102084728927D+01  0.53003030877718D-18
   3   1   2   1  0.12419207245823D+01  0.28398964191883D-13
   1   1   3   1  0.68414372424009D+00  0.67911179579347D-13
   2   1   3   1  0.12419207245823D+01 -0.28398052908129D-13
   3   1   3   1 -0.26102084728681D+01 -0.33683308865887D-17
 Band:  2
   1   1   1   1 -0.18068894332754D+01  0.60289274142134D-17
   2   1   1   1  0.27668614235916D-01  0.11570511729708D-01
   3   1   1   1  0.45937431006064D+00 -0.18694933041200D-01
   1   1   2   1  0.27668614235916D-01 -0.11570511729708D-01
   2   1   2   1 -0.48636921116256D+00  0.11283460391235D-17
   3   1   2   1  0.28751098346129D+00  0.11592393915675D-02
   1   1   3   1  0.45937431006064D+00  0.18694933041200D-01
   2   1   3   1  0.28751098346129D+00 -0.11592393915675D-02
   3   1   3   1 -0.98923034906641D+00  0.40892737809194D-18
 Band:  3
   1   1   1   1 -0.12715080255613D+01  0.78093973643350D-18
   2   1   1   1  0.71257689240101D+00 -0.19578977838711D-01
   3   1   1   1  0.18664475318504D+00  0.14167034004414D-01
   1   1   2   1  0.71257689240101D+00  0.19578977838711D-01
   2   1   2   1 -0.94000347490384D+00  0.24123647997717D-19
   3   1   2   1 -0.20083183913282D-01 -0.11657135582191D-02
   1   1   3   1  0.18664475318504D+00 -0.14167034004414D-01
   2   1   3   1 -0.20083183913282D-01  0.11657135582191D-02
   3   1   3   1 -0.51152282928381D+00  0.11673589948946D-18
 Band:  4
   1   1   1   1  0.83494964652055D+00  0.85495727289907D-18
   2   1   1   1  0.25502351215899D+00  0.80084661086921D-02
   3   1   1   1  0.34924995557269D+00  0.45278990369665D-02
   1   1   2   1  0.25502351215899D+00 -0.80084661086921D-02
   2   1   2   1 -0.77861856734119D+00 -0.84856751328034D-18
   3   1   2   1 -0.52974828291746D-01  0.64741658571854D-05
   1   1   3   1  0.34924995557269D+00 -0.45278990369665D-02
   2   1   3   1 -0.52974828291746D-01 -0.64741658571876D-05
   3   1   3   1 -0.70423807508907D+00  0.29525664684812D-17
  
 2nd eigenvalue derivatives   - # elements :       9
 qpt  0.00000000E+00  5.00000000E-01  0.00000000E+00   1.0
 K-point:  2.50000000E-01  2.50000000E-01  2.50000000E-01
 Band:  1
   1   1   1   1 -0.26102084539014D+01  0.71782533796108D-17
   2   1   1   1  0.68414367689357D+00 -0.57133850709826D-13
   3   1   1   1  0.12419207351572D+01  0.31691536481332D-14
   1   1   2   1  0.68414367689357D+00  0.57131286771452D-13
   2   1   2   1 -0.36318984339970D+01 -0.13978479972243D-17
   3   1   2   1  0.68414367686873D+00  0.68551560694642D-13
   1   1   3   1  0.12419207351572D+01 -0.31736049540452D-14
   2   1   3   1  0.68414367686873D+00 -0.68549899819914D-13
   3   1   3   1 -0.26102084538522D+01  0.11184860458447D-17
 Band:  2
   1   1   1   1 -0.42481414679760D+00 -0.71324951147044D-18
   2   1   1   1  0.17217618567273D+00  0.30136257545802D-02
   3   1   1   1  0.76779765457546D-01 -0.15379987263836D-03
   1   1   2   1  0.17217618567273D+00 -0.30136257545802D-02
   2   1   2   1 -0.19631464257927D+01 -0.39715476517248D-17
   3   1   2   1  0.47637929209628D+00  0.31443250557906D-01
   1   1   3   1  0.76779765457546D-01  0.15379987263836D-03
   2   1   3   1  0.47637929209628D+00 -0.31443250557906D-01
   3   1   3   1 -0.10215273352074D+01 -0.74557209776719D-18
 Band:  3
   1   1   1   1 -0.75627455328007D+00  0.18832968646109D-17
   2   1   1   1  0.36300724322287D+00  0.66687866163867D-02
   3   1   1   1  0.24500557040688D-01 -0.83715643810357D-05
   1   1   2   1  0.36300724322287D+00 -0.66687866163867D-02
   2   1   2   1  0.16684531237394D+01 -0.60209349107915D-18
   3   1   2   1  0.36425477655521D+00 -0.30013627682260D-01
   1   1   3   1  0.24500557040688D-01  0.83715643810352D-05
   2   1   3   1  0.36425477655521D+00  0.30013627682260D-01
   3   1   3   1 -0.75633966219223D+00 -0.52992182329662D-18
 Band:  4
   1   1   1   1 -0.10239025639395D+01  0.25848819364847D-17
   2   1   1   1  0.46008561495549D+00 -0.96824123705945D-02
   3   1   1   1  0.11317264356812D+00  0.16217143726946D-03
   1   1   2   1  0.46008561495549D+00  0.96824123705945D-02
   2   1   2   1 -0.19487545893835D+01  0.28980067387359D-17
   3   1   2   1  0.15463497523342D+00 -0.14296228751589D-02
   1   1   3   1  0.11317264356812D+00 -0.16217143726946D-03
   2   1   3   1  0.15463497523342D+00  0.14296228751589D-02
   3   1   3   1 -0.42712426668109D+00  0.31235419788443D-18
 K-point: -2.50000000E-01  2.50000000E-01  2.50000000E-01
 Band:  1
   1   1   1   1 -0.16584069859474D+01  0.33168381060698D-18
   2   1   1   1  0.55101920180019D+00 -0.55319682323759D-13
   3   1   1   1  0.44413076642027D+00 -0.11894682678621D-12
   1   1   2   1  0.55101920180019D+00  0.55317469570434D-13
   2   1   2   1 -0.20128522614022D+01 -0.96634665173438D-18
   3   1   2   1  0.66325685225299D+00  0.19689170132443D-12
   1   1   3   1  0.44413076642027D+00  0.11894615030915D-12
   2   1   3   1  0.66325685225299D+00 -0.19689024944850D-12
   3   1   3   1 -0.16584069870900D+01 -0.74523898711649D-18
 Band:  2
   1   1   1   1 -0.31273417867302D+01 -0.50850812877699D-18
   2   1   1   1  0.21708052447190D+01  0.35837281298989D-11
   3   1   1   1  0.11487585583547D+01  0.20203621094242D-11
   1   1   2   1  0.21708052447190D+01 -0.35837232503119D-11
   2   1   2   1 -0.34397172153299D+01 -0.74745747371952D-17
   3   1   2   1 -0.19222258703961D+00 -0.22856419346927D-11
   1   1   3   1  0.11487585583547D+01 -0.20203555406490D-11
   2   1   3   1 -0.19222258703961D+00  0.22856570677101D-11
   3   1   3   1 -0.31273417840610D+01 -0.21642767596866D-17
 Band:  3
   1   1   1   1 -0.69533524752326D+00  0.24196519410678D-17
   2   1   1   1  0.10694778129376D+01 -0.61896192866047D-05
   3   1   1   1 -0.52548164008604D+00  0.71520774135231D-05
   1   1   2   1  0.10694778129376D+01  0.61896192865892D-05
   2   1   2   1  0.47615517347498D+00  0.15665469734300D-16
   3   1   2   1 -0.17845421339050D+01 -0.96245390792729D-06
   1   1   3   1 -0.52548164008604D+00 -0.71520774135468D-05
   2   1   3   1 -0.17845421339050D+01  0.96245390796088D-06
   3   1   3   1  0.19470266236343D+01 -0.14620108056595D-16
 Band:  4
   1   1   1   1  0.19289838009744D+01  0.32700666433603D-17
   2   1   1   1  0.33408659085376D+00  0.61896325225923D-05
   3   1   1   1 -0.49224777532060D+00 -0.71520784892498D-05
   1   1   2   1  0.33408659085376D+00 -0.61896325225946D-05
   2   1   2   1 -0.76304732712767D+00 -0.24341975192379D-17
   3   1   2   1  0.16505895039644D+00  0.96244427525423D-06
   1   1   3   1 -0.49224777532060D+00  0.71520784892632D-05
   2   1   3   1  0.16505895039644D+00 -0.96244427525623D-06
   3   1   3   1 -0.71337807350848D+00  0.83375318387820D-17
 K-point:  2.50000000E-01 -2.50000000E-01  2.50000000E-01
 Band:  1
   1   1   1   1 -0.21098919812270D+01 -0.63250694252075D-18
   2   1   1   1  0.90004228536553D+00  0.26891043690660D-13
   3   1   1   1  0.30980724220597D+00  0.17957685751764D-13
   1   1   2   1  0.90004228536553D+00 -0.26891583322002D-13
   2   1   2   1 -0.38061139235284D+01  0.65402388522563D-18
   3   1   2   1  0.90004228539116D+00  0.18896176930484D-12
   1   1   3   1  0.30980724220597D+00 -0.17959082703200D-13
   2   1   3   1  0.90004228539116D+00 -0.18896252471986D-12
   3   1   3   1 -0.21098919812791D+01  0.11773499951971D-17
 Band:  2
   1   1   1   1  0.11578625096710D+01 -0.27702632293573D-17
   2   1   1   1 -0.70501488296196D+00  0.80310594726656D-12
   3   1   1   1  0.25216766559451D+00  0.34819273386164D-12
   1   1   2   1 -0.70501488296196D+00 -0.80309879678992D-12
   2   1   2   1 -0.45418522045077D+00 -0.86167398486549D-18
   3   1   2   1 -0.70501488306053D+00  0.92012444481213D-12
   1   1   3   1  0.25216766559451D+00 -0.34820148754969D-12
   2   1   3   1 -0.70501488306053D+00 -0.92011879270195D-12
   3   1   3   1  0.11578625098652D+01  0.11330442973712D-17
 Band:  3
   1   1   1   1  0.14888204696385D+00 -0.26921346569095D-17
   2   1   1   1 -0.64535713832207D+00 -0.42027157637960D-03
   3   1   1   1 -0.24550398414029D+00  0.34869746016502D-12
   1   1   2   1 -0.64535713832207D+00  0.42027157637960D-03
   2   1   2   1  0.10412525201897D+01  0.35866948216304D-17
   3   1   2   1  0.74197891979950D+00 -0.42027157615851D-03
   1   1   3   1 -0.24550398414029D+00 -0.34869470222574D-12
   2   1   3   1  0.74197891979950D+00  0.42027157615850D-03
   3   1   3   1  0.14888204596589D+00  0.13274709448266D-17
 Band:  4
   1   1   1   1  0.11776221681415D+00  0.10259150991549D-17
   2   1   1   1  0.72411902178413D+00  0.42027157624769D-03
   3   1   1   1 -0.17866435857666D+00 -0.18529901562757D-12
   1   1   2   1  0.72411902178413D+00 -0.42027157624770D-03
   2   1   2   1  0.12559119824016D+01  0.43543173850310D-17
   3   1   2   1 -0.66321703629839D+00  0.42027157626578D-03
   1   1   3   1 -0.17866435857666D+00  0.18530111626928D-12
   2   1   3   1 -0.66321703629839D+00 -0.42027157626578D-03
   3   1   3   1  0.11776221773482D+00 -0.23728612729239D-17
 K-point: -2.50000000E-01 -2.50000000E-01  2.50000000E-01
 Band:  1
   1   1   1   1 -0.16584069924572D+01  0.10862827507808D-17
   2   1   1   1  0.66325686658726D+00 -0.24447996733024D-14
   3   1   1   1  0.44413076176229D+00 -0.11484557320748D-13
   1   1   2   1  0.66325686658726D+00  0.24433115506359D-14
   2   1   2   1 -0.20128523088556D+01 -0.69660044285300D-18
   3   1   2   1  0.55101921888580D+00  0.27058883218630D-13
   1   1   3   1  0.44413076176229D+00  0.11481897496512D-13
   2   1   3   1  0.55101921888580D+00 -0.27055833425509D-13
   3   1   3   1 -0.16584069920787D+01  0.65630325651975D-18
 Band:  2
   1   1   1   1 -0.31273418015177D+01  0.78795021774909D-18
   2   1   1   1 -0.19222254744049D+00  0.41695690186837D-12
   3   1   1   1  0.11487585469035D+01  0.72038478387321D-12
   1   1   2   1 -0.19222254744049D+00 -0.41695197203157D-12
   2   1   2   1 -0.34397173293812D+01  0.14469935312345D-16
   3   1   2   1  0.21708052835353D+01 -0.17503692739042D-12
   1   1   3   1  0.11487585469035D+01 -0.72038831188438D-12
   2   1   3   1  0.21708052835353D+01  0.17500885705828D-12
   3   1   3   1 -0.31273418004272D+01  0.51655700857066D-17
 Band:  3
   1   1   1   1 -0.67320339015960D+00 -0.10136860818865D-16
   2   1   1   1  0.13454657684396D+00 -0.36513744759176D-05
   3   1   1   1 -0.56379665780998D+00  0.27133838627657D-04
   1   1   2   1  0.13454657684396D+00  0.36513744759183D-05
   2   1   2   1 -0.74132456204401D+00 -0.41290483788401D-17
   3   1   2   1  0.39668457198517D+00 -0.23482462085980D-04
   1   1   3   1 -0.56379665780998D+00 -0.27133838627667D-04
   2   1   3   1  0.39668457198517D+00  0.23482462085977D-04
   3   1   3   1  0.19664976571093D+01 -0.26676126066529D-18
 Band:  4
   1   1   1   1  0.19068519535113D+01  0.41642212808779D-17
   2   1   1   1 -0.17540297898741D+01  0.36513860984762D-05
   3   1   1   1 -0.45393274888481D+00 -0.27133833612967D-04
   1   1   2   1 -0.17540297898741D+01 -0.36513860985003D-05
   2   1   2   1  0.45443249543447D+00  0.41900553910705D-16
   3   1   2   1  0.10068798024626D+01  0.23482453720946D-04
   1   1   3   1 -0.45393274888481D+00  0.27133833612958D-04
   2   1   3   1  0.10068798024626D+01 -0.23482453720963D-04
   3   1   3   1 -0.73284909436011D+00 -0.10239118002742D-16
 K-point:  2.50000000E-01  2.50000000E-01 -2.50000000E-01
 Band:  1
   1   1   1   1 -0.16584069870687D+01 -0.55329071072943D-18
   2   1   1   1  0.66325685223958D+00  0.24793999260790D-14
   3   1   1   1  0.44413076642032D+00  0.11461480233857D-13
   1   1   2   1  0.66325685223958D+00 -0.24785966888670D-14
   2   1   2   1 -0.20128522613967D+01 -0.12440392729979D-17
   3   1   2   1  0.55101920180808D+00 -0.26919576587919D-13
   1   1   3   1  0.44413076642032D+00 -0.11461370864950D-13
   2   1   3   1  0.55101920180808D+00  0.26922032729076D-13
   3   1   3   1 -0.16584069859683D+01 -0.22819651048549D-17
 Band:  2
   1   1   1   1 -0.31273417842584D+01  0.65737645703060D-17
   2   1   1   1 -0.19222258706591D+00 -0.41725855523077D-12
   3   1   1   1  0.11487585583556D+01 -0.72024953052117D-12
   1   1   2   1 -0.19222258706591D+00  0.41724983409540D-12
   2   1   2   1 -0.34397172150813D+01  0.26562084347701D-17
   3   1   2   1  0.21708052444965D+01  0.17466554387960D-12
   1   1   3   1  0.11487585583556D+01  0.72025905820618D-12
   2   1   3   1  0.21708052444965D+01 -0.17465019060211D-12
   3   1   3   1 -0.31273417865347D+01 -0.57062255941457D-17
 Band:  3
   1   1   1   1 -0.67258196339766D+00 -0.12556273570284D-19
   2   1   1   1  0.13407559169802D+00 -0.57569190811627D-05
   3   1   1   1 -0.56483799526344D+00  0.42780415771725D-04
   1   1   2   1  0.13407559169802D+00  0.57569190811538D-05
   2   1   2   1 -0.74099131484563D+00  0.12328914921688D-17
   3   1   2   1  0.39760545191625D+00 -0.37023479610696D-04
   1   1   3   1 -0.56483799526344D+00 -0.42780415771721D-04
   2   1   3   1  0.39760545191625D+00  0.37023479610687D-04
   3   1   3   1  0.19670069275884D+01 -0.18726006285175D-17
 Band:  4
   1   1   1   1  0.19062305138650D+01  0.88737532546261D-17
   2   1   1   1 -0.17535587752925D+01  0.57569074599735D-05
   3   1   1   1 -0.45289142014255D+00 -0.42780420786846D-04
   1   1   2   1 -0.17535587752925D+01 -0.57569074599951D-05
   2   1   2   1  0.45409916102259D+00  0.14239182325286D-16
   3   1   2   1  0.10059589521328D+01  0.37023487976729D-04
   1   1   3   1 -0.45289142014255D+00  0.42780420786849D-04
   2   1   3   1  0.10059589521328D+01 -0.37023487976723D-04
   3   1   3   1 -0.73335837448028D+00 -0.13723594901627D-16
 K-point: -2.50000000E-01  2.50000000E-01 -2.50000000E-01
 Band:  1
   1   1   1   1 -0.21098919728465D+01  0.92318884995105D-18
   2   1   1   1  0.90004226177327D+00 -0.27545300590470D-13
   3   1   1   1  0.30980725065843D+00 -0.17751231759271D-13
   1   1   2   1  0.90004226177327D+00  0.27542961696435D-13
   2   1   2   1 -0.38061138576696D+01  0.11116600126766D-17
   3   1   2   1  0.90004226179889D+00 -0.18919311926437D-12
   1   1   3   1  0.30980725065843D+00  0.17748181789573D-13
   2   1   3   1  0.90004226179889D+00  0.18919719322585D-12
   3   1   3   1 -0.21098919728985D+01 -0.36098733171756D-17
 Band:  2
   1   1   1   1  0.11578625231529D+01 -0.72638599147333D-17
   2   1   1   1 -0.70501492575829D+00 -0.80267544117786D-12
   3   1   1   1  0.25216767921203D+00 -0.34929707627081D-12
   1   1   2   1 -0.70501492575829D+00  0.80267500807909D-12
   2   1   2   1 -0.45418508562942D+00  0.26705859051436D-17
   3   1   2   1 -0.70501492585686D+00 -0.91962304488718D-12
   1   1   3   1  0.25216767921203D+00  0.34929502753025D-12
   2   1   3   1 -0.70501492585686D+00  0.91961489972760D-12
   3   1   3   1  0.11578625233471D+01 -0.17304482291779D-17
 Band:  3
   1   1   1   1  0.14846173186769D+00  0.87797558234086D-18
   2   1   1   1 -0.64566116086324D+00  0.10995338648734D-04
   3   1   1   1 -0.24460123229683D+00 -0.17680564834442D-12
   1   1   2   1 -0.64566116086324D+00 -0.10995338648734D-04
   2   1   2   1  0.10441517261916D+01 -0.11637087658283D-17
   3   1   2   1  0.74180053728743D+00  0.10995338435470D-04
   1   1   3   1 -0.24460123229683D+00  0.17679635364013D-12
   2   1   3   1  0.74180053728743D+00 -0.10995338435471D-04
   3   1   3   1  0.14846171961129D+00  0.19094431757354D-17
 Band:  4
   1   1   1   1  0.11818251995346D+00  0.14542321203609D-17
   2   1   1   1  0.72442308553274D+00 -0.10995338518006D-04
   3   1   1   1 -0.17956712563039D+00  0.15512284632031D-13
   1   1   2   1  0.72442308553274D+00  0.10995338518008D-04
   2   1   2   1  0.12530126514236D+01  0.23840877829468D-17
   3   1   2   1 -0.66303861257888D+00 -0.10995338543633D-04
   1   1   3   1 -0.17956712563039D+00 -0.15512929224104D-13
   2   1   3   1 -0.66303861257888D+00  0.10995338543632D-04
   3   1   3   1  0.11818253213258D+00 -0.14232228610262D-17
 K-point:  2.50000000E-01 -2.50000000E-01 -2.50000000E-01
 Band:  1
   1   1   1   1 -0.16584069920577D+01 -0.15118850662430D-17
   2   1   1   1  0.55101921887791D+00  0.55246943932487D-13
   3   1   1   1  0.44413076176224D+00  0.11895880526495D-12
   1   1   2   1  0.55101921887791D+00 -0.55246615166572D-13
   2   1   2   1 -0.20128523088611D+01  0.19579201099326D-17
   3   1   2   1  0.66325686660068D+00 -0.19693564705944D-12
   1   1   3   1  0.44413076176224D+00 -0.11895950704578D-12
   2   1   3   1  0.66325686660068D+00  0.19693386563289D-12
   3   1   3   1 -0.16584069924785D+01  0.20126694283741D-17
 Band:  2
   1   1   1   1 -0.31273418006227D+01  0.90560244903163D-17
   2   1   1   1  0.21708052837578D+01 -0.35829877272982D-11
   3   1   1   1  0.11487585469026D+01 -0.20203472092654D-11
   1   1   2   1  0.21708052837578D+01  0.35829662850407D-11
   2   1   2   1 -0.34397173296298D+01  0.20839433424020D-17
   3   1   2   1 -0.19222254741420D+00  0.22865522556549D-11
   1   1   3   1  0.11487585469026D+01  0.20203447589759D-11
   2   1   3   1 -0.19222254741420D+00 -0.22865388186421D-11
   3   1   3   1 -0.31273418013204D+01 -0.27004817364234D-17
 Band:  3
   1   1   1   1 -0.69349633076857D+00  0.76883551698625D-17
   2   1   1   1  0.10723157354506D+01 -0.12948062336368D-04
   3   1   1   1 -0.52876177750619D+00  0.14961399490410D-04
   1   1   2   1  0.10723157354506D+01  0.12948062336374D-04
   2   1   2   1  0.47709573633360D+00 -0.65556947366505D-17
   3   1   2   1 -0.17858537521200D+01 -0.20133353032480D-05
   1   1   3   1 -0.52876177750619D+00 -0.14961399490423D-04
   2   1   3   1 -0.17858537521200D+01  0.20133353032734D-05
   3   1   3   1  0.19487493494754D+01 -0.77993647954775D-17
 Band:  4
   1   1   1   1  0.19271448938607D+01  0.83720195959117D-18
   2   1   1   1  0.33124863873950D+00  0.12948049100094D-04
   3   1   1   1 -0.48896762918927D+00 -0.14961398414902D-04
   1   1   2   1  0.33124863873950D+00 -0.12948049100091D-04
   2   1   2   1 -0.76398780277275D+00  0.10916339004635D-17
   3   1   2   1  0.16637053917579D+00  0.20133449358111D-05
   1   1   3   1 -0.48896762918927D+00  0.14961398414912D-04
   2   1   3   1  0.16637053917579D+00 -0.20133449358129D-05
   3   1   3   1 -0.71510078646526D+00  0.11502851960361D-16
 K-point: -2.50000000E-01 -2.50000000E-01 -2.50000000E-01
 Band:  1
   1   1   1   1 -0.26102084729263D+01  0.90594833039562D-18
   2   1   1   1  0.68414372429542D+00  0.56863429142892D-13
   3   1   1   1  0.12419207245615D+01 -0.29512097276802D-14
   1   1   2   1  0.68414372429542D+00 -0.56870495180964D-13
   2   1   2   1 -0.36318985849848D+01  0.86127780139920D-18
   3   1   2   1  0.68414372427058D+00 -0.68220241321449D-13
   1   1   3   1  0.12419207245615D+01  0.29535385722324D-14
   2   1   3   1  0.68414372427058D+00  0.68214096592427D-13
   3   1   3   1 -0.26102084728771D+01 -0.42152450137493D-17
 Band:  2
   1   1   1   1 -0.42481477310917D+00 -0.14640118539556D-17
   2   1   1   1  0.17216807258900D+00 -0.30190554138958D-02
   3   1   1   1  0.76794358706204D-01  0.15417106002471D-03
   1   1   2   1  0.17216807258900D+00  0.30190554138958D-02
   2   1   2   1 -0.19631397433737D+01 -0.52787719862202D-19
   3   1   2   1  0.47637501791796D+00 -0.31493039509963D-01
   1   1   3   1  0.76794358706204D-01 -0.15417106002471D-03
   2   1   3   1  0.47637501791796D+00  0.31493039509963D-01
   3   1   3   1 -0.10215286249198D+01  0.61602099600900D-18
 Band:  3
   1   1   1   1 -0.75627459135270D+00 -0.21631963695377D-17
   2   1   1   1  0.36298143649541D+00 -0.67237418080371D-02
   3   1   1   1  0.24500113902003D-01  0.84344419147722D-05
   1   1   2   1  0.36298143649541D+00  0.67237418080371D-02
   2   1   2   1  0.16684629158314D+01 -0.74024257308051D-18
   3   1   2   1  0.36426589850148D+00  0.30054855972051D-01
   1   1   3   1  0.24500113902003D-01 -0.84344419147726D-05
   2   1   3   1  0.36426589850148D+00 -0.30054855972051D-01
   3   1   3   1 -0.75633945085359D+00  0.14127189118875D-17
 Band:  4
   1   1   1   1 -0.10239018889115D+01 -0.11081326449316D-17
   2   1   1   1  0.46011950964411D+00  0.97427972215603D-02
   3   1   1   1  0.11315849870241D+00 -0.16260550218980D-03
   1   1   2   1  0.46011950964411D+00 -0.97427972215603D-02
   2   1   2   1 -0.19487709847372D+01 -0.43351460569108D-18
   3   1   2   1  0.15462810234289D+00  0.14381835374246D-02
   1   1   3   1  0.11315849870241D+00  0.16260550218980D-03
   2   1   3   1  0.15462810234289D+00 -0.14381835374246D-02
   3   1   3   1 -0.42712317766347D+00  0.11575739587737D-17
  
 2nd eigenvalue derivatives   - # elements :       9
 qpt  5.00000000E-01  5.00000000E-01  0.00000000E+00   1.0
 K-point:  2.50000000E-01  2.50000000E-01  2.50000000E-01
 Band:  1
   1   1   1   1 -0.36318984128938D+01  0.10131281940379D-17
   2   1   1   1  0.22636113289697D+01  0.47181093887366D-14
   3   1   1   1  0.68414369401721D+00 -0.26137694984595D-13
   1   1   2   1  0.22636113289697D+01 -0.47181309468979D-14
   2   1   2   1 -0.36318984129566D+01  0.35315390617220D-17
   3   1   2   1  0.68414369404895D+00 -0.10255721918174D-13
   1   1   3   1  0.68414369401721D+00  0.26138518875603D-13
   2   1   3   1  0.68414369404895D+00  0.10246157805801D-13
   3   1   3   1 -0.26102084364178D+01  0.46370249798467D-17
 Band:  2
   1   1   1   1 -0.18094591342154D+01 -0.27586051947810D-16
   2   1   1   1  0.13327025930099D+01  0.29422461916727D-02
   3   1   1   1  0.44984479061270D+00 -0.12939793865763D-01
   1   1   2   1  0.13327025930099D+01 -0.29422461916727D-02
   2   1   2   1 -0.17402762497639D+01  0.42205338370153D-17
   3   1   2   1  0.24080916155735D+00  0.11628526068328D-01
   1   1   3   1  0.44984479061270D+00  0.12939793865763D-01
   2   1   3   1  0.24080916155735D+00 -0.11628526068328D-01
   3   1   3   1 -0.98676008709872D+00  0.19588563589880D-17
 Band:  3
   1   1   1   1 -0.12215170886605D+01 -0.24378268738623D-17
   2   1   1   1  0.31176469261796D+00  0.51284343278798D-02
   3   1   1   1  0.19438085244998D+00  0.14463990476304D-01
   1   1   2   1  0.31176469261796D+00 -0.51284343278798D-02
   2   1   2   1 -0.90566158774910D+00 -0.21858533516389D-17
   3   1   2   1  0.34937969372362D+00 -0.13308174712206D-01
   1   1   3   1  0.19438085244998D+00 -0.14463990476304D-01
   2   1   3   1  0.34937969372362D+00  0.13308174712206D-01
   3   1   3   1 -0.51789585468573D+00 -0.13800474528526D-17
 Band:  4
   1   1   1   1  0.78752831991619D+00  0.26851292102313D-18
   2   1   1   1 -0.13915572057924D+01 -0.80706805194269D-02
   3   1   1   1  0.35104339119534D+00 -0.15241966096270D-02
   1   1   2   1 -0.13915572057924D+01  0.80706805194269D-02
   2   1   2   1  0.40248993465485D+00  0.17175469025361D-18
   3   1   2   1  0.40508017892066D+00  0.16796486450731D-02
   1   1   3   1  0.35104339119534D+00  0.15241966096270D-02
   2   1   3   1  0.40508017892066D+00 -0.16796486450731D-02
   3   1   3   1 -0.70033533305564D+00  0.18232858210992D-17
 K-point: -2.50000000E-01  2.50000000E-01  2.50000000E-01
 Band:  1
   1   1   1   1 -0.20128523043643D+01 -0.51012069386802D-18
   2   1   1   1  0.79857635600367D+00 -0.10813561095035D-14
   3   1   1   1  0.55101922251883D+00 -0.29189329863029D-14
   1   1   2   1  0.79857635600367D+00  0.10836792837845D-14
   2   1   2   1 -0.20128522623180D+01 -0.10579721834839D-17
   3   1   2   1  0.66325685178753D+00  0.14885190692042D-14
   1   1   3   1  0.55101922251883D+00  0.29185066352638D-14
   2   1   3   1  0.66325685178753D+00 -0.14853706676025D-14
   3   1   3   1 -0.16584069871486D+01 -0.46122831611218D-18
 Band:  2
   1   1   1   1 -0.34397173181573D+01  0.24755732611861D-16
   2   1   1   1  0.14611350760759D+01 -0.13263229812281D-12
   3   1   1   1  0.21708052944857D+01 -0.86388171626344D-12
   1   1   2   1  0.14611350760759D+01  0.13261185625396D-12
   2   1   2   1 -0.34397172148876D+01  0.22393276625263D-17
   3   1   2   1 -0.19222258692890D+00  0.10804384249387D-11
   1   1   3   1  0.21708052944857D+01  0.86387083740368D-12
   2   1   3   1 -0.19222258692890D+00 -0.10804197951542D-11
   3   1   3   1 -0.31273417843219D+01 -0.55692178165836D-17
 Band:  3
   1   1   1   1 -0.76304734569388D+00 -0.41802472912378D-18
   2   1   1   1  0.26390209306725D+00 -0.52271789475861D-05
   3   1   1   1  0.33408658193958D+00  0.61896284409582D-05
   1   1   2   1  0.26390209306725D+00  0.52271789476015D-05
   2   1   2   1  0.46635264594268D+00 -0.50200594935342D-18
   3   1   2   1 -0.17708221331745D+01  0.96244614001677D-06
   1   1   3   1  0.33408658193958D+00 -0.61896284409697D-05
   2   1   3   1 -0.17708221331745D+01 -0.96244614000768D-06
   3   1   3   1  0.19289837863654D+01 -0.56858242008976D-17
 Band:  4
   1   1   1   1  0.47615526937490D+00  0.27144377372985D-16
   2   1   1   1  0.23890852378458D+00  0.52271777453188D-05
   3   1   1   1  0.10694777844695D+01 -0.61896263826789D-05
   1   1   2   1  0.23890852378458D+00 -0.52271777453385D-05
   2   1   2   1 -0.75324480013469D+00 -0.14619987515064D-17
   3   1   2   1  0.15133894890886D+00 -0.96244840009130D-06
   1   1   3   1  0.10694777844695D+01  0.61896263826539D-05
   2   1   3   1  0.15133894890886D+00  0.96244840009663D-06
   3   1   3   1 -0.69533523561910D+00  0.14152092001807D-16
 K-point:  2.50000000E-01 -2.50000000E-01  2.50000000E-01
 Band:  1
   1   1   1   1 -0.20128522623148D+01 -0.22960144403991D-17
   2   1   1   1  0.79857635600332D+00  0.91629866441586D-14
   3   1   1   1  0.66325685178387D+00 -0.28717949649607D-13
   1   1   2   1  0.79857635600332D+00 -0.91647843380637D-14
   2   1   2   1 -0.20128523043670D+01  0.81834843088941D-19
   3   1   2   1  0.55101922251829D+00  0.36080210769796D-13
   1   1   3   1  0.66325685178387D+00  0.28719293271432D-13
   2   1   3   1  0.55101922251829D+00 -0.36080359915572D-13
   3   1   3   1 -0.16584069871440D+01  0.20844793282721D-17
 Band:  2
   1   1   1   1 -0.34397172150366D+01 -0.77144827018331D-17
   2   1   1   1  0.14611350760747D+01 -0.19278079629857D-12
   3   1   1   1 -0.19222258688436D+00  0.82655054651470D-12
   1   1   2   1  0.14611350760747D+01  0.19277909546211D-12
   2   1   2   1 -0.34397173180005D+01 -0.69455034787556D-18
   3   1   2   1  0.21708052943703D+01 -0.97883117808364D-12
   1   1   3   1 -0.19222258688436D+00 -0.82654114857991D-12
   2   1   3   1  0.21708052943703D+01  0.97883382733791D-12
   3   1   3   1 -0.31273417842475D+01  0.43026868674822D-17
 Band:  3
   1   1   1   1  0.23597644775155D+00 -0.79503497485076D-18
   2   1   1   1 -0.62483475752050D+00 -0.50455994039268D-03
   3   1   1   1 -0.13470546028221D+01 -0.92901522249582D-04
   1   1   2   1 -0.62483475752050D+00  0.50455994039266D-03
   2   1   2   1  0.16445858079718D+00  0.58902046032934D-17
   3   1   2   1  0.16948148179807D+01 -0.59746159170444D-03
   1   1   3   1 -0.13470546028221D+01  0.92901522249581D-04
   2   1   3   1  0.16948148179807D+01  0.59746159170443D-03
   3   1   3   1  0.13262392638449D+01  0.51304434445115D-17
 Band:  4
   1   1   1   1 -0.52286860210596D+00  0.13002488147400D-16
   2   1   1   1  0.11276453743730D+01  0.50455993930983D-03
   3   1   1   1 -0.27242858133594D+00  0.92901522324105D-04
   1   1   2   1  0.11276453743730D+01 -0.50455993930983D-03
   2   1   2   1 -0.45135065694944D+00 -0.22475933838291D-16
   3   1   2   1 -0.29125045162482D+00  0.59746159179455D-03
   1   1   3   1 -0.27242858133594D+00 -0.92901522324152D-04
   2   1   3   1 -0.29125045162482D+00 -0.59746159179457D-03
   3   1   3   1 -0.92590713150386D-01  0.36529573299935D-16
 K-point: -2.50000000E-01 -2.50000000E-01  2.50000000E-01
 Band:  1
   1   1   1   1 -0.38061139252330D+01  0.20551780136190D-17
   2   1   1   1  0.20060295249889D+01  0.66984283366876D-13
   3   1   1   1  0.90004228469818D+00 -0.40880769322666D-13
   1   1   2   1  0.20060295249889D+01 -0.66985033512747D-13
   2   1   2   1 -0.38061139252153D+01  0.11484403051874D-17
   3   1   2   1  0.90004228469043D+00  0.90121609282023D-13
   1   1   3   1  0.90004228469818D+00  0.40874722772472D-13
   2   1   3   1  0.90004228469043D+00 -0.90116818334118D-13
   3   1   3   1 -0.21098919810426D+01 -0.19070633044759D-17
 Band:  2
   1   1   1   1 -0.45418522155181D+00  0.58012470732808D-17
   2   1   1   1  0.18642145776529D+01  0.84419838926708D-13
   3   1   1   1 -0.70501488327251D+00  0.60929715200679D-12
   1   1   2   1  0.18642145776529D+01 -0.84429046989488D-13
   2   1   2   1 -0.45418522160348D+00 -0.12085909944610D-17
   3   1   2   1 -0.70501488324382D+00  0.95877304540588D-12
   1   1   3   1 -0.70501488327251D+00 -0.60929023937491D-12
   2   1   3   1 -0.70501488324382D+00 -0.95876930801916D-12
   3   1   3   1  0.11578625105919D+01 -0.26263760878292D-17
 Band:  3
   1   1   1   1 -0.69456868579337D+00 -0.74010506486141D-20
   2   1   1   1  0.30910268384967D+00  0.39403487864070D-12
   3   1   1   1  0.16002910435625D+00  0.16518231062786D-04
   1   1   2   1  0.30910268384967D+00 -0.39403366438580D-12
   2   1   2   1 -0.69456868579583D+00 -0.34215138440049D-18
   3   1   2   1  0.22543705731452D+00 -0.16518231861028D-04
   1   1   3   1  0.16002910435625D+00 -0.16518231062788D-04
   2   1   3   1  0.22543705731452D+00  0.16518231861020D-04
   3   1   3   1  0.40052927810352D+00  0.10914132280560D-17
 Band:  4
   1   1   1   1  0.29917331895076D+01  0.47819286292544D-18
   2   1   1   1 -0.27637906443444D+01  0.64844626548314D-13
   3   1   1   1 -0.81267220358624D-01 -0.16518228199948D-04
   1   1   2   1 -0.27637906443444D+01 -0.64843739413650D-13
   2   1   2   1  0.29917331895024D+01 -0.15429362287393D-17
   3   1   2   1 -0.14667517331374D+00  0.16518235228112D-04
   1   1   3   1 -0.81267220358624D-01  0.16518228199951D-04
   2   1   3   1 -0.14667517331374D+00 -0.16518235228115D-04
   3   1   3   1 -0.13388501448832D+00 -0.15082339571556D-18
 K-point:  2.50000000E-01  2.50000000E-01 -2.50000000E-01
 Band:  1
   1   1   1   1 -0.38061138542357D+01 -0.11574852950922D-17
   2   1   1   1  0.20060294876234D+01 -0.67398295312490D-13
   3   1   1   1  0.90004226787373D+00  0.40865407084493D-13
   1   1   2   1  0.20060294876234D+01  0.67397392824775D-13
   2   1   2   1 -0.38061138542180D+01  0.21578822847018D-17
   3   1   2   1  0.90004226786597D+00 -0.90528601914987D-13
   1   1   3   1  0.90004226787373D+00 -0.40863555652722D-13
   2   1   3   1  0.90004226786597D+00  0.90521284212163D-13
   3   1   3   1 -0.21098919642815D+01 -0.60333257935351D-18
 Band:  2
   1   1   1   1 -0.45418506889311D+00 -0.84431626145099D-17
   2   1   1   1  0.18642144791979D+01 -0.84471757392568D-13
   3   1   1   1 -0.70501491037316D+00 -0.61004563925391D-12
   1   1   2   1  0.18642144791979D+01  0.84476106041213D-13
   2   1   2   1 -0.45418506894478D+00 -0.14963023745482D-16
   3   1   2   1 -0.70501491034448D+00 -0.95936061598665D-12
   1   1   3   1 -0.70501491037316D+00  0.61005314228784D-12
   2   1   3   1 -0.70501491034448D+00  0.95937288614773D-12
   3   1   3   1  0.11578625375557D+01  0.22779509735186D-17
 Band:  3
   1   1   1   1 -0.69449037480115D+00  0.97274998754879D-18
   2   1   1   1  0.30903740419673D+00 -0.39282091233627D-12
   3   1   1   1  0.15940262352870D+00  0.26043379520556D-04
   1   1   2   1  0.30903740419673D+00  0.39281938843136D-12
   2   1   2   1 -0.69449037480362D+00  0.78495231473378D-18
   3   1   2   1  0.22605050680427D+00 -0.26043378721584D-04
   1   1   3   1  0.15940262352870D+00 -0.26043379520557D-04
   2   1   3   1  0.22605050680427D+00  0.26043378721587D-04
   3   1   3   1  0.40051792837487D+00 -0.11562608450156D-17
 Band:  4
   1   1   1   1  0.29916547390534D+01  0.30393134443273D-17
   2   1   1   1 -0.27637252795743D+01 -0.65995662468031D-13
   3   1   1   1 -0.80640712361307D-01 -0.26043382383486D-04
   1   1   2   1 -0.27637252795743D+01  0.65994471294862D-13
   2   1   2   1  0.29916547390482D+01 -0.38440678923002D-17
   3   1   2   1 -0.14728859563371D+00  0.26043375354788D-04
   1   1   3   1 -0.80640712361307D-01  0.26043382383488D-04
   2   1   3   1 -0.14728859563371D+00 -0.26043375354788D-04
   3   1   3   1 -0.13387368867336D+00 -0.13703735299319D-17
 K-point: -2.50000000E-01  2.50000000E-01 -2.50000000E-01
 Band:  1
   1   1   1   1 -0.20128523043666D+01  0.17567471456614D-17
   2   1   1   1  0.79857635600332D+00 -0.89998637780414D-14
   3   1   1   1  0.66325687244262D+00  0.28696041468118D-13
   1   1   2   1  0.79857635600332D+00  0.89985785500290D-14
   2   1   2   1 -0.20128522623152D+01  0.24362107282770D-18
   3   1   2   1  0.55101920114113D+00 -0.35947643047907D-13
   1   1   3   1  0.66325687244262D+00 -0.28695348823390D-13
   2   1   3   1  0.55101920114113D+00  0.35948850629410D-13
   3   1   3   1 -0.16584069864221D+01  0.84018226787521D-18
 Band:  2
   1   1   1   1 -0.34397173182775D+01 -0.13486565387140D-16
   2   1   1   1  0.14611350760747D+01  0.19301856750867D-12
   3   1   1   1 -0.19222253354587D+00 -0.82726467126160D-12
   1   1   2   1  0.14611350760747D+01 -0.19300394930795D-12
   2   1   2   1 -0.34397172147596D+01  0.77053290478299D-18
   3   1   2   1  0.21708052444364D+01  0.97848602440588D-12
   1   1   3   1 -0.19222253354587D+00  0.82724194793274D-12
   2   1   3   1  0.21708052444364D+01 -0.97849469712135D-12
   3   1   3   1 -0.31273417876144D+01 -0.43503889098849D-17
 Band:  3
   1   1   1   1  0.23504166637344D+00  0.24656567092898D-16
   2   1   1   1 -0.62491410298607D+00  0.13200529241505D-04
   3   1   1   1 -0.13455771473272D+01  0.24305328902143D-05
   1   1   2   1 -0.62491410298607D+00 -0.13200529241541D-04
   2   1   2   1  0.16545560614103D+00  0.77554912117187D-17
   3   1   2   1  0.16954617043093D+01  0.15631064599020D-04
   1   1   3   1 -0.13455771473272D+01 -0.24305328902075D-05
   2   1   3   1  0.16954617043093D+01 -0.15631064599015D-04
   3   1   3   1  0.13242204239372D+01  0.23536752826456D-17
 Band:  4
   1   1   1   1 -0.52193374260365D+00 -0.17187603013699D-16
   2   1   1   1  0.11277247198384D+01 -0.13200528161211D-04
   3   1   1   1 -0.27390607750011D+00 -0.24305329601869D-05
   1   1   2   1  0.11277247198384D+01  0.13200528161195D-04
   2   1   2   1 -0.45234776041741D+00  0.63463195556185D-18
   3   1   2   1 -0.29189730049661D+00 -0.15631064692244D-04
   1   1   3   1 -0.27390607750011D+00  0.24305329602379D-05
   2   1   3   1 -0.29189730049661D+00  0.15631064692265D-04
   3   1   3   1 -0.90571869999292D-01 -0.19104118875570D-16
 K-point:  2.50000000E-01 -2.50000000E-01 -2.50000000E-01
 Band:  1
   1   1   1   1 -0.20128522623124D+01 -0.17070627634612D-17
   2   1   1   1  0.79857635600367D+00  0.11833762498038D-14
   3   1   1   1  0.55101920114167D+00  0.28385952324340D-14
   1   1   2   1  0.79857635600367D+00 -0.11823143740239D-14
   2   1   2   1 -0.20128523043698D+01 -0.33151243362213D-18
   3   1   2   1  0.66325687244628D+00 -0.14805149544075D-14
   1   1   3   1  0.55101920114167D+00 -0.28376222513817D-14
   2   1   3   1  0.66325687244628D+00  0.14766191624814D-14
   3   1   3   1 -0.16584069864267D+01  0.17720583958800D-17
 Band:  2
   1   1   1   1 -0.34397172149165D+01  0.88672731715924D-17
   2   1   1   1  0.14611350760759D+01  0.13246554431117D-12
   3   1   1   1  0.21708052445518D+01  0.86517193060230D-12
   1   1   2   1  0.14611350760759D+01 -0.13247508986302D-12
   2   1   2   1 -0.34397173181285D+01 -0.85881532443518D-17
   3   1   2   1 -0.19222253359042D+00 -0.10810555221838D-11
   1   1   3   1  0.21708052445518D+01 -0.86515362215183D-12
   2   1   3   1 -0.19222253359042D+00  0.10810367351513D-11
   3   1   3   1 -0.31273417876888D+01 -0.69215128237105D-17
 Band:  3
   1   1   1   1 -0.76398779569926D+00 -0.34955580211284D-17
   2   1   1   1  0.26636889310042D+00 -0.10934709331300D-04
   3   1   1   1  0.33124863845500D+00  0.12948053231204D-04
   1   1   2   1  0.26636889310042D+00  0.10934709331312D-04
   2   1   2   1  0.46535821229360D+00  0.11746152878879D-16
   3   1   2   1 -0.17694254524850D+01  0.20133430081603D-05
   1   1   3   1  0.33124863845500D+00 -0.12948053231220D-04
   2   1   3   1 -0.17694254524850D+01 -0.20133430081626D-05
   3   1   3   1  0.19271448952016D+01 -0.69649305504832D-17
 Band:  4
   1   1   1   1  0.47709564125613D+00 -0.89988090363939D-17
   2   1   1   1  0.23644172375140D+00  0.10934710532114D-04
   3   1   1   1  0.10723157654109D+01 -0.12948055288706D-04
   1   1   2   1  0.23644172375140D+00 -0.10934710532082D-04
   2   1   2   1 -0.75225028836139D+00 -0.49376594683686D-17
   3   1   2   1  0.14994222755010D+00 -0.20133407496852D-05
   1   1   3   1  0.10723157654109D+01  0.12948055288714D-04
   2   1   3   1  0.14994222755010D+00  0.20133407496770D-05
   3   1   3   1 -0.69349634121199D+00 -0.87767782885985D-17
 K-point: -2.50000000E-01 -2.50000000E-01 -2.50000000E-01
 Band:  1
   1   1   1   1 -0.36318985845454D+01 -0.32092239041890D-17
   2   1   1   1  0.22636114412958D+01 -0.49105755802753D-14
   3   1   1   1  0.68414372365894D+00  0.26139053918914D-13
   1   1   2   1  0.22636114412958D+01  0.49078201619451D-14
   2   1   2   1 -0.36318985846082D+01  0.13237989217808D-17
   3   1   2   1  0.68414372369068D+00  0.99091009618411D-14
   1   1   3   1  0.68414372365894D+00 -0.26147093944951D-13
   2   1   3   1  0.68414372369068D+00 -0.99096997603321D-14
   3   1   3   1 -0.26102084744677D+01  0.25299281475149D-18
 Band:  2
   1   1   1   1 -0.18094774567753D+01 -0.46829891141954D-17
   2   1   1   1  0.13327219891849D+01 -0.29458011338225D-02
   3   1   1   1  0.44983621524243D+00  0.12957927358143D-01
   1   1   2   1  0.13327219891849D+01  0.29458011338225D-02
   2   1   2   1 -0.17403010005534D+01 -0.11238979949329D-17
   3   1   2   1  0.24082287462200D+00 -0.11644520557241D-01
   1   1   3   1  0.44983621524243D+00 -0.12957927358143D-01
   2   1   3   1  0.24082287462200D+00  0.11644520557241D-01
   3   1   3   1 -0.98676271491857D+00  0.13802197754152D-17
 Band:  3
   1   1   1   1 -0.12213781113807D+01  0.79147109238473D-17
   2   1   1   1  0.31162240295298D+00 -0.51833385630939D-02
   3   1   1   1  0.19437910413635D+00 -0.14480896307456D-01
   1   1   2   1  0.31162240295298D+00  0.51833385630939D-02
   2   1   2   1 -0.90550808399799D+00 -0.28414715869684D-17
   3   1   2   1  0.34938791648004D+00  0.13323620407731D-01
   1   1   3   1  0.19437910413635D+00  0.14480896307456D-01
   2   1   3   1  0.34938791648004D+00 -0.13323620407731D-01
   3   1   3   1 -0.51790808348480D+00 -0.14208391684426D-17
 Band:  4
   1   1   1   1  0.78740775482392D+00 -0.18200222308834D-17
   2   1   1   1 -0.13914343701000D+01  0.81291396967907D-02
   3   1   1   1  0.35105369897766D+00  0.15229689483984D-02
   1   1   2   1 -0.13914343701000D+01 -0.81291396967907D-02
   2   1   2   1  0.40236127132085D+00  0.78100093810530D-18
   3   1   2   1  0.40505822719802D+00 -0.16790998516853D-02
   1   1   3   1  0.35105369897766D+00 -0.15229689483985D-02
   2   1   3   1  0.40505822719802D+00  0.16790998516853D-02
   3   1   3   1 -0.70032045514910D+00 -0.96774862794774D-18
  
 2nd eigenvalue derivatives   - # elements :       9
 qpt  0.00000000E+00  0.00000000E+00  5.00000000E-01   1.0
 K-point:  2.50000000E-01  2.50000000E-01  2.50000000E-01
 Band:  1
   1   1   1   1 -0.26102084539110D+01  0.62213787057095D-17
   2   1   1   1  0.12419207351378D+01 -0.87170165037005D-14
   3   1   1   1  0.68414367692359D+00  0.60527772906973D-13
   1   1   2   1  0.12419207351378D+01  0.87145563284045D-14
   2   1   2   1 -0.26102084538864D+01  0.58009692884591D-18
   3   1   2   1  0.68414367691160D+00  0.44010030850334D-13
   1   1   3   1  0.68414367692359D+00 -0.60534538500472D-13
   2   1   3   1  0.68414367691160D+00 -0.44014268808919D-13
   3   1   3   1 -0.36318984340257D+01  0.61055025132743D-18
 Band:  2
   1   1   1   1 -0.69568009716023D+00  0.99138424362497D-18
   2   1   1   1 -0.40527057956563D-01 -0.10855474977871D-03
   3   1   1   1  0.36374812369961D+00  0.70114553377450D-02
   1   1   2   1 -0.40527057956563D-01  0.10855474977871D-03
   2   1   2   1 -0.78954154447016D+00 -0.13787955891105D-17
   3   1   2   1  0.23623466625448D+00  0.28528974752783D-01
   1   1   3   1  0.36374812369961D+00 -0.70114553377450D-02
   2   1   3   1  0.23623466625448D+00 -0.28528974752783D-01
   3   1   3   1  0.87104688017158D+00 -0.89193409451187D-18
 Band:  3
   1   1   1   1 -0.51160902956570D+00  0.45254179784297D-18
   2   1   1   1 -0.19011886633907D-01 -0.18921464823856D-03
   3   1   1   1  0.18552669706733D+00  0.88136736646969D-03
   1   1   2   1 -0.19011886633907D-01  0.18921464823856D-03
   2   1   2   1 -0.94013488449258D+00 -0.46060729879265D-18
   3   1   2   1  0.71271623873610D+00 -0.32208445945653D-01
   1   1   3   1  0.18552669706733D+00 -0.88136736646969D-03
   2   1   3   1  0.71271623873610D+00  0.32208445945653D-01
   3   1   3   1 -0.12670822110138D+01  0.76661755002919D-18
 Band:  4
   1   1   1   1 -0.99770213728055D+00  0.15771564098751D-17
   2   1   1   1  0.27399191070031D+00  0.29776939860376D-03
   3   1   1   1  0.44599422303558D+00 -0.78928227043536D-02
   1   1   2   1  0.27399191070031D+00 -0.29776939860376D-03
   2   1   2   1 -0.47531483507555D+00 -0.13645785673817D-18
   3   1   2   1  0.46318138822105D-01  0.36794711934769D-02
   1   1   3   1  0.44599422303558D+00  0.78928227043536D-02
   2   1   3   1  0.46318138822105D-01 -0.36794711934769D-02
   3   1   3   1 -0.18474125605588D+01 -0.12105636128104D-16
 K-point: -2.50000000E-01  2.50000000E-01  2.50000000E-01
 Band:  1
   1   1   1   1 -0.16584069859453D+01 -0.35687627350667D-17
   2   1   1   1  0.44413076641836D+00 -0.13302305158352D-14
   3   1   1   1  0.55101920179943D+00 -0.22432173393009D-13
   1   1   2   1  0.44413076641836D+00  0.13308534683225D-14
   2   1   2   1 -0.16584069870819D+01  0.26407216802916D-17
   3   1   2   1  0.66325685225067D+00  0.21569047584561D-13
   1   1   3   1  0.55101920179943D+00  0.22435606863719D-13
   2   1   3   1  0.66325685225067D+00 -0.21571454239960D-13
   3   1   3   1 -0.20128522614093D+01  0.33582762301651D-18
 Band:  2
   1   1   1   1 -0.31273417866084D+01 -0.18617815619797D-17
   2   1   1   1  0.11487585583551D+01  0.21727714723652D-12
   3   1   1   1  0.21708052444500D+01 -0.12968401482315D-11
   1   1   2   1  0.11487585583551D+01 -0.21727331025521D-12
   2   1   2   1 -0.31273417841062D+01  0.16518239770158D-17
   3   1   2   1 -0.19222258694842D+00  0.11653275254562D-11
   1   1   3   1  0.21708052444500D+01  0.12968318767087D-11
[...]
   1   1   2   1  0.36989775769652D+00  0.10253601190142D-02
   2   1   2   1  0.45927787380542D+00 -0.33004977416827D-17
   3   1   2   1 -0.14292134574257D+01 -0.31419786786879D-01
   1   1   3   1  0.36484975974985D+00 -0.12882163700920D-02
   2   1   3   1 -0.14292134574257D+01  0.31419786786879D-01
   3   1   3   1  0.82992407014871D+00 -0.41537045065352D-18
 Band:  3
   1   1   1   1 -0.51776626802569D+00  0.79243803727868D-19
   2   1   1   1  0.34928915377313D+00 -0.39268389203298D-03
   3   1   1   1  0.19550847054112D+00  0.59235811249871D-03
   1   1   2   1  0.34928915377313D+00  0.39268389203298D-03
   2   1   2   1 -0.90939007110957D+00 -0.88124105318522D-18
   3   1   2   1  0.31441745437000D+00  0.31595261228506D-01
   1   1   3   1  0.19550847054112D+00 -0.59235811249871D-03
   2   1   3   1  0.31441745437000D+00 -0.31595261228506D-01
   3   1   3   1 -0.12252122921462D+01 -0.10797267117813D-17
 Band:  4
   1   1   1   1 -0.99503510864044D+00 -0.73589115715643D-18
   2   1   1   1  0.27608210679366D+00  0.14180440107974D-02
   3   1   1   1  0.43491078792818D+00 -0.18805744828292D-02
   1   1   2   1  0.27608210679366D+00 -0.14180440107974D-02
   2   1   2   1 -0.17933356160586D+01  0.32297849517074D-18
   3   1   2   1  0.13677060252665D+01 -0.17547444194157D-03
   1   1   3   1  0.43491078792818D+00  0.18805744828292D-02
   2   1   3   1  0.13677060252665D+01  0.17547444194158D-03
   3   1   3   1 -0.18481595912637D+01  0.62690610721986D-17
  
 2nd eigenvalue derivatives   - # elements :       9
 qpt  5.00000000E-01  5.00000000E-01  5.00000000E-01   1.0
 K-point:  2.50000000E-01  2.50000000E-01  2.50000000E-01
 Band:  1
   1   1   1   1 -0.53473413310701D+01  0.42057596268080D-17
   2   1   1   1  0.17824470934898D+01 -0.19666773729636D-12
   3   1   1   1  0.17824470934910D+01 -0.16533018858825D-12
   1   1   2   1  0.17824470934898D+01  0.19667097547511D-12
   2   1   2   1 -0.53473413310800D+01  0.45735236240739D-17
   3   1   2   1  0.17824470934989D+01 -0.61839970605591D-12
   1   1   3   1  0.17824470934910D+01  0.16533537607110D-12
   2   1   3   1  0.17824470934989D+01  0.61838799709526D-12
   3   1   3   1 -0.53473413310898D+01 -0.19911799233942D-18
 Band:  2
   1   1   1   1 -0.30372065659395D+00 -0.28024930664930D-18
   2   1   1   1  0.39550633990559D+00  0.37910662613062D-02
   3   1   1   1 -0.49207306421830D+00  0.53711634632334D-02
   1   1   2   1  0.39550633990559D+00 -0.37910662613062D-02
   2   1   2   1  0.30018969628622D+00 -0.57756610550832D-18
   3   1   2   1 -0.15004611122036D+01  0.40422466349482D-01
   1   1   3   1 -0.49207306421830D+00 -0.53711634632334D-02
   2   1   3   1 -0.15004611122036D+01 -0.40422466349482D-01
   3   1   3   1  0.35355688549953D+01  0.39743626103946D-18
 Band:  3
   1   1   1   1 -0.39134464573420D+00  0.10822987307402D-17
   2   1   1   1  0.76898768455243D-01  0.66079563423786D-02
   3   1   1   1  0.19295500366072D+00  0.29236143197789D-03
   1   1   2   1  0.76898768455243D-01 -0.66079563423786D-02
   2   1   2   1  0.23658171681611D+01 -0.14377947491248D-17
   3   1   2   1  0.81609516866628D-01 -0.40657113234826D-01
   1   1   3   1  0.19295500366072D+00 -0.29236143197789D-03
   2   1   3   1  0.81609516866628D-01  0.40657113234826D-01
   3   1   3   1 -0.39092573114516D+00 -0.66442045159714D-18
 Band:  4
   1   1   1   1  0.35975803845594D+01  0.86650108576483D-18
   2   1   1   1 -0.14399101252820D+01 -0.10399022603529D-01
   3   1   1   1 -0.66838695635873D+00 -0.56635248950670D-02
   1   1   2   1 -0.14399101252820D+01  0.10399022603529D-01
   2   1   2   1  0.23650821778270D+00  0.90683947595836D-18
   3   1   2   1  0.45134657841806D+00  0.23464688587789D-03
   1   1   3   1 -0.66838695635873D+00  0.56635248950670D-02
   2   1   3   1  0.45134657841806D+00 -0.23464688587789D-03
   3   1   3   1 -0.24212804162143D+00 -0.53293568499390D-19
 K-point: -2.50000000E-01  2.50000000E-01  2.50000000E-01
 Band:  1
   1   1   1   1 -0.18479914620357D+01  0.17364645688362D-18
   2   1   1   1  0.36240099408110D+00  0.73561187782366D-14
   3   1   1   1  0.36240099408685D+00 -0.52115921813680D-13
   1   1   2   1  0.36240099408110D+00 -0.73576136656584D-14
   2   1   2   1 -0.18479914141290D+01  0.81582199265523D-19
   3   1   2   1  0.11231894272852D+01  0.59428933604259D-13
   1   1   3   1  0.36240099408685D+00  0.52115907252186D-13
   2   1   3   1  0.11231894272852D+01 -0.59426859016031D-13
   3   1   3   1 -0.18479914141405D+01  0.18739286822435D-17
 Band:  2
   1   1   1   1 -0.16447596230560D+01 -0.28320891087932D-16
   2   1   1   1  0.30972076642483D+00  0.11062953538919D-12
   3   1   1   1  0.30972076634329D+00 -0.32685727710777D-12
   1   1   2   1  0.30972076642483D+00 -0.11063061384654D-12
   2   1   2   1 -0.16447594971753D+01  0.14377370194036D-17
   3   1   2   1  0.10253179641797D+01  0.43748246087541D-12
   1   1   3   1  0.30972076634329D+00  0.32686403795990D-12
   2   1   3   1  0.10253179641797D+01 -0.43747725772260D-12
   3   1   3   1 -0.16447594970089D+01 -0.25308735535788D-17
 Band:  3
   1   1   1   1 -0.83615768196676D+00  0.16312253294626D-16
   2   1   1   1  0.16025038633098D+00 -0.65500179153579D-05
   3   1   1   1  0.13658439710517D+00  0.65500176857916D-05
   1   1   2   1  0.16025038633098D+00  0.65500179153522D-05
   2   1   2   1  0.43234155798938D+00 -0.43838728807950D-17
   3   1   2   1 -0.72917634119574D+00 -0.77356025435222D-12
   1   1   3   1  0.13658439710517D+00 -0.65500176857893D-05
   2   1   3   1 -0.72917634119574D+00  0.77356799786711D-12
   3   1   3   1  0.43234155783303D+00  0.14406389810981D-17
 Band:  4
   1   1   1   1  0.43234168473139D+00  0.30027121424274D-17
   2   1   1   1  0.13658436844362D+00  0.65500178275022D-05
   3   1   1   1  0.16025035762546D+00 -0.65500174014265D-05
   1   1   2   1  0.13658436844362D+00 -0.65500178274954D-05
   2   1   2   1 -0.83615763543929D+00 -0.10396638603881D-16
   3   1   2   1  0.53932290928726D+00  0.40138345408215D-12
   1   1   3   1  0.16025035762546D+00  0.65500174014093D-05
   2   1   3   1  0.53932290928726D+00 -0.40138927082491D-12
   3   1   3   1 -0.83615763519370D+00  0.13305254689646D-16
 K-point:  2.50000000E-01 -2.50000000E-01  2.50000000E-01
 Band:  1
   1   1   1   1 -0.18479914141194D+01 -0.13254259730071D-17
   2   1   1   1  0.36240099408116D+00  0.18409607618668D-13
   3   1   1   1  0.11231894272815D+01  0.12037491407567D-13
   1   1   2   1  0.36240099408116D+00 -0.18407677415919D-13
   2   1   2   1 -0.18479914620450D+01 -0.14444817974965D-17
   3   1   2   1  0.36240099409228D+00 -0.30199668199567D-13
   1   1   3   1  0.11231894272815D+01 -0.12035148960274D-13
   2   1   3   1  0.36240099409228D+00  0.30199004614830D-13
   3   1   3   1 -0.18479914141423D+01  0.15188909804877D-17
 Band:  2
   1   1   1   1 -0.16447594972465D+01  0.90104104611362D-17
   2   1   1   1  0.30972076642455D+00  0.63033015062769D-13
   3   1   1   1  0.10253179641686D+01  0.13452031826365D-12
   1   1   2   1  0.30972076642455D+00 -0.63037869929944D-13
   2   1   2   1 -0.16447596229824D+01  0.55913516645003D-17
   3   1   2   1  0.30972076625957D+00 -0.19725864367584D-12
   1   1   3   1  0.10253179641686D+01 -0.13451756486375D-12
   2   1   3   1  0.30972076625957D+00  0.19724795452037D-12
   3   1   3   1 -0.16447594969138D+01 -0.19573386014530D-17
 Band:  3
   1   1   1   1 -0.16501182544285D+00  0.12106760320569D-17
   2   1   1   1 -0.68128072951871D+00 -0.63224861700776D-03
   3   1   1   1 -0.13182293035860D+00  0.49661414989788D-12
   1   1   2   1 -0.68128072951871D+00  0.63224861700777D-03
   2   1   2   1 -0.23880421642410D+00 -0.55539266870623D-17
   3   1   2   1  0.97811548596117D+00 -0.63224861711600D-03
   1   1   3   1 -0.13182293035860D+00 -0.49659923146727D-12
   2   1   3   1  0.97811548596117D+00  0.63224861711598D-03
   3   1   3   1 -0.16501182648382D+00 -0.82989910046605D-17
 Band:  4
   1   1   1   1 -0.23880425205538D+00 -0.58353644097805D-17
   2   1   1   1  0.97811548429381D+00  0.63224861696513D-03
   3   1   1   1 -0.58030501546005D-01 -0.33480826894002D-12
   1   1   2   1  0.97811548429381D+00 -0.63224861696515D-03
   2   1   2   1 -0.16501178076288D+00 -0.91412511387484D-17
   3   1   2   1 -0.68128073127586D+00  0.63224861699654D-03
   1   1   3   1 -0.58030501546005D-01  0.33482747340191D-12
   2   1   3   1 -0.68128073127586D+00 -0.63224861699651D-03
   3   1   3   1 -0.23880425083593D+00 -0.96692432296531D-17
 K-point: -2.50000000E-01 -2.50000000E-01  2.50000000E-01
 Band:  1
   1   1   1   1 -0.18479914680947D+01  0.82231733169655D-18
   2   1   1   1  0.11231894689733D+01 -0.36779166032602D-14
   3   1   1   1  0.36240098810779D+00  0.39525909173130D-13
   1   1   2   1  0.11231894689733D+01  0.36797781032633D-14
   2   1   2   1 -0.18479914681061D+01 -0.60459379018291D-18
   3   1   2   1  0.36240098811363D+00  0.31840750275388D-13
   1   1   3   1  0.36240098810779D+00 -0.39525123818961D-13
   2   1   3   1  0.36240098811363D+00 -0.31841200419049D-13
   3   1   3   1 -0.18479914200384D+01 -0.81159116093755D-18
 Band:  2
   1   1   1   1 -0.16447596373767D+01 -0.83209384992374D-17
   2   1   1   1  0.10253180788071D+01 -0.13723414194789D-12
   3   1   1   1  0.30972075041414D+00  0.34354806133792D-12
   1   1   2   1  0.10253180788071D+01  0.13724907087814D-12
   2   1   2   1 -0.16447596372103D+01 -0.21485529711034D-17
   3   1   2   1  0.30972075032964D+00  0.19438723506092D-12
   1   1   3   1  0.30972075041414D+00 -0.34354988975269D-12
   2   1   3   1  0.30972075032964D+00 -0.19438788549201D-12
   3   1   3   1 -0.16447595145437D+01 -0.26230248644836D-17
 Band:  3
   1   1   1   1 -0.83551898740973D+00 -0.95823560502943D-17
   2   1   1   1  0.53868422937631D+00 -0.23293853396779D-11
   3   1   1   1  0.10930009384724D+00  0.24849716186341D-04
   1   1   2   1  0.53868422937631D+00  0.23294082286883D-11
   2   1   2   1 -0.83551898760979D+00 -0.10480784354241D-17
   3   1   2   1  0.18753471369558D+00 -0.24849717133151D-04
   1   1   3   1  0.10930009384724D+00 -0.24849716186346D-04
   2   1   3   1  0.18753471369558D+00  0.24849717133150D-04
   3   1   3   1  0.43170288776033D+00  0.25771881655800D-17
 Band:  4
   1   1   1   1  0.43170300097460D+00  0.42668337581952D-17
   2   1   1   1 -0.72853773161611D+00  0.66526212245145D-13
   3   1   1   1  0.18753467096764D+00 -0.24849711384282D-04
   1   1   2   1 -0.72853773161611D+00 -0.66523165331311D-13
   2   1   2   1  0.43170300126392D+00 -0.21222983427446D-17
   3   1   2   1  0.10930005107510D+00  0.24849719701385D-04
   1   1   3   1  0.18753467096764D+00  0.24849711384281D-04
   2   1   3   1  0.10930005107510D+00 -0.24849719701380D-04
   3   1   3   1 -0.83551895575387D+00  0.71225983535269D-17
 K-point:  2.50000000E-01  2.50000000E-01 -2.50000000E-01
 Band:  1
   1   1   1   1 -0.18479914141218D+01 -0.80593630779662D-18
   2   1   1   1  0.11231894272778D+01  0.37195674346685D-14
   3   1   1   1  0.36240099408688D+00 -0.39428622221623D-13
   1   1   2   1  0.11231894272778D+01 -0.37205668581936D-14
   2   1   2   1 -0.18479914141332D+01 -0.18001485055503D-17
   3   1   2   1  0.36240099409272D+00 -0.31814843232073D-13
   1   1   3   1  0.36240099408688D+00  0.39429476667162D-13
   2   1   3   1  0.36240099409272D+00  0.31815092362365D-13
   3   1   3   1 -0.18479914620547D+01  0.71549858612364D-18
 Band:  2
   1   1   1   1 -0.16447594971549D+01  0.69697472472863D-17
   2   1   1   1  0.10253179641595D+01  0.13745118345767D-12
   3   1   1   1  0.30972076634306D+00 -0.34348099647197D-12
   1   1   2   1  0.10253179641595D+01 -0.13744494364641D-12
   2   1   2   1 -0.16447594969886D+01 -0.93809437370800D-18
   3   1   2   1  0.30972076625856D+00 -0.19419299251284D-12
   1   1   3   1  0.30972076634306D+00  0.34347464003991D-12
   2   1   3   1  0.30972076625856D+00  0.19418290210355D-12
   3   1   3   1 -0.16447596229115D+01 -0.48204117935534D-17
 Band:  3
   1   1   1   1 -0.83549203269075D+00  0.75984933031555D-17
   2   1   1   1  0.53865730652446D+00  0.22700761044368D-11
   3   1   1   1  0.10855851184347D+00  0.39179165974075D-04
   1   1   2   1  0.53865730652446D+00 -0.22700911374144D-11
   2   1   2   1 -0.83549203248582D+00  0.12861678890113D-16
   3   1   2   1  0.18827621443228D+00 -0.39179165021747D-04
   1   1   3   1  0.10855851184347D+00 -0.39179165974079D-04
   2   1   3   1  0.18827621443228D+00  0.39179165021738D-04
   3   1   3   1  0.43167608172957D+00 -0.23479163058315D-18
 Band:  4
   1   1   1   1  0.43167595523471D+00  0.30935788978927D-17
   2   1   1   1 -0.72851073842722D+00 -0.82405644405711D-14
   3   1   1   1  0.18827624288682D+00 -0.39179170775847D-04
   1   1   2   1 -0.72851073842722D+00  0.82347491357048D-14
   2   1   2   1  0.43167595511903D+00  0.21787284720136D-17
   3   1   2   1  0.10855854025383D+00  0.39179162452669D-04
   1   1   3   1  0.18827624288682D+00  0.39179170775850D-04
   2   1   3   1  0.10855854025383D+00 -0.39179162452658D-04
   3   1   3   1 -0.83549207886925D+00 -0.25457498725307D-16
 K-point: -2.50000000E-01  2.50000000E-01 -2.50000000E-01
 Band:  1
   1   1   1   1 -0.18479914680923D+01  0.34172060049210D-18
   2   1   1   1  0.36240098810207D+00 -0.18269619027278D-13
   3   1   1   1  0.11231894689770D+01 -0.12006297178068D-13
   1   1   2   1  0.36240098810207D+00  0.18268947859245D-13
   2   1   2   1 -0.18479914200287D+01 -0.79072101290792D-18
   3   1   2   1  0.36240098811320D+00  0.30254824886830D-13
   1   1   3   1  0.11231894689770D+01  0.12007813634041D-13
   2   1   3   1  0.36240098811320D+00 -0.30253850051914D-13
   3   1   3   1 -0.18479914681152D+01  0.22701730496204D-18
 Band:  2
   1   1   1   1 -0.16447596374683D+01  0.43769009588249D-17
   2   1   1   1  0.30972075049563D+00 -0.63325946516223D-13
   3   1   1   1  0.10253180788162D+01 -0.13400447777988D-12
   1   1   2   1  0.30972075049563D+00  0.63339864975496D-13
   2   1   2   1 -0.16447595146146D+01 -0.60127638651030D-17
   3   1   2   1  0.30972075033065D+00  0.19734512831235D-12
   1   1   3   1  0.10253180788162D+01  0.13399825300964D-12
   2   1   3   1  0.30972075033065D+00 -0.19734833317557D-12
   3   1   3   1 -0.16447596371356D+01  0.12479983358138D-17
 Band:  3
   1   1   1   1 -0.16600843713583D+00  0.89408436161969D-17
   2   1   1   1 -0.68135585344573D+00  0.16541179296715D-04
   3   1   1   1 -0.13082630156942D+00 -0.20285001094365D-12
   1   1   2   1 -0.68135585344573D+00 -0.16541179296712D-04
   2   1   2   1 -0.23780758119776D+00 -0.16639965150989D-16
   3   1   2   1  0.97819061589470D+00  0.16541179495555D-04
   1   1   3   1 -0.13082630156942D+00  0.20283580469989D-12
   2   1   3   1  0.97819061589470D+00 -0.16541179495557D-04
   3   1   3   1 -0.16600844678924D+00  0.56810318576496D-17
 Band:  4
   1   1   1   1 -0.23780754934147D+00 -0.59146212014424D-17
   2   1   1   1  0.97819061830541D+00 -0.16541179255375D-04
   3   1   1   1 -0.59027200672227D-01  0.37378011004801D-13
   1   1   2   1  0.97819061830541D+00  0.16541179255383D-04
   2   1   2   1 -0.16600848684307D+00  0.51134181675097D-17
   3   1   2   1 -0.68135585112481D+00 -0.16541179370953D-04
   1   1   3   1 -0.59027200672227D-01 -0.37361208438774D-13
   2   1   3   1 -0.68135585112481D+00  0.16541179370942D-04
   3   1   3   1 -0.23780753950958D+00 -0.36785440427211D-17
 K-point:  2.50000000E-01 -2.50000000E-01 -2.50000000E-01
 Band:  1
   1   1   1   1 -0.18479914200193D+01 -0.43543451171293D-18
   2   1   1   1  0.36240098810201D+00 -0.72511901374269D-14
   3   1   1   1  0.36240098810776D+00  0.52158628143700D-13
   1   1   2   1  0.36240098810201D+00  0.72524071337948D-14
   2   1   2   1 -0.18479914681019D+01 -0.27634914206091D-17
   3   1   2   1  0.11231894689807D+01 -0.59322952979557D-13
   1   1   3   1  0.36240098810776D+00 -0.52157998874642D-13
   2   1   3   1  0.11231894689807D+01  0.59324291702684D-13
   3   1   3   1 -0.18479914681134D+01  0.91235439119242D-18
 Band:  2
   1   1   1   1 -0.16447595146882D+01  0.89005379248261D-17
   2   1   1   1  0.30972075049591D+00 -0.11066921697662D-12
   3   1   1   1  0.30972075041436D+00  0.32707614337513D-12
   1   1   2   1  0.30972075049591D+00  0.11066192203696D-12
   2   1   2   1 -0.16447596373970D+01  0.32058141501783D-17
   3   1   2   1  0.10253180788273D+01 -0.43763371939384D-12
   1   1   3   1  0.30972075041436D+00 -0.32707943947700D-12
   2   1   3   1  0.10253180788273D+01  0.43762658272074D-12
   3   1   3   1 -0.16447596372307D+01  0.89239737158416D-17
 Band:  3
   1   1   1   1 -0.83612974756562D+00 -0.13919792454561D-17
   2   1   1   1  0.16258616353801D+00 -0.13701949572086D-04
   3   1   1   1  0.13424855872904D+00  0.13701949800798D-04
   1   1   2   1  0.16258616353801D+00  0.13701949572079D-04
   2   1   2   1  0.43231379273182D+00  0.17736372229901D-17
   3   1   2   1 -0.72914852321635D+00  0.74693579934234D-12
   1   1   3   1  0.13424855872904D+00 -0.13701949800792D-04
   2   1   3   1 -0.72914852321635D+00 -0.74692938392522D-12
   3   1   3   1  0.43231379272552D+00 -0.19086116990931D-17
 Band:  4
   1   1   1   1  0.43231367947640D+00  0.33746781909014D-17
   2   1   1   1  0.13424860132117D+00  0.13701949659641D-04
   3   1   1   1  0.16258620608616D+00 -0.13701950084896D-04
   1   1   2   1  0.13424860132117D+00 -0.13701949659657D-04
   2   1   2   1 -0.83612977916081D+00 -0.14580967267251D-16
   3   1   2   1  0.53929502097082D+00 -0.37543907223877D-12
   1   1   3   1  0.16258620608616D+00  0.13701950084889D-04
   2   1   3   1  0.53929502097082D+00  0.37544064956968D-12
   3   1   3   1 -0.83612977906526D+00  0.18513071571125D-16
 K-point: -2.50000000E-01 -2.50000000E-01 -2.50000000E-01
 Band:  1
   1   1   1   1 -0.53473414784035D+01 -0.56675877535095D-17
   2   1   1   1  0.17824471604595D+01  0.19546177804250D-12
   3   1   1   1  0.17824471604608D+01  0.16519995061500D-12
   1   1   2   1  0.17824471604595D+01 -0.19546111884274D-12
   2   1   2   1 -0.53473414784134D+01 -0.12896431025960D-17
   3   1   2   1  0.17824471604686D+01  0.61739069562498D-12
   1   1   3   1  0.17824471604608D+01 -0.16520229915238D-12
   2   1   3   1  0.17824471604686D+01 -0.61739048884881D-12
   3   1   3   1 -0.53473414784233D+01 -0.16540169658188D-17
 Band:  2
   1   1   1   1 -0.30369909112293D+00  0.28564762413643D-18
   2   1   1   1  0.39552915988904D+00 -0.37956468040023D-02
   3   1   1   1 -0.49214353694074D+00 -0.53841271024788D-02
   1   1   2   1  0.39552915988904D+00  0.37956468040023D-02
   2   1   2   1  0.30015507961935D+00 -0.27345344697389D-18
   3   1   2   1 -0.15004262562569D+01 -0.40484203640127D-01
   1   1   3   1 -0.49214353694074D+00  0.53841271024788D-02
   2   1   3   1 -0.15004262562569D+01  0.40484203640127D-01
   3   1   3   1  0.35355947600869D+01  0.85980478408238D-18
 Band:  3
   1   1   1   1 -0.39134191228839D+00  0.43923588855195D-18
   2   1   1   1  0.76756035987131D-01 -0.66787001126684D-02
   3   1   1   1  0.19295656637387D+00 -0.29455688889971D-03
   1   1   2   1  0.76756035987131D-01  0.66787001126684D-02
   2   1   2   1  0.23659463869588D+01  0.18649001850767D-18
   3   1   2   1  0.81617638972134D-01  0.40710301386534D-01
   1   1   3   1  0.19295656637387D+00  0.29455688889971D-03
   2   1   3   1  0.81617638972134D-01 -0.40710301386534D-01
   3   1   3   1 -0.39092460240523D+00  0.19917943624629D-18
 Band:  4
   1   1   1   1  0.35975561762532D+01 -0.73584089029296D-18
   2   1   1   1 -0.14397902539839D+01  0.10474346916513D-01
   3   1   1   1 -0.66831808753606D+00  0.56786839912334D-02
   1   1   2   1 -0.14397902539839D+01 -0.10474346916513D-01
   2   1   2   1  0.23641370626235D+00  0.51037593942214D-18
   3   1   2   1  0.45130355917921D+00 -0.22609774694205D-03
   1   1   3   1 -0.66831808753606D+00 -0.56786839912334D-02
   2   1   3   1  0.45130355917921D+00  0.22609774694206D-03
   3   1   3   1 -0.24215498484236D+00 -0.64197171356194D-18
