
 **** DERIVATIVE DATABASE ****    
+DDB, Version number    100401

 He BCC conventional cell  DDB file

    usepaw         0
     natom         2
      nkpt         4
    nsppol         1
      nsym         1
    ntypat         1
    occopt         1
     nband         8
     acell  0.43000000000000D+01  0.43000000000000D+01  0.43000000000000D+01
       amu  0.40026020000000D+01
   dilatmx  0.10000000000000D+01
      ecut  0.80000000000000D+01
    ecutsm  0.00000000000000D+00
     intxc         0
      iscf         7
       ixc         1
       kpt  0.00000000000000D+00  0.50000000000000D+00  0.00000000000000D+00
            0.50000000000000D+00  0.00000000000000D+00  0.00000000000000D+00
            0.00000000000000D+00  0.00000000000000D+00  0.50000000000000D+00
            0.50000000000000D+00  0.50000000000000D+00  0.50000000000000D+00
    kptnrm  0.10000000000000D+01
     ngfft        12   12   12
    nspden         1
   nspinor         1
       occ  0.20000000000000D+01  0.20000000000000D+01  0.00000000000000D+00
            0.00000000000000D+00  0.00000000000000D+00  0.00000000000000D+00
            0.00000000000000D+00  0.00000000000000D+00
     rprim  0.10000000000000D+01  0.00000000000000D+00  0.00000000000000D+00
            0.00000000000000D+00  0.10000000000000D+01  0.00000000000000D+00
            0.00000000000000D+00  0.00000000000000D+00  0.10000000000000D+01
  dfpt_sciss  0.00000000000000D+00
    spinat  0.00000000000000D+00  0.00000000000000D+00  0.00000000000000D+00
            0.00000000000000D+00  0.00000000000000D+00  0.00000000000000D+00
    symafm         1
    symrel         1    0    0    0    1    0    0    0    1
     tnons  0.00000000000000D+00  0.00000000000000D+00  0.00000000000000D+00
    tolwfr  0.10000000000000D+01
   tphysel  0.00000000000000D+00
    tsmear  0.10000000000000D-01
     typat         1    1
       wtk  0.25000000000000D+00  0.25000000000000D+00  0.25000000000000D+00
            0.25000000000000D+00
      xred  0.00000000000000D+00  0.00000000000000D+00  0.00000000000000D+00
            0.50000000000000D+00  0.50000000000000D+00  0.50000000000000D+00
     znucl  0.20000000000000D+01
      zion  0.20000000000000D+01
 
  Description of the potentials (KB energies)
  vrsio8 (for pseudopotentials)=100401
  usepaw =  0
  dimekb =  1       lmnmax=  1
  Atom type=    1   pspso=  0   nekb=   0
  iln lpsang iproj  ekb(:)
 
 **** Database of total energy derivatives ****
 Number of data blocks=    4
  
 2nd derivatives (non-stat.)  - # elements :      36
 qpt  0.00000000E+00  0.00000000E+00  0.00000000E+00   1.0
   1   1   1   1  0.77957737021049D+00  0.00000000000000D+00
   2   1   1   1  0.67636075649733D-13  0.00000000000000D+00
   3   1   1   1 -0.55593212486391D-12  0.00000000000000D+00
   1   2   1   1 -0.77957697413546D+00  0.00000000000000D+00
   2   2   1   1  0.20820784235627D-11  0.00000000000000D+00
   3   2   1   1  0.24768563925334D-11  0.00000000000000D+00
   1   1   2   1  0.13849315997034D-12  0.00000000000000D+00
   2   1   2   1  0.77957736953928D+00  0.00000000000000D+00
   3   1   2   1 -0.64327155537466D-12  0.00000000000000D+00
   1   2   2   1  0.20559418892283D-11  0.00000000000000D+00
   2   2   2   1 -0.77957697372300D+00  0.00000000000000D+00
   3   2   2   1  0.23416292330118D-11  0.00000000000000D+00
   1   1   3   1 -0.74375211368166D-12  0.00000000000000D+00
   2   1   3   1 -0.90688319477171D-12  0.00000000000000D+00
   3   1   3   1  0.77957737283222D+00  0.00000000000000D+00
   1   2   3   1  0.25936258972842D-11  0.00000000000000D+00
   2   2   3   1  0.24848819943380D-11  0.00000000000000D+00
   3   2   3   1 -0.77957697555442D+00  0.00000000000000D+00
   1   1   1   2 -0.77957697413546D+00  0.00000000000000D+00
   2   1   1   2  0.20784600216949D-11  0.00000000000000D+00
   3   1   1   2  0.24727230759484D-11  0.00000000000000D+00
   1   2   1   2  0.77957736974025D+00  0.00000000000000D+00
   2   2   1   2 -0.72888269621610D-12  0.00000000000000D+00
   3   2   1   2 -0.22383852916328D-12  0.00000000000000D+00
   1   1   2   2  0.20605390434332D-11  0.00000000000000D+00
   2   1   2   2 -0.77957697372300D+00  0.00000000000000D+00
   3   1   2   2  0.23436696340514D-11  0.00000000000000D+00
   1   2   2   2 -0.65971801243848D-12  0.00000000000000D+00
   2   2   2   2  0.77957736906883D+00  0.00000000000000D+00
   3   2   2   2  0.17735534107326D-13  0.00000000000000D+00
   1   1   3   2  0.25972834579874D-11  0.00000000000000D+00
   2   1   3   2  0.24834723575179D-11  0.00000000000000D+00
   3   1   3   2 -0.77957697555442D+00  0.00000000000000D+00
   1   2   3   2 -0.41190431872897D-12  0.00000000000000D+00
   2   2   3   2 -0.24283675020007D-12  0.00000000000000D+00
   3   2   3   2  0.77957737236469D+00  0.00000000000000D+00
  
 2nd derivatives (non-stat.)  - # elements :      36
 qpt  0.00000000E+00  5.00000000E-01  5.00000000E-01   1.0
   1   1   1   1  0.25559079502864D+01  0.00000000000000D+00
   2   1   1   1 -0.99194947167739D-10  0.66575007285879D-16
   3   1   1   1 -0.61221371154076D-10 -0.26856493604052D-15
   1   2   1   1 -0.41819512093645D-10 -0.91832576949252D-16
   2   2   1   1  0.12663761814736D-09  0.18719563120600D-15
   3   2   1   1  0.14863910124816D-09 -0.35708176103213D-16
   1   1   2   1  0.70706095105159D-11 -0.24444573543032D-15
   2   1   2   1  0.28832862714824D+01  0.00000000000000D+00
   3   1   2   1  0.38914932335210D-08  0.45715589882651D-16
   1   2   2   1 -0.11882367137042D-10  0.76319282727615D-16
   2   2   2   1 -0.36291912839049D-08 -0.15638810861286D-15
   3   2   2   1 -0.16028284000335D+01  0.15743629995670D-15
   1   1   3   1 -0.11387776666510D-10  0.24338873322260D-15
   2   1   3   1  0.37285213368807D-08  0.29079757078279D-15
   3   1   3   1  0.28832862786410D+01  0.00000000000000D+00
   1   2   3   1 -0.11283385998267D-10  0.82868328029638D-16
   2   2   3   1 -0.16028284048825D+01  0.12292109408313D-15
   3   2   3   1 -0.34505095130665D-08 -0.15224820648004D-15
   1   1   1   2 -0.41818911514916D-10  0.21425932203472D-16
   2   1   1   2  0.12668347913882D-09  0.72083724551827D-16
   3   1   1   2  0.14859961641733D-09  0.24493012351802D-15
   1   2   1   2  0.25559079498896D+01  0.00000000000000D+00
   2   2   1   2 -0.99808366994701D-10 -0.17496543330133D-15
   3   2   1   2 -0.60934314838515D-10 -0.18532985388627D-15
   1   1   2   2 -0.11927863594696D-10 -0.10085909535698D-15
   2   1   2   2 -0.36291905158155D-08 -0.22118943658424D-16
   3   1   2   2 -0.16028284000345D+01  0.20269736629976D-15
   1   2   2   2  0.64510798290201D-11 -0.19696043931932D-15
   2   2   2   2  0.28832862711035D+01  0.00000000000000D+00
   3   2   2   2  0.38921080462375D-08 -0.79102958265491D-16
   1   1   3   2 -0.11250875248438D-10  0.79122517928473D-16
   2   1   3   2 -0.16028284048816D+01  0.27825898906199D-16
   3   1   3   2 -0.34505101200997D-08 -0.50710917516053D-16
   1   2   3   2 -0.11101152701740D-10  0.16316451051037D-15
   2   2   3   2  0.37291382719135D-08  0.41475618072683D-16
   3   2   3   2  0.28832862782632D+01  0.00000000000000D+00
  
 2nd derivatives (non-stat.)  - # elements :      36
 qpt  5.00000000E-01  0.00000000E+00  5.00000000E-01   1.0
   1   1   1   1  0.28832862775776D+01  0.00000000000000D+00
   2   1   1   1  0.68395363024906D-11  0.31556417453622D-16
   3   1   1   1  0.39529965414852D-08  0.12469055612684D-15
   1   2   1   1 -0.36806600974807D-08 -0.23498630498246D-15
   2   2   1   1 -0.11592239165938D-10  0.32376420560999D-16
   3   2   1   1 -0.16028284055368D+01  0.35000208950780D-15
   1   1   2   1 -0.87082165767864D-10  0.80560935436504D-16
   2   1   2   1  0.25559079506068D+01  0.00000000000000D+00
   3   1   2   1 -0.57974566662049D-10  0.22365887148560D-16
   1   2   2   1  0.12010364579196D-09 -0.22372588453794D-18
   2   2   2   1 -0.42238960616816D-10 -0.12376731234194D-15
   3   2   2   1  0.13780192778963D-09  0.39045278315213D-18
   1   1   3   1  0.37807538757522D-08  0.19023744985753D-15
   2   1   3   1 -0.10110701364542D-10 -0.70501600720286D-16
   3   1   3   1  0.28832862833795D+01  0.00000000000000D+00
   1   2   3   1 -0.16028284093424D+01  0.54267050978109D-15
   2   2   3   1 -0.11146609079729D-10  0.40376564683003D-16
   3   2   3   1 -0.34907630994964D-08 -0.29397900778644D-15
   1   1   1   2 -0.36806622023429D-08 -0.28087568457146D-15
   2   1   1   2 -0.11487419382772D-10  0.32317641295771D-16
   3   1   1   2 -0.16028284055373D+01 -0.32781017610289D-15
   1   2   1   2  0.28832862771968D+01  0.00000000000000D+00
   2   2   1   2  0.62006056400859D-11 -0.10085926055902D-15
   3   2   1   2  0.39533180982766D-08  0.11356774465387D-15
   1   1   2   2  0.12001901115978D-09  0.31224154111248D-15
   2   1   2   2 -0.42238840091166D-10  0.71021137777876D-16
   3   1   2   2  0.13779082612018D-09 -0.33447172056996D-16
   1   2   2   2 -0.87708562954349D-10  0.57794406003339D-16
   2   2   2   2  0.25559079502107D+01  0.00000000000000D+00
   3   2   2   2 -0.57411570205794D-10 -0.40147631795403D-15
   1   1   3   2 -0.16028284093420D+01  0.16724966865287D-15
   2   1   3   2 -0.11147319280740D-10  0.53943695287564D-16
   3   1   3   2 -0.34907631757639D-08  0.25786758879296D-15
   1   2   3   2  0.37810718303833D-08 -0.24991401697111D-15
   2   2   3   2 -0.95319225882848D-11 -0.22779136250233D-16
   3   2   3   2  0.28832862830027D+01  0.00000000000000D+00
  
 2nd derivatives (non-stat.)  - # elements :      36
 qpt  5.00000000E-01  5.00000000E-01  0.00000000E+00   1.0
   1   1   1   1  0.28832862530128D+01  0.00000000000000D+00
   2   1   1   1  0.37301019239569D-08 -0.17756321786604D-15
   3   1   1   1  0.45579001283818D-11 -0.80788209012308D-16
   1   2   1   1 -0.34961444069487D-08 -0.55103959534109D-16
   2   2   1   1 -0.16028283819139D+01  0.16027473483834D-15
   3   2   1   1 -0.12199386265706D-10 -0.36028827431284D-16
   1   1   2   1  0.37259886508437D-08 -0.21167916647121D-15
   2   1   2   1  0.28832862516559D+01  0.00000000000000D+00
   3   1   2   1  0.51467755441595D-11 -0.20256879425091D-15
   1   2   2   1 -0.16028283808659D+01 -0.50614747879999D-16
   2   2   2   1 -0.34921566096245D-08  0.11660585082365D-15
   3   2   2   1 -0.12427134473220D-10 -0.61492482410341D-16
   1   1   3   1 -0.10675120489125D-09 -0.18269789896341D-15
   2   1   3   1 -0.11522001294821D-09 -0.49883486203533D-16
   3   1   3   1  0.25559079492966D+01  0.00000000000000D+00
   1   2   3   1  0.17215583106595D-09 -0.21504282336042D-16
   2   2   3   1  0.16834921797863D-09  0.13519415629547D-15
   3   2   3   1 -0.41162914560313D-10 -0.42927827329382D-16
   1   1   1   2 -0.34961439574933D-08 -0.31702419744620D-16
   2   1   1   2 -0.16028283819123D+01  0.26603807106892D-15
   3   1   1   2 -0.12185265991011D-10  0.13584965280583D-15
   1   2   1   2  0.28832862526294D+01  0.00000000000000D+00
   2   2   1   2  0.37293226690713D-08 -0.26053006589633D-15
   3   2   1   2  0.48337671399133D-11  0.75048032122338D-16
   1   1   2   2 -0.16028283808675D+01 -0.33189117031495D-15
   2   1   2   2 -0.34921564915253D-08 -0.15488398859498D-15
   3   1   2   2 -0.12435045093145D-10 -0.85267655333299D-16
   1   2   2   2  0.37252095680550D-08  0.21893508851764D-15
   2   2   2   2  0.28832862512755D+01  0.00000000000000D+00
   3   2   2   2  0.57132152033463D-11  0.16333742254761D-15
   1   1   3   2  0.17215187535102D-09  0.80810983785555D-16
   2   1   3   2  0.16836246710887D-09 -0.11968769701541D-15
   3   1   3   2 -0.41162520106961D-10  0.17216235242317D-16
   1   2   3   2 -0.10648164411706D-09 -0.34394152455940D-16
   2   2   3   2 -0.11466441205600D-09  0.14210115384663D-15
   3   2   3   2  0.25559079489012D+01  0.00000000000000D+00

 List of bloks and their characteristics 
  
 2nd derivatives (non-stat.)  - # elements :      36
 qpt  0.00000000E+00  0.00000000E+00  0.00000000E+00   1.0
  
 2nd derivatives (non-stat.)  - # elements :      36
 qpt  0.00000000E+00  5.00000000E-01  5.00000000E-01   1.0
  
 2nd derivatives (non-stat.)  - # elements :      36
 qpt  5.00000000E-01  0.00000000E+00  5.00000000E-01   1.0
  
 2nd derivatives (non-stat.)  - # elements :      36
 qpt  5.00000000E-01  5.00000000E-01  0.00000000E+00   1.0
