
 **** DERIVATIVE DATABASE ****    
+DDB, Version number    100401

 Ti DDB file for elphon calculation

    usepaw         0
     natom         2
      nkpt        64
    nsppol         1
      nsym        24
    ntypat         1
    occopt         7
     nband        10
     acell  0.55762038729190D+01  0.55762038729190D+01  0.88543117956357D+01
       amu  0.47880000000000D+02
   dilatmx  0.10000000000000D+01
      ecut  0.40000000000000D+01
    ecutsm  0.00000000000000D+00
     intxc         0
      iscf         7
       ixc         1
       kpt  0.00000000000000D+00  0.00000000000000D+00  0.00000000000000D+00
            0.25000000000000D+00  0.00000000000000D+00  0.00000000000000D+00
            0.50000000000000D+00  0.00000000000000D+00  0.00000000000000D+00
           -0.25000000000000D+00  0.00000000000000D+00  0.00000000000000D+00
            0.00000000000000D+00  0.25000000000000D+00  0.00000000000000D+00
            0.25000000000000D+00  0.25000000000000D+00  0.00000000000000D+00
            0.50000000000000D+00  0.25000000000000D+00  0.00000000000000D+00
           -0.25000000000000D+00  0.25000000000000D+00  0.00000000000000D+00
            0.00000000000000D+00  0.50000000000000D+00  0.00000000000000D+00
            0.25000000000000D+00  0.50000000000000D+00  0.00000000000000D+00
            0.50000000000000D+00  0.50000000000000D+00  0.00000000000000D+00
           -0.25000000000000D+00  0.50000000000000D+00  0.00000000000000D+00
            0.00000000000000D+00 -0.25000000000000D+00  0.00000000000000D+00
            0.25000000000000D+00 -0.25000000000000D+00  0.00000000000000D+00
            0.50000000000000D+00 -0.25000000000000D+00  0.00000000000000D+00
           -0.25000000000000D+00 -0.25000000000000D+00  0.00000000000000D+00
            0.00000000000000D+00  0.00000000000000D+00  0.25000000000000D+00
            0.25000000000000D+00  0.00000000000000D+00  0.25000000000000D+00
            0.50000000000000D+00  0.00000000000000D+00  0.25000000000000D+00
           -0.25000000000000D+00  0.00000000000000D+00  0.25000000000000D+00
            0.00000000000000D+00  0.25000000000000D+00  0.25000000000000D+00
            0.25000000000000D+00  0.25000000000000D+00  0.25000000000000D+00
            0.50000000000000D+00  0.25000000000000D+00  0.25000000000000D+00
           -0.25000000000000D+00  0.25000000000000D+00  0.25000000000000D+00
            0.00000000000000D+00  0.50000000000000D+00  0.25000000000000D+00
            0.25000000000000D+00  0.50000000000000D+00  0.25000000000000D+00
            0.50000000000000D+00  0.50000000000000D+00  0.25000000000000D+00
           -0.25000000000000D+00  0.50000000000000D+00  0.25000000000000D+00
            0.00000000000000D+00 -0.25000000000000D+00  0.25000000000000D+00
            0.25000000000000D+00 -0.25000000000000D+00  0.25000000000000D+00
            0.50000000000000D+00 -0.25000000000000D+00  0.25000000000000D+00
           -0.25000000000000D+00 -0.25000000000000D+00  0.25000000000000D+00
            0.00000000000000D+00  0.00000000000000D+00  0.50000000000000D+00
            0.25000000000000D+00  0.00000000000000D+00  0.50000000000000D+00
            0.50000000000000D+00  0.00000000000000D+00  0.50000000000000D+00
           -0.25000000000000D+00  0.00000000000000D+00  0.50000000000000D+00
            0.00000000000000D+00  0.25000000000000D+00  0.50000000000000D+00
            0.25000000000000D+00  0.25000000000000D+00  0.50000000000000D+00
            0.50000000000000D+00  0.25000000000000D+00  0.50000000000000D+00
           -0.25000000000000D+00  0.25000000000000D+00  0.50000000000000D+00
            0.00000000000000D+00  0.50000000000000D+00  0.50000000000000D+00
            0.25000000000000D+00  0.50000000000000D+00  0.50000000000000D+00
            0.50000000000000D+00  0.50000000000000D+00  0.50000000000000D+00
           -0.25000000000000D+00  0.50000000000000D+00  0.50000000000000D+00
            0.00000000000000D+00 -0.25000000000000D+00  0.50000000000000D+00
            0.25000000000000D+00 -0.25000000000000D+00  0.50000000000000D+00
            0.50000000000000D+00 -0.25000000000000D+00  0.50000000000000D+00
           -0.25000000000000D+00 -0.25000000000000D+00  0.50000000000000D+00
            0.00000000000000D+00  0.00000000000000D+00 -0.25000000000000D+00
            0.25000000000000D+00  0.00000000000000D+00 -0.25000000000000D+00
            0.50000000000000D+00  0.00000000000000D+00 -0.25000000000000D+00
           -0.25000000000000D+00  0.00000000000000D+00 -0.25000000000000D+00
            0.00000000000000D+00  0.25000000000000D+00 -0.25000000000000D+00
            0.25000000000000D+00  0.25000000000000D+00 -0.25000000000000D+00
            0.50000000000000D+00  0.25000000000000D+00 -0.25000000000000D+00
           -0.25000000000000D+00  0.25000000000000D+00 -0.25000000000000D+00
            0.00000000000000D+00  0.50000000000000D+00 -0.25000000000000D+00
            0.25000000000000D+00  0.50000000000000D+00 -0.25000000000000D+00
            0.50000000000000D+00  0.50000000000000D+00 -0.25000000000000D+00
           -0.25000000000000D+00  0.50000000000000D+00 -0.25000000000000D+00
            0.00000000000000D+00 -0.25000000000000D+00 -0.25000000000000D+00
            0.25000000000000D+00 -0.25000000000000D+00 -0.25000000000000D+00
            0.50000000000000D+00 -0.25000000000000D+00 -0.25000000000000D+00
           -0.25000000000000D+00 -0.25000000000000D+00 -0.25000000000000D+00
    kptnrm  0.10000000000000D+01
     ngfft        10   10   16
    nspden         1
   nspinor         1
       occ  0.20000000000000D+01  0.20000000000000D+01  0.20000000000000D+01
            0.00000000000000D+00  0.00000000000000D+00  0.00000000000000D+00
            0.00000000000000D+00  0.00000000000000D+00  0.00000000000000D+00
            0.00000000000000D+00
     rprim  0.10000000000000D+01  0.00000000000000D+00  0.00000000000000D+00
           -0.50000000000000D+00  0.86602540378444D+00  0.00000000000000D+00
            0.61232339957368D-16  0.10605752387249D-15  0.10000000000000D+01
  dfpt_sciss  0.00000000000000D+00
    spinat  0.00000000000000D+00  0.00000000000000D+00  0.00000000000000D+00
            0.00000000000000D+00  0.00000000000000D+00  0.00000000000000D+00
    symafm         1    1    1    1    1    1    1    1    1    1    1    1
                   1    1    1    1    1    1    1    1    1    1    1    1
    symrel         1    0    0    0    1    0    0    0    1
                  -1    0    0    0   -1    0    0    0   -1
                   0    1    0    1    0    0    0    0    1
                   0   -1    0   -1    0    0    0    0   -1
                   1    1    0   -1    0    0    0    0    1
                  -1   -1    0    1    0    0    0    0   -1
                  -1    0    0    1    1    0    0    0    1
                   1    0    0   -1   -1    0    0    0   -1
                   0    1    0   -1   -1    0    0    0    1
                   0   -1    0    1    1    0    0    0   -1
                  -1   -1    0    0    1    0    0    0    1
                   1    1    0    0   -1    0    0    0   -1
                  -1    0    0    0   -1    0    0    0    1
                   1    0    0    0    1    0    0    0   -1
                   0   -1    0   -1    0    0    0    0    1
                   0    1    0    1    0    0    0    0   -1
                  -1   -1    0    1    0    0    0    0    1
                   1    1    0   -1    0    0    0    0   -1
                   1    0    0   -1   -1    0    0    0    1
                  -1    0    0    1    1    0    0    0   -1
                   0   -1    0    1    1    0    0    0    1
                   0    1    0   -1   -1    0    0    0   -1
                   1    1    0    0   -1    0    0    0    1
                  -1   -1    0    0    1    0    0    0   -1
     tnons  0.00000000000000D+00  0.00000000000000D+00  0.00000000000000D+00
            0.33333333333333D+00 -0.33333333333333D+00  0.50000000000000D+00
            0.33333333333333D+00 -0.33333333333333D+00  0.50000000000000D+00
            0.00000000000000D+00  0.00000000000000D+00  0.00000000000000D+00
            0.33333333333333D+00 -0.33333333333333D+00  0.50000000000000D+00
            0.00000000000000D+00  0.00000000000000D+00  0.00000000000000D+00
            0.00000000000000D+00  0.00000000000000D+00  0.00000000000000D+00
            0.33333333333333D+00 -0.33333333333333D+00  0.50000000000000D+00
            0.00000000000000D+00  0.00000000000000D+00  0.00000000000000D+00
            0.33333333333333D+00 -0.33333333333333D+00  0.50000000000000D+00
            0.33333333333333D+00 -0.33333333333333D+00  0.50000000000000D+00
            0.00000000000000D+00  0.00000000000000D+00  0.00000000000000D+00
            0.33333333333333D+00 -0.33333333333333D+00  0.50000000000000D+00
            0.00000000000000D+00  0.00000000000000D+00  0.00000000000000D+00
            0.00000000000000D+00  0.00000000000000D+00  0.00000000000000D+00
            0.33333333333333D+00 -0.33333333333333D+00  0.50000000000000D+00
            0.00000000000000D+00  0.00000000000000D+00  0.00000000000000D+00
            0.33333333333333D+00 -0.33333333333333D+00  0.50000000000000D+00
            0.33333333333333D+00 -0.33333333333333D+00  0.50000000000000D+00
            0.00000000000000D+00  0.00000000000000D+00  0.00000000000000D+00
            0.33333333333333D+00 -0.33333333333333D+00  0.50000000000000D+00
            0.00000000000000D+00  0.00000000000000D+00  0.00000000000000D+00
            0.00000000000000D+00  0.00000000000000D+00  0.00000000000000D+00
            0.33333333333333D+00 -0.33333333333333D+00  0.50000000000000D+00
    tolwfr  0.10000000000000D+01
   tphysel  0.00000000000000D+00
    tsmear  0.10000000000000D-02
     typat         1    1
       wtk  0.15625000000000D-01  0.15625000000000D-01  0.15625000000000D-01
            0.15625000000000D-01  0.15625000000000D-01  0.15625000000000D-01
            0.15625000000000D-01  0.15625000000000D-01  0.15625000000000D-01
            0.15625000000000D-01  0.15625000000000D-01  0.15625000000000D-01
            0.15625000000000D-01  0.15625000000000D-01  0.15625000000000D-01
            0.15625000000000D-01  0.15625000000000D-01  0.15625000000000D-01
            0.15625000000000D-01  0.15625000000000D-01  0.15625000000000D-01
            0.15625000000000D-01  0.15625000000000D-01  0.15625000000000D-01
            0.15625000000000D-01  0.15625000000000D-01  0.15625000000000D-01
            0.15625000000000D-01  0.15625000000000D-01  0.15625000000000D-01
            0.15625000000000D-01  0.15625000000000D-01  0.15625000000000D-01
            0.15625000000000D-01  0.15625000000000D-01  0.15625000000000D-01
            0.15625000000000D-01  0.15625000000000D-01  0.15625000000000D-01
            0.15625000000000D-01  0.15625000000000D-01  0.15625000000000D-01
            0.15625000000000D-01  0.15625000000000D-01  0.15625000000000D-01
            0.15625000000000D-01  0.15625000000000D-01  0.15625000000000D-01
            0.15625000000000D-01  0.15625000000000D-01  0.15625000000000D-01
            0.15625000000000D-01  0.15625000000000D-01  0.15625000000000D-01
            0.15625000000000D-01  0.15625000000000D-01  0.15625000000000D-01
            0.15625000000000D-01  0.15625000000000D-01  0.15625000000000D-01
            0.15625000000000D-01  0.15625000000000D-01  0.15625000000000D-01
            0.15625000000000D-01
      xred  0.00000000000000D+00  0.00000000000000D+00  0.00000000000000D+00
            0.33333333333333D+00  0.66666666666667D+00  0.50000000000000D+00
     znucl  0.22000000000000D+02
      zion  0.40000000000000D+01
 
  Description of the potentials (KB energies)
  vrsio8 (for pseudopotentials)=100401
  usepaw =  0
  dimekb =  2       lmnmax=  2
  Atom type=    1   pspso=  0   nekb=   2
  iln lpsang iproj  ekb(:)
     1     1     1     9.1553737E-01  0.0000000E+00
     2     2     1     0.0000000E+00 -8.0156917E+00
 
 **** Database of total energy derivatives ****
 Number of data blocks=    4
  
 2nd derivatives (non-stat.)  - # elements :      64
 qpt  0.00000000E+00  0.00000000E+00  0.00000000E+00   1.0
   1   1   1   1  0.14951633650773D+01  0.00000000000000D+00
   2   1   1   1 -0.74758168253866D+00  0.00000000000000D+00
   3   1   1   1  0.22375724230173D-15  0.00000000000000D+00
   1   2   1   1 -0.14951620004228D+01  0.26484280214200D-15
   2   2   1   1  0.74758100021140D+00  0.12894917625495D-15
   3   2   1   1 -0.22375724230173D-15 -0.62542160769292D-16
   2   4   1   1  0.00000000000000D+00  0.00000000000000D+00
   3   4   1   1  0.00000000000000D+00  0.00000000000000D+00
   1   1   2   1 -0.74758168253865D+00  0.00000000000000D+00
   2   1   2   1  0.14951633650773D+01  0.00000000000000D+00
   3   1   2   1 -0.66183591930548D-15  0.00000000000000D+00
   1   2   2   1  0.74758100021140D+00  0.12894917625495D-15
   2   2   2   1 -0.14951620004228D+01 -0.52214895299246D-17
   3   2   2   1  0.66183591930548D-15 -0.14754023161573D-16
   1   4   2   1  0.00000000000000D+00  0.00000000000000D+00
   3   4   2   1  0.00000000000000D+00  0.00000000000000D+00
   1   1   3   1  0.22375724230173D-15  0.00000000000000D+00
   2   1   3   1 -0.66183591930548D-15  0.00000000000000D+00
   3   1   3   1  0.26413423327183D+02  0.00000000000000D+00
   1   2   3   1 -0.22375724230173D-15 -0.62542160769292D-16
   2   2   3   1  0.66183591930548D-15 -0.14754023161573D-16
   3   2   3   1 -0.26413421620950D+02  0.32820864053304D-16
   1   4   3   1  0.00000000000000D+00  0.00000000000000D+00
   2   4   3   1  0.00000000000000D+00  0.00000000000000D+00
   1   1   1   2 -0.14951620004228D+01 -0.26484280214200D-15
   2   1   1   2  0.74758100021140D+00 -0.12894917625495D-15
   3   1   1   2 -0.22375724230173D-15  0.62542160769292D-16
   1   2   1   2  0.14951633650773D+01  0.00000000000000D+00
   2   2   1   2 -0.74758168253865D+00  0.00000000000000D+00
   3   2   1   2  0.22375724230173D-15  0.00000000000000D+00
   2   4   1   2  0.00000000000000D+00  0.00000000000000D+00
   3   4   1   2  0.00000000000000D+00  0.00000000000000D+00
   1   1   2   2  0.74758100021140D+00 -0.12894917625495D-15
   2   1   2   2 -0.14951620004228D+01  0.52214895299246D-17
   3   1   2   2  0.66183591930548D-15  0.14754023161573D-16
   1   2   2   2 -0.74758168253865D+00  0.00000000000000D+00
   2   2   2   2  0.14951633650773D+01  0.00000000000000D+00
   3   2   2   2 -0.66183591930548D-15  0.00000000000000D+00
   1   4   2   2  0.00000000000000D+00  0.00000000000000D+00
   3   4   2   2  0.00000000000000D+00  0.00000000000000D+00
   1   1   3   2 -0.22375724230173D-15  0.62542160769292D-16
   2   1   3   2  0.66183591930548D-15  0.14754023161573D-16
   3   1   3   2 -0.26413421620950D+02 -0.32820864053304D-16
   1   2   3   2  0.22375724230173D-15  0.00000000000000D+00
   2   2   3   2 -0.66183591930548D-15  0.00000000000000D+00
   3   2   3   2  0.26413423327183D+02  0.00000000000000D+00
   1   4   3   2  0.00000000000000D+00  0.00000000000000D+00
   2   4   3   2  0.00000000000000D+00  0.00000000000000D+00
   2   1   1   4  0.00000000000000D+00  0.00000000000000D+00
   3   1   1   4  0.00000000000000D+00  0.00000000000000D+00
   2   2   1   4  0.00000000000000D+00  0.00000000000000D+00
   3   2   1   4  0.00000000000000D+00  0.00000000000000D+00
   3   4   1   4  0.00000000000000D+00  0.00000000000000D+00
   1   1   2   4  0.00000000000000D+00  0.00000000000000D+00
   3   1   2   4  0.00000000000000D+00  0.00000000000000D+00
   1   2   2   4  0.00000000000000D+00  0.00000000000000D+00
   3   2   2   4  0.00000000000000D+00  0.00000000000000D+00
   3   4   2   4  0.00000000000000D+00  0.00000000000000D+00
   1   1   3   4  0.00000000000000D+00  0.00000000000000D+00
   2   1   3   4  0.00000000000000D+00  0.00000000000000D+00
   1   2   3   4  0.00000000000000D+00  0.00000000000000D+00
   2   2   3   4  0.00000000000000D+00  0.00000000000000D+00
   1   4   3   4  0.00000000000000D+00  0.00000000000000D+00
   2   4   3   4  0.00000000000000D+00  0.00000000000000D+00
  
 2nd derivatives (non-stat.)  - # elements :      36
 qpt  5.00000000E-01  0.00000000E+00  0.00000000E+00   1.0
   1   1   1   1  0.11609640110194D+02 -0.36647087169824D-07
   2   1   1   1 -0.25432836314504D+01  0.00000000000000D+00
   3   1   1   1  0.85745938351203D-14  0.00000000000000D+00
   1   2   1   1  0.35151177130236D+00  0.21291928458775D-07
   2   2   1   1  0.11980858803697D+01 -0.96721234792330D-10
   3   2   1   1 -0.22226442270227D-14 -0.29558170939125D-15
   1   1   2   1 -0.25432836314504D+01  0.00000000000000D+00
   2   1   2   1  0.50865672629010D+01  0.00000000000000D+00
   3   1   2   1 -0.12639084153403D-14  0.00000000000000D+00
   1   2   2   1  0.11980858803697D+01 -0.96721234792330D-10
   2   2   2   1 -0.23961717607394D+01  0.19344246035103D-09
   3   2   2   1 -0.49052973519444D-14 -0.28034944275938D-16
   1   1   3   1  0.85745938351203D-14  0.00000000000000D+00
   2   1   3   1 -0.12639084153403D-14  0.00000000000000D+00
   3   1   3   1  0.20849975159335D+02  0.00000000000000D+00
   1   2   3   1 -0.22226442270227D-14 -0.29558170939125D-15
   2   2   3   1 -0.49052973519444D-14 -0.28034944275938D-16
   3   2   3   1 -0.87450845672363D+01 -0.91223791403004D-09
   1   1   1   2  0.35151177130236D+00  0.21291927965337D-07
   2   1   1   2  0.11980858803697D+01 -0.96721270954680D-10
   3   1   1   2 -0.22226442270227D-14  0.29558170939125D-15
   1   2   1   2  0.11609640110194D+02 -0.36647087169825D-07
   2   2   1   2 -0.25432836314504D+01  0.00000000000000D+00
   3   2   1   2  0.85745938350169D-14  0.00000000000000D+00
   1   1   2   2  0.11980858803697D+01 -0.96721270954680D-10
   2   1   2   2 -0.23961717607394D+01  0.19344255114215D-09
   3   1   2   2 -0.49052973519444D-14  0.28034944275938D-16
   1   2   2   2 -0.25432836314504D+01  0.00000000000000D+00
   2   2   2   2  0.50865672629010D+01  0.00000000000000D+00
   3   2   2   2 -0.12639084153386D-14  0.00000000000000D+00
   1   1   3   2 -0.22226442270227D-14  0.29558170939125D-15
   2   1   3   2 -0.49052973519444D-14  0.28034944275938D-16
   3   1   3   2 -0.87450845672363D+01 -0.91223758437058D-09
   1   2   3   2  0.85745938350169D-14  0.00000000000000D+00
   2   2   3   2 -0.12639084153386D-14  0.00000000000000D+00
   3   2   3   2  0.20849975159335D+02  0.00000000000000D+00
  
 2nd derivatives (non-stat.)  - # elements :      36
 qpt  0.00000000E+00  0.00000000E+00  5.00000000E-01   1.0
   1   1   1   1  0.13813295691373D+01  0.17431966636568D-08
   2   1   1   1 -0.69066478456861D+00 -0.87159833182839D-09
   3   1   1   1  0.25570225515677D-14  0.00000000000000D+00
   1   2   1   1  0.11401895560916D-14 -0.17143391809130D-15
   2   2   1   1  0.42420423946863D-15  0.12606200578303D-15
   3   2   1   1 -0.46785271291616D-14 -0.14987841069906D-17
   1   1   2   1 -0.69066478456861D+00 -0.87159833182839D-09
   2   1   2   1  0.13813295691373D+01  0.17431966636568D-08
   3   1   2   1 -0.40819586930448D-15  0.00000000000000D+00
   1   2   2   1  0.42420423934800D-15  0.12606201460629D-15
   2   2   2   1 -0.14305114162805D-14 -0.35034392503363D-15
   3   2   2   1  0.17859367229152D-14 -0.84719943614248D-16
   1   1   3   1  0.25570225350240D-14  0.00000000000000D+00
   2   1   3   1 -0.40819587923065D-15  0.00000000000000D+00
   3   1   3   1  0.22113542122526D+02  0.00000000000000D+00
   1   2   3   1 -0.46785271286102D-14 -0.14987841069906D-17
   2   2   3   1  0.17859367317385D-14 -0.84720014200327D-16
   3   2   3   1  0.22782359029235D-14  0.10858286574955D-14
   1   1   1   2  0.11401895560916D-14  0.17143390926804D-15
   2   1   1   2  0.42420423942124D-15 -0.12606202342955D-15
   3   1   1   2 -0.46785271368820D-14  0.14987135209116D-17
   1   2   1   2  0.13813295691373D+01  0.17431966636568D-08
   2   2   1   2 -0.69066478456861D+00 -0.87159833182839D-09
   3   2   1   2  0.25570225375573D-14  0.00000000000000D+00
   1   1   2   2  0.42420423941693D-15 -0.12606201460629D-15
   2   1   2   2 -0.14305114163149D-14  0.35034392503363D-15
   3   1   2   2  0.17859367273268D-14  0.84720084786406D-16
   1   2   2   2 -0.69066478456861D+00 -0.87159833182839D-09
   2   2   2   2  0.13813295691373D+01  0.17431966636568D-08
   3   2   2   2 -0.40819588455396D-15  0.00000000000000D+00
   1   1   3   2 -0.46785271286102D-14  0.14987841069906D-17
   2   1   3   2  0.17859367317385D-14  0.84720014200327D-16
   3   1   3   2  0.22782359029235D-14 -0.10858286574955D-14
   1   2   3   2  0.25570225375573D-14  0.00000000000000D+00
   2   2   3   2 -0.40819588455396D-15  0.00000000000000D+00
   3   2   3   2  0.22113542122526D+02  0.00000000000000D+00
  
 2nd derivatives (non-stat.)  - # elements :      36
 qpt  5.00000000E-01  0.00000000E+00  5.00000000E-01   1.0
   1   1   1   1  0.10539704776207D+02  0.17571626882017D-06
   2   1   1   1 -0.17544519285855D+01  0.00000000000000D+00
   3   1   1   1 -0.30846633977752D-15  0.00000000000000D+00
   1   2   1   1  0.64834273100282D-15  0.71232999627371D-15
   2   2   1   1  0.89909379625849D-15 -0.38743416326112D-15
   3   2   1   1 -0.82651553739288D+01 -0.54381100838954D-06
   1   1   2   1 -0.17544519285855D+01  0.00000000000000D+00
   2   1   2   1  0.35089038571711D+01  0.00000000000000D+00
   3   1   2   1  0.23284451456680D-16  0.00000000000000D+00
   1   2   2   1  0.89909379636189D-15 -0.38743416326112D-15
   2   2   2   1 -0.14576044369314D-14 -0.95075113639843D-15
   3   2   2   1  0.74395320219127D-17  0.24735524682430D-17
   1   1   3   1 -0.30846636376576D-15  0.00000000000000D+00
   2   1   3   1  0.23284451456579D-16  0.00000000000000D+00
   3   1   3   1  0.22052956732432D+02  0.00000000000000D+00
   1   2   3   1 -0.82649162360051D+01 -0.28969453880071D-08
   2   2   3   1  0.74393202636759D-17  0.24735524682430D-17
   3   2   3   1 -0.12145354035820D-14  0.18586971867573D-14
   1   1   1   2  0.64834271611357D-15 -0.71232999627371D-15
   2   1   1   2  0.89909379615509D-15  0.38743416326112D-15
   3   1   1   2 -0.82651553739288D+01 -0.54381100880944D-06
   1   2   1   2  0.10539704776207D+02  0.17571626882017D-06
   2   2   1   2 -0.17544519285855D+01  0.00000000000000D+00
   3   2   1   2 -0.30846633228120D-15  0.00000000000000D+00
   1   1   2   2  0.89909379636189D-15  0.38743416326112D-15
   2   1   2   2 -0.14576044369314D-14  0.95075113639843D-15
   3   1   2   2  0.74395320219127D-17 -0.24735524682430D-17
   1   2   2   2 -0.17544519285855D+01  0.00000000000000D+00
   2   2   2   2  0.35089038571711D+01  0.00000000000000D+00
   3   2   2   2  0.23284446183403D-16  0.00000000000000D+00
   1   1   3   2 -0.82649162360051D+01 -0.28969458079032D-08
   2   1   3   2  0.74393202636759D-17 -0.24735524682430D-17
   3   1   3   2 -0.12145354035820D-14 -0.18586971867573D-14
   1   2   3   2 -0.30846628182318D-15  0.00000000000000D+00
   2   2   3   2  0.23284446183404D-16  0.00000000000000D+00
   3   2   3   2  0.22052956732432D+02  0.00000000000000D+00

 List of bloks and their characteristics 
  
 2nd derivatives (non-stat.)  - # elements :      64
 qpt  0.00000000E+00  0.00000000E+00  0.00000000E+00   1.0
  
 2nd derivatives (non-stat.)  - # elements :      36
 qpt  5.00000000E-01  0.00000000E+00  0.00000000E+00   1.0
  
 2nd derivatives (non-stat.)  - # elements :      36
 qpt  0.00000000E+00  0.00000000E+00  5.00000000E-01   1.0
  
 2nd derivatives (non-stat.)  - # elements :      36
 qpt  5.00000000E-01  0.00000000E+00  5.00000000E-01   1.0
