
.Version 8.0.3 of ABINIT 
.(sequential version, prepared for a x86_64_linux_gnu5.3 computer) 

.Copyright (C) 1998-2018 ABINIT group . 
 ABINIT comes with ABSOLUTELY NO WARRANTY.
 It is free software, and you are welcome to redistribute it
 under certain conditions (GNU General Public License,
 see ~abinit/COPYING or http://www.gnu.org/copyleft/gpl.txt).

 ABINIT is a project of the Universite Catholique de Louvain,
 Corning Inc. and other collaborators, see ~abinit/doc/developers/contributors.txt .
 Please read ~abinit/doc/users/acknowledgments.html for suggested
 acknowledgments of the ABINIT effort.
 For more information, see https://www.abinit.org .

.Starting date : Mon  4 Apr 2016.
- ( at 12h18 )
  
- input  file    -> tsv4_78.in
- output file    -> tsv4_78.out
- root for input  files -> tsv4_78i
- root for output files -> tsv4_78o


 DATASET   11 : space group F-4 3 m (#216); Bravais cF (face-center cubic)
================================================================================
 Values of the parameters that define the memory need for DATASET 11.
     intxc =       0    ionmov =       0      iscf =       7    lmnmax =       2
     lnmax =       2     mgfft =      12  mpssoang =       3    mqgrid =    3001
     natom =       2  nloc_mem =       1    nspden =       1   nspinor =       1
    nsppol =       1      nsym =      24    n1xccc =    2501    ntypat =       2
    occopt =       1   xclevel =       1
-    mband =           5        mffmem =           1         mkmem =           2
       mpw =          74          nfft =        1728          nkpt =           2
================================================================================
P This job should need less than                       1.319 Mbytes of memory.
  Rough estimation (10% accuracy) of disk space for files :
_ WF disk file :      0.013 Mbytes ; DEN or POT disk file :      0.015 Mbytes.
================================================================================


 DATASET   21 : space group Im m 2 (# 44); Bravais oI (body-center ortho.)
================================================================================
 Values of the parameters that define the memory need for DATASET 21.
     intxc =       0    ionmov =       0      iscf =       7    lmnmax =       2
     lnmax =       2     mgfft =      12  mpssoang =       3    mqgrid =    3001
     natom =       2  nloc_mem =       1    nspden =       1   nspinor =       1
    nsppol =       1      nsym =       4    n1xccc =    2501    ntypat =       2
    occopt =       1   xclevel =       1
-    mband =           4        mffmem =           1         mkmem =           6
       mpw =          74          nfft =        1728          nkpt =           6
================================================================================
P This job should need less than                       1.339 Mbytes of memory.
  Rough estimation (10% accuracy) of disk space for files :
_ WF disk file :      0.029 Mbytes ; DEN or POT disk file :      0.015 Mbytes.
================================================================================


 DATASET   22 : space group Im m 2 (# 44); Bravais oI (body-center ortho.)
================================================================================
 Values of the parameters that define the memory need for DATASET 22.
     intxc =       0    ionmov =       0      iscf =       7    lmnmax =       2
     lnmax =       2     mgfft =      12  mpssoang =       3    mqgrid =    3001
     natom =       2  nloc_mem =       1    nspden =       1   nspinor =       1
    nsppol =       1      nsym =       4    n1xccc =    2501    ntypat =       2
    occopt =       1   xclevel =       1
-    mband =           4        mffmem =           1         mkmem =           6
       mpw =          74          nfft =        1728          nkpt =           6
================================================================================
P This job should need less than                       1.339 Mbytes of memory.
  Rough estimation (10% accuracy) of disk space for files :
_ WF disk file :      0.029 Mbytes ; DEN or POT disk file :      0.015 Mbytes.
================================================================================


 DATASET   23 : space group Im m 2 (# 44); Bravais oI (body-center ortho.)
================================================================================
 Values of the parameters that define the memory need for DATASET 23.
     intxc =       0    ionmov =       0      iscf =       7    lmnmax =       2
     lnmax =       2     mgfft =      12  mpssoang =       3    mqgrid =    3001
     natom =       2  nloc_mem =       1    nspden =       1   nspinor =       1
    nsppol =       1      nsym =       4    n1xccc =    2501    ntypat =       2
    occopt =       1   xclevel =       1
-    mband =           4        mffmem =           1         mkmem =           6
       mpw =          74          nfft =        1728          nkpt =           6
================================================================================
P This job should need less than                       1.339 Mbytes of memory.
  Rough estimation (10% accuracy) of disk space for files :
_ WF disk file :      0.029 Mbytes ; DEN or POT disk file :      0.015 Mbytes.
================================================================================


 DATASET   31 : space group Im m 2 (# 44); Bravais oI (body-center ortho.)
================================================================================
 Values of the parameters that define the memory need for DATASET 31.
     intxc =       0    ionmov =       0      iscf =       7    lmnmax =       2
     lnmax =       2     mgfft =      12  mpssoang =       3    mqgrid =    3001
     natom =       2  nloc_mem =       1    nspden =       1   nspinor =       1
    nsppol =       1      nsym =       4    n1xccc =    2501    ntypat =       2
    occopt =       1   xclevel =       1
-    mband =           4        mffmem =           1         mkmem =           6
       mpw =          74          nfft =        1728          nkpt =           6
================================================================================
P This job should need less than                       1.339 Mbytes of memory.
  Rough estimation (10% accuracy) of disk space for files :
_ WF disk file :      0.029 Mbytes ; DEN or POT disk file :      0.015 Mbytes.
================================================================================


 DATASET   32 : space group Im m 2 (# 44); Bravais oI (body-center ortho.)
================================================================================
 Values of the parameters that define the memory need for DATASET 32.
     intxc =       0    ionmov =       0      iscf =       7    lmnmax =       2
     lnmax =       2     mgfft =      12  mpssoang =       3    mqgrid =    3001
     natom =       2  nloc_mem =       1    nspden =       1   nspinor =       1
    nsppol =       1      nsym =       4    n1xccc =    2501    ntypat =       2
    occopt =       1   xclevel =       1
-    mband =           4        mffmem =           1         mkmem =           6
       mpw =          74          nfft =        1728          nkpt =           6
================================================================================
P This job should need less than                       1.339 Mbytes of memory.
  Rough estimation (10% accuracy) of disk space for files :
_ WF disk file :      0.029 Mbytes ; DEN or POT disk file :      0.015 Mbytes.
================================================================================


 DATASET   33 : space group Im m 2 (# 44); Bravais oI (body-center ortho.)
================================================================================
 Values of the parameters that define the memory need for DATASET 33.
     intxc =       0    ionmov =       0      iscf =       7    lmnmax =       2
     lnmax =       2     mgfft =      12  mpssoang =       3    mqgrid =    3001
     natom =       2  nloc_mem =       1    nspden =       1   nspinor =       1
    nsppol =       1      nsym =       4    n1xccc =    2501    ntypat =       2
    occopt =       1   xclevel =       1
-    mband =           4        mffmem =           1         mkmem =           6
       mpw =          74          nfft =        1728          nkpt =           6
================================================================================
P This job should need less than                       1.339 Mbytes of memory.
  Rough estimation (10% accuracy) of disk space for files :
_ WF disk file :      0.029 Mbytes ; DEN or POT disk file :      0.015 Mbytes.
================================================================================

--------------------------------------------------------------------------------
------------- Echo of variables that govern the present computation ------------
--------------------------------------------------------------------------------
-
- outvars: echo of selected default values                                      
-   accesswff0 =  0 , fftalg0 =312 , wfoptalg0 =  0
-
- outvars: echo of global parameters not present in the input file              
-  max_nthreads =    0
-
 -outvars: echo values of preprocessed input variables --------
            acell      1.0616530850E+01  1.0616530850E+01  1.0616530850E+01 Bohr
              amu      2.69815390E+01  7.49215900E+01
         berryopt11        -1
         berryopt21         4
         berryopt22         4
         berryopt23         4
         berryopt31         4
         berryopt32         4
         berryopt33         4
             ecut      3.00000000E+00 Hartree
           efield11    0.00000000E+00  0.00000000E+00  0.00000000E+00
           efield21    1.00000000E-04  0.00000000E+00  0.00000000E+00
           efield22    2.00000000E-04  0.00000000E+00  0.00000000E+00
           efield23    3.00000000E-04  0.00000000E+00  0.00000000E+00
           efield31   -1.00000000E-04  0.00000000E+00  0.00000000E+00
           efield32   -2.00000000E-04  0.00000000E+00  0.00000000E+00
           efield33   -3.00000000E-04  0.00000000E+00  0.00000000E+00
-          fftalg         312
           getwfk11         0
           getwfk21        11
           getwfk22        21
           getwfk23        22
           getwfk31        11
           getwfk32        31
           getwfk33        32
           jdtset       11   21   22   23   31   32   33
              kpt11   -2.50000000E-01  5.00000000E-01  0.00000000E+00
                      -2.50000000E-01  0.00000000E+00  0.00000000E+00
              kpt21   -2.50000000E-01  5.00000000E-01  0.00000000E+00
                       5.00000000E-01 -2.50000000E-01  0.00000000E+00
                      -2.50000000E-01  0.00000000E+00  0.00000000E+00
                      -2.50000000E-01  2.50000000E-01  2.50000000E-01
                       0.00000000E+00 -2.50000000E-01  0.00000000E+00
                       0.00000000E+00  5.00000000E-01  2.50000000E-01
              kpt22   -2.50000000E-01  5.00000000E-01  0.00000000E+00
                       5.00000000E-01 -2.50000000E-01  0.00000000E+00
                      -2.50000000E-01  0.00000000E+00  0.00000000E+00
                      -2.50000000E-01  2.50000000E-01  2.50000000E-01
                       0.00000000E+00 -2.50000000E-01  0.00000000E+00
                       0.00000000E+00  5.00000000E-01  2.50000000E-01
              kpt23   -2.50000000E-01  5.00000000E-01  0.00000000E+00
                       5.00000000E-01 -2.50000000E-01  0.00000000E+00
                      -2.50000000E-01  0.00000000E+00  0.00000000E+00
                      -2.50000000E-01  2.50000000E-01  2.50000000E-01
                       0.00000000E+00 -2.50000000E-01  0.00000000E+00
                       0.00000000E+00  5.00000000E-01  2.50000000E-01
              kpt31   -2.50000000E-01  5.00000000E-01  0.00000000E+00
                       5.00000000E-01 -2.50000000E-01  0.00000000E+00
                      -2.50000000E-01  0.00000000E+00  0.00000000E+00
                      -2.50000000E-01  2.50000000E-01  2.50000000E-01
                       0.00000000E+00 -2.50000000E-01  0.00000000E+00
                       0.00000000E+00  5.00000000E-01  2.50000000E-01
              kpt32   -2.50000000E-01  5.00000000E-01  0.00000000E+00
                       5.00000000E-01 -2.50000000E-01  0.00000000E+00
                      -2.50000000E-01  0.00000000E+00  0.00000000E+00
                      -2.50000000E-01  2.50000000E-01  2.50000000E-01
                       0.00000000E+00 -2.50000000E-01  0.00000000E+00
                       0.00000000E+00  5.00000000E-01  2.50000000E-01
              kpt33   -2.50000000E-01  5.00000000E-01  0.00000000E+00
                       5.00000000E-01 -2.50000000E-01  0.00000000E+00
                      -2.50000000E-01  0.00000000E+00  0.00000000E+00
                      -2.50000000E-01  2.50000000E-01  2.50000000E-01
                       0.00000000E+00 -2.50000000E-01  0.00000000E+00
                       0.00000000E+00  5.00000000E-01  2.50000000E-01
         kptrlatt        2   -2    2     -2    2    2     -2   -2    2
          kptrlen      2.12330617E+01
P           mkmem11         2
P           mkmem21         6
P           mkmem22         6
P           mkmem23         6
P           mkmem31         6
P           mkmem32         6
P           mkmem33         6
            natom           2
            nband11         5
            nband21         4
            nband22         4
            nband23         4
            nband31         4
            nband32         4
            nband33         4
           ndtset           7
            ngfft          12      12      12
             nkpt11         2
             nkpt21         6
             nkpt22         6
             nkpt23         6
             nkpt31         6
             nkpt32         6
             nkpt33         6
            nstep         100
             nsym11        24
             nsym21         4
             nsym22         4
             nsym23         4
             nsym31         4
             nsym32         4
             nsym33         4
           ntypat           2
              occ11    2.000000  2.000000  2.000000  2.000000  0.000000
              occ21    2.000000  2.000000  2.000000  2.000000
              occ22    2.000000  2.000000  2.000000  2.000000
              occ23    2.000000  2.000000  2.000000  2.000000
              occ31    2.000000  2.000000  2.000000  2.000000
              occ32    2.000000  2.000000  2.000000  2.000000
              occ33    2.000000  2.000000  2.000000  2.000000
            rfdir           1       1       1
            rprim      0.0000000000E+00  5.0000000000E-01  5.0000000000E-01
                       5.0000000000E-01  0.0000000000E+00  5.0000000000E-01
                       5.0000000000E-01  5.0000000000E-01  0.0000000000E+00
           shiftk      5.00000000E-01  5.00000000E-01  5.00000000E-01
          spgroup11       216
          spgroup21        44
          spgroup22        44
          spgroup23        44
          spgroup31        44
          spgroup32        44
          spgroup33        44
           symafm11      1    1    1    1    1    1    1    1    1    1
                         1    1    1    1    1    1    1    1    1    1
                         1    1    1    1
           symafm21      1    1    1    1
           symafm22      1    1    1    1
           symafm23      1    1    1    1
           symafm31      1    1    1    1
           symafm32      1    1    1    1
           symafm33      1    1    1    1
           symrel11    1  0  0   0  1  0   0  0  1       0 -1  1   0 -1  0   1 -1  0
                      -1  0  0  -1  0  1  -1  1  0       0  1 -1   1  0 -1   0  0 -1
                      -1  0  0  -1  1  0  -1  0  1       0 -1  1   1 -1  0   0 -1  0
                       1  0  0   0  0  1   0  1  0       0  1 -1   0  0 -1   1  0 -1
                      -1  0  1  -1  1  0  -1  0  0       0 -1  0   1 -1  0   0 -1  1
                       1  0 -1   0  0 -1   0  1 -1       0  1  0   0  0  1   1  0  0
                       1  0 -1   0  1 -1   0  0 -1       0 -1  0   0 -1  1   1 -1  0
                      -1  0  1  -1  0  0  -1  1  0       0  1  0   1  0  0   0  0  1
                       0  0 -1   0  1 -1   1  0 -1       1 -1  0   0 -1  1   0 -1  0
                       0  0  1   1  0  0   0  1  0      -1  1  0  -1  0  0  -1  0  1
                       0  0  1   0  1  0   1  0  0       1 -1  0   0 -1  0   0 -1  1
                       0  0 -1   1  0 -1   0  1 -1      -1  1  0  -1  0  1  -1  0  0
           symrel21    1  0  0   0  1  0   0  0  1      -1  0  0  -1  0  1  -1  1  0
                      -1  0  0  -1  1  0  -1  0  1       1  0  0   0  0  1   0  1  0
           symrel22    1  0  0   0  1  0   0  0  1      -1  0  0  -1  0  1  -1  1  0
                      -1  0  0  -1  1  0  -1  0  1       1  0  0   0  0  1   0  1  0
           symrel23    1  0  0   0  1  0   0  0  1      -1  0  0  -1  0  1  -1  1  0
                      -1  0  0  -1  1  0  -1  0  1       1  0  0   0  0  1   0  1  0
           symrel31    1  0  0   0  1  0   0  0  1      -1  0  0  -1  0  1  -1  1  0
                      -1  0  0  -1  1  0  -1  0  1       1  0  0   0  0  1   0  1  0
           symrel32    1  0  0   0  1  0   0  0  1      -1  0  0  -1  0  1  -1  1  0
                      -1  0  0  -1  1  0  -1  0  1       1  0  0   0  0  1   0  1  0
           symrel33    1  0  0   0  1  0   0  0  1      -1  0  0  -1  0  1  -1  1  0
                      -1  0  0  -1  1  0  -1  0  1       1  0  0   0  0  1   0  1  0
            tnons11    0.0000000  0.0000000  0.0000000     0.0000000  0.0000000  0.0000000
                       0.0000000  0.0000000  0.0000000     0.0000000  0.0000000  0.0000000
                       0.0000000  0.0000000  0.0000000     0.0000000  0.0000000  0.0000000
                       0.0000000  0.0000000  0.0000000     0.0000000  0.0000000  0.0000000
                       0.0000000  0.0000000  0.0000000     0.0000000  0.0000000  0.0000000
                       0.0000000  0.0000000  0.0000000     0.0000000  0.0000000  0.0000000
                       0.0000000  0.0000000  0.0000000     0.0000000  0.0000000  0.0000000
                       0.0000000  0.0000000  0.0000000     0.0000000  0.0000000  0.0000000
                       0.0000000  0.0000000  0.0000000     0.0000000  0.0000000  0.0000000
                       0.0000000  0.0000000  0.0000000     0.0000000  0.0000000  0.0000000
                       0.0000000  0.0000000  0.0000000     0.0000000  0.0000000  0.0000000
                       0.0000000  0.0000000  0.0000000     0.0000000  0.0000000  0.0000000
            tnons21    0.0000000  0.0000000  0.0000000     0.0000000  0.0000000  0.0000000
                       0.0000000  0.0000000  0.0000000     0.0000000  0.0000000  0.0000000
            tnons22    0.0000000  0.0000000  0.0000000     0.0000000  0.0000000  0.0000000
                       0.0000000  0.0000000  0.0000000     0.0000000  0.0000000  0.0000000
            tnons23    0.0000000  0.0000000  0.0000000     0.0000000  0.0000000  0.0000000
                       0.0000000  0.0000000  0.0000000     0.0000000  0.0000000  0.0000000
            tnons31    0.0000000  0.0000000  0.0000000     0.0000000  0.0000000  0.0000000
                       0.0000000  0.0000000  0.0000000     0.0000000  0.0000000  0.0000000
            tnons32    0.0000000  0.0000000  0.0000000     0.0000000  0.0000000  0.0000000
                       0.0000000  0.0000000  0.0000000     0.0000000  0.0000000  0.0000000
            tnons33    0.0000000  0.0000000  0.0000000     0.0000000  0.0000000  0.0000000
                       0.0000000  0.0000000  0.0000000     0.0000000  0.0000000  0.0000000
           toldfe      1.00000000E-12 Hartree
            typat      1  2
              wtk11      0.75000    0.25000
              wtk21      0.25000    0.25000    0.12500    0.12500    0.12500    0.12500
              wtk22      0.25000    0.25000    0.12500    0.12500    0.12500    0.12500
              wtk23      0.25000    0.25000    0.12500    0.12500    0.12500    0.12500
              wtk31      0.25000    0.25000    0.12500    0.12500    0.12500    0.12500
              wtk32      0.25000    0.25000    0.12500    0.12500    0.12500    0.12500
              wtk33      0.25000    0.25000    0.12500    0.12500    0.12500    0.12500
           xangst      0.0000000000E+00  0.0000000000E+00  0.0000000000E+00
                       1.4045065400E+00  1.4045065400E+00  1.4045065400E+00
            xcart      0.0000000000E+00  0.0000000000E+00  0.0000000000E+00
                       2.6541327125E+00  2.6541327125E+00  2.6541327125E+00
             xred      0.0000000000E+00  0.0000000000E+00  0.0000000000E+00
                       2.5000000000E-01  2.5000000000E-01  2.5000000000E-01
            znucl       13.00000   33.00000

================================================================================

 chkinp: Checking input parameters for consistency, jdtset=  11.

 chkinp: Checking input parameters for consistency, jdtset=  21.

 chkinp: Checking input parameters for consistency, jdtset=  22.

 chkinp: Checking input parameters for consistency, jdtset=  23.

 chkinp: Checking input parameters for consistency, jdtset=  31.

 chkinp: Checking input parameters for consistency, jdtset=  32.

 chkinp: Checking input parameters for consistency, jdtset=  33.

================================================================================
== DATASET 11 ==================================================================
-   nproc =    1

 Exchange-correlation functional for the present dataset will be:
  LDA: new Teter (4/93) with spin-polarized option - ixc=1
 Citation for XC functional:
  S. Goedecker, M. Teter, J. Huetter, PRB 54, 1703 (1996)

 Real(R)+Recip(G) space primitive vectors, cartesian coordinates (Bohr,Bohr^-1):
 R(1)=  0.0000000  5.3082654  5.3082654  G(1)= -0.0941927  0.0941927  0.0941927
 R(2)=  5.3082654  0.0000000  5.3082654  G(2)=  0.0941927 -0.0941927  0.0941927
 R(3)=  5.3082654  5.3082654  0.0000000  G(3)=  0.0941927  0.0941927 -0.0941927
 Unit cell volume ucvol=  2.9914923E+02 bohr^3
 Angles (23,13,12)=  6.00000000E+01  6.00000000E+01  6.00000000E+01 degrees

 getcut: wavevector=  0.0000  0.0000  0.0000  ngfft=  12  12  12
         ecut(hartree)=      3.000   => boxcut(ratio)=   2.05016

--- Pseudopotential description ------------------------------------------------
- pspini: atom type   1  psp file is /home/buildbot/bb/ABINIT/abiref_gnu_5.3_serial/gonze_8.0.3-public/tests/Psps_for_tests/13al.pspnc
- pspatm: opening atomic psp file    /home/buildbot/bb/ABINIT/abiref_gnu_5.3_serial/gonze_8.0.3-public/tests/Psps_for_tests/13al.pspnc
-  Troullier-Martins psp for element  Al        Thu Oct 27 17:31:05 EDT 1994
- 13.00000   3.00000    940714                znucl, zion, pspdat
    1    1    2    2      2001   0.00000      pspcod,pspxc,lmax,lloc,mmax,r2well
    0   4.657  11.889    1   2.2761078        l,e99.0,e99.9,nproj,rcpsp
   0.00000000   0.00000000   0.00000000   0.00000000     rms, ekb1, ekb2, epsatm
    1   1.829   2.761    1   2.2761078        l,e99.0,e99.9,nproj,rcpsp
   0.00000000   0.00000000   0.00000000   0.00000000     rms, ekb1, ekb2, epsatm
    2   0.000   0.000    0   2.2761078        l,e99.0,e99.9,nproj,rcpsp
   0.00000000   0.00000000   0.00000000   0.00000000     rms, ekb1, ekb2, epsatm
    2.09673076353074    0.12648111154518    1.01742091001718   rchrg,fchrg,qchrg
 pspatm : epsatm=    0.22155260
         --- l  ekb(1:nproj) -->
             0    2.540658
             1    1.353815
 pspatm: atomic psp has been read  and splines computed

- pspini: atom type   2  psp file is /home/buildbot/bb/ABINIT/abiref_gnu_5.3_serial/gonze_8.0.3-public/tests/Psps_for_tests/33as.pspnc
- pspatm: opening atomic psp file    /home/buildbot/bb/ABINIT/abiref_gnu_5.3_serial/gonze_8.0.3-public/tests/Psps_for_tests/33as.pspnc
-  Troullier-Martins psp for element  As        Thu Oct 27 17:37:14 EDT 1994
- 33.00000   5.00000    940714                znucl, zion, pspdat
    1    1    1    1      2001   0.00000      pspcod,pspxc,lmax,lloc,mmax,r2well
    0   4.772  10.829    1   2.5306160        l,e99.0,e99.9,nproj,rcpsp
   0.00000000   0.00000000   0.00000000   0.00000000     rms, ekb1, ekb2, epsatm
    1   2.745   5.580    0   2.5306160        l,e99.0,e99.9,nproj,rcpsp
   0.00000000   0.00000000   0.00000000   0.00000000     rms, ekb1, ekb2, epsatm
    2.05731715564010    0.36322996461007    2.76014815959125   rchrg,fchrg,qchrg
 pspatm : epsatm=   27.20579911
         --- l  ekb(1:nproj) -->
             0    0.838751
 pspatm: atomic psp has been read  and splines computed

   2.19418814E+02                                ecore*ucvol(ha*bohr**3)
--------------------------------------------------------------------------------

_setup2: Arith. and geom. avg. npw (full set) are      72.500      72.452
  initberry: for direction 1, nkstr =   2, nstr =     16
  initberry: for direction 2, nkstr =   2, nstr =     16
  initberry: for direction 3, nkstr =   2, nstr =     16

================================================================================

     iter   Etot(hartree)      deltaE(h)  residm     vres2
 ETOT  1  -10.088993844650    -1.009E+01 1.111E-02 1.219E+00
 ETOT  2  -10.094201850272    -5.208E-03 7.095E-08 3.515E-02
 ETOT  3  -10.094342566206    -1.407E-04 4.453E-06 3.277E-03
 ETOT  4  -10.094352263492    -9.697E-06 1.648E-07 1.116E-04
 ETOT  5  -10.094352443076    -1.796E-07 2.905E-09 1.029E-06
 ETOT  6  -10.094352445013    -1.937E-09 3.379E-11 2.127E-08
 ETOT  7  -10.094352445042    -2.913E-11 4.666E-13 6.125E-10
 ETOT  8  -10.094352445043    -1.261E-12 2.924E-14 3.325E-12
 ETOT  9  -10.094352445043     0.000E+00 4.351E-16 4.775E-14
 ETOT 10  -10.094352445043    -1.776E-15 5.143E-18 1.450E-17

 At SCF step   10, etot is converged : 
  for the second time, diff in etot=  1.776E-15 < toldfe=  1.000E-12

 Computing the polarization (Berry phase) for reciprocal vector:
  0.50000  0.00000  0.00000 (in reduced coordinates)
 -0.04710  0.04710  0.04710 (in cartesian coordinates - atomic units)
 Number of strings:    16
 Number of k points in string:    2

 Summary of the results
 Electronic Berry phase     1.536759193E-02
            Ionic phase    -7.500000000E-01
            Total phase    -7.346324081E-01
    Remapping in [-1,1]    -7.346324081E-01

           Polarization    -1.505234608E-02 (a.u. of charge)/bohr^2
           Polarization    -8.612163907E-01 C/m^2


 Computing the polarization (Berry phase) for reciprocal vector:
  0.00000  0.50000  0.00000 (in reduced coordinates)
  0.04710 -0.04710  0.04710 (in cartesian coordinates - atomic units)
 Number of strings:    16
 Number of k points in string:    2

 Summary of the results
 Electronic Berry phase     1.536759193E-02
            Ionic phase    -7.500000000E-01
            Total phase    -7.346324081E-01
    Remapping in [-1,1]    -7.346324081E-01

           Polarization    -1.505234608E-02 (a.u. of charge)/bohr^2
           Polarization    -8.612163907E-01 C/m^2


 Computing the polarization (Berry phase) for reciprocal vector:
  0.00000  0.00000  0.50000 (in reduced coordinates)
  0.04710  0.04710 -0.04710 (in cartesian coordinates - atomic units)
 Number of strings:    16
 Number of k points in string:    2

 Summary of the results
 Electronic Berry phase     1.536759193E-02
            Ionic phase    -7.500000000E-01
            Total phase    -7.346324081E-01
    Remapping in [-1,1]    -7.346324081E-01

           Polarization    -1.505234608E-02 (a.u. of charge)/bohr^2
           Polarization    -8.612163907E-01 C/m^2


 Polarization in cartesian coordinates (a.u.):
 (the sum of the electronic and ionic Berry phase has been folded into [-1, 1])
     Electronic berry phase:        0.545381697E-03   0.545381697E-03   0.545381697E-03
     Ionic:                        -0.266168099E-01  -0.266168099E-01  -0.266168099E-01  
     Total:                        -0.260714282E-01  -0.260714282E-01  -0.260714282E-01

 Polarization in cartesian coordinates (C/m^2):
 (the sum of the electronic and ionic Berry phase has been folded into [-1, 1])
     Electronic berry phase:        0.312038837E-01   0.312038837E-01   0.312038837E-01
     Ionic:                        -0.152287443E+01  -0.152287443E+01  -0.152287443E+01  
     Total:                        -0.149167055E+01  -0.149167055E+01  -0.149167055E+01

 Cartesian components of stress tensor (hartree/bohr^3)
  sigma(1 1)=  2.50331248E-04  sigma(3 2)=  0.00000000E+00
  sigma(2 2)=  2.50331248E-04  sigma(3 1)=  0.00000000E+00
  sigma(3 3)=  2.50331248E-04  sigma(2 1)=  0.00000000E+00

 Integrated electronic density in atomic spheres:
 ------------------------------------------------
 Atom  Sphere_radius  Integrated_density
    1        2.00000          0.89333187
    2        2.00000          2.50527590
================================================================================

 ----iterations are completed or convergence reached----

 Mean square residual over all n,k,spin=   1.7827E-18; max=  5.1433E-18
 reduced coordinates (array xred) for    2 atoms
       0.000000000000      0.000000000000      0.000000000000
       0.250000000000      0.250000000000      0.250000000000
 rms dE/dt=  9.1090E-31; max dE/dt=  0.0000E+00; dE/dt below (all hartree)
    1       0.000000000000      0.000000000000      0.000000000000
    2      -0.000000000000      0.000000000000     -0.000000000000

 cartesian coordinates (angstrom) at end:
    1      0.00000000000000     0.00000000000000     0.00000000000000
    2      1.40450654002815     1.40450654002815     1.40450654002815

 cartesian forces (hartree/bohr) at end:
    1     -0.00000000000000    -0.00000000000000    -0.00000000000000
    2     -0.00000000000000     0.00000000000000    -0.00000000000000
 frms,max,avg= 8.5799978E-32 1.4860992E-31   0.000E+00  0.000E+00  0.000E+00 h/b

 cartesian forces (eV/Angstrom) at end:
    1     -0.00000000000000    -0.00000000000000    -0.00000000000000
    2     -0.00000000000000     0.00000000000000    -0.00000000000000
 frms,max,avg= 4.4120119E-30 7.6418287E-30   0.000E+00  0.000E+00  0.000E+00 e/A
 length scales= 10.616530850000 10.616530850000 10.616530850000 bohr
              =  5.618026160113  5.618026160113  5.618026160113 angstroms
 prteigrs : about to open file tsv4_78o_DS11_EIG
 Fermi (or HOMO) energy (hartree) =   0.07128   Average Vxc (hartree)=  -0.34434
 Eigenvalues (hartree) for nkpt=   2  k points:
 kpt#   1, nband=  5, wtk=  0.75000, kpt= -0.2500  0.5000  0.0000 (reduced coord)
  -0.28593   -0.09851   -0.01560    0.02645    0.17585
 prteigrs : prtvol=0 or 1, do not print more k-points.


--------------------------------------------------------------------------------
 Components of total free energy (in Hartree) :

    Kinetic energy  =  2.92740821510649E+00
    Hartree energy  =  7.97512420601029E-01
    XC energy       = -4.34129937169317E+00
    Ewald energy    = -8.47467935444799E+00
    PspCore energy  =  7.33476114489264E-01
    Loc. psp. energy= -2.38281143523839E+00
    NL   psp  energy=  6.46040966139344E-01
    >>>>>>>>> Etotal= -1.00943524450434E+01

 Other information on the energy :
    Total energy(eV)= -2.74681299200206E+02 ; Band energy (Ha)=  -6.7139604398E-01
--------------------------------------------------------------------------------

 Cartesian components of stress tensor (hartree/bohr^3)
  sigma(1 1)=  2.50331248E-04  sigma(3 2)=  0.00000000E+00
  sigma(2 2)=  2.50331248E-04  sigma(3 1)=  0.00000000E+00
  sigma(3 3)=  2.50331248E-04  sigma(2 1)=  0.00000000E+00

-Cartesian components of stress tensor (GPa)         [Pressure= -7.3650E+00 GPa]
- sigma(1 1)=  7.36499835E+00  sigma(3 2)=  0.00000000E+00
- sigma(2 2)=  7.36499835E+00  sigma(3 1)=  0.00000000E+00
- sigma(3 3)=  7.36499835E+00  sigma(2 1)=  0.00000000E+00

================================================================================
== DATASET 21 ==================================================================
-   nproc =    1

 mkfilename : getwfk/=0, take file _WFK from output of DATASET  11.

 Exchange-correlation functional for the present dataset will be:
  LDA: new Teter (4/93) with spin-polarized option - ixc=1
 Citation for XC functional:
  S. Goedecker, M. Teter, J. Huetter, PRB 54, 1703 (1996)

 Real(R)+Recip(G) space primitive vectors, cartesian coordinates (Bohr,Bohr^-1):
 R(1)=  0.0000000  5.3082654  5.3082654  G(1)= -0.0941927  0.0941927  0.0941927
 R(2)=  5.3082654  0.0000000  5.3082654  G(2)=  0.0941927 -0.0941927  0.0941927
 R(3)=  5.3082654  5.3082654  0.0000000  G(3)=  0.0941927  0.0941927 -0.0941927
 Unit cell volume ucvol=  2.9914923E+02 bohr^3
 Angles (23,13,12)=  6.00000000E+01  6.00000000E+01  6.00000000E+01 degrees

 getcut: wavevector=  0.0000  0.0000  0.0000  ngfft=  12  12  12
         ecut(hartree)=      3.000   => boxcut(ratio)=   2.05016
--------------------------------------------------------------------------------

-inwffil : will read wavefunctions from disk file tsv4_78o_DS11_WFK
_setup2: Arith. and geom. avg. npw (full set) are      72.500      72.452
  initberry: for direction 1, nkstr =   2, nstr =     16
  initberry: for direction 2, nkstr =   2, nstr =     16
  initberry: for direction 3, nkstr =   2, nstr =     16

 initberry: COMMENT - 
  As a rough estimate,
  to be below the critical field, the bandgap of your system
  should be larger than    0.03 eV.


================================================================================

     iter   Etot(hartree)      deltaE(h)  residm     vres2
 ETOT  1  -10.091140154249    -1.009E+01 1.126E-05 4.802E-01
 ETOT  2  -10.093471177007    -2.331E-03 1.274E-07 1.985E-02
 ETOT  3  -10.093572758970    -1.016E-04 8.528E-07 2.602E-04
 ETOT  4  -10.093573347046    -5.881E-07 1.295E-07 1.002E-05
 ETOT  5  -10.093573363690    -1.664E-08 1.279E-07 8.090E-08
 ETOT  6  -10.093573363830    -1.401E-10 1.275E-07 3.473E-09
 ETOT  7  -10.093573363835    -5.677E-12 1.275E-07 1.075E-10
 ETOT  8  -10.093573363835    -2.007E-13 1.275E-07 6.778E-13
 ETOT  9  -10.093573363835    -7.105E-15 1.275E-07 8.183E-15

 At SCF step    9, etot is converged : 
  for the second time, diff in etot=  7.105E-15 < toldfe=  1.000E-12

 Computing the polarization (Berry phase) for reciprocal vector:
  0.50000  0.00000  0.00000 (in reduced coordinates)
 -0.04710  0.04710  0.04710 (in cartesian coordinates - atomic units)
 Number of strings:    16
 Number of k points in string:    2

 Summary of the results
 Electronic Berry phase     1.423224923E-02
            Ionic phase    -7.500000000E-01
            Total phase    -7.357677508E-01
    Remapping in [-1,1]    -7.357677508E-01

           Polarization    -1.507560883E-02 (a.u. of charge)/bohr^2
           Polarization    -8.625473635E-01 C/m^2


 Computing the polarization (Berry phase) for reciprocal vector:
  0.00000  0.50000  0.00000 (in reduced coordinates)
  0.04710 -0.04710  0.04710 (in cartesian coordinates - atomic units)
 Number of strings:    16
 Number of k points in string:    2

 Summary of the results
 Electronic Berry phase     1.673254345E-02
            Ionic phase    -7.500000000E-01
            Total phase    -7.332674565E-01
    Remapping in [-1,1]    -7.332674565E-01

           Polarization    -1.502437873E-02 (a.u. of charge)/bohr^2
           Polarization    -8.596162454E-01 C/m^2


 Computing the polarization (Berry phase) for reciprocal vector:
  0.00000  0.00000  0.50000 (in reduced coordinates)
  0.04710  0.04710 -0.04710 (in cartesian coordinates - atomic units)
 Number of strings:    16
 Number of k points in string:    2

 Summary of the results
 Electronic Berry phase     1.673254345E-02
            Ionic phase    -7.500000000E-01
            Total phase    -7.332674565E-01
    Remapping in [-1,1]    -7.332674565E-01

           Polarization    -1.502437873E-02 (a.u. of charge)/bohr^2
           Polarization    -8.596162454E-01 C/m^2


 Polarization in cartesian coordinates (a.u.):
 (the sum of the electronic and ionic Berry phase has been folded into [-1, 1])
     Electronic berry phase:        0.593822571E-03   0.549456000E-03   0.549456000E-03
     Ionic:                        -0.266168099E-01  -0.266168099E-01  -0.266168099E-01  
     Total:                        -0.260229873E-01  -0.260673539E-01  -0.260673539E-01

 Polarization in cartesian coordinates (C/m^2):
 (the sum of the electronic and ionic Berry phase has been folded into [-1, 1])
     Electronic berry phase:        0.339754167E-01   0.314369940E-01   0.314369940E-01
     Ionic:                        -0.152287443E+01  -0.152287443E+01  -0.152287443E+01  
     Total:                        -0.148889901E+01  -0.149143743E+01  -0.149143743E+01

 Stress tensor under a constant electric field:

 Cartesian components of Maxwell stress tensor (hartree/bohr^3)
 Maxstr(1 1)=  3.16628699E-11 Maxstr(3 2)=  0.00000000E+00
 Maxstr(2 2)= -3.16628699E-11 Maxstr(3 1)=  0.00000000E+00
 Maxstr(3 3)= -3.16628699E-11 Maxstr(2 1)=  0.00000000E+00


 Cartesian components of stress tensor (hartree/bohr^3)
  sigma(1 1)=  2.50197302E-04  sigma(3 2)=  1.16220676E-06
  sigma(2 2)=  2.50195539E-04  sigma(3 1)=  0.00000000E+00
  sigma(3 3)=  2.50195539E-04  sigma(2 1)=  0.00000000E+00

 Integrated electronic density in atomic spheres:
 ------------------------------------------------
 Atom  Sphere_radius  Integrated_density
    1        2.00000          0.89335809
    2        2.00000          2.50530170
================================================================================

 ----iterations are completed or convergence reached----

 Mean square residual over all n,k,spin=   3.4228E-08; max=  1.2754E-07
 reduced coordinates (array xred) for    2 atoms
       0.000000000000      0.000000000000      0.000000000000
       0.250000000000      0.250000000000      0.250000000000
 rms dE/dt=  9.7523E-04; max dE/dt=  1.1944E-03; dE/dt below (all hartree)
    1       0.000000000000     -0.001194402664     -0.001194402664
    2       0.000000000000      0.001194405291      0.001194405291

 cartesian coordinates (angstrom) at end:
    1      0.00000000000000     0.00000000000000     0.00000000000000
    2      1.40450654002815     1.40450654002815     1.40450654002815

 cartesian forces (hartree/bohr) at end:
    1      0.00022500833742     0.00000000000000    -0.00000000000000
    2     -0.00022500833742    -0.00000000000000     0.00000000000000
 frms,max,avg= 1.2990862E-04 2.2500834E-04  -2.474E-10  0.000E+00  0.000E+00 h/b

 cartesian forces (eV/Angstrom) at end:
    1      0.01157039294573     0.00000000000000    -0.00000000000000
    2     -0.01157039294573    -0.00000000000000     0.00000000000000
 frms,max,avg= 6.6801695E-03 1.1570393E-02  -1.272E-08  0.000E+00  0.000E+00 e/A
 length scales= 10.616530850000 10.616530850000 10.616530850000 bohr
              =  5.618026160113  5.618026160113  5.618026160113 angstroms
 prteigrs : about to open file tsv4_78o_DS21_EIG
 Fermi (or HOMO) energy (hartree) =   0.07129   Average Vxc (hartree)=  -0.34434
 Eigenvalues (hartree) for nkpt=   6  k points:
 kpt#   1, nband=  4, wtk=  0.25000, kpt= -0.2500  0.5000  0.0000 (reduced coord)
  -0.28593   -0.09852   -0.01560    0.02645
 prteigrs : prtvol=0 or 1, do not print more k-points.


--------------------------------------------------------------------------------
 Components of total free energy (in Hartree) :

    Kinetic energy  =  2.92741042995631E+00
    Hartree energy  =  7.97513859623995E-01
    XC energy       = -4.34130561000479E+00
    Ewald energy    = -8.47467935444799E+00
    PspCore energy  =  7.33476114489264E-01
    Loc. psp. energy= -2.38287099286446E+00
    NL   psp  energy=  6.46103832782496E-01
    Electric energy =  7.78356629676990E-04
    Kohn-Sham energy= -1.00943517204652E+01
    >>>>>>>>> Etotal= -1.00935733638355E+01

 Other information on the energy :
    Total energy(eV)= -2.74660099322399E+02 ; Band energy (Ha)=  -6.7139124016E-01
--------------------------------------------------------------------------------

Constant unreduced E calculation  - final values:
 (a. u.)
       E:   1.000000000E-04   0.000000000E+00   0.000000000E+00  
       P:  -2.602298731E-02  -2.606735388E-02  -2.606735388E-02  

    ebar:   0.000000000E+00   5.308265425E-04   5.308265425E-04  
    pbar:  -3.477678560E+00  -3.474719060E+00  -3.474719060E+00  

       e:  -2.242308673E-04   2.242308673E-04   2.242308673E-04  
       p:  -7.357677508E-01  -7.332674565E-01  -7.332674565E-01  

 (S.I.), that is V/m for E, and C/m^2 for P
-      E:   5.142206319E+07   0.000000000E+00   0.000000000E+00  
       P:  -1.488899012E+00  -1.491437435E+00  -1.491437435E+00  


 Please check: COMMENT - 
  As a rough estimate,
  to be below the critical field, the bandgap of your system
  should be larger than    0.03 eV.

--------------------------------------------------------------------------------

 Cartesian components of stress tensor (hartree/bohr^3)
  sigma(1 1)=  2.50197302E-04  sigma(3 2)=  1.16220676E-06
  sigma(2 2)=  2.50195539E-04  sigma(3 1)=  0.00000000E+00
  sigma(3 3)=  2.50195539E-04  sigma(2 1)=  0.00000000E+00

-Cartesian components of stress tensor (GPa)         [Pressure= -7.3610E+00 GPa]
- sigma(1 1)=  7.36105753E+00  sigma(3 2)=  3.41932978E-02
- sigma(2 2)=  7.36100566E+00  sigma(3 1)=  0.00000000E+00
- sigma(3 3)=  7.36100566E+00  sigma(2 1)=  0.00000000E+00

================================================================================
== DATASET 22 ==================================================================
-   nproc =    1

 mkfilename : getwfk/=0, take file _WFK from output of DATASET  21.

 Exchange-correlation functional for the present dataset will be:
  LDA: new Teter (4/93) with spin-polarized option - ixc=1
 Citation for XC functional:
  S. Goedecker, M. Teter, J. Huetter, PRB 54, 1703 (1996)

 Real(R)+Recip(G) space primitive vectors, cartesian coordinates (Bohr,Bohr^-1):
 R(1)=  0.0000000  5.3082654  5.3082654  G(1)= -0.0941927  0.0941927  0.0941927
 R(2)=  5.3082654  0.0000000  5.3082654  G(2)=  0.0941927 -0.0941927  0.0941927
 R(3)=  5.3082654  5.3082654  0.0000000  G(3)=  0.0941927  0.0941927 -0.0941927
 Unit cell volume ucvol=  2.9914923E+02 bohr^3
 Angles (23,13,12)=  6.00000000E+01  6.00000000E+01  6.00000000E+01 degrees

 getcut: wavevector=  0.0000  0.0000  0.0000  ngfft=  12  12  12
         ecut(hartree)=      3.000   => boxcut(ratio)=   2.05016
--------------------------------------------------------------------------------

-inwffil : will read wavefunctions from disk file tsv4_78o_DS21_WFK
_setup2: Arith. and geom. avg. npw (full set) are      72.500      72.452
  initberry: for direction 1, nkstr =   2, nstr =     16
  initberry: for direction 2, nkstr =   2, nstr =     16
  initberry: for direction 3, nkstr =   2, nstr =     16

 initberry: COMMENT - 
  As a rough estimate,
  to be below the critical field, the bandgap of your system
  should be larger than    0.06 eV.


================================================================================

     iter   Etot(hartree)      deltaE(h)  residm     vres2
 ETOT  1  -10.092795911668    -1.009E+01 5.104E-07 1.268E-05
 ETOT  2  -10.092795969559    -5.789E-08 5.105E-07 7.673E-08
 ETOT  3  -10.092795969931    -3.724E-10 5.105E-07 6.237E-09
 ETOT  4  -10.092795969949    -1.760E-11 5.105E-07 1.766E-10
 ETOT  5  -10.092795969949    -3.268E-13 5.105E-07 1.515E-12
 ETOT  6  -10.092795969949    -3.020E-14 5.105E-07 2.632E-14

 At SCF step    6, etot is converged : 
  for the second time, diff in etot=  3.020E-14 < toldfe=  1.000E-12

 Computing the polarization (Berry phase) for reciprocal vector:
  0.50000  0.00000  0.00000 (in reduced coordinates)
 -0.04710  0.04710  0.04710 (in cartesian coordinates - atomic units)
 Number of strings:    16
 Number of k points in string:    2

 Summary of the results
 Electronic Berry phase     1.309702931E-02
            Ionic phase    -7.500000000E-01
            Total phase    -7.369029707E-01
    Remapping in [-1,1]    -7.369029707E-01

           Polarization    -1.509886907E-02 (a.u. of charge)/bohr^2
           Polarization    -8.638781924E-01 C/m^2


 Computing the polarization (Berry phase) for reciprocal vector:
  0.00000  0.50000  0.00000 (in reduced coordinates)
  0.04710 -0.04710  0.04710 (in cartesian coordinates - atomic units)
 Number of strings:    16
 Number of k points in string:    2

 Summary of the results
 Electronic Berry phase     1.809780655E-02
            Ionic phase    -7.500000000E-01
            Total phase    -7.319021934E-01
    Remapping in [-1,1]    -7.319021934E-01

           Polarization    -1.499640499E-02 (a.u. of charge)/bohr^2
           Polarization    -8.580157348E-01 C/m^2


 Computing the polarization (Berry phase) for reciprocal vector:
  0.00000  0.00000  0.50000 (in reduced coordinates)
  0.04710  0.04710 -0.04710 (in cartesian coordinates - atomic units)
 Number of strings:    16
 Number of k points in string:    2

 Summary of the results
 Electronic Berry phase     1.809780655E-02
            Ionic phase    -7.500000000E-01
            Total phase    -7.319021934E-01
    Remapping in [-1,1]    -7.319021934E-01

           Polarization    -1.499640499E-02 (a.u. of charge)/bohr^2
           Polarization    -8.580157348E-01 C/m^2


 Polarization in cartesian coordinates (a.u.):
 (the sum of the electronic and ionic Berry phase has been folded into [-1, 1])
     Electronic berry phase:        0.642274502E-03   0.553538010E-03   0.553538010E-03
     Ionic:                        -0.266168099E-01  -0.266168099E-01  -0.266168099E-01  
     Total:                        -0.259745354E-01  -0.260632719E-01  -0.260632719E-01

 Polarization in cartesian coordinates (C/m^2):
 (the sum of the electronic and ionic Berry phase has been folded into [-1, 1])
     Electronic berry phase:        0.367475824E-01   0.316705452E-01   0.316705452E-01
     Ionic:                        -0.152287443E+01  -0.152287443E+01  -0.152287443E+01  
     Total:                        -0.148612685E+01  -0.149120388E+01  -0.149120388E+01

 Stress tensor under a constant electric field:

 Cartesian components of Maxwell stress tensor (hartree/bohr^3)
 Maxstr(1 1)=  1.26651480E-10 Maxstr(3 2)=  0.00000000E+00
 Maxstr(2 2)= -1.26651480E-10 Maxstr(3 1)=  0.00000000E+00
 Maxstr(3 3)= -1.26651480E-10 Maxstr(2 1)=  0.00000000E+00


 Cartesian components of stress tensor (hartree/bohr^3)
  sigma(1 1)=  2.50060971E-04  sigma(3 2)=  2.32703584E-06
  sigma(2 2)=  2.50053932E-04  sigma(3 1)=  0.00000000E+00
  sigma(3 3)=  2.50053932E-04  sigma(2 1)=  0.00000000E+00

 Integrated electronic density in atomic spheres:
 ------------------------------------------------
 Atom  Sphere_radius  Integrated_density
    1        2.00000          0.89338566
    2        2.00000          2.50532576
================================================================================

 ----iterations are completed or convergence reached----

 Mean square residual over all n,k,spin=   1.3694E-07; max=  5.1049E-07
 reduced coordinates (array xred) for    2 atoms
       0.000000000000      0.000000000000      0.000000000000
       0.250000000000      0.250000000000      0.250000000000
 rms dE/dt=  1.9519E-03; max dE/dt=  2.3906E-03; dE/dt below (all hartree)
    1       0.000000000000     -0.002390571240     -0.002390571240
    2       0.000000000000      0.002390579496      0.002390579496

 cartesian coordinates (angstrom) at end:
    1      0.00000000000000     0.00000000000000     0.00000000000000
    2      1.40450654002815     1.40450654002815     1.40450654002815

 cartesian forces (hartree/bohr) at end:
    1      0.00045034962953     0.00000000000000    -0.00000000000000
    2     -0.00045034962953    -0.00000000000000     0.00000000000000
 frms,max,avg= 2.6000948E-04 4.5034963E-04  -7.777E-10  0.000E+00  0.000E+00 h/b

 cartesian forces (eV/Angstrom) at end:
    1      0.02315790710852     0.00000000000000    -0.00000000000000
    2     -0.02315790710852    -0.00000000000000     0.00000000000000
 frms,max,avg= 1.3370224E-02 2.3157907E-02  -3.999E-08  0.000E+00  0.000E+00 e/A
 length scales= 10.616530850000 10.616530850000 10.616530850000 bohr
              =  5.618026160113  5.618026160113  5.618026160113 angstroms
 prteigrs : about to open file tsv4_78o_DS22_EIG
 Fermi (or HOMO) energy (hartree) =   0.07130   Average Vxc (hartree)=  -0.34434
 Eigenvalues (hartree) for nkpt=   6  k points:
 kpt#   1, nband=  4, wtk=  0.25000, kpt= -0.2500  0.5000  0.0000 (reduced coord)
  -0.28593   -0.09852   -0.01559    0.02644
 prteigrs : prtvol=0 or 1, do not print more k-points.


--------------------------------------------------------------------------------
 Components of total free energy (in Hartree) :

    Kinetic energy  =  2.92741106716675E+00
    Hartree energy  =  7.97513148825386E-01
    XC energy       = -4.34131117448494E+00
    Ewald energy    = -8.47467935444799E+00
    PspCore energy  =  7.33476114489264E-01
    Loc. psp. energy= -2.38292830414128E+00
    NL   psp  energy=  6.46168956311541E-01
    Electric energy =  1.55357633240300E-03
    Kohn-Sham energy= -1.00943495462813E+01
    >>>>>>>>> Etotal= -1.00927959699489E+01

 Other information on the energy :
    Total energy(eV)= -2.74638945358940E+02 ; Band energy (Ha)=  -6.7138691923E-01
--------------------------------------------------------------------------------

Constant unreduced E calculation  - final values:
 (a. u.)
       E:   2.000000000E-04   0.000000000E+00   0.000000000E+00  
       P:  -2.597453538E-02  -2.606327187E-02  -2.606327187E-02  

    ebar:   0.000000000E+00   1.061653085E-03   1.061653085E-03  
    pbar:  -3.477133974E+00  -3.471214750E+00  -3.471214750E+00  

       e:  -4.484617347E-04   4.484617347E-04   4.484617347E-04  
       p:  -7.369029707E-01  -7.319021934E-01  -7.319021934E-01  

 (S.I.), that is V/m for E, and C/m^2 for P
-      E:   1.028441264E+08   0.000000000E+00   0.000000000E+00  
       P:  -1.486126846E+00  -1.491203884E+00  -1.491203884E+00  


 Please check: COMMENT - 
  As a rough estimate,
  to be below the critical field, the bandgap of your system
  should be larger than    0.06 eV.

--------------------------------------------------------------------------------

 Cartesian components of stress tensor (hartree/bohr^3)
  sigma(1 1)=  2.50060971E-04  sigma(3 2)=  2.32703584E-06
  sigma(2 2)=  2.50053932E-04  sigma(3 1)=  0.00000000E+00
  sigma(3 3)=  2.50053932E-04  sigma(2 1)=  0.00000000E+00

-Cartesian components of stress tensor (GPa)         [Pressure= -7.3569E+00 GPa]
- sigma(1 1)=  7.35704654E+00  sigma(3 2)=  6.84637466E-02
- sigma(2 2)=  7.35683944E+00  sigma(3 1)=  0.00000000E+00
- sigma(3 3)=  7.35683944E+00  sigma(2 1)=  0.00000000E+00

================================================================================
== DATASET 23 ==================================================================
-   nproc =    1

 mkfilename : getwfk/=0, take file _WFK from output of DATASET  22.

 Exchange-correlation functional for the present dataset will be:
  LDA: new Teter (4/93) with spin-polarized option - ixc=1
 Citation for XC functional:
  S. Goedecker, M. Teter, J. Huetter, PRB 54, 1703 (1996)

 Real(R)+Recip(G) space primitive vectors, cartesian coordinates (Bohr,Bohr^-1):
 R(1)=  0.0000000  5.3082654  5.3082654  G(1)= -0.0941927  0.0941927  0.0941927
 R(2)=  5.3082654  0.0000000  5.3082654  G(2)=  0.0941927 -0.0941927  0.0941927
 R(3)=  5.3082654  5.3082654  0.0000000  G(3)=  0.0941927  0.0941927 -0.0941927
 Unit cell volume ucvol=  2.9914923E+02 bohr^3
 Angles (23,13,12)=  6.00000000E+01  6.00000000E+01  6.00000000E+01 degrees

 getcut: wavevector=  0.0000  0.0000  0.0000  ngfft=  12  12  12
         ecut(hartree)=      3.000   => boxcut(ratio)=   2.05016
--------------------------------------------------------------------------------

-inwffil : will read wavefunctions from disk file tsv4_78o_DS22_WFK
_setup2: Arith. and geom. avg. npw (full set) are      72.500      72.452
  initberry: for direction 1, nkstr =   2, nstr =     16
  initberry: for direction 2, nkstr =   2, nstr =     16
  initberry: for direction 3, nkstr =   2, nstr =     16

 initberry: COMMENT - 
  As a rough estimate,
  to be below the critical field, the bandgap of your system
  should be larger than    0.09 eV.


================================================================================

     iter   Etot(hartree)      deltaE(h)  residm     vres2
 ETOT  1  -10.092020205438    -1.009E+01 1.149E-06 1.269E-05
 ETOT  2  -10.092020263361    -5.792E-08 1.150E-06 7.673E-08
 ETOT  3  -10.092020263734    -3.724E-10 1.150E-06 6.240E-09
 ETOT  4  -10.092020263751    -1.760E-11 1.150E-06 1.765E-10
 ETOT  5  -10.092020263752    -3.517E-13 1.150E-06 1.501E-12
 ETOT  6  -10.092020263752     3.730E-14 1.150E-06 2.409E-14

 At SCF step    6, etot is converged : 
  for the second time, diff in etot=  3.730E-14 < toldfe=  1.000E-12

 Computing the polarization (Berry phase) for reciprocal vector:
  0.50000  0.00000  0.00000 (in reduced coordinates)
 -0.04710  0.04710  0.04710 (in cartesian coordinates - atomic units)
 Number of strings:    16
 Number of k points in string:    2

 Summary of the results
 Electronic Berry phase     1.196190252E-02
            Ionic phase    -7.500000000E-01
            Total phase    -7.380380975E-01
    Remapping in [-1,1]    -7.380380975E-01

           Polarization    -1.512212740E-02 (a.u. of charge)/bohr^2
           Polarization    -8.652089121E-01 C/m^2


 Computing the polarization (Berry phase) for reciprocal vector:
  0.00000  0.50000  0.00000 (in reduced coordinates)
  0.04710 -0.04710  0.04710 (in cartesian coordinates - atomic units)
 Number of strings:    16
 Number of k points in string:    2

 Summary of the results
 Electronic Berry phase     1.946345341E-02
            Ionic phase    -7.500000000E-01
            Total phase    -7.305365466E-01
    Remapping in [-1,1]    -7.305365466E-01

           Polarization    -1.496842340E-02 (a.u. of charge)/bohr^2
           Polarization    -8.564147743E-01 C/m^2


 Computing the polarization (Berry phase) for reciprocal vector:
  0.00000  0.00000  0.50000 (in reduced coordinates)
  0.04710  0.04710 -0.04710 (in cartesian coordinates - atomic units)
 Number of strings:    16
 Number of k points in string:    2

 Summary of the results
 Electronic Berry phase     1.946345341E-02
            Ionic phase    -7.500000000E-01
            Total phase    -7.305365466E-01
    Remapping in [-1,1]    -7.305365466E-01

           Polarization    -1.496842340E-02 (a.u. of charge)/bohr^2
           Polarization    -8.564147743E-01 C/m^2


 Polarization in cartesian coordinates (a.u.):
 (the sum of the electronic and ionic Berry phase has been folded into [-1, 1])
     Electronic berry phase:        0.690740052E-03   0.557628483E-03   0.557628483E-03
     Ionic:                        -0.266168099E-01  -0.266168099E-01  -0.266168099E-01  
     Total:                        -0.259260698E-01  -0.260591814E-01  -0.260591814E-01

 Polarization in cartesian coordinates (C/m^2):
 (the sum of the electronic and ionic Berry phase has been folded into [-1, 1])
     Electronic berry phase:        0.395205273E-01   0.319045806E-01   0.319045806E-01
     Ionic:                        -0.152287443E+01  -0.152287443E+01  -0.152287443E+01  
     Total:                        -0.148335390E+01  -0.149096985E+01  -0.149096985E+01

 Stress tensor under a constant electric field:

 Cartesian components of Maxwell stress tensor (hartree/bohr^3)
 Maxstr(1 1)=  2.84965829E-10 Maxstr(3 2)=  0.00000000E+00
 Maxstr(2 2)= -2.84965829E-10 Maxstr(3 1)=  0.00000000E+00
 Maxstr(3 3)= -2.84965829E-10 Maxstr(2 1)=  0.00000000E+00


 Cartesian components of stress tensor (hartree/bohr^3)
  sigma(1 1)=  2.49922256E-04  sigma(3 2)=  3.49443487E-06
  sigma(2 2)=  2.49906426E-04  sigma(3 1)=  0.00000000E+00
  sigma(3 3)=  2.49906426E-04  sigma(2 1)=  0.00000000E+00

 Integrated electronic density in atomic spheres:
 ------------------------------------------------
 Atom  Sphere_radius  Integrated_density
    1        2.00000          0.89341460
    2        2.00000          2.50534809
================================================================================

 ----iterations are completed or convergence reached----

 Mean square residual over all n,k,spin=   3.0819E-07; max=  1.1495E-06
 reduced coordinates (array xred) for    2 atoms
       0.000000000000      0.000000000000      0.000000000000
       0.250000000000      0.250000000000      0.250000000000
 rms dE/dt=  2.9300E-03; max dE/dt=  3.5885E-03; dE/dt below (all hartree)
    1       0.000000000000     -0.003588530770     -0.003588530770
    2       0.000000000000      0.003588540529      0.003588540529

 cartesian coordinates (angstrom) at end:
    1      0.00000000000000     0.00000000000000     0.00000000000000
    2      1.40450654002815     1.40450654002815     1.40450654002815

 cartesian forces (hartree/bohr) at end:
    1      0.00067602792297    -0.00000000000000     0.00000000000000
    2     -0.00067602792297     0.00000000000000    -0.00000000000000
 frms,max,avg= 3.9030490E-04 6.7602792E-04  -9.192E-10  0.000E+00  0.000E+00 h/b

 cartesian forces (eV/Angstrom) at end:
    1      0.03476275057455    -0.00000000000000     0.00000000000000
    2     -0.03476275057455     0.00000000000000    -0.00000000000000
 frms,max,avg= 2.0070283E-02 3.4762751E-02  -4.727E-08  0.000E+00  0.000E+00 e/A
 length scales= 10.616530850000 10.616530850000 10.616530850000 bohr
              =  5.618026160113  5.618026160113  5.618026160113 angstroms
 prteigrs : about to open file tsv4_78o_DS23_EIG
 Fermi (or HOMO) energy (hartree) =   0.07131   Average Vxc (hartree)=  -0.34434
 Eigenvalues (hartree) for nkpt=   6  k points:
 kpt#   1, nband=  4, wtk=  0.25000, kpt= -0.2500  0.5000  0.0000 (reduced coord)
  -0.28593   -0.09853   -0.01558    0.02644
 prteigrs : prtvol=0 or 1, do not print more k-points.


--------------------------------------------------------------------------------
 Components of total free energy (in Hartree) :

    Kinetic energy  =  2.92741012437551E+00
    Hartree energy  =  7.97510285606990E-01
    XC energy       = -4.34131606451351E+00
    Ewald energy    = -8.47467935444799E+00
    PspCore energy  =  7.33476114489264E-01
    Loc. psp. energy= -2.38298336953577E+00
    NL   psp  energy=  6.46236342387843E-01
    Electric energy =  2.32565788590020E-03
    Kohn-Sham energy= -1.00943459216377E+01
    >>>>>>>>> Etotal= -1.00920202637518E+01

 Other information on the energy :
    Total energy(eV)= -2.74617837319848E+02 ; Band energy (Ha)=  -6.7138305671E-01
--------------------------------------------------------------------------------

Constant unreduced E calculation  - final values:
 (a. u.)
       E:   3.000000000E-04   0.000000000E+00   0.000000000E+00  
       P:  -2.592606983E-02  -2.605918140E-02  -2.605918140E-02  

    ebar:   0.000000000E+00   1.592479627E-03   1.592479627E-03  
    pbar:  -3.476588259E+00  -3.467708968E+00  -3.467708968E+00  

       e:  -6.726926020E-04   6.726926020E-04   6.726926020E-04  
       p:  -7.380380975E-01  -7.305365466E-01  -7.305365466E-01  

 (S.I.), that is V/m for E, and C/m^2 for P
-      E:   1.542661896E+08   0.000000000E+00   0.000000000E+00  
       P:  -1.483353901E+00  -1.490969848E+00  -1.490969848E+00  


 Please check: COMMENT - 
  As a rough estimate,
  to be below the critical field, the bandgap of your system
  should be larger than    0.09 eV.

--------------------------------------------------------------------------------

 Cartesian components of stress tensor (hartree/bohr^3)
  sigma(1 1)=  2.49922256E-04  sigma(3 2)=  3.49443487E-06
  sigma(2 2)=  2.49906426E-04  sigma(3 1)=  0.00000000E+00
  sigma(3 3)=  2.49906426E-04  sigma(2 1)=  0.00000000E+00

-Cartesian components of stress tensor (GPa)         [Pressure= -7.3527E+00 GPa]
- sigma(1 1)=  7.35296539E+00  sigma(3 2)=  1.02809806E-01
- sigma(2 2)=  7.35249965E+00  sigma(3 1)=  0.00000000E+00
- sigma(3 3)=  7.35249965E+00  sigma(2 1)=  0.00000000E+00

================================================================================
== DATASET 31 ==================================================================
-   nproc =    1

 mkfilename : getwfk/=0, take file _WFK from output of DATASET  11.

 Exchange-correlation functional for the present dataset will be:
  LDA: new Teter (4/93) with spin-polarized option - ixc=1
 Citation for XC functional:
  S. Goedecker, M. Teter, J. Huetter, PRB 54, 1703 (1996)

 Real(R)+Recip(G) space primitive vectors, cartesian coordinates (Bohr,Bohr^-1):
 R(1)=  0.0000000  5.3082654  5.3082654  G(1)= -0.0941927  0.0941927  0.0941927
 R(2)=  5.3082654  0.0000000  5.3082654  G(2)=  0.0941927 -0.0941927  0.0941927
 R(3)=  5.3082654  5.3082654  0.0000000  G(3)=  0.0941927  0.0941927 -0.0941927
 Unit cell volume ucvol=  2.9914923E+02 bohr^3
 Angles (23,13,12)=  6.00000000E+01  6.00000000E+01  6.00000000E+01 degrees

 getcut: wavevector=  0.0000  0.0000  0.0000  ngfft=  12  12  12
         ecut(hartree)=      3.000   => boxcut(ratio)=   2.05016
--------------------------------------------------------------------------------

-inwffil : will read wavefunctions from disk file tsv4_78o_DS11_WFK
_setup2: Arith. and geom. avg. npw (full set) are      72.500      72.452
  initberry: for direction 1, nkstr =   2, nstr =     16
  initberry: for direction 2, nkstr =   2, nstr =     16
  initberry: for direction 3, nkstr =   2, nstr =     16

 initberry: COMMENT - 
  As a rough estimate,
  to be below the critical field, the bandgap of your system
  should be larger than    0.03 eV.


================================================================================

     iter   Etot(hartree)      deltaE(h)  residm     vres2
 ETOT  1  -10.092697855615    -1.009E+01 1.129E-05 4.807E-01
 ETOT  2  -10.095030965491    -2.333E-03 1.275E-07 1.987E-02
 ETOT  3  -10.095132608561    -1.016E-04 8.513E-07 2.605E-04
 ETOT  4  -10.095133174592    -5.660E-07 1.300E-07 1.009E-05
 ETOT  5  -10.095133213040    -3.845E-08 1.273E-07 1.050E-07
 ETOT  6  -10.095133213263    -2.230E-10 1.274E-07 5.745E-09
 ETOT  7  -10.095133213273    -9.946E-12 1.274E-07 2.035E-10
 ETOT  8  -10.095133213273    -3.446E-13 1.274E-07 1.247E-12
 ETOT  9  -10.095133213273    -1.421E-14 1.274E-07 1.864E-14

 At SCF step    9, etot is converged : 
  for the second time, diff in etot=  1.421E-14 < toldfe=  1.000E-12

 Computing the polarization (Berry phase) for reciprocal vector:
  0.50000  0.00000  0.00000 (in reduced coordinates)
 -0.04710  0.04710  0.04710 (in cartesian coordinates - atomic units)
 Number of strings:    16
 Number of k points in string:    2

 Summary of the results
 Electronic Berry phase     1.650308713E-02
            Ionic phase    -7.500000000E-01
            Total phase    -7.334969129E-01
    Remapping in [-1,1]    -7.334969129E-01

           Polarization    -1.502908020E-02 (a.u. of charge)/bohr^2
           Polarization    -8.598852392E-01 C/m^2


 Computing the polarization (Berry phase) for reciprocal vector:
  0.00000  0.50000  0.00000 (in reduced coordinates)
  0.04710 -0.04710  0.04710 (in cartesian coordinates - atomic units)
 Number of strings:    16
 Number of k points in string:    2

 Summary of the results
 Electronic Berry phase     1.400288460E-02
            Ionic phase    -7.500000000E-01
            Total phase    -7.359971154E-01
    Remapping in [-1,1]    -7.359971154E-01

           Polarization    -1.508030843E-02 (a.u. of charge)/bohr^2
           Polarization    -8.628162498E-01 C/m^2


 Computing the polarization (Berry phase) for reciprocal vector:
  0.00000  0.00000  0.50000 (in reduced coordinates)
  0.04710  0.04710 -0.04710 (in cartesian coordinates - atomic units)
 Number of strings:    16
 Number of k points in string:    2

 Summary of the results
 Electronic Berry phase     1.400288460E-02
            Ionic phase    -7.500000000E-01
            Total phase    -7.359971154E-01
    Remapping in [-1,1]    -7.359971154E-01

           Polarization    -1.508030843E-02 (a.u. of charge)/bohr^2
           Polarization    -8.628162498E-01 C/m^2


 Polarization in cartesian coordinates (a.u.):
 (the sum of the electronic and ionic Berry phase has been folded into [-1, 1])
     Electronic berry phase:        0.496949490E-03   0.541314433E-03   0.541314433E-03
     Ionic:                        -0.266168099E-01  -0.266168099E-01  -0.266168099E-01  
     Total:                        -0.261198604E-01  -0.260754954E-01  -0.260754954E-01

 Polarization in cartesian coordinates (C/m^2):
 (the sum of the electronic and ionic Berry phase has been folded into [-1, 1])
     Electronic berry phase:        0.284328465E-01   0.309711762E-01   0.309711762E-01
     Ionic:                        -0.152287443E+01  -0.152287443E+01  -0.152287443E+01  
     Total:                        -0.149444158E+01  -0.149190325E+01  -0.149190325E+01

 Stress tensor under a constant electric field:

 Cartesian components of Maxwell stress tensor (hartree/bohr^3)
 Maxstr(1 1)=  3.16628699E-11 Maxstr(3 2)=  0.00000000E+00
 Maxstr(2 2)= -3.16628699E-11 Maxstr(3 1)= -0.00000000E+00
 Maxstr(3 3)= -3.16628699E-11 Maxstr(2 1)= -0.00000000E+00


 Cartesian components of stress tensor (hartree/bohr^3)
  sigma(1 1)=  2.50462867E-04  sigma(3 2)= -1.15964864E-06
  sigma(2 2)=  2.50461091E-04  sigma(3 1)=  0.00000000E+00
  sigma(3 3)=  2.50461091E-04  sigma(2 1)=  0.00000000E+00

 Integrated electronic density in atomic spheres:
 ------------------------------------------------
 Atom  Sphere_radius  Integrated_density
    1        2.00000          0.89330703
    2        2.00000          2.50524834
================================================================================

 ----iterations are completed or convergence reached----

 Mean square residual over all n,k,spin=   3.4217E-08; max=  1.2740E-07
 reduced coordinates (array xred) for    2 atoms
       0.000000000000      0.000000000000      0.000000000000
       0.250000000000      0.250000000000      0.250000000000
 rms dE/dt=  9.7378E-04; max dE/dt=  1.1926E-03; dE/dt below (all hartree)
    1       0.000000000000      0.001192631517      0.001192631517
    2       0.000000000000     -0.001192635225     -0.001192635225

 cartesian coordinates (angstrom) at end:
    1      0.00000000000000     0.00000000000000     0.00000000000000
    2      1.40450654002815     1.40450654002815     1.40450654002815

 cartesian forces (hartree/bohr) at end:
    1     -0.00022467478086    -0.00000000000000     0.00000000000000
    2      0.00022467478086     0.00000000000000    -0.00000000000000
 frms,max,avg= 1.2971605E-04 2.2467478E-04   3.493E-10  0.000E+00  0.000E+00 h/b

 cartesian forces (eV/Angstrom) at end:
    1     -0.01155324077900    -0.00000000000000     0.00000000000000
    2      0.01155324077900     0.00000000000000    -0.00000000000000
 frms,max,avg= 6.6702667E-03 1.1553241E-02   1.796E-08  0.000E+00  0.000E+00 e/A
 length scales= 10.616530850000 10.616530850000 10.616530850000 bohr
              =  5.618026160113  5.618026160113  5.618026160113 angstroms
 prteigrs : about to open file tsv4_78o_DS31_EIG
 Fermi (or HOMO) energy (hartree) =   0.07129   Average Vxc (hartree)=  -0.34434
 Eigenvalues (hartree) for nkpt=   6  k points:
 kpt#   1, nband=  4, wtk=  0.25000, kpt= -0.2500  0.5000  0.0000 (reduced coord)
  -0.28594   -0.09850   -0.01561    0.02645
 prteigrs : prtvol=0 or 1, do not print more k-points.


--------------------------------------------------------------------------------
 Components of total free energy (in Hartree) :

    Kinetic energy  =  2.92740441557941E+00
    Hartree energy  =  7.97508823495162E-01
    XC energy       = -4.34129245623303E+00
    Ewald energy    = -8.47467935444799E+00
    PspCore energy  =  7.33476114489264E-01
    Loc. psp. energy= -2.38274962525421E+00
    NL   psp  energy=  6.45980361733746E-01
    Electric energy = -7.81492635809397E-04
    Kohn-Sham energy= -1.00943517206376E+01
    >>>>>>>>> Etotal= -1.00951332132735E+01

 Other information on the energy :
    Total energy(eV)= -2.74702544984219E+02 ; Band energy (Ha)=  -6.7140129341E-01
--------------------------------------------------------------------------------

Constant unreduced E calculation  - final values:
 (a. u.)
       E:  -1.000000000E-04   0.000000000E+00   0.000000000E+00  
       P:  -2.611986039E-02  -2.607549545E-02  -2.607549545E-02  

    ebar:   0.000000000E+00  -5.308265425E-04  -5.308265425E-04  
    pbar:  -3.478764737E+00  -3.481724128E+00  -3.481724128E+00  

       e:   2.242308673E-04  -2.242308673E-04  -2.242308673E-04  
       p:  -7.334969129E-01  -7.359971154E-01  -7.359971154E-01  

 (S.I.), that is V/m for E, and C/m^2 for P
-      E:  -5.142206319E+07   0.000000000E+00   0.000000000E+00  
       P:  -1.494441582E+00  -1.491903253E+00  -1.491903253E+00  


 Please check: COMMENT - 
  As a rough estimate,
  to be below the critical field, the bandgap of your system
  should be larger than    0.03 eV.

--------------------------------------------------------------------------------

 Cartesian components of stress tensor (hartree/bohr^3)
  sigma(1 1)=  2.50462867E-04  sigma(3 2)= -1.15964864E-06
  sigma(2 2)=  2.50461091E-04  sigma(3 1)=  0.00000000E+00
  sigma(3 3)=  2.50461091E-04  sigma(2 1)=  0.00000000E+00

-Cartesian components of stress tensor (GPa)         [Pressure= -7.3688E+00 GPa]
- sigma(1 1)=  7.36887072E+00  sigma(3 2)= -3.41180353E-02
- sigma(2 2)=  7.36881847E+00  sigma(3 1)=  0.00000000E+00
- sigma(3 3)=  7.36881847E+00  sigma(2 1)=  0.00000000E+00

================================================================================
== DATASET 32 ==================================================================
-   nproc =    1

 mkfilename : getwfk/=0, take file _WFK from output of DATASET  31.

 Exchange-correlation functional for the present dataset will be:
  LDA: new Teter (4/93) with spin-polarized option - ixc=1
 Citation for XC functional:
  S. Goedecker, M. Teter, J. Huetter, PRB 54, 1703 (1996)

 Real(R)+Recip(G) space primitive vectors, cartesian coordinates (Bohr,Bohr^-1):
 R(1)=  0.0000000  5.3082654  5.3082654  G(1)= -0.0941927  0.0941927  0.0941927
 R(2)=  5.3082654  0.0000000  5.3082654  G(2)=  0.0941927 -0.0941927  0.0941927
 R(3)=  5.3082654  5.3082654  0.0000000  G(3)=  0.0941927  0.0941927 -0.0941927
 Unit cell volume ucvol=  2.9914923E+02 bohr^3
 Angles (23,13,12)=  6.00000000E+01  6.00000000E+01  6.00000000E+01 degrees

 getcut: wavevector=  0.0000  0.0000  0.0000  ngfft=  12  12  12
         ecut(hartree)=      3.000   => boxcut(ratio)=   2.05016
--------------------------------------------------------------------------------

-inwffil : will read wavefunctions from disk file tsv4_78o_DS31_WFK
_setup2: Arith. and geom. avg. npw (full set) are      72.500      72.452
  initberry: for direction 1, nkstr =   2, nstr =     16
  initberry: for direction 2, nkstr =   2, nstr =     16
  initberry: for direction 3, nkstr =   2, nstr =     16

 initberry: COMMENT - 
  As a rough estimate,
  to be below the critical field, the bandgap of your system
  should be larger than    0.06 eV.


================================================================================

     iter   Etot(hartree)      deltaE(h)  residm     vres2
 ETOT  1  -10.095915610090    -1.010E+01 5.093E-07 1.266E-05
 ETOT  2  -10.095915667913    -5.782E-08 5.094E-07 7.681E-08
 ETOT  3  -10.095915668286    -3.729E-10 5.094E-07 6.238E-09
 ETOT  4  -10.095915668304    -1.758E-11 5.095E-07 1.771E-10
 ETOT  5  -10.095915668304    -3.730E-13 5.094E-07 1.619E-12
 ETOT  6  -10.095915668304     0.000E+00 5.094E-07 5.181E-14

 At SCF step    6, etot is converged : 
  for the second time, diff in etot=  0.000E+00 < toldfe=  1.000E-12

 Computing the polarization (Berry phase) for reciprocal vector:
  0.50000  0.00000  0.00000 (in reduced coordinates)
 -0.04710  0.04710  0.04710 (in cartesian coordinates - atomic units)
 Number of strings:    16
 Number of k points in string:    2

 Summary of the results
 Electronic Berry phase     1.763875710E-02
            Ionic phase    -7.500000000E-01
            Total phase    -7.323612429E-01
    Remapping in [-1,1]    -7.323612429E-01

           Polarization    -1.500581075E-02 (a.u. of charge)/bohr^2
           Polarization    -8.585538827E-01 C/m^2


 Computing the polarization (Berry phase) for reciprocal vector:
  0.00000  0.50000  0.00000 (in reduced coordinates)
  0.04710 -0.04710  0.04710 (in cartesian coordinates - atomic units)
 Number of strings:    16
 Number of k points in string:    2

 Summary of the results
 Electronic Berry phase     1.263835787E-02
            Ionic phase    -7.500000000E-01
            Total phase    -7.373616421E-01
    Remapping in [-1,1]    -7.373616421E-01

           Polarization    -1.510826708E-02 (a.u. of charge)/bohr^2
           Polarization    -8.644158972E-01 C/m^2


 Computing the polarization (Berry phase) for reciprocal vector:
  0.00000  0.00000  0.50000 (in reduced coordinates)
  0.04710  0.04710 -0.04710 (in cartesian coordinates - atomic units)
 Number of strings:    16
 Number of k points in string:    2

 Summary of the results
 Electronic Berry phase     1.263835787E-02
            Ionic phase    -7.500000000E-01
            Total phase    -7.373616421E-01
    Remapping in [-1,1]    -7.373616421E-01

           Polarization    -1.510826708E-02 (a.u. of charge)/bohr^2
           Polarization    -8.644158972E-01 C/m^2


 Polarization in cartesian coordinates (a.u.):
 (the sum of the electronic and ionic Berry phase has been folded into [-1, 1])
     Electronic berry phase:        0.448523692E-03   0.537253475E-03   0.537253475E-03
     Ionic:                        -0.266168099E-01  -0.266168099E-01  -0.266168099E-01  
     Total:                        -0.261682862E-01  -0.260795564E-01  -0.260795564E-01

 Polarization in cartesian coordinates (C/m^2):
 (the sum of the electronic and ionic Berry phase has been folded into [-1, 1])
     Electronic berry phase:        0.256621760E-01   0.307388294E-01   0.307388294E-01
     Ionic:                        -0.152287443E+01  -0.152287443E+01  -0.152287443E+01  
     Total:                        -0.149721225E+01  -0.149213560E+01  -0.149213560E+01

 Stress tensor under a constant electric field:

 Cartesian components of Maxwell stress tensor (hartree/bohr^3)
 Maxstr(1 1)=  1.26651480E-10 Maxstr(3 2)=  0.00000000E+00
 Maxstr(2 2)= -1.26651480E-10 Maxstr(3 1)= -0.00000000E+00
 Maxstr(3 3)= -1.26651480E-10 Maxstr(2 1)= -0.00000000E+00


 Cartesian components of stress tensor (hartree/bohr^3)
  sigma(1 1)=  2.50592071E-04  sigma(3 2)= -2.31675792E-06
  sigma(2 2)=  2.50585038E-04  sigma(3 1)=  0.00000000E+00
  sigma(3 3)=  2.50585038E-04  sigma(2 1)=  0.00000000E+00

 Integrated electronic density in atomic spheres:
 ------------------------------------------------
 Atom  Sphere_radius  Integrated_density
    1        2.00000          0.89328352
    2        2.00000          2.50521906
================================================================================

 ----iterations are completed or convergence reached----

 Mean square residual over all n,k,spin=   1.3685E-07; max=  5.0944E-07
 reduced coordinates (array xred) for    2 atoms
       0.000000000000      0.000000000000      0.000000000000
       0.250000000000      0.250000000000      0.250000000000
 rms dE/dt=  1.9461E-03; max dE/dt=  2.3835E-03; dE/dt below (all hartree)
    1       0.000000000000      0.002383467783      0.002383467783
    2       0.000000000000     -0.002383475938     -0.002383475938

 cartesian coordinates (angstrom) at end:
    1      0.00000000000000     0.00000000000000     0.00000000000000
    2      1.40450654002815     1.40450654002815     1.40450654002815

 cartesian forces (hartree/bohr) at end:
    1     -0.00044901143211    -0.00000000000000     0.00000000000000
    2      0.00044901143211     0.00000000000000    -0.00000000000000
 frms,max,avg= 2.5923687E-04 4.4901143E-04   7.681E-10  0.000E+00  0.000E+00 h/b

 cartesian forces (eV/Angstrom) at end:
    1     -0.02308909423606    -0.00000000000000     0.00000000000000
    2      0.02308909423606     0.00000000000000    -0.00000000000000
 frms,max,avg= 1.3330495E-02 2.3089094E-02   3.950E-08  0.000E+00  0.000E+00 e/A
 length scales= 10.616530850000 10.616530850000 10.616530850000 bohr
              =  5.618026160113  5.618026160113  5.618026160113 angstroms
 prteigrs : about to open file tsv4_78o_DS32_EIG
 Fermi (or HOMO) energy (hartree) =   0.07130   Average Vxc (hartree)=  -0.34434
 Eigenvalues (hartree) for nkpt=   6  k points:
 kpt#   1, nband=  4, wtk=  0.25000, kpt= -0.2500  0.5000  0.0000 (reduced coord)
  -0.28594   -0.09849   -0.01562    0.02645
 prteigrs : prtvol=0 or 1, do not print more k-points.


--------------------------------------------------------------------------------
 Components of total free energy (in Hartree) :

    Kinetic energy  =  2.92739904375964E+00
    Hartree energy  =  7.97503085003681E-01
    XC energy       = -4.34128486963607E+00
    Ewald energy    = -8.47467935444799E+00
    PspCore energy  =  7.33476114489264E-01
    Loc. psp. energy= -2.38268556852664E+00
    NL   psp  energy=  6.45922001688938E-01
    Electric energy = -1.56612063504172E-03
    Kohn-Sham energy= -1.00943495476692E+01
    >>>>>>>>> Etotal= -1.00959156683042E+01

 Other information on the energy :
    Total energy(eV)= -2.74723836668414E+02 ; Band energy (Ha)=  -6.7140703716E-01
--------------------------------------------------------------------------------

Constant unreduced E calculation  - final values:
 (a. u.)
       E:  -2.000000000E-04   0.000000000E+00   0.000000000E+00  
       P:  -2.616828619E-02  -2.607955641E-02  -2.607955641E-02  

    ebar:   0.000000000E+00  -1.061653085E-03  -1.061653085E-03  
    pbar:  -3.479306514E+00  -3.485225291E+00  -3.485225291E+00  

       e:   4.484617347E-04  -4.484617347E-04  -4.484617347E-04  
       p:  -7.323612429E-01  -7.373616421E-01  -7.373616421E-01  

 (S.I.), that is V/m for E, and C/m^2 for P
-      E:  -1.028441264E+08   0.000000000E+00   0.000000000E+00  
       P:  -1.497212253E+00  -1.492135599E+00  -1.492135599E+00  


 Please check: COMMENT - 
  As a rough estimate,
  to be below the critical field, the bandgap of your system
  should be larger than    0.06 eV.

--------------------------------------------------------------------------------

 Cartesian components of stress tensor (hartree/bohr^3)
  sigma(1 1)=  2.50592071E-04  sigma(3 2)= -2.31675792E-06
  sigma(2 2)=  2.50585038E-04  sigma(3 1)=  0.00000000E+00
  sigma(3 3)=  2.50585038E-04  sigma(2 1)=  0.00000000E+00

-Cartesian components of stress tensor (GPa)         [Pressure= -7.3725E+00 GPa]
- sigma(1 1)=  7.37267203E+00  sigma(3 2)= -6.81613597E-02
- sigma(2 2)=  7.37246511E+00  sigma(3 1)=  0.00000000E+00
- sigma(3 3)=  7.37246511E+00  sigma(2 1)=  0.00000000E+00

================================================================================
== DATASET 33 ==================================================================
-   nproc =    1

 mkfilename : getwfk/=0, take file _WFK from output of DATASET  32.

 Exchange-correlation functional for the present dataset will be:
  LDA: new Teter (4/93) with spin-polarized option - ixc=1
 Citation for XC functional:
  S. Goedecker, M. Teter, J. Huetter, PRB 54, 1703 (1996)

 Real(R)+Recip(G) space primitive vectors, cartesian coordinates (Bohr,Bohr^-1):
[...]
                      -2.2500833742E-04 -1.3386309838E-21  1.3386309838E-21
            fcart22    4.5034962953E-04  1.5169018971E-20 -1.5169018971E-20
                      -4.5034962953E-04 -1.5169018971E-20  1.5169018971E-20
            fcart23    6.7602792297E-04 -1.4676547442E-20  1.4676547442E-20
                      -6.7602792297E-04  1.4676547442E-20 -1.4676547442E-20
            fcart31   -2.2467478086E-04 -5.7627332276E-21  5.7627332276E-21
                       2.2467478086E-04  5.7627332276E-21 -5.7627332276E-21
            fcart32   -4.4901143211E-04 -1.1565994944E-20  1.1565994944E-20
                       4.4901143211E-04  1.1565994944E-20 -1.1565994944E-20
            fcart33   -6.7301633588E-04  1.3077962874E-21 -1.3077962874E-21
                       6.7301633588E-04 -1.3077962874E-21  1.3077962874E-21
-          fftalg         312
           getwfk11         0
           getwfk21        11
           getwfk22        21
           getwfk23        22
           getwfk31        11
           getwfk32        31
           getwfk33        32
           jdtset       11   21   22   23   31   32   33
              kpt11   -2.50000000E-01  5.00000000E-01  0.00000000E+00
                      -2.50000000E-01  0.00000000E+00  0.00000000E+00
              kpt21   -2.50000000E-01  5.00000000E-01  0.00000000E+00
                       5.00000000E-01 -2.50000000E-01  0.00000000E+00
                      -2.50000000E-01  0.00000000E+00  0.00000000E+00
                      -2.50000000E-01  2.50000000E-01  2.50000000E-01
                       0.00000000E+00 -2.50000000E-01  0.00000000E+00
                       0.00000000E+00  5.00000000E-01  2.50000000E-01
              kpt22   -2.50000000E-01  5.00000000E-01  0.00000000E+00
                       5.00000000E-01 -2.50000000E-01  0.00000000E+00
                      -2.50000000E-01  0.00000000E+00  0.00000000E+00
                      -2.50000000E-01  2.50000000E-01  2.50000000E-01
                       0.00000000E+00 -2.50000000E-01  0.00000000E+00
                       0.00000000E+00  5.00000000E-01  2.50000000E-01
              kpt23   -2.50000000E-01  5.00000000E-01  0.00000000E+00
                       5.00000000E-01 -2.50000000E-01  0.00000000E+00
                      -2.50000000E-01  0.00000000E+00  0.00000000E+00
                      -2.50000000E-01  2.50000000E-01  2.50000000E-01
                       0.00000000E+00 -2.50000000E-01  0.00000000E+00
                       0.00000000E+00  5.00000000E-01  2.50000000E-01
              kpt31   -2.50000000E-01  5.00000000E-01  0.00000000E+00
                       5.00000000E-01 -2.50000000E-01  0.00000000E+00
                      -2.50000000E-01  0.00000000E+00  0.00000000E+00
                      -2.50000000E-01  2.50000000E-01  2.50000000E-01
                       0.00000000E+00 -2.50000000E-01  0.00000000E+00
                       0.00000000E+00  5.00000000E-01  2.50000000E-01
              kpt32   -2.50000000E-01  5.00000000E-01  0.00000000E+00
                       5.00000000E-01 -2.50000000E-01  0.00000000E+00
                      -2.50000000E-01  0.00000000E+00  0.00000000E+00
                      -2.50000000E-01  2.50000000E-01  2.50000000E-01
                       0.00000000E+00 -2.50000000E-01  0.00000000E+00
                       0.00000000E+00  5.00000000E-01  2.50000000E-01
              kpt33   -2.50000000E-01  5.00000000E-01  0.00000000E+00
                       5.00000000E-01 -2.50000000E-01  0.00000000E+00
                      -2.50000000E-01  0.00000000E+00  0.00000000E+00
                      -2.50000000E-01  2.50000000E-01  2.50000000E-01
                       0.00000000E+00 -2.50000000E-01  0.00000000E+00
                       0.00000000E+00  5.00000000E-01  2.50000000E-01
         kptrlatt        2   -2    2     -2    2    2     -2   -2    2
          kptrlen      2.12330617E+01
P           mkmem11         2
P           mkmem21         6
P           mkmem22         6
P           mkmem23         6
P           mkmem31         6
P           mkmem32         6
P           mkmem33         6
            natom           2
            nband11         5
            nband21         4
            nband22         4
            nband23         4
            nband31         4
            nband32         4
            nband33         4
           ndtset           7
            ngfft          12      12      12
             nkpt11         2
             nkpt21         6
             nkpt22         6
             nkpt23         6
             nkpt31         6
             nkpt32         6
             nkpt33         6
            nstep         100
             nsym11        24
             nsym21         4
             nsym22         4
             nsym23         4
             nsym31         4
             nsym32         4
             nsym33         4
           ntypat           2
              occ11    2.000000  2.000000  2.000000  2.000000  0.000000
              occ21    2.000000  2.000000  2.000000  2.000000
              occ22    2.000000  2.000000  2.000000  2.000000
              occ23    2.000000  2.000000  2.000000  2.000000
              occ31    2.000000  2.000000  2.000000  2.000000
              occ32    2.000000  2.000000  2.000000  2.000000
              occ33    2.000000  2.000000  2.000000  2.000000
            rfdir           1       1       1
            rprim      0.0000000000E+00  5.0000000000E-01  5.0000000000E-01
                       5.0000000000E-01  0.0000000000E+00  5.0000000000E-01
                       5.0000000000E-01  5.0000000000E-01  0.0000000000E+00
           shiftk      5.00000000E-01  5.00000000E-01  5.00000000E-01
          spgroup11       216
          spgroup21        44
          spgroup22        44
          spgroup23        44
          spgroup31        44
          spgroup32        44
          spgroup33        44
           strten11    2.5033124785E-04  2.5033124785E-04  2.5033124785E-04
                       0.0000000000E+00  0.0000000000E+00  0.0000000000E+00
           strten21    2.5019730228E-04  2.5019553910E-04  2.5019553910E-04
                       1.1622067648E-06  0.0000000000E+00  0.0000000000E+00
           strten22    2.5006097137E-04  2.5005393231E-04  2.5005393231E-04
                       2.3270358411E-06  0.0000000000E+00  0.0000000000E+00
           strten23    2.4992225595E-04  2.4990642569E-04  2.4990642569E-04
                       3.4944348743E-06  0.0000000000E+00  0.0000000000E+00
           strten31    2.5046286698E-04  2.5046109111E-04  2.5046109111E-04
                      -1.1596486443E-06  0.0000000000E+00  0.0000000000E+00
           strten32    2.5059207107E-04  2.5058503810E-04  2.5058503810E-04
                      -2.3167579154E-06  0.0000000000E+00  0.0000000000E+00
           strten33    2.5071896910E-04  2.5070313424E-04  2.5070313424E-04
                      -3.4712900966E-06  0.0000000000E+00  0.0000000000E+00
           symafm11      1    1    1    1    1    1    1    1    1    1
                         1    1    1    1    1    1    1    1    1    1
                         1    1    1    1
           symafm21      1    1    1    1
           symafm22      1    1    1    1
           symafm23      1    1    1    1
           symafm31      1    1    1    1
           symafm32      1    1    1    1
           symafm33      1    1    1    1
           symrel11    1  0  0   0  1  0   0  0  1       0 -1  1   0 -1  0   1 -1  0
                      -1  0  0  -1  0  1  -1  1  0       0  1 -1   1  0 -1   0  0 -1
                      -1  0  0  -1  1  0  -1  0  1       0 -1  1   1 -1  0   0 -1  0
                       1  0  0   0  0  1   0  1  0       0  1 -1   0  0 -1   1  0 -1
                      -1  0  1  -1  1  0  -1  0  0       0 -1  0   1 -1  0   0 -1  1
                       1  0 -1   0  0 -1   0  1 -1       0  1  0   0  0  1   1  0  0
                       1  0 -1   0  1 -1   0  0 -1       0 -1  0   0 -1  1   1 -1  0
                      -1  0  1  -1  0  0  -1  1  0       0  1  0   1  0  0   0  0  1
                       0  0 -1   0  1 -1   1  0 -1       1 -1  0   0 -1  1   0 -1  0
                       0  0  1   1  0  0   0  1  0      -1  1  0  -1  0  0  -1  0  1
                       0  0  1   0  1  0   1  0  0       1 -1  0   0 -1  0   0 -1  1
                       0  0 -1   1  0 -1   0  1 -1      -1  1  0  -1  0  1  -1  0  0
           symrel21    1  0  0   0  1  0   0  0  1      -1  0  0  -1  0  1  -1  1  0
                      -1  0  0  -1  1  0  -1  0  1       1  0  0   0  0  1   0  1  0
           symrel22    1  0  0   0  1  0   0  0  1      -1  0  0  -1  0  1  -1  1  0
                      -1  0  0  -1  1  0  -1  0  1       1  0  0   0  0  1   0  1  0
           symrel23    1  0  0   0  1  0   0  0  1      -1  0  0  -1  0  1  -1  1  0
                      -1  0  0  -1  1  0  -1  0  1       1  0  0   0  0  1   0  1  0
           symrel31    1  0  0   0  1  0   0  0  1      -1  0  0  -1  0  1  -1  1  0
                      -1  0  0  -1  1  0  -1  0  1       1  0  0   0  0  1   0  1  0
           symrel32    1  0  0   0  1  0   0  0  1      -1  0  0  -1  0  1  -1  1  0
                      -1  0  0  -1  1  0  -1  0  1       1  0  0   0  0  1   0  1  0
           symrel33    1  0  0   0  1  0   0  0  1      -1  0  0  -1  0  1  -1  1  0
                      -1  0  0  -1  1  0  -1  0  1       1  0  0   0  0  1   0  1  0
            tnons11    0.0000000  0.0000000  0.0000000     0.0000000  0.0000000  0.0000000
                       0.0000000  0.0000000  0.0000000     0.0000000  0.0000000  0.0000000
                       0.0000000  0.0000000  0.0000000     0.0000000  0.0000000  0.0000000
                       0.0000000  0.0000000  0.0000000     0.0000000  0.0000000  0.0000000
                       0.0000000  0.0000000  0.0000000     0.0000000  0.0000000  0.0000000
                       0.0000000  0.0000000  0.0000000     0.0000000  0.0000000  0.0000000
                       0.0000000  0.0000000  0.0000000     0.0000000  0.0000000  0.0000000
                       0.0000000  0.0000000  0.0000000     0.0000000  0.0000000  0.0000000
                       0.0000000  0.0000000  0.0000000     0.0000000  0.0000000  0.0000000
                       0.0000000  0.0000000  0.0000000     0.0000000  0.0000000  0.0000000
                       0.0000000  0.0000000  0.0000000     0.0000000  0.0000000  0.0000000
                       0.0000000  0.0000000  0.0000000     0.0000000  0.0000000  0.0000000
            tnons21    0.0000000  0.0000000  0.0000000     0.0000000  0.0000000  0.0000000
                       0.0000000  0.0000000  0.0000000     0.0000000  0.0000000  0.0000000
            tnons22    0.0000000  0.0000000  0.0000000     0.0000000  0.0000000  0.0000000
                       0.0000000  0.0000000  0.0000000     0.0000000  0.0000000  0.0000000
            tnons23    0.0000000  0.0000000  0.0000000     0.0000000  0.0000000  0.0000000
                       0.0000000  0.0000000  0.0000000     0.0000000  0.0000000  0.0000000
            tnons31    0.0000000  0.0000000  0.0000000     0.0000000  0.0000000  0.0000000
                       0.0000000  0.0000000  0.0000000     0.0000000  0.0000000  0.0000000
            tnons32    0.0000000  0.0000000  0.0000000     0.0000000  0.0000000  0.0000000
                       0.0000000  0.0000000  0.0000000     0.0000000  0.0000000  0.0000000
            tnons33    0.0000000  0.0000000  0.0000000     0.0000000  0.0000000  0.0000000
                       0.0000000  0.0000000  0.0000000     0.0000000  0.0000000  0.0000000
           toldfe      1.00000000E-12 Hartree
            typat      1  2
              wtk11      0.75000    0.25000
              wtk21      0.25000    0.25000    0.12500    0.12500    0.12500    0.12500
              wtk22      0.25000    0.25000    0.12500    0.12500    0.12500    0.12500
              wtk23      0.25000    0.25000    0.12500    0.12500    0.12500    0.12500
              wtk31      0.25000    0.25000    0.12500    0.12500    0.12500    0.12500
              wtk32      0.25000    0.25000    0.12500    0.12500    0.12500    0.12500
              wtk33      0.25000    0.25000    0.12500    0.12500    0.12500    0.12500
           xangst      0.0000000000E+00  0.0000000000E+00  0.0000000000E+00
                       1.4045065400E+00  1.4045065400E+00  1.4045065400E+00
            xcart      0.0000000000E+00  0.0000000000E+00  0.0000000000E+00
                       2.6541327125E+00  2.6541327125E+00  2.6541327125E+00
             xred      0.0000000000E+00  0.0000000000E+00  0.0000000000E+00
                       2.5000000000E-01  2.5000000000E-01  2.5000000000E-01
            znucl       13.00000   33.00000

================================================================================

- Total cpu        time (s,m,h):          3.5        0.06      0.001
- Total wall clock time (s,m,h):          3.8        0.06      0.001
-
- For major independent code sections, cpu and wall times (sec),
-  as well as % of the time and number of calls for node 0-
-<BEGIN_TIMER mpi_nprocs = 1, omp_nthreads = 1, mpi_rank = 0>
- cpu_time =            3.5, wall_time =            3.8
-
- routine                        cpu     %       wall     %      number of calls  Gflops 
-                                                                  (-1=no count)
- pspini                         0.739  20.9      0.740  19.6              7      -1.00    
- invars2                        0.639  18.1      0.640  17.0              7      -1.00    
- fourwf%(pot)                   0.419  11.8      0.404  10.7           6622      -1.00    
- abinit(2)                      0.151   4.3      0.153   4.1              1      -1.00    
- timing timab                   0.130   3.7      0.129   3.4             10      -1.00    
- nonlop(apply)                  0.109   3.1      0.109   2.9           6622      -1.00    
- fourwf%(den)                   0.046   1.3      0.047   1.2           1232      -1.00    
- projbd                         0.041   1.1      0.043   1.1          10412      -1.00    
- vtowfk(ssdiag)                 0.036   1.0      0.026   0.7             -1      -1.00    
- getghc-other                   0.034   1.0      0.060   1.6             -1      -1.00    
- initberry                      0.029   0.8      0.029   0.8              7      -1.00    
- ewald                          0.020   0.6      0.021   0.6              7      -1.00    
- others (100)                   0.100   2.8      0.101   2.7             -1      -1.00    
-<END_TIMER>
-
- subtotal                       2.494  70.5      2.502  66.4

- For major independent code sections, cpu and wall times (sec),
- as well as % of the total time and number of calls 

-<BEGIN_TIMER mpi_nprocs = 1, omp_nthreads = 1, mpi_rank = world>
- cpu_time =           3.5, wall_time =           3.8
-
- routine                         cpu     %       wall     %      number of calls Gflops 
-                                                                  (-1=no count)
- pspini                         0.739  20.9      0.740  19.6              7      -1.00    
- invars2                        0.639  18.1      0.640  17.0              7      -1.00    
- fourwf%(pot)                   0.419  11.8      0.404  10.7           6622      -1.00    
- abinit(2)                      0.151   4.3      0.153   4.1              1      -1.00    
- timing timab                   0.130   3.7      0.129   3.4             10      -1.00    
- nonlop(apply)                  0.109   3.1      0.109   2.9           6622      -1.00    
- fourwf%(den)                   0.046   1.3      0.047   1.2           1232      -1.00    
- projbd                         0.041   1.1      0.043   1.1          10412      -1.00    
- vtowfk(ssdiag)                 0.036   1.0      0.026   0.7             -1      -1.00    
- getghc-other                   0.034   1.0      0.060   1.6             -1      -1.00    
- initberry                      0.029   0.8      0.029   0.8              7      -1.00    
- ewald                          0.020   0.6      0.021   0.6              7      -1.00    
- others (100)                   0.100   2.8      0.101   2.7             -1      -1.00    
-<END_TIMER>

- subtotal                       2.494  70.5      2.502  66.4

================================================================================

 Suggested references for the acknowledgment of ABINIT usage.

 The users of ABINIT have little formal obligations with respect to the ABINIT group
 (those specified in the GNU General Public License, http://www.gnu.org/copyleft/gpl.txt).
 However, it is common practice in the scientific literature,
 to acknowledge the efforts of people that have made the research possible.
 In this spirit, please find below suggested citations of work written by ABINIT developers,
 corresponding to implementations inside of ABINIT that you have used in the present run.
 Note also that it will be of great value to readers of publications presenting these results,
 to read papers enabling them to understand the theoretical formalism and details
 of the ABINIT implementation.
 For information on why they are suggested, see also https://www.abinit.org/about/?text=acknowledgments.
-
- [1] ABINIT : First-principles approach of materials and nanosystem properties.
- X. Gonze, B. Amadon, P.-M. Anglade, J.-M. Beuken, F. Bottin, P. Boulanger, F. Bruneval,
- D. Caliste, R. Caracas, M. Cote, T. Deutsch, L. Genovese, Ph. Ghosez, M. Giantomassi
- S. Goedecker, D.R. Hamann, P. Hermet, F. Jollet, G. Jomard, S. Leroux, M. Mancini, S. Mazevet,
- M.J.T. Oliveira, G. Onida, Y. Pouillon, T. Rangel, G.-M. Rignanese, D. Sangalli, R. Shaltaf,
- M. Torrent, M.J. Verstraete, G. Zerah, J.W. Zwanziger
- Computer Phys. Comm. 180, 2582-2615 (2009).
- Comment : the third generic paper describing the ABINIT project.
- Note that a version of this paper, that is not formatted for Computer Phys. Comm. 
- is available at https://www.abinit.org/about/ABINIT_CPC_v10.pdf .
- The licence allows the authors to put it on the Web.
-
- [2] A brief introduction to the ABINIT software package.
- X. Gonze, G.-M. Rignanese, M. Verstraete, J.-M. Beuken, Y. Pouillon, R. Caracas, F. Jollet,
- M. Torrent, G. Zerah, M. Mikami, Ph. Ghosez, M. Veithen, J.-Y. Raty, V. Olevano, F. Bruneval,
- L. Reining, R. Godby, G. Onida, D.R. Hamann, and D.C. Allan.
- Z. Kristallogr. 220, 558-562 (2005).
- Comment : the second generic paper describing the ABINIT project. Note that this paper
- should be cited especially if you are using the GW part of ABINIT, as several authors
- of this part are not in the list of authors of the first or third paper.
- The .pdf of the latter paper is available at https://www.abinit.org/about/zfk_0505-06_558-562.pdf.
- Note that it should not redistributed (Copyright by Oldenburg Wissenshaftverlag,
- the licence allows the authors to put it on the Web).
-
- And optionally:
-
- [3] First-principles computation of material properties : the ABINIT software project. 
- X. Gonze, J.-M. Beuken, R. Caracas, F. Detraux, M. Fuchs, G.-M. Rignanese, L. Sindic,
- M. Verstraete, G. Zerah, F. Jollet, M. Torrent, A. Roy, M. Mikami, Ph. Ghosez, J.-Y. Raty, D.C. Allan.
- Computational Materials Science 25, 478-492 (2002). http://dx.doi.org/10.1016/S0927-0256(02)00325-7
- Comment : the original paper describing the ABINIT project.
-
- [4] Fast radix 2, 3, 4 and 5 kernels for Fast Fourier Transformations
- on computers with overlapping multiply-add instructions.
- S. Goedecker, SIAM J. on Scientific Computing 18, 1605 (1997).
-
- Proc.   0 individual time (sec): cpu=          3.5  wall=          3.8

================================================================================

 Calculation completed.
.Delivered   6 WARNINGs and  24 COMMENTs to log file.
+Overall time at end (sec) : cpu=          3.5  wall=          3.8
