
.Version 8.3.1 of ABINIT 
.(sequential version, prepared for a x86_64_linux_gnu5.3 computer) 

.Copyright (C) 1998-2018 ABINIT group . 
 ABINIT comes with ABSOLUTELY NO WARRANTY.
 It is free software, and you are welcome to redistribute it
 under certain conditions (GNU General Public License,
 see ~abinit/COPYING or http://www.gnu.org/copyleft/gpl.txt).

 ABINIT is a project of the Universite Catholique de Louvain,
 Corning Inc. and other collaborators, see ~abinit/doc/developers/contributors.txt .
 Please read ~abinit/doc/users/acknowledgments.html for suggested
 acknowledgments of the ABINIT effort.
 For more information, see https://www.abinit.org .

.Starting date : Fri  3 Mar 2017.
- ( at 13h48 )
  
- input  file    -> tsv6_125.in
- output file    -> tsv6_125.out
- root for input  files -> tsv6_125i
- root for output files -> tsv6_125o


 Symmetries : space group Pm (#  6); Bravais mP (primitive monocl.)
================================================================================
 Values of the parameters that define the memory need of the present run
     intxc =       0    ionmov =       2      iscf =       7    lmnmax =       6
     lnmax =       6     mgfft =      27  mpssoang =       4    mqgrid =    3001
     natom =       5  nloc_mem =       1    nspden =       1   nspinor =       1
    nsppol =       1      nsym =       2    n1xccc =    2501    ntypat =       3
    occopt =       1   xclevel =       1
-    mband =          22        mffmem =           1         mkmem =           1
       mpw =         832          nfft =       15552          nkpt =           1
================================================================================
P This job should need less than                       6.613 Mbytes of memory.
  Rough estimation (10% accuracy) of disk space for files :
_ WF disk file :      0.281 Mbytes ; DEN or POT disk file :      0.121 Mbytes.
================================================================================

--------------------------------------------------------------------------------
------------- Echo of variables that govern the present computation ------------
--------------------------------------------------------------------------------
-
- outvars: echo of selected default values                                      
-   iomode0 =  0 , fftalg0 =312 , wfoptalg0 =  0
-
- outvars: echo of global parameters not present in the input file              
-  max_nthreads =    0
-
 -outvars: echo values of preprocessed input variables --------
            acell      7.2127444081E+00  7.2137444081E+00  8.0288669253E+00 Bohr
              amu      2.07200000E+02  4.78800000E+01  1.59994000E+01
         berryopt          17
           diemac      6.00000000E+00
          dilatmx      1.10000000E+00
             ecut      1.00000000E+01 Hartree
           ecutsm      5.00000000E-01 Hartree
-          fftalg         312
           ionmov           2
           istwfk        1
              ixc           3
        jfielddir           1       1       2
              kpt      5.00000000E-01  5.00000000E-01  5.00000000E-01
         kptrlatt        1    0    0      0    1    0      0    0    1
          kptrlen      7.21274441E+00
P           mkmem           1
            natom           5
            nband          22
            ngfft          24      24      27
             nkpt           1
            nstep          12
             nsym           2
            ntime           2
           ntypat           3
              occ      2.000000  2.000000  2.000000  2.000000  2.000000  2.000000
                       2.000000  2.000000  2.000000  2.000000  2.000000  2.000000
                       2.000000  2.000000  2.000000  2.000000  2.000000  2.000000
                       2.000000  2.000000  2.000000  2.000000
          optcell           2
        optforces           1
       red_dfield      0.00000000E+00  2.00000000E-02  9.93573000E-01
    red_efieldbar      0.00000000E+00  1.00000000E-03  5.43071691E-03
           shiftk      5.00000000E-01  5.00000000E-01  5.00000000E-01
          spgroup           6
           symrel      1  0  0   0  1  0   0  0  1      -1  0  0   0  1  0   0  0  1
           toldff      5.00000000E-06
            typat      1  2  3  3  3
           xangst      0.0000000000E+00  1.5269396517E-07  3.7900169088E-01
                       1.9084099761E+00  1.9086746792E+00  2.3251224478E+00
                       1.9084099761E+00  1.9086745685E+00 -1.8609015994E-01
                       1.9084099761E+00  7.6346982587E-08  1.9275030514E+00
                       0.0000000000E+00  1.9086745761E+00  1.9275030514E+00
            xcart      0.0000000000E+00  2.8854977632E-07  7.1620939967E-01
                       3.6063722040E+00  3.6068724205E+00  4.3938446518E+00
                       3.6063722040E+00  3.6068722113E+00 -3.5165943830E-01
                       3.6063722040E+00  1.4427488816E-07  3.6424528874E+00
                       0.0000000000E+00  3.6068722257E+00  3.6424528874E+00
             xred      0.0000000000E+00  4.0000000000E-08  8.9204293250E-02
                       5.0000000000E-01  5.0000003000E-01  5.4725588214E-01
                       5.0000000000E-01  5.0000000100E-01 -4.3799385589E-02
                       5.0000000000E-01  2.0000000000E-08  4.5366960510E-01
                       0.0000000000E+00  5.0000000300E-01  4.5366960510E-01
            znucl       82.00000   22.00000    8.00000

================================================================================

 chkinp: Checking input parameters for consistency.

================================================================================
== DATASET  1 ==================================================================
-   nproc =    1

 Exchange-correlation functional for the present dataset will be:
  LDA: old Teter (4/91) fit to Ceperley-Alder data - ixc=3

 Real(R)+Recip(G) space primitive vectors, cartesian coordinates (Bohr,Bohr^-1):
 R(1)=  7.2127444  0.0000000  0.0000000  G(1)=  0.1386435  0.0000000  0.0000000
 R(2)=  0.0000000  7.2137444  0.0000000  G(2)=  0.0000000  0.1386243  0.0000000
 R(3)=  0.0000000  0.0000000  8.0288669  G(3)=  0.0000000  0.0000000  0.1245506
 Unit cell volume ucvol=  4.1774913E+02 bohr^3
 Angles (23,13,12)=  9.00000000E+01  9.00000000E+01  9.00000000E+01 degrees

 getcut: wavevector=  0.0000  0.0000  0.0000  ngfft=  24  24  27
         ecut(hartree)=     12.100   => boxcut(ratio)=   2.06805

--- Pseudopotential description ------------------------------------------------
- pspini: atom type   1  psp file is /home/buildbot/bb/ABINIT_GIT/abiref_gnu_5.3_serial/torrent_pimd/tests/Psps_for_tests/82pb.960808c_mod
- pspatm: opening atomic psp file    /home/buildbot/bb/ABINIT_GIT/abiref_gnu_5.3_serial/torrent_pimd/tests/Psps_for_tests/82pb.960808c_mod
- (Xe+4f14)+6s1.8 5d10 6p0.2 5f0.05;rcs=rcd=2.0(exnc11),rcp=2.0(26),rcf=1.3(11) no chem-hard; ecut 19/25
- 82.00000  14.00000    960808                znucl, zion, pspdat
    4    3    3    3      2001   0.00000      pspcod,pspxc,lmax,lloc,mmax,r2well
    0   0.000   0.000    2   2.0042666        l,e99.0,e99.9,nproj,rcpsp
   0.00000000   0.00000000   0.00000000   0.00000000     rms, ekb1, ekb2, epsatm
    1   0.000   0.000    2   2.0042666        l,e99.0,e99.9,nproj,rcpsp
   0.00000000   0.00000000   0.00000000   0.00000000     rms, ekb1, ekb2, epsatm
    2   0.000   0.000    2   2.0042666        l,e99.0,e99.9,nproj,rcpsp
   0.00000000   0.00000000   0.00000000   0.00000000     rms, ekb1, ekb2, epsatm
    3   0.000   0.000    0   1.2991516        l,e99.0,e99.9,nproj,rcpsp
   0.00000000   0.00000000   0.00000000   0.00000000     rms, ekb1, ekb2, epsatm
    0.00000000000000    0.00000000000000    0.00000000000000   rchrg,fchrg,qchrg
 pspatm : epsatm=   26.97912547
         --- l  ekb(1:nproj) -->
             0    4.600411    3.774203
             1    3.392405    3.894354
             2   -5.902586    0.629658
 pspatm: atomic psp has been read  and splines computed

- pspini: atom type   2  psp file is /home/buildbot/bb/ABINIT_GIT/abiref_gnu_5.3_serial/torrent_pimd/tests/Psps_for_tests/22ti.psp_mod
- pspatm: opening atomic psp file    /home/buildbot/bb/ABINIT_GIT/abiref_gnu_5.3_serial/torrent_pimd/tests/Psps_for_tests/22ti.psp_mod
- Titane.ion 3s2.3p6.4s0.3d2 rcd=1.65, rcs=rc0=1.25, ecut 32/54
- 22.00000  12.00000    940000                znucl, zion, pspdat
    4    3    2    2      2001   0.00000      pspcod,pspxc,lmax,lloc,mmax,r2well
    0   0.000   0.000    2   1.2533577        l,e99.0,e99.9,nproj,rcpsp
   0.00000000   0.00000000   0.00000000   0.00000000     rms, ekb1, ekb2, epsatm
    1   0.000   0.000    2   1.2533577        l,e99.0,e99.9,nproj,rcpsp
   0.00000000   0.00000000   0.00000000   0.00000000     rms, ekb1, ekb2, epsatm
    2   0.000   0.000    0   1.6491622        l,e99.0,e99.9,nproj,rcpsp
   0.00000000   0.00000000   0.00000000   0.00000000     rms, ekb1, ekb2, epsatm
    0.00000000000000    0.00000000000000    0.00000000000000   rchrg,fchrg,qchrg
 pspatm : epsatm=    4.67708954
         --- l  ekb(1:nproj) -->
             0    9.517316   -2.344682
             1    5.011406   -0.741179
 pspatm: atomic psp has been read  and splines computed

- pspini: atom type   3  psp file is /home/buildbot/bb/ABINIT_GIT/abiref_gnu_5.3_serial/torrent_pimd/tests/Psps_for_tests/8o.psp_mod
- pspatm: opening atomic psp file    /home/buildbot/bb/ABINIT_GIT/abiref_gnu_5.3_serial/torrent_pimd/tests/Psps_for_tests/8o.psp_mod
- 1.65bohr 35 hartree exncc psp for oxygen with core 19 june 1992
-  8.00000   6.00000    920619                znucl, zion, pspdat
    4    3    1    1      2001   0.00000      pspcod,pspxc,lmax,lloc,mmax,r2well
    0   0.000   0.000    2   1.6491622        l,e99.0,e99.9,nproj,rcpsp
   0.00000000   0.00000000   0.00000000   0.00000000     rms, ekb1, ekb2, epsatm
    1   0.000   0.000    0   1.6491622        l,e99.0,e99.9,nproj,rcpsp
   0.00000000   0.00000000   0.00000000   0.00000000     rms, ekb1, ekb2, epsatm
    1.00000000000000    0.95000909444395    0.44408665956870   rchrg,fchrg,qchrg
 pspatm : epsatm=    1.15255884
         --- l  ekb(1:nproj) -->
             0    7.721978   -1.904542
 pspatm: atomic psp has been read  and splines computed

   1.54501123E+03                                ecore*ucvol(ha*bohr**3)
--------------------------------------------------------------------------------

_setup2: Arith. and geom. avg. npw (full set) are     832.000     832.000
  initberry: for direction 1, nkstr =   1, nstr =      1
  initberry: for direction 2, nkstr =   1, nstr =      1
  initberry: for direction 3, nkstr =   1, nstr =      1

 initberry: COMMENT - 
  The estimation of critical electric field should be checked after calculation.
  It is printed out just after total energy.


================================================================================

=== [ionmov= 2] Broyden-Fletcher-Goldfard-Shanno method (forces)            
================================================================================

--- Iteration: (1/2) Internal Cycle: (1/1)
--------------------------------------------------------------------------------

---SELF-CONSISTENT-FIELD CONVERGENCE--------------------------------------------

     iter   Etot(hartree)      deltaE(h)  residm     vres2    diffor    maxfor
 ETOT  1  -158.00864420614    -1.580E+02 4.863E-02 2.686E+03 5.486E-01 5.486E-01
 ETOT  2  -159.52144692620    -1.513E+00 1.613E-03 8.195E+02 7.332E-01 4.237E-01
 ETOT  3  -160.28170612140    -7.603E-01 2.510E-02 3.644E+01 3.191E-01 3.132E-01
 ETOT  4  -160.30095290122    -1.925E-02 3.577E-04 4.401E+00 1.218E-01 2.254E-01
 ETOT  5  -160.30283276654    -1.880E-03 3.424E-04 1.029E+00 3.016E-02 2.186E-01
 ETOT  6  -160.30355701954    -7.243E-04 3.349E-04 4.640E-02 1.368E-02 2.323E-01
 ETOT  7  -160.30413659039    -5.796E-04 2.797E-04 2.230E-02 6.607E-03 2.347E-01
 ETOT  8  -160.30457149241    -4.349E-04 2.290E-04 1.563E-02 3.285E-03 2.380E-01
 ETOT  9  -160.30484863494    -2.771E-04 1.990E-04 2.449E-02 1.813E-03 2.398E-01
 ETOT 10  -160.30499082366    -1.422E-04 1.885E-04 7.969E-02 2.349E-03 2.421E-01
 ETOT 11  -160.30498397232     6.851E-06 1.923E-04 1.249E-01 9.285E-04 2.431E-01
 ETOT 12  -160.30467631711     3.077E-04 1.999E-04 4.481E-03 7.261E-03 2.361E-01

 Computing the polarization (Berry phase) for reciprocal vector:
  1.00000  0.00000  0.00000 (in reduced coordinates)
  0.13864  0.00000  0.00000 (in cartesian coordinates - atomic units)
 Number of strings:     1
 Number of k points in string:    1

 Summary of the results
 Electronic Berry phase    -8.269336365E-08
            Ionic phase    -1.776356839E-15
            Total phase    -8.269336543E-08
    Remapping in [-1,1]    -8.269336543E-08

           Polarization    -1.427761466E-09 (a.u. of charge)/bohr^2
           Polarization    -8.168903174E-08 C/m^2


 Computing the polarization (Berry phase) for reciprocal vector:
  0.00000  1.00000  0.00000 (in reduced coordinates)
  0.00000  0.13862  0.00000 (in cartesian coordinates - atomic units)
 Number of strings:     1
 Number of k points in string:    1

 Summary of the results
 Electronic Berry phase     1.226934173E-02
            Ionic phase     1.064000000E-06
            Total phase     1.227040573E-02
    Remapping in [-1,1]     1.227040573E-02

           Polarization     2.118869066E-04 (a.u. of charge)/bohr^2
           Polarization     1.212305882E-02 C/m^2


 Computing the polarization (Berry phase) for reciprocal vector:
  0.00000  0.00000  1.00000 (in reduced coordinates)
  0.00000  0.00000  0.12455 (in cartesian coordinates - atomic units)
 Number of strings:     1
 Number of k points in string:    1

 Summary of the results
 Electronic Berry phase    -1.532269802E-02
            Ionic phase     9.971696388E-01
            Total phase     9.818469408E-01
    Remapping in [-1,1]     9.818469408E-01

           Polarization     1.887046048E-02 (a.u. of charge)/bohr^2
           Polarization     1.079668895E+00 C/m^2


 Polarization in cartesian coordinates (a.u.):
 (the sum of the electronic and ionic Berry phase has been folded into [-1, 1])
     Electronic berry phase:       -0.142776144E-08   0.211868533E-03  -0.294492304E-03
     Ionic:                        -0.306701007E-16   0.183732856E-07   0.191649528E-01  
     Total:                        -0.142776147E-08   0.211886907E-03   0.188704605E-01

 Polarization in cartesian coordinates (C/m^2):
 (the sum of the electronic and ionic Berry phase has been folded into [-1, 1])
     Electronic berry phase:       -0.816890300E-07   0.121220076E-01  -0.168493069E-01
     Ionic:                        -0.175478250E-14   0.105122315E-05   0.109651820E+01  
     Total:                        -0.816890317E-07   0.121230588E-01   0.107966890E+01

 Stress tensor under a constant (mixed) electric and electric displacement field:

 Cartesian components of Maxwell stress tensor (hartree/bohr^3)
 Maxstr(1 1)= -4.91755805E-08 Maxstr(3 2)=  3.45740524E-09
 Maxstr(2 2)= -4.90538894E-08 Maxstr(3 1)=  0.00000000E+00
 Maxstr(3 3)=  4.90538894E-08 Maxstr(2 1)=  0.00000000E+00


 Cartesian components of stress tensor (hartree/bohr^3)
  sigma(1 1)=  8.34532652E-03  sigma(3 2)=  1.59792355E-06
  sigma(2 2)=  8.47255967E-03  sigma(3 1)=  0.00000000E+00
  sigma(3 3)=  1.64813625E-02  sigma(2 1)=  0.00000000E+00


 scprqt:  WARNING -
  nstep=   12 was not enough SCF cycles to converge;
  maximum force difference=  7.261E-03 exceeds toldff=  5.000E-06

 Integrated electronic density in atomic spheres:
 ------------------------------------------------
 Atom  Sphere_radius  Integrated_density
    1        2.00000         10.01946126
    2        2.00000          9.27376296
    3        2.00000          5.92998531
    4        2.00000          6.00701384
    5        2.00000          6.00733901

---OUTPUT-----------------------------------------------------------------------

 Cartesian coordinates (xcart) [bohr]
  0.00000000000000E+00  2.88549776324000E-07  7.16209399669687E-01
  3.60637220405000E+00  3.60687242046233E+00  4.39384465178972E+00
  3.60637220405000E+00  3.60687221126374E+00 -3.51659438303983E-01
  3.60637220405000E+00  1.44274888162000E-07  3.64245288740130E+00
  0.00000000000000E+00  3.60687222569123E+00  3.64245288740130E+00
 Reduced coordinates (xred)
  0.00000000000000E+00  4.00000000000000E-08  8.92042932500000E-02
  5.00000000000000E-01  5.00000030000000E-01  5.47255882140000E-01
  5.00000000000000E-01  5.00000001000000E-01 -4.37993855890000E-02
  5.00000000000000E-01  2.00000000000000E-08  4.53669605100000E-01
  0.00000000000000E+00  5.00000003000000E-01  4.53669605100000E-01
 Cartesian forces (fcart) [Ha/bohr]; max,rms= 2.36052E-01 7.84594E-02 (free atoms)
 -0.00000000000000E+00  9.63784801699850E-04 -5.38242398242248E-02
 -0.00000000000000E+00  4.43440045601846E-04 -2.36051799177468E-01
 -0.00000000000000E+00 -4.61273713126234E-04  1.58320632441093E-01
 -0.00000000000000E+00 -3.72849769584266E-04  6.56804594180494E-02
 -0.00000000000000E+00 -5.73101364591196E-04  6.58749471425500E-02
 Reduced forces (fred)
 -0.00000000000000E+00 -6.95249722387406E-03  4.32147658904134E-01
 -0.00000000000000E+00 -3.19886314928792E-03  1.89522848307353E+00
 -0.00000000000000E+00  3.32751066866789E-03 -1.27113528939887E+00
 -0.00000000000000E+00  2.68964294039987E-03 -5.27339668260086E-01
 -0.00000000000000E+00  4.13420676409422E-03 -5.28901184318706E-01
 Scale of Primitive Cell (acell) [bohr]
  7.21274440810000E+00  7.21374440810000E+00  8.02886692530000E+00
 Real space primitive translations (rprimd) [bohr]
  7.21274440810000E+00  0.00000000000000E+00  0.00000000000000E+00
  0.00000000000000E+00  7.21374440810000E+00  0.00000000000000E+00
  0.00000000000000E+00  0.00000000000000E+00  8.02886692530000E+00
 Unitary Cell Volume (ucvol) [Bohr^3]=  4.17749129076781E+02
 Angles (23,13,12)= [degrees]
  9.00000000000000E+01  9.00000000000000E+01  9.00000000000000E+01
 Lengths [Bohr]
  7.21274440810000E+00  7.21374440810000E+00  8.02886692530000E+00
 Stress tensor in cartesian coordinates (strten) [Ha/bohr^3]
  8.34532651852502E-03  0.00000000000000E+00  0.00000000000000E+00
  0.00000000000000E+00  8.47255966845769E-03  1.59792355199027E-06
  0.00000000000000E+00  1.59792355199027E-06  1.64813624956100E-02
 Total energy (etotal) [Ha]= -1.60304676317106E+02

--- Iteration: (2/2) Internal Cycle: (1/1)
--------------------------------------------------------------------------------

---SELF-CONSISTENT-FIELD CONVERGENCE--------------------------------------------

     iter   Etot(hartree)      deltaE(h)  residm     vres2    diffor    maxfor
 ETOT  1  -145.99140858814    -1.460E+02 1.507E-01 2.886E+04 2.180E+00 2.416E+00
 ETOT  2  -152.25206632583    -6.261E+00 4.067E-03 5.869E+03 2.731E+00 2.716E+00
 ETOT  3  -153.83520668440    -1.583E+00 1.595E-01 1.188E+01 6.721E-01 2.044E+00
 ETOT  4  -153.84936006852    -1.415E-02 1.025E-03 1.688E+00 1.635E-01 2.153E+00
 ETOT  5  -153.84698440103     2.376E-03 9.467E-04 1.766E-01 1.477E-01 2.048E+00
 ETOT  6  -153.84448567660     2.499E-03 1.899E-03 3.130E-02 1.017E-02 2.054E+00
 ETOT  7  -153.84690052734    -2.415E-03 1.181E-03 8.321E-02 3.681E-02 2.072E+00
 ETOT  8  -153.84825012846    -1.350E-03 6.710E-04 5.726E-02 8.906E-03 2.077E+00
 ETOT  9  -153.84774483897     5.053E-04 7.486E-04 3.419E-02 2.669E-02 2.066E+00
 ETOT 10  -153.84737123151     3.736E-04 8.858E-04 2.050E-02 1.347E-03 2.065E+00
 ETOT 11  -153.84744569894    -7.447E-05 9.101E-04 9.833E-04 9.112E-03 2.068E+00
 ETOT 12  -153.84746904442    -2.335E-05 8.970E-04 1.537E-04 1.061E-03 2.068E+00

 Computing the polarization (Berry phase) for reciprocal vector:
  1.00000  0.00000  0.00000 (in reduced coordinates)
  0.18495  0.00000  0.00000 (in cartesian coordinates - atomic units)
 Number of strings:     1
 Number of k points in string:    1

 Summary of the results
 Electronic Berry phase     9.999999992E-01
            Ionic phase    -1.776356839E-15
            Total phase     9.999999992E-01
    Remapping in [-1,1]     9.999999992E-01
 P(1) Shifted polarization branch to minimize red_efield              k from     9.999999992E-01 by  1

           Polarization    -3.601298577E-11 (a.u. of charge)/bohr^2
           Polarization    -2.060474391E-09 C/m^2


 Computing the polarization (Berry phase) for reciprocal vector:
  0.00000  1.00000  0.00000 (in reduced coordinates)
  0.00000  0.18587  0.00004 (in cartesian coordinates - atomic units)
 Number of strings:     1
 Number of k points in string:    1

 Summary of the results
 Electronic Berry phase    -9.945539533E-01
            Ionic phase     1.438724957E-03
            Total phase    -9.931152283E-01
    Remapping in [-1,1]    -9.931152283E-01
 P(2) Shifted polarization branch to minimize red_efield              k from    -9.931152283E-01 by -1

           Polarization     3.136966702E-04 (a.u. of charge)/bohr^2
           Polarization     1.794808016E-02 C/m^2


 Computing the polarization (Berry phase) for reciprocal vector:
  0.00000  0.00000  1.00000 (in reduced coordinates)
  0.00000  0.00003  0.24636 (in cartesian coordinates - atomic units)
 Number of strings:     1
 Number of k points in string:    1

 Summary of the results
 Electronic Berry phase    -7.837468831E-01
            Ionic phase     7.671365930E-01
            Total phase    -1.661029008E-02
    Remapping in [-1,1]    -1.661029008E-02
 P(3) Shifted polarization branch to minimize red_efield              k from    -1.661029008E-02 by -1

           Polarization     3.380458414E-02 (a.u. of charge)/bohr^2
           Polarization     1.934121219E+00 C/m^2


 Polarization in cartesian coordinates (a.u.):
 (the sum of the electronic and ionic Berry phase has been folded into [-1, 1])
     Electronic berry phase:        0.457906862E-01  -0.453105948E-01  -0.269359233E-01
     Ionic:                        -0.813405987E-16   0.605528311E-04   0.263707519E-01  
     Total:                        -0.360129858E-10   0.307285903E-03   0.338045449E-01

 Polarization in cartesian coordinates (C/m^2):
 (the sum of the electronic and ionic Berry phase has been folded into [-1, 1])
     Electronic berry phase:        0.261990319E+01  -0.259243487E+01  -0.154113242E+01
     Ionic:                        -0.465388295E-14   0.346451579E-02   0.150879628E+01  
     Total:                        -0.206047439E-08   0.175812896E-01   0.193411897E+01

 Stress tensor under a constant (mixed) electric and electric displacement field:

 Cartesian components of Maxwell stress tensor (hartree/bohr^3)
 Maxstr(1 1)= -8.36305733E-08 Maxstr(3 2)=  6.07258305E-09
 Maxstr(2 2)= -8.34098107E-08 Maxstr(3 1)=  0.00000000E+00
 Maxstr(3 3)=  8.34098107E-08 Maxstr(2 1)=  0.00000000E+00


 Cartesian components of stress tensor (hartree/bohr^3)
  sigma(1 1)=  6.44336248E-04  sigma(3 2)= -1.71901181E-05
  sigma(2 2)= -1.88051043E-03  sigma(3 1)=  0.00000000E+00
  sigma(3 3)= -8.65502776E-02  sigma(2 1)=  0.00000000E+00


 scprqt:  WARNING -
  nstep=   12 was not enough SCF cycles to converge;
  maximum force difference=  1.061E-03 exceeds toldff=  5.000E-06

 Integrated electronic density in atomic spheres:
 ------------------------------------------------
 Atom  Sphere_radius  Integrated_density
    1        2.00000         12.14708379
    2        2.00000         16.97704383
    3        2.00000         14.65867364
    4        2.00000         10.81850026
    5        2.00000         10.81360827

---OUTPUT-----------------------------------------------------------------------

 Cartesian coordinates (xcart) [bohr]
  0.00000000000000E+00  6.55521830777264E-04  3.34874769480763E-01
  2.70348159634610E+00  2.69002126426671E+00  2.10166426414711E+00
  2.70348159634610E+00  2.68976351826722E+00 -9.80899636845667E-02
  2.70348159634610E+00 -6.33491224947049E-04  1.87468068642297E+00
  0.00000000000000E+00  2.68930605146860E+00  1.87443322031515E+00
 Reduced coordinates (xred)
  0.00000000000000E+00  1.33643957553259E-04  8.25004531782935E-02
  5.00000000000000E-01  5.00061501549381E-01  5.17855494591710E-01
  5.00000000000000E-01  4.99936057271607E-01 -2.40804596291981E-02
  5.00000000000000E-01 -5.16660244127321E-05  4.61850144151044E-01
  0.00000000000000E+00  4.99920557245872E-01  4.61874367709151E-01
 Cartesian forces (fcart) [Ha/bohr]; max,rms= 2.06817E+00 7.70287E-01 (free atoms)
 -0.00000000000000E+00 -5.04320030213157E-03 -9.48318594035942E-01
 -0.00000000000000E+00 -1.15533088120094E-03 -1.85771839077473E+00
 -0.00000000000000E+00 -2.44673161182900E-04  2.06816625105544E+00
 -0.00000000000000E+00  3.09504455104760E-03  3.60963277786685E-01
 -0.00000000000000E+00  3.34815979346780E-03  3.76907455968542E-01
 Reduced forces (fred)
  0.00000000000000E+00  2.64774385726780E-02  3.84928477015784E+00
  0.00000000000000E+00  4.93104926075567E-03  7.54060241179641E+00
 -0.00000000000000E+00  2.74677180400019E-03 -8.39482544143361E+00
 -0.00000000000000E+00 -1.64022409501005E-02 -1.46517172442051E+00
 -0.00000000000000E+00 -1.77530186873334E-02 -1.52989001610013E+00
 Scale of Primitive Cell (acell) [bohr]
  5.40696319269220E+00  5.38017805463494E+00  4.05906701154410E+00
 Real space primitive translations (rprimd) [bohr]
  5.40696319269220E+00  0.00000000000000E+00  0.00000000000000E+00
  0.00000000000000E+00  5.38017801018109E+00 -6.91620725264466E-04
  0.00000000000000E+00 -7.69770933343954E-04  4.05906693855352E+00
 Unitary Cell Volume (ucvol) [Bohr^3]=  1.18079977320849E+02
 Angles (23,13,12)= [degrees]
  9.00182310653835E+01  9.00000000000000E+01  9.00000000000000E+01
 Lengths [Bohr]
  5.40696319269220E+00  5.38017805463494E+00  4.05906701154410E+00
 Stress tensor in cartesian coordinates (strten) [Ha/bohr^3]
  6.44336248078622E-04  0.00000000000000E+00  0.00000000000000E+00
  0.00000000000000E+00 -1.88051042930884E-03 -1.71901180774119E-05
  0.00000000000000E+00 -1.71901180774119E-05 -8.65502776120113E-02
 Total energy (etotal) [Ha]= -1.53847469044420E+02

 Difference of energy with previous step (new-old):
           Absolute (Ha)= 6.45721E+00
           Relative     = 4.11088E-02

 fconv : WARNING -
  ntime=    2 was not enough Broyd/MD steps to converge gradients: 
  max grad (force/stress) = 8.6550E+00 > tolmxf= 5.0000E-05 ha/bohr (free atoms)

================================================================================

 ----iterations are completed or convergence reached----

 Mean square residual over all n,k,spin=   1.6086E-04; max=  8.9700E-04
 reduced coordinates (array xred) for    5 atoms
       0.000000000000      0.000133643958      0.082500453178
       0.500000000000      0.500061501549      0.517855494592
       0.500000000000      0.499936057272     -0.024080459629
       0.500000000000     -0.000051666024      0.461850144151
       0.000000000000      0.499920557246      0.461874367709
 rms dE/dt=  3.1267E+00; max dE/dt=  7.5451E+00; dE/dt below (all hartree)
    1       0.000000000000      0.026577719957      3.853829916606
    2       0.000000000000      0.005031330645      7.545147558245
    3       0.000000000000      0.002847053189     -8.390280294985
    4       0.000000000000     -0.016301959566     -1.460626577972
    5       0.000000000000     -0.017652737303     -1.525344869652

 cartesian coordinates (angstrom) at end:
    1      0.00000000000000     0.00034688721258     0.17720809574105
    2      1.43062084462887     1.42349794367240     1.11215282869472
    3      1.43062084462887     1.42336155036386    -0.05190697317329
    4      1.43062084462887    -0.00033522911808     0.99203829263889
    5      0.00000000000000     1.42311946936035     0.99190733921473

 cartesian forces (hartree/bohr) at end:
    1     -0.00000000000000    -0.00504320030213    -0.94831859403594
    2     -0.00000000000000    -0.00115533088120    -1.85771839077473
    3     -0.00000000000000    -0.00024467316118     2.06816625105544
    4     -0.00000000000000     0.00309504455105     0.36096327778668
    5     -0.00000000000000     0.00334815979347     0.37690745596854
 frms,max,avg= 7.7028734E-01 2.0681663E+00   0.000E+00 -1.878E-05 -1.120E-03 h/b

 cartesian forces (eV/Angstrom) at end:
    1     -0.00000000000000    -0.25933176462726   -48.76449866887783
    2     -0.00000000000000    -0.05940949758104   -95.52771248377582
    3     -0.00000000000000    -0.01258159875579   106.34937565379926
    4     -0.00000000000000     0.15915357648672    18.56147648041942
    5     -0.00000000000000     0.17216928447737    19.38135901843497
 frms,max,avg= 3.9609764E+01 1.0634938E+02   0.000E+00 -9.659E-04 -5.758E-02 e/A
 length scales=  5.406963192692  5.380178054635  4.059067011544 bohr
              =  2.861241689258  2.847067604669  2.147965750649 angstroms
 prteigrs : about to open file tsv6_125o_EIG
 Fermi (or HOMO) energy (hartree) =   1.71806   Average Vxc (hartree)=  -0.74718
 Eigenvalues (hartree) for nkpt=   1  k points:
 kpt#   1, nband= 22, wtk=  1.00000, kpt=  0.5000  0.5000  0.5000 (reduced coord)
  -0.80921   -0.36303   -0.00314    0.00117    0.61223    0.61768    0.77727    0.77788
   0.87058    0.88232    0.88294    1.02393    1.06969    1.16367    1.16531    1.22082
   1.44846    1.45573    1.50405    1.51559    1.54492    1.71806

--------------------------------------------------------------------------------
 Components of total free energy (in Hartree) :

    Kinetic energy  =  9.78021860735572E+01
    Hartree energy  =  1.29108267223690E+01
    XC energy       = -2.99156187159586E+01
    Ewald energy    = -2.00096114256861E+02
    PspCore energy  =  1.30844471908333E+01
    Loc. psp. energy= -7.16700524625601E+01
    NL   psp  energy=  2.40367367199000E+01
    Electric energy =  1.19684300379852E-04
    Kohn-Sham energy= -1.53847588728720E+02
    >>>>>>>>> Etotal= -1.53847469044420E+02

 Other information on the energy :
    Total energy(eV)= -4.18640253605717E+03 ; Band energy (Ha)=   3.8153887755E+01
--------------------------------------------------------------------------------

Constant reduced ebar and d calculation  - final values:
 (a. u.)
                 E-field           E-field           D-field
   ebar0:   0.000000000E+00   1.000000000E-03   2.108095048E-02  
    ebar:   0.000000000E+00   1.000723635E-03   2.108095048E-02  
       d:  -7.864696672E-10   7.212511186E-03   9.935730000E-01  
 e  +  p:  -7.864696672E-10   7.212511186E-03   9.954126072E-01

       e:   0.000000000E+00   3.277394916E-04   1.202289726E-02  
       p:  -7.864696672E-10   6.884771694E-03   9.833897099E-01  
       d:  -7.864696672E-10   7.212511186E-03   9.935730000E-01  
 e  +  p:  -7.864696672E-10   7.212511186E-03   9.954126072E-01

    ebar:   0.000000000E+00   1.000723635E-03   2.108095048E-02  
    pbar:  -2.446934851E-09   2.048158735E-02   1.724290449E+00  
    dbar:  -2.446934851E-09   2.148367140E-02   1.742145795E+00  
 eba+pba:  -2.446934851E-09   2.148231098E-02   1.745371399E+00

       E:   0.000000000E+00   1.866695900E-04   5.193581307E-03  
       P:  -3.601298577E-11   3.072859030E-04   3.380454492E-02  
       D:  -4.525525261E-10   4.056552325E-03   4.291992947E-01  
E+4*pi*P:  -4.525525261E-10   4.048180695E-03   4.299363878E-01

 (S.I.), that is V/m for E, and C/m^2 for P and D
       E:   0.000000000E+00   9.598935451E+07   2.670646662E+09  
       P:  -2.060474391E-09   1.758128965E-02   1.934118975E+00  
       D:  -2.060474391E-09   1.846950729E-02   1.954146987E+00  
eps0*E+P:  -2.060474391E-09   1.843119742E-02   1.957765382E+00  


 Please check: COMMENT - 
  As a rough estimate,
  to be below the critical field, the bandgap of your system
  should be larger than    0.57 eV.

--------------------------------------------------------------------------------
 rms coord change=  9.7722E-03   atom, delta coord (reduced):
     1        0.000000000000      0.000133603958     -0.006703840072
     2        0.000000000000      0.000061471549     -0.029400387548
     3        0.000000000000     -0.000063943728      0.019718925960
     4        0.000000000000     -0.000051686024      0.008180539051
     5        0.000000000000     -0.000079445754      0.008204762609

 Cartesian components of stress tensor (hartree/bohr^3)
  sigma(1 1)=  6.44336248E-04  sigma(3 2)= -1.71901181E-05
  sigma(2 2)= -1.88051043E-03  sigma(3 1)=  0.00000000E+00
  sigma(3 3)= -8.65502776E-02  sigma(2 1)=  0.00000000E+00

-Cartesian components of stress tensor (GPa)         [Pressure=  8.6092E+02 GPa]
- sigma(1 1)=  1.89570237E+01  sigma(3 2)= -5.05750650E-01
- sigma(2 2)= -5.53265177E+01  sigma(3 1)=  0.00000000E+00
- sigma(3 3)= -2.54639665E+03  sigma(2 1)=  0.00000000E+00

== END DATASET(S) ==============================================================
================================================================================
  
 -outvars: echo values of variables after computation  --------
            acell      5.4069631927E+00  5.3801780546E+00  4.0590670115E+00 Bohr
              amu      2.07200000E+02  4.78800000E+01  1.59994000E+01
         berryopt          17
           diemac      6.00000000E+00
          dilatmx      1.10000000E+00
             ecut      1.00000000E+01 Hartree
           ecutsm      5.00000000E-01 Hartree
           etotal     -1.5384746904E+02
            fcart     -0.0000000000E+00 -5.0432003021E-03 -9.4831859404E-01
                      -0.0000000000E+00 -1.1553308812E-03 -1.8577183908E+00
                      -0.0000000000E+00 -2.4467316118E-04  2.0681662511E+00
                      -0.0000000000E+00  3.0950445510E-03  3.6096327779E-01
                      -0.0000000000E+00  3.3481597935E-03  3.7690745597E-01
-          fftalg         312
           ionmov           2
           istwfk        1
              ixc           3
        jfielddir           1       1       2
              kpt      5.00000000E-01  5.00000000E-01  5.00000000E-01
         kptrlatt        1    0    0      0    1    0      0    0    1
          kptrlen      7.21274441E+00
P           mkmem           1
            natom           5
            nband          22
            ngfft          24      24      27
             nkpt           1
            nstep          12
             nsym           2
            ntime           2
           ntypat           3
              occ      2.000000  2.000000  2.000000  2.000000  2.000000  2.000000
                       2.000000  2.000000  2.000000  2.000000  2.000000  2.000000
                       2.000000  2.000000  2.000000  2.000000  2.000000  2.000000
                       2.000000  2.000000  2.000000  2.000000
          optcell           2
        optforces           1
       red_dfield      0.00000000E+00  2.00000000E-02  9.93573000E-01
    red_efieldbar      0.00000000E+00  1.00000000E-03  5.43071691E-03
            rprim      1.0000000000E+00  0.0000000000E+00  0.0000000000E+00
                       0.0000000000E+00  9.9999999174E-01 -1.2854978371E-04
                       0.0000000000E+00 -1.8964233188E-04  9.9999998202E-01
           shiftk      5.00000000E-01  5.00000000E-01  5.00000000E-01
          spgroup           6
           strten      6.4433624808E-04 -1.8805104293E-03 -8.6550277612E-02
                      -1.7190118077E-05  0.0000000000E+00  0.0000000000E+00
           symrel      1  0  0   0  1  0   0  0  1      -1  0  0   0  1  0   0  0  1
           toldff      5.00000000E-06
            typat      1  2  3  3  3
           xangst      0.0000000000E+00  3.4688721258E-04  1.7720809574E-01
                       1.4306208446E+00  1.4234979437E+00  1.1121528287E+00
                       1.4306208446E+00  1.4233615504E+00 -5.1906973173E-02
                       1.4306208446E+00 -3.3522911808E-04  9.9203829264E-01
                       0.0000000000E+00  1.4231194694E+00  9.9190733921E-01
            xcart      0.0000000000E+00  6.5552183078E-04  3.3487476948E-01
                       2.7034815963E+00  2.6900212643E+00  2.1016642641E+00
                       2.7034815963E+00  2.6897635183E+00 -9.8089963685E-02
                       2.7034815963E+00 -6.3349122495E-04  1.8746806864E+00
                       0.0000000000E+00  2.6893060515E+00  1.8744332203E+00
             xred      0.0000000000E+00  1.3364395755E-04  8.2500453178E-02
                       5.0000000000E-01  5.0006150155E-01  5.1785549459E-01
                       5.0000000000E-01  4.9993605727E-01 -2.4080459629E-02
                       5.0000000000E-01 -5.1666024413E-05  4.6185014415E-01
                       0.0000000000E+00  4.9992055725E-01  4.6187436771E-01
            znucl       82.00000   22.00000    8.00000

================================================================================

- Total cpu        time (s,m,h):         18.8        0.31      0.005
- Total wall clock time (s,m,h):         19.0        0.32      0.005
-
- For major independent code sections, cpu and wall times (sec),
-  as well as % of the time and number of calls for node 0-
-<BEGIN_TIMER mpi_nprocs = 1, omp_nthreads = 1, mpi_rank = 0>
- cpu_time =           18.8, wall_time =           19.0
-
- routine                        cpu     %       wall     %      number of calls  Gflops 
-                                                                  (-1=no count)
- fourwf%(pot)                   1.310   7.0      1.339   7.0           2971      -1.00    
- pspini                         0.874   4.6      0.877   4.6              1      -1.00    
- nonlop(apply)                  0.645   3.4      0.646   3.4           2971      -1.00    
- projbd                         0.529   2.8      0.490   2.6           4710      -1.00    
- nonlop(forces)                 0.148   0.8      0.148   0.8            528      -1.00    
- forces                         0.135   0.7      0.136   0.7             24      -1.00    
- fourwf%(den)                   0.134   0.7      0.137   0.7            528      -1.00    
- timing timab                   0.132   0.7      0.134   0.7             10      -1.00    
- others (104)                   0.347   1.8      0.325   1.7             -1      -1.00    
-<END_TIMER>
-
- subtotal                       4.254  22.6      4.232  22.2

- For major independent code sections, cpu and wall times (sec),
- as well as % of the total time and number of calls 

-<BEGIN_TIMER mpi_nprocs = 1, omp_nthreads = 1, mpi_rank = world>
- cpu_time =          18.8, wall_time =          19.0
-
- routine                         cpu     %       wall     %      number of calls Gflops 
-                                                                  (-1=no count)
- fourwf%(pot)                   1.310   7.0      1.339   7.0           2971      -1.00    
- pspini                         0.874   4.6      0.877   4.6              1      -1.00    
- nonlop(apply)                  0.645   3.4      0.646   3.4           2971      -1.00    
- projbd                         0.529   2.8      0.490   2.6           4710      -1.00    
- nonlop(forces)                 0.148   0.8      0.148   0.8            528      -1.00    
- forces                         0.135   0.7      0.136   0.7             24      -1.00    
- fourwf%(den)                   0.134   0.7      0.137   0.7            528      -1.00    
- timing timab                   0.132   0.7      0.134   0.7             10      -1.00    
- others (104)                   0.347   1.8      0.325   1.7             -1      -1.00    
-<END_TIMER>

- subtotal                       4.254  22.6      4.232  22.2

================================================================================

 Suggested references for the acknowledgment of ABINIT usage.

 The users of ABINIT have little formal obligations with respect to the ABINIT group
 (those specified in the GNU General Public License, http://www.gnu.org/copyleft/gpl.txt).
 However, it is common practice in the scientific literature,
 to acknowledge the efforts of people that have made the research possible.
 In this spirit, please find below suggested citations of work written by ABINIT developers,
 corresponding to implementations inside of ABINIT that you have used in the present run.
 Note also that it will be of great value to readers of publications presenting these results,
 to read papers enabling them to understand the theoretical formalism and details
 of the ABINIT implementation.
 For information on why they are suggested, see also https://www.abinit.org/about/?text=acknowledgments.
-
- [1] Recent developments in the ABINIT software package.
- Computer Phys. Comm. 205, 106 (2016).
- X.Gonze, F.Jollet, F.Abreu Araujo, D.Adams, B.Amadon, T.Applencourt,
- C.Audouze, J.-M.Beuken, J.Bieder, A.Bokhanchuk, E.Bousquet, F.Bruneval
- D.Caliste, M.Cote, F.Dahm, F.Da Pieve, M.Delaveau, M.Di Gennaro,
- B.Dorado, C.Espejo, G.Geneste, L.Genovese, A.Gerossier, M.Giantomassi,
- Y.Gillet, D.R.Hamann, L.He, G.Jomard, J.Laflamme Janssen, S.Le Roux,
- A.Levitt, A.Lherbier, F.Liu, I.Lukacevic, A.Martin, C.Martins,
- M.J.T.Oliveira, S.Ponce, Y.Pouillon, T.Rangel, G.-M.Rignanese,
- A.H.Romero, B.Rousseau, O.Rubel, A.A.Shukri, M.Stankovski, M.Torrent,
- M.J.Van Setten, B.Van Troeye, M.J.Verstraete, D.Waroquier, J.Wiktor,
- B.Xue, A.Zhou, J.W.Zwanziger.
- Comment : the fourth generic paper describing the ABINIT project.
- Note that a version of this paper, that is not formatted for Computer Phys. Comm. 
- is available at https://www.abinit.org/about/ABINIT16.pdf .
- The licence allows the authors to put it on the Web.
-
- [2] ABINIT : First-principles approach of materials and nanosystem properties.
- Computer Phys. Comm. 180, 2582-2615 (2009).
- X. Gonze, B. Amadon, P.-M. Anglade, J.-M. Beuken, F. Bottin, P. Boulanger, F. Bruneval,
- D. Caliste, R. Caracas, M. Cote, T. Deutsch, L. Genovese, Ph. Ghosez, M. Giantomassi
- S. Goedecker, D.R. Hamann, P. Hermet, F. Jollet, G. Jomard, S. Leroux, M. Mancini, S. Mazevet,
- M.J.T. Oliveira, G. Onida, Y. Pouillon, T. Rangel, G.-M. Rignanese, D. Sangalli, R. Shaltaf,
- M. Torrent, M.J. Verstraete, G. Zerah, J.W. Zwanziger
- Comment : the third generic paper describing the ABINIT project.
- Note that a version of this paper, that is not formatted for Computer Phys. Comm. 
- is available at https://www.abinit.org/about/ABINIT_CPC_v10.pdf .
- The licence allows the authors to put it on the Web.
-
- [3] A brief introduction to the ABINIT software package.
- Z. Kristallogr. 220, 558-562 (2005).
- X. Gonze, G.-M. Rignanese, M. Verstraete, J.-M. Beuken, Y. Pouillon, R. Caracas, F. Jollet,
- M. Torrent, G. Zerah, M. Mikami, Ph. Ghosez, M. Veithen, J.-Y. Raty, V. Olevano, F. Bruneval,
- L. Reining, R. Godby, G. Onida, D.R. Hamann, and D.C. Allan.
- Comment : the second generic paper describing the ABINIT project. Note that this paper
- should be cited especially if you are using the GW part of ABINIT, as several authors
- of this part are not in the list of authors of the first or third paper.
- The .pdf of the latter paper is available at https://www.abinit.org/about/zfk_0505-06_558-562.pdf.
- Note that it should not redistributed (Copyright by Oldenburg Wissenshaftverlag,
- the licence allows the authors to put it on the Web).
-
- And optionally:
-
- [4] First-principles computation of material properties : the ABINIT software project. 
- X. Gonze, J.-M. Beuken, R. Caracas, F. Detraux, M. Fuchs, G.-M. Rignanese, L. Sindic,
- M. Verstraete, G. Zerah, F. Jollet, M. Torrent, A. Roy, M. Mikami, Ph. Ghosez, J.-Y. Raty, D.C. Allan.
- Computational Materials Science 25, 478-492 (2002). http://dx.doi.org/10.1016/S0927-0256(02)00325-7
- Comment : the original paper describing the ABINIT project.
-
- Proc.   0 individual time (sec): cpu=         18.8  wall=         19.0

================================================================================

 Calculation completed.
.Delivered  10 WARNINGs and   5 COMMENTs to log file.
+Overall time at end (sec) : cpu=         18.8  wall=         19.0
