
.Version 8.0.3 of ABINIT 
.(sequential version, prepared for a x86_64_linux_gnu5.3 computer) 

.Copyright (C) 1998-2018 ABINIT group . 
 ABINIT comes with ABSOLUTELY NO WARRANTY.
 It is free software, and you are welcome to redistribute it
 under certain conditions (GNU General Public License,
 see ~abinit/COPYING or http://www.gnu.org/copyleft/gpl.txt).

 ABINIT is a project of the Universite Catholique de Louvain,
 Corning Inc. and other collaborators, see ~abinit/doc/developers/contributors.txt .
 Please read ~abinit/doc/users/acknowledgments.html for suggested
 acknowledgments of the ABINIT effort.
 For more information, see https://www.abinit.org .

.Starting date : Mon  4 Apr 2016.
- ( at 12h18 )
  
- input  file    -> tsv6_122.in
- output file    -> tsv6_122.out
- root for input  files -> tsv6_122i
- root for output files -> tsv6_122o


 Symmetries : space group P4 m m (# 99); Bravais tP (primitive tetrag.)
================================================================================
 Values of the parameters that define the memory need of the present run
     intxc =       0    ionmov =       2      iscf =       7    lmnmax =       6
     lnmax =       6     mgfft =      32  mpssoang =       4    mqgrid =    3001
     natom =       5  nloc_mem =       1    nspden =       1   nspinor =       1
    nsppol =       1      nsym =       8    n1xccc =    2501    ntypat =       3
    occopt =       1   xclevel =       1
-    mband =          22        mffmem =           1         mkmem =           1
       mpw =        1548          nfft =       28800          nkpt =           1
================================================================================
P This job should need less than                      11.007 Mbytes of memory.
  Rough estimation (10% accuracy) of disk space for files :
_ WF disk file :      0.522 Mbytes ; DEN or POT disk file :      0.222 Mbytes.
================================================================================

--------------------------------------------------------------------------------
------------- Echo of variables that govern the present computation ------------
--------------------------------------------------------------------------------
-
- outvars: echo of selected default values                                      
-   accesswff0 =  0 , fftalg0 =312 , wfoptalg0 =  0
-
- outvars: echo of global parameters not present in the input file              
-  max_nthreads =    0
-
 -outvars: echo values of preprocessed input variables --------
            acell      7.2127444081E+00  7.2127444081E+00  8.0288669253E+00 Bohr
              amu      2.07200000E+02  4.78800000E+01  1.59994000E+01
         berryopt          16
           diemac      6.00000000E+00
          dilatmx      1.10000000E+00
             ecut      1.50000000E+01 Hartree
           ecutsm      5.00000000E-01 Hartree
-          fftalg         312
           ionmov           2
              ixc           3
              kpt      2.50000000E-01  2.50000000E-01  2.50000000E-01
         kptrlatt        2    0    0      0    2    0      0    0    2
          kptrlen      1.44254888E+01
         maxestep      3.00000000E-03 Hartree
P           mkmem           1
            natom           5
            nband          22
            ngfft          30      30      32
             nkpt           1
            nstep          12
             nsym           8
            ntime           2
           ntypat           3
              occ      2.000000  2.000000  2.000000  2.000000  2.000000  2.000000
                       2.000000  2.000000  2.000000  2.000000  2.000000  2.000000
                       2.000000  2.000000  2.000000  2.000000  2.000000  2.000000
                       2.000000  2.000000  2.000000  2.000000
          optcell           2
        optforces           1
       red_dfield      0.00000000E+00  0.00000000E+00  9.93577416E-01
       red_efield      0.00000000E+00  0.00000000E+00  3.83150558E-03
           shiftk      5.00000000E-01  5.00000000E-01  5.00000000E-01
          spgroup          99
           symrel      1  0  0   0  1  0   0  0  1       1  0  0   0 -1  0   0  0  1
                      -1  0  0   0 -1  0   0  0  1      -1  0  0   0  1  0   0  0  1
                       0  1  0   1  0  0   0  0  1       0  1  0  -1  0  0   0  0  1
                       0 -1  0  -1  0  0   0  0  1       0 -1  0   1  0  0   0  0  1
           toldff      5.00000000E-06
            typat      1  2  3  3  3
           xangst      0.0000000000E+00  0.0000000000E+00  3.7900169088E-01
                       1.9084099761E+00  1.9084099761E+00  2.3251224478E+00
                       1.9084099761E+00  1.9084099761E+00 -1.8609015994E-01
                       1.9084099761E+00  0.0000000000E+00  1.9275030514E+00
                       0.0000000000E+00  1.9084099761E+00  1.9275030514E+00
            xcart      0.0000000000E+00  0.0000000000E+00  7.1620939967E-01
                       3.6063722041E+00  3.6063722041E+00  4.3938446518E+00
                       3.6063722041E+00  3.6063722041E+00 -3.5165943830E-01
                       3.6063722041E+00  0.0000000000E+00  3.6424528874E+00
                       0.0000000000E+00  3.6063722041E+00  3.6424528874E+00
             xred      0.0000000000E+00  0.0000000000E+00  8.9204293250E-02
                       5.0000000000E-01  5.0000000000E-01  5.4725588214E-01
                       5.0000000000E-01  5.0000000000E-01 -4.3799385589E-02
                       5.0000000000E-01  0.0000000000E+00  4.5366960510E-01
                       0.0000000000E+00  5.0000000000E-01  4.5366960510E-01
            znucl       82.00000   22.00000    8.00000

================================================================================

 chkinp: Checking input parameters for consistency.

================================================================================
== DATASET  1 ==================================================================
-   nproc =    1

 Exchange-correlation functional for the present dataset will be:
  LDA: old Teter (4/91) fit to Ceperley-Alder data - ixc=3

 Real(R)+Recip(G) space primitive vectors, cartesian coordinates (Bohr,Bohr^-1):
 R(1)=  7.2127444  0.0000000  0.0000000  G(1)=  0.1386435  0.0000000  0.0000000
 R(2)=  0.0000000  7.2127444  0.0000000  G(2)=  0.0000000  0.1386435  0.0000000
 R(3)=  0.0000000  0.0000000  8.0288669  G(3)=  0.0000000  0.0000000  0.1245506
 Unit cell volume ucvol=  4.1769122E+02 bohr^3
 Angles (23,13,12)=  9.00000000E+01  9.00000000E+01  9.00000000E+01 degrees

 getcut: wavevector=  0.0000  0.0000  0.0000  ngfft=  30  30  32
         ecut(hartree)=     18.150   => boxcut(ratio)=   2.07822

--- Pseudopotential description ------------------------------------------------
- pspini: atom type   1  psp file is /home/buildbot/bb/ABINIT/abiref_gnu_5.3_serial/gonze_8.0.3-public/tests/Psps_for_tests/82pb.960808c_mod
- pspatm: opening atomic psp file    /home/buildbot/bb/ABINIT/abiref_gnu_5.3_serial/gonze_8.0.3-public/tests/Psps_for_tests/82pb.960808c_mod
- (Xe+4f14)+6s1.8 5d10 6p0.2 5f0.05;rcs=rcd=2.0(exnc11),rcp=2.0(26),rcf=1.3(11) no chem-hard; ecut 19/25
- 82.00000  14.00000    960808                znucl, zion, pspdat
    4    3    3    3      2001   0.00000      pspcod,pspxc,lmax,lloc,mmax,r2well
    0   0.000   0.000    2   2.0042666        l,e99.0,e99.9,nproj,rcpsp
   0.00000000   0.00000000   0.00000000   0.00000000     rms, ekb1, ekb2, epsatm
    1   0.000   0.000    2   2.0042666        l,e99.0,e99.9,nproj,rcpsp
   0.00000000   0.00000000   0.00000000   0.00000000     rms, ekb1, ekb2, epsatm
    2   0.000   0.000    2   2.0042666        l,e99.0,e99.9,nproj,rcpsp
   0.00000000   0.00000000   0.00000000   0.00000000     rms, ekb1, ekb2, epsatm
    3   0.000   0.000    0   1.2991516        l,e99.0,e99.9,nproj,rcpsp
   0.00000000   0.00000000   0.00000000   0.00000000     rms, ekb1, ekb2, epsatm
    0.00000000000000    0.00000000000000    0.00000000000000   rchrg,fchrg,qchrg
 pspatm : epsatm=   26.97912547
         --- l  ekb(1:nproj) -->
             0    4.600411    3.774203
             1    3.392405    3.894354
             2   -5.902586    0.629658
 pspatm: atomic psp has been read  and splines computed

- pspini: atom type   2  psp file is /home/buildbot/bb/ABINIT/abiref_gnu_5.3_serial/gonze_8.0.3-public/tests/Psps_for_tests/22ti.psp_mod
- pspatm: opening atomic psp file    /home/buildbot/bb/ABINIT/abiref_gnu_5.3_serial/gonze_8.0.3-public/tests/Psps_for_tests/22ti.psp_mod
- Titane.ion 3s2.3p6.4s0.3d2 rcd=1.65, rcs=rc0=1.25, ecut 32/54
- 22.00000  12.00000    940000                znucl, zion, pspdat
    4    3    2    2      2001   0.00000      pspcod,pspxc,lmax,lloc,mmax,r2well
    0   0.000   0.000    2   1.2533577        l,e99.0,e99.9,nproj,rcpsp
   0.00000000   0.00000000   0.00000000   0.00000000     rms, ekb1, ekb2, epsatm
    1   0.000   0.000    2   1.2533577        l,e99.0,e99.9,nproj,rcpsp
   0.00000000   0.00000000   0.00000000   0.00000000     rms, ekb1, ekb2, epsatm
    2   0.000   0.000    0   1.6491622        l,e99.0,e99.9,nproj,rcpsp
   0.00000000   0.00000000   0.00000000   0.00000000     rms, ekb1, ekb2, epsatm
    0.00000000000000    0.00000000000000    0.00000000000000   rchrg,fchrg,qchrg
 pspatm : epsatm=    4.67708954
         --- l  ekb(1:nproj) -->
             0    9.517316   -2.344682
             1    5.011406   -0.741179
 pspatm: atomic psp has been read  and splines computed

- pspini: atom type   3  psp file is /home/buildbot/bb/ABINIT/abiref_gnu_5.3_serial/gonze_8.0.3-public/tests/Psps_for_tests/8o.psp_mod
- pspatm: opening atomic psp file    /home/buildbot/bb/ABINIT/abiref_gnu_5.3_serial/gonze_8.0.3-public/tests/Psps_for_tests/8o.psp_mod
- 1.65bohr 35 hartree exncc psp for oxygen with core 19 june 1992
-  8.00000   6.00000    920619                znucl, zion, pspdat
    4    3    1    1      2001   0.00000      pspcod,pspxc,lmax,lloc,mmax,r2well
    0   0.000   0.000    2   1.6491622        l,e99.0,e99.9,nproj,rcpsp
   0.00000000   0.00000000   0.00000000   0.00000000     rms, ekb1, ekb2, epsatm
    1   0.000   0.000    0   1.6491622        l,e99.0,e99.9,nproj,rcpsp
   0.00000000   0.00000000   0.00000000   0.00000000     rms, ekb1, ekb2, epsatm
    1.00000000000000    0.95000909444395    0.44408665956870   rchrg,fchrg,qchrg
 pspatm : epsatm=    1.15255884
         --- l  ekb(1:nproj) -->
             0    7.721978   -1.904542
 pspatm: atomic psp has been read  and splines computed

   1.54501123E+03                                ecore*ucvol(ha*bohr**3)
--------------------------------------------------------------------------------

_setup2: Arith. and geom. avg. npw (full set) are    1548.000    1548.000
  initberry: for direction 1, nkstr =   2, nstr =      4
  initberry: for direction 2, nkstr =   2, nstr =      4
  initberry: for direction 3, nkstr =   2, nstr =      4

 initberry: COMMENT - 
  The estimation of critical electric field should be checked after calculation.
  It is printed out just after total energy.


================================================================================

=== [ionmov= 2] Broyden-Fletcher-Goldfard-Shanno method (forces)            
================================================================================

--- Iteration: (1/2) Internal Cycle: (1/1)
--------------------------------------------------------------------------------

---SELF-CONSISTENT-FIELD CONVERGENCE--------------------------------------------

     iter   Etot(hartree)      deltaE(h)  residm     vres2    diffor    maxfor
 ETOT  1  -161.98198462569    -1.620E+02 6.908E-02 5.629E+03 7.394E-01 7.394E-01
 ETOT  2  -163.45675234897    -1.475E+00 1.797E-02 1.892E+03 9.511E-01 3.126E-01
 ETOT  3  -164.36708906193    -9.103E-01 3.737E-02 2.249E+02 3.219E-01 1.387E-01
 ETOT  4  -164.46832018960    -1.012E-01 8.370E-04 4.558E+01 1.599E-01 4.378E-02
 ETOT  5  -164.47947649047    -1.116E-02 3.299E-04 3.782E+00 4.462E-02 6.581E-02
 ETOT  6  -164.48159837794    -2.122E-03 8.504E-05 1.429E+00 1.504E-02 7.733E-02
 ETOT  7  -164.48199422021    -3.958E-04 6.913E-05 1.370E-01 8.099E-03 6.923E-02
 ETOT  8  -164.48226894418    -2.747E-04 5.307E-05 9.826E-02 1.963E-03 6.965E-02
 ETOT  9  -164.48239483700    -1.259E-04 4.909E-05 1.777E-02 1.861E-03 7.075E-02
 ETOT 10  -164.48241757773    -2.274E-05 4.738E-05 4.725E-03 1.048E-03 7.180E-02
 ETOT 11  -164.48242003843    -2.461E-06 4.639E-05 1.253E-04 5.832E-04 7.152E-02
 ETOT 12  -164.48244029130    -2.025E-05 4.554E-05 2.865E-05 2.058E-04 7.172E-02

 Computing the polarization (Berry phase) for reciprocal vector:
  0.50000  0.00000  0.00000 (in reduced coordinates)
  0.06932  0.00000  0.00000 (in cartesian coordinates - atomic units)
 Number of strings:     4
 Number of k points in string:    2

 Summary of the results
 Electronic Berry phase     0.000000000E+00
            Ionic phase     3.552713679E-15
            Total phase     3.552713679E-15
    Remapping in [-1,1]     3.552713679E-15

           Polarization     6.134870584E-17 (a.u. of charge)/bohr^2
           Polarization     3.510051572E-15 C/m^2


 Computing the polarization (Berry phase) for reciprocal vector:
  0.00000  0.50000  0.00000 (in reduced coordinates)
  0.00000  0.06932  0.00000 (in cartesian coordinates - atomic units)
 Number of strings:     4
 Number of k points in string:    2

 Summary of the results
 Electronic Berry phase     0.000000000E+00
            Ionic phase     3.552713679E-15
            Total phase     3.552713679E-15
    Remapping in [-1,1]     3.552713679E-15

           Polarization     6.134870584E-17 (a.u. of charge)/bohr^2
           Polarization     3.510051572E-15 C/m^2


 Computing the polarization (Berry phase) for reciprocal vector:
  0.00000  0.00000  0.50000 (in reduced coordinates)
  0.00000  0.00000  0.06228 (in cartesian coordinates - atomic units)
 Number of strings:     4
 Number of k points in string:    2

 Summary of the results
 Electronic Berry phase    -1.895697379E-02
            Ionic phase     9.971696388E-01
            Total phase     9.782126651E-01
    Remapping in [-1,1]     9.782126651E-01

           Polarization     1.880321864E-02 (a.u. of charge)/bohr^2
           Polarization     1.075821669E+00 C/m^2


 Polarization in cartesian coordinates (a.u.):
 (the sum of the electronic and ionic Berry phase has been folded into [-1, 1])
     Electronic berry phase:        0.000000000E+00   0.000000000E+00  -0.364391237E-03
     Ionic:                         0.613487058E-16   0.613487058E-16   0.191676099E-01  
     Total:                         0.613487058E-16   0.613487058E-16   0.188032186E-01

 Polarization in cartesian coordinates (C/m^2):
 (the sum of the electronic and ionic Berry phase has been folded into [-1, 1])
     Electronic berry phase:        0.000000000E+00   0.000000000E+00  -0.208485577E-01
     Ionic:                         0.351005157E-14   0.351005157E-14   0.109667023E+01  
     Total:                         0.351005157E-14   0.351005157E-14   0.107582167E+01

 Stress tensor under a constant electric displacement field:

 Cartesian components of Maxwell stress tensor (hartree/bohr^3)
 Maxstr(1 1)= -4.67837325E-08 Maxstr(3 2)= -1.28769155E-20
 Maxstr(2 2)= -4.67837325E-08 Maxstr(3 1)= -1.28769155E-20
 Maxstr(3 3)=  4.67837325E-08 Maxstr(2 1)=  1.77214326E-33


 Cartesian components of stress tensor (hartree/bohr^3)
  sigma(1 1)= -2.80718341E-03  sigma(3 2)=  0.00000000E+00
  sigma(2 2)= -2.80718341E-03  sigma(3 1)=  0.00000000E+00
  sigma(3 3)= -1.15335600E-03  sigma(2 1)=  0.00000000E+00


 scprqt:  WARNING -
  nstep=   12 was not enough SCF cycles to converge;
  maximum force difference=  2.058E-04 exceeds toldff=  5.000E-06

 Integrated electronic density in atomic spheres:
 ------------------------------------------------
 Atom  Sphere_radius  Integrated_density
    1        2.00000         10.04642409
    2        2.00000          9.30832841
    3        2.00000          6.12649701
    4        2.00000          6.14040539
    5        2.00000          6.14040539

---OUTPUT-----------------------------------------------------------------------

 Cartesian coordinates (xcart) [bohr]
  0.00000000000000E+00  0.00000000000000E+00  7.16209399669687E-01
  3.60637220405000E+00  3.60637220405000E+00  4.39384465178972E+00
  3.60637220405000E+00  3.60637220405000E+00 -3.51659438303983E-01
  3.60637220405000E+00  0.00000000000000E+00  3.64245288740130E+00
  0.00000000000000E+00  3.60637220405000E+00  3.64245288740130E+00
 Reduced coordinates (xred)
  0.00000000000000E+00  0.00000000000000E+00  8.92042932500000E-02
  5.00000000000000E-01  5.00000000000000E-01  5.47255882140000E-01
  5.00000000000000E-01  5.00000000000000E-01 -4.37993855890000E-02
  5.00000000000000E-01  0.00000000000000E+00  4.53669605100000E-01
  0.00000000000000E+00  5.00000000000000E-01  4.53669605100000E-01
 Cartesian forces (fcart) [Ha/bohr]; max,rms= 7.17221E-02 2.57974E-02 (free atoms)
 -0.00000000000000E+00 -0.00000000000000E+00  2.22000857699118E-02
 -0.00000000000000E+00 -0.00000000000000E+00 -6.19144678412781E-02
 -0.00000000000000E+00 -0.00000000000000E+00  7.17220845045173E-02
 -0.00000000000000E+00 -0.00000000000000E+00 -1.60038512165755E-02
 -0.00000000000000E+00 -0.00000000000000E+00 -1.60038512165755E-02
 Reduced forces (fred)
  0.00000000000000E+00  0.00000000000000E+00 -1.87538095845896E-01
  0.00000000000000E+00  0.00000000000000E+00  4.87806461579360E-01
  0.00000000000000E+00  0.00000000000000E+00 -5.85143633560918E-01
  0.00000000000000E+00  0.00000000000000E+00  1.19196230241157E-01
  0.00000000000000E+00  0.00000000000000E+00  1.19196230241157E-01
 Scale of Primitive Cell (acell) [bohr]
  7.21274440810000E+00  7.21274440810000E+00  8.02886692530000E+00
 Real space primitive translations (rprimd) [bohr]
  7.21274440810000E+00  0.00000000000000E+00  0.00000000000000E+00
  0.00000000000000E+00  7.21274440810000E+00  0.00000000000000E+00
  0.00000000000000E+00  0.00000000000000E+00  8.02886692530000E+00
 Unitary Cell Volume (ucvol) [Bohr^3]=  4.17691218911762E+02
 Angles (23,13,12)= [degrees]
  9.00000000000000E+01  9.00000000000000E+01  9.00000000000000E+01
 Lengths [Bohr]
  7.21274440810000E+00  7.21274440810000E+00  8.02886692530000E+00
 Stress tensor in cartesian coordinates (strten) [Ha/bohr^3]
 -2.80718341180486E-03  0.00000000000000E+00  0.00000000000000E+00
  0.00000000000000E+00 -2.80718341180486E-03  0.00000000000000E+00
  0.00000000000000E+00  0.00000000000000E+00 -1.15335599700034E-03
 Total energy (etotal) [Ha]= -1.64482440291295E+02

--- Iteration: (2/2) Internal Cycle: (1/1)
--------------------------------------------------------------------------------

---SELF-CONSISTENT-FIELD CONVERGENCE--------------------------------------------

     iter   Etot(hartree)      deltaE(h)  residm     vres2    diffor    maxfor
 ETOT  1  -162.27995065431    -1.623E+02 5.707E-03 4.719E+03 8.150E-01 8.769E-01
 ETOT  2  -162.93969354950    -6.597E-01 3.802E-03 2.061E+03 1.459E+00 6.671E-01
 ETOT  3  -164.24789025636    -1.308E+00 1.677E-02 2.816E+02 7.754E-01 2.044E-01
 ETOT  4  -164.47988826639    -2.320E-01 1.708E-03 2.465E+01 2.080E-01 4.240E-02
 ETOT  5  -164.48866509079    -8.777E-03 2.453E-04 2.936E+00 1.519E-02 3.075E-02
 ETOT  6  -164.49019591447    -1.531E-03 1.080E-04 1.964E+00 3.617E-02 4.917E-02
 ETOT  7  -164.49106228168    -8.664E-04 7.321E-05 1.684E-01 1.074E-02 4.247E-02
 ETOT  8  -164.49106546137    -3.180E-06 5.898E-05 1.864E-02 3.600E-03 4.493E-02
 ETOT  9  -164.49108949097    -2.403E-05 5.847E-05 3.663E-03 1.482E-03 4.385E-02
 ETOT 10  -164.49113318338    -4.369E-05 5.725E-05 3.346E-04 8.387E-04 4.430E-02
 ETOT 11  -164.49115002998    -1.685E-05 5.653E-05 2.485E-05 1.126E-04 4.425E-02
 ETOT 12  -164.49116442049    -1.439E-05 5.598E-05 3.516E-05 3.769E-05 4.428E-02

 Computing the polarization (Berry phase) for reciprocal vector:
  0.50000  0.00000  0.00000 (in reduced coordinates)
  0.06394  0.00000  0.00000 (in cartesian coordinates - atomic units)
 Number of strings:     4
 Number of k points in string:    2

 Summary of the results
 Electronic Berry phase     0.000000000E+00
            Ionic phase     3.552713679E-15
            Total phase     3.552713679E-15
    Remapping in [-1,1]     3.552713679E-15

           Polarization     5.469114724E-17 (a.u. of charge)/bohr^2
           Polarization     3.129140944E-15 C/m^2


 Computing the polarization (Berry phase) for reciprocal vector:
  0.00000  0.50000  0.00000 (in reduced coordinates)
  0.00000  0.06394  0.00000 (in cartesian coordinates - atomic units)
 Number of strings:     4
 Number of k points in string:    2

 Summary of the results
 Electronic Berry phase     0.000000000E+00
            Ionic phase     3.552713679E-15
            Total phase     3.552713679E-15
    Remapping in [-1,1]     3.552713679E-15

           Polarization     5.469114724E-17 (a.u. of charge)/bohr^2
           Polarization     3.129140944E-15 C/m^2


 Computing the polarization (Berry phase) for reciprocal vector:
  0.00000  0.00000  0.50000 (in reduced coordinates)
  0.00000  0.00000  0.06019 (in cartesian coordinates - atomic units)
 Number of strings:     4
 Number of k points in string:    2

 Summary of the results
 Electronic Berry phase    -8.759788048E-04
            Ionic phase     9.730210108E-01
            Total phase     9.721450320E-01
    Remapping in [-1,1]     9.721450320E-01

           Polarization     1.589639883E-02 (a.u. of charge)/bohr^2
           Polarization     9.095086674E-01 C/m^2


 Polarization in cartesian coordinates (a.u.):
 (the sum of the electronic and ionic Berry phase has been folded into [-1, 1])
     Electronic berry phase:        0.000000000E+00   0.000000000E+00  -0.143239002E-04
     Ionic:                         0.546911472E-16   0.546911472E-16   0.159107227E-01  
     Total:                         0.546911472E-16   0.546911472E-16   0.158963988E-01

 Polarization in cartesian coordinates (C/m^2):
 (the sum of the electronic and ionic Berry phase has been folded into [-1, 1])
     Electronic berry phase:        0.000000000E+00   0.000000000E+00  -0.819538535E-03
     Ionic:                         0.312914094E-14   0.312914094E-14   0.910328206E+00  
     Total:                         0.312914094E-14   0.312914094E-14   0.909508667E+00

 Stress tensor under a constant electric displacement field:

 Cartesian components of Maxwell stress tensor (hartree/bohr^3)
 Maxstr(1 1)= -6.26392984E-08 Maxstr(3 2)= -1.32831012E-20
 Maxstr(2 2)= -6.26392984E-08 Maxstr(3 1)= -1.32831012E-20
 Maxstr(3 3)=  6.26392984E-08 Maxstr(2 1)=  1.40838724E-33


 Cartesian components of stress tensor (hartree/bohr^3)
  sigma(1 1)=  1.13869017E-04  sigma(3 2)=  0.00000000E+00
  sigma(2 2)=  1.13869017E-04  sigma(3 1)=  0.00000000E+00
  sigma(3 3)=  3.95928461E-04  sigma(2 1)=  0.00000000E+00


 scprqt:  WARNING -
  nstep=   12 was not enough SCF cycles to converge;
  maximum force difference=  3.769E-05 exceeds toldff=  5.000E-06

 Integrated electronic density in atomic spheres:
 ------------------------------------------------
 Atom  Sphere_radius  Integrated_density
    1        2.00000          9.96460233
    2        2.00000          9.02766144
    3        2.00000          5.90311798
    4        2.00000          5.93420583
    5        2.00000          5.93420583

---OUTPUT-----------------------------------------------------------------------

 Cartesian coordinates (xcart) [bohr]
  0.00000000000000E+00  0.00000000000000E+00  7.63958955687809E-01
  3.91008465089010E+00  3.91008465089010E+00  4.48181791363575E+00
  3.91008465089010E+00  3.91008465089010E+00 -2.89623376573137E-01
  3.91008465089010E+00  0.00000000000000E+00  3.75192663849572E+00
  0.00000000000000E+00  3.91008465089010E+00  3.75192663849572E+00
 Reduced coordinates (xred)
  0.00000000000000E+00  0.00000000000000E+00  9.19693267194123E-02
  5.00000000000000E-01  5.00000000000000E-01  5.39544399508973E-01
  5.00000000000000E-01  5.00000000000000E-01 -3.48663586535913E-02
  5.00000000000000E-01  0.00000000000000E+00  4.51676316213103E-01
  0.00000000000000E+00  5.00000000000000E-01  4.51676316213103E-01
 Cartesian forces (fcart) [Ha/bohr]; max,rms= 4.42835E-02 1.36920E-02 (free atoms)
 -0.00000000000000E+00 -0.00000000000000E+00  2.45375619403422E-02
 -0.00000000000000E+00 -0.00000000000000E+00 -4.42834677203711E-02
 -0.00000000000000E+00 -0.00000000000000E+00  1.54885382311709E-02
 -0.00000000000000E+00 -0.00000000000000E+00  2.12868377442897E-03
 -0.00000000000000E+00 -0.00000000000000E+00  2.12868377442897E-03
 Reduced forces (fred)
  0.00000000000000E+00  0.00000000000000E+00 -1.96726593275825E-01
  0.00000000000000E+00  0.00000000000000E+00  3.74947070372523E-01
  0.00000000000000E+00  0.00000000000000E+00 -1.21559328825322E-01
  0.00000000000000E+00  0.00000000000000E+00 -1.05834108428827E-02
  0.00000000000000E+00  0.00000000000000E+00 -1.05834108428827E-02
 Scale of Primitive Cell (acell) [bohr]
  7.82016930178020E+00  7.82016930178020E+00  8.30667117982237E+00
 Real space primitive translations (rprimd) [bohr]
  7.82016930178020E+00  0.00000000000000E+00  0.00000000000000E+00
  0.00000000000000E+00  7.82016930178020E+00  0.00000000000000E+00
  0.00000000000000E+00  0.00000000000000E+00  8.30667117982237E+00
 Unitary Cell Volume (ucvol) [Bohr^3]=  5.07994873962238E+02
 Angles (23,13,12)= [degrees]
  9.00000000000000E+01  9.00000000000000E+01  9.00000000000000E+01
 Lengths [Bohr]
  7.82016930178020E+00  7.82016930178020E+00  8.30667117982237E+00
 Stress tensor in cartesian coordinates (strten) [Ha/bohr^3]
  1.13869016751498E-04  0.00000000000000E+00  0.00000000000000E+00
  0.00000000000000E+00  1.13869016751498E-04  0.00000000000000E+00
  0.00000000000000E+00  0.00000000000000E+00  3.95928461329712E-04
 Total energy (etotal) [Ha]= -1.64491164420495E+02

 Difference of energy with previous step (new-old):
           Absolute (Ha)=-8.72413E-03
           Relative     =-5.30385E-05

 fconv : WARNING -
  ntime=    2 was not enough Broyd/MD steps to converge gradients: 
  max grad (force/stress) = 4.4283E-02 > tolmxf= 5.0000E-05 ha/bohr (free atoms)

================================================================================

 ----iterations are completed or convergence reached----

 Mean square residual over all n,k,spin=   1.7258E-05; max=  5.5978E-05
- nxfh > 0 in outwf is deprecated and will be removed in ABINIT8
 reduced coordinates (array xred) for    5 atoms
       0.000000000000      0.000000000000      0.091969326719
       0.500000000000      0.500000000000      0.539544399509
       0.500000000000      0.500000000000     -0.034866358654
       0.500000000000      0.000000000000      0.451676316213
       0.000000000000      0.500000000000      0.451676316213
 rms dE/dt=  1.1381E-01; max dE/dt=  3.7495E-01; dE/dt below (all hartree)
    1       0.000000000000      0.000000000000     -0.196726593276
    2       0.000000000000      0.000000000000      0.374947070373
    3       0.000000000000      0.000000000000     -0.121559328825
    4       0.000000000000      0.000000000000     -0.010583410843
    5       0.000000000000      0.000000000000     -0.010583410843

 cartesian coordinates (angstrom) at end:
    1      0.00000000000000     0.00000000000000     0.40426966764821
    2      2.06912768090863     2.06912768090863     2.37167589294643
    3      2.06912768090863     2.06912768090863    -0.15326208995738
    4      2.06912768090863     0.00000000000000     1.98543406539363
    5      0.00000000000000     2.06912768090863     1.98543406539363

 cartesian forces (hartree/bohr) at end:
    1     -0.00000000000000    -0.00000000000000     0.02453756194034
    2     -0.00000000000000    -0.00000000000000    -0.04428346772037
    3     -0.00000000000000    -0.00000000000000     0.01548853823117
    4     -0.00000000000000    -0.00000000000000     0.00212868377443
    5     -0.00000000000000    -0.00000000000000     0.00212868377443
 frms,max,avg= 1.3692029E-02 4.4283468E-02   0.000E+00  0.000E+00 -8.546E-04 h/b

 cartesian forces (eV/Angstrom) at end:
    1     -0.00000000000000    -0.00000000000000     1.26177206067940
    2     -0.00000000000000    -0.00000000000000    -2.27714727548776
    3     -0.00000000000000    -0.00000000000000     0.79645259167846
    4     -0.00000000000000    -0.00000000000000     0.10946131156495
    5     -0.00000000000000    -0.00000000000000     0.10946131156495
 frms,max,avg= 7.0407238E-01 2.2771473E+00   0.000E+00  0.000E+00 -4.395E-02 e/A
 length scales=  7.820169301780  7.820169301780  8.306671179822 bohr
              =  4.138255361817  4.138255361817  4.395701067613 angstroms
 prteigrs : about to open file tsv6_122o_EIG
 Fermi (or HOMO) energy (hartree) =   0.21767   Average Vxc (hartree)=  -0.40661
 Eigenvalues (hartree) for nkpt=   1  k points:
 kpt#   1, nband= 22, wtk=  1.00000, kpt=  0.2500  0.2500  0.2500 (reduced coord)
  -1.92973   -1.12506   -1.12499   -1.12465   -0.46495   -0.45290   -0.44435   -0.32978
  -0.32973   -0.32804   -0.32767   -0.32464   -0.02691    0.09010    0.10089    0.10964
   0.14163    0.14379    0.19186    0.20344    0.21368    0.21767

--------------------------------------------------------------------------------
 Components of total free energy (in Hartree) :

    Kinetic energy  =  8.43524496450365E+01
    Hartree energy  =  3.64567475422412E+01
    XC energy       = -2.52890998649526E+01
    Ewald energy    = -1.23711273818443E+02
    PspCore energy  =  3.04139137369385E+00
    Loc. psp. energy= -1.56711243248294E+02
    NL   psp  energy=  1.73694640827495E+01
    Electric energy =  3.99867473553686E-04
    Kohn-Sham energy= -1.64491564287968E+02
    >>>>>>>>> Etotal= -1.64491164420495E+02

 Other information on the energy :
    Total energy(eV)= -4.47603221662446E+03 ; Band energy (Ha)=  -1.3841382288E+01
--------------------------------------------------------------------------------

Constant reduced d calculation  - final values:
 (a. u.)
       e:  -2.437834482E-15  -2.437834482E-15   2.164565594E-02  
       p:   3.552713679E-15   3.552713679E-15   9.721450320E-01  
       d:   0.000000000E+00   0.000000000E+00   9.935774159E-01  
 e  +  p:   1.114879197E-15   1.114879197E-15   9.937906879E-01  

    ebar:  -3.687967289E-15  -3.687967289E-15   3.694667186E-02  
    pbar:   5.374561700E-15   5.374561700E-15   1.659340960E+00  
    dbar:   0.000000000E+00   0.000000000E+00   1.695923601E+00  
 eba+pba:   1.686594411E-15   1.686594411E-15   1.696287632E+00  

       E:  -4.715968602E-16  -4.715968602E-16   4.447831275E-03  
       P:   5.469114724E-17   5.469114724E-17   1.589639883E-02  
       D:   0.000000000E+00   0.000000000E+00   2.041640465E-01  
E+4*pi*P:   2.156723653E-16   2.156723653E-16   2.042078704E-01  

 (S.I.), that is V/m for E, and C/m^2 for P and D
-      E:  -2.425048355E-04  -2.425048355E-04   2.287166609E+09  
       P:   3.129140944E-15   3.129140944E-15   9.095086674E-01  
       D:   0.000000000E+00   0.000000000E+00   9.295601395E-01  
eps0*E+P:   9.819575844E-16   9.819575844E-16   9.297596702E-01  


 Please check: COMMENT - 
  As a rough estimate,
  to be below the critical field, the bandgap of your system
  should be larger than    2.01 eV.

--------------------------------------------------------------------------------
 rms coord change=  3.2131E-03   atom, delta coord (reduced):
     1        0.000000000000      0.000000000000      0.002765033469
     2        0.000000000000      0.000000000000     -0.007711482631
     3        0.000000000000      0.000000000000      0.008933026935
     4        0.000000000000      0.000000000000     -0.001993288887
     5        0.000000000000      0.000000000000     -0.001993288887

 Cartesian components of stress tensor (hartree/bohr^3)
  sigma(1 1)=  1.13869017E-04  sigma(3 2)=  0.00000000E+00
  sigma(2 2)=  1.13869017E-04  sigma(3 1)=  0.00000000E+00
  sigma(3 3)=  3.95928461E-04  sigma(2 1)=  0.00000000E+00

-Cartesian components of stress tensor (GPa)         [Pressure= -6.1163E+00 GPa]
- sigma(1 1)=  3.35014157E+00  sigma(3 2)=  0.00000000E+00
- sigma(2 2)=  3.35014157E+00  sigma(3 1)=  0.00000000E+00
- sigma(3 3)=  1.16486155E+01  sigma(2 1)=  0.00000000E+00

== END DATASET(S) ==============================================================
================================================================================
  
 -outvars: echo values of variables after computation  --------
            acell      7.8201693018E+00  7.8201693018E+00  8.3066711798E+00 Bohr
              amu      2.07200000E+02  4.78800000E+01  1.59994000E+01
         berryopt          16
           diemac      6.00000000E+00
          dilatmx      1.10000000E+00
             ecut      1.50000000E+01 Hartree
           ecutsm      5.00000000E-01 Hartree
           etotal     -1.6449116442E+02
            fcart     -0.0000000000E+00 -0.0000000000E+00  2.4537561940E-02
                      -0.0000000000E+00 -0.0000000000E+00 -4.4283467720E-02
                      -0.0000000000E+00 -0.0000000000E+00  1.5488538231E-02
                      -0.0000000000E+00 -0.0000000000E+00  2.1286837744E-03
                      -0.0000000000E+00 -0.0000000000E+00  2.1286837744E-03
-          fftalg         312
           ionmov           2
              ixc           3
              kpt      2.50000000E-01  2.50000000E-01  2.50000000E-01
         kptrlatt        2    0    0      0    2    0      0    0    2
          kptrlen      1.44254888E+01
         maxestep      3.00000000E-03 Hartree
P           mkmem           1
            natom           5
            nband          22
            ngfft          30      30      32
             nkpt           1
            nstep          12
             nsym           8
            ntime           2
           ntypat           3
              occ      2.000000  2.000000  2.000000  2.000000  2.000000  2.000000
                       2.000000  2.000000  2.000000  2.000000  2.000000  2.000000
                       2.000000  2.000000  2.000000  2.000000  2.000000  2.000000
                       2.000000  2.000000  2.000000  2.000000
          optcell           2
        optforces           1
       red_dfield      0.00000000E+00  0.00000000E+00  9.93577416E-01
       red_efield      0.00000000E+00  0.00000000E+00  3.83150558E-03
           shiftk      5.00000000E-01  5.00000000E-01  5.00000000E-01
          spgroup          99
           strten      1.1386901675E-04  1.1386901675E-04  3.9592846133E-04
                       0.0000000000E+00  0.0000000000E+00  0.0000000000E+00
           symrel      1  0  0   0  1  0   0  0  1       1  0  0   0 -1  0   0  0  1
                      -1  0  0   0 -1  0   0  0  1      -1  0  0   0  1  0   0  0  1
                       0  1  0   1  0  0   0  0  1       0  1  0  -1  0  0   0  0  1
                       0 -1  0  -1  0  0   0  0  1       0 -1  0   1  0  0   0  0  1
           toldff      5.00000000E-06
            typat      1  2  3  3  3
           xangst      0.0000000000E+00  0.0000000000E+00  4.0426966765E-01
                       2.0691276809E+00  2.0691276809E+00  2.3716758929E+00
                       2.0691276809E+00  2.0691276809E+00 -1.5326208996E-01
                       2.0691276809E+00  0.0000000000E+00  1.9854340654E+00
                       0.0000000000E+00  2.0691276809E+00  1.9854340654E+00
            xcart      0.0000000000E+00  0.0000000000E+00  7.6395895569E-01
                       3.9100846509E+00  3.9100846509E+00  4.4818179136E+00
                       3.9100846509E+00  3.9100846509E+00 -2.8962337657E-01
                       3.9100846509E+00  0.0000000000E+00  3.7519266385E+00
                       0.0000000000E+00  3.9100846509E+00  3.7519266385E+00
             xred      0.0000000000E+00  0.0000000000E+00  9.1969326719E-02
                       5.0000000000E-01  5.0000000000E-01  5.3954439951E-01
                       5.0000000000E-01  5.0000000000E-01 -3.4866358654E-02
                       5.0000000000E-01  0.0000000000E+00  4.5167631621E-01
                       0.0000000000E+00  5.0000000000E-01  4.5167631621E-01
            znucl       82.00000   22.00000    8.00000

================================================================================

- Total cpu        time (s,m,h):         24.1        0.40      0.007
- Total wall clock time (s,m,h):         24.2        0.40      0.007
-
- For major independent code sections, cpu and wall times (sec),
-  as well as % of the time and number of calls for node 0-
-<BEGIN_TIMER mpi_nprocs = 1, omp_nthreads = 1, mpi_rank = 0>
- cpu_time =           24.1, wall_time =           24.2
-
- routine                        cpu     %       wall     %      number of calls  Gflops 
-                                                                  (-1=no count)
- fourwf%(pot)                   2.034   8.4      2.059   8.5           3077      -1.00    
- nonlop(apply)                  1.129   4.7      1.098   4.5           3077      -1.00    
- projbd                         0.931   3.9      0.940   3.9           4922      -1.00    
- pspini                         0.850   3.5      0.852   3.5              1      -1.00    
- nonlop(forces)                 0.244   1.0      0.242   1.0            528      -1.00    
- fourwf%(den)                   0.193   0.8      0.191   0.8            528      -1.00    
- forces                         0.161   0.7      0.161   0.7             24      -1.00    
- timing timab                   0.130   0.5      0.129   0.5             10      -1.00    
- others (104)                   0.703   2.9      0.720   3.0             -1      -1.00    
-<END_TIMER>
-
- subtotal                       6.375  26.4      6.392  26.5

- For major independent code sections, cpu and wall times (sec),
- as well as % of the total time and number of calls 

-<BEGIN_TIMER mpi_nprocs = 1, omp_nthreads = 1, mpi_rank = world>
- cpu_time =          24.1, wall_time =          24.2
-
- routine                         cpu     %       wall     %      number of calls Gflops 
-                                                                  (-1=no count)
- fourwf%(pot)                   2.034   8.4      2.059   8.5           3077      -1.00    
- nonlop(apply)                  1.129   4.7      1.098   4.5           3077      -1.00    
- projbd                         0.931   3.9      0.940   3.9           4922      -1.00    
- pspini                         0.850   3.5      0.852   3.5              1      -1.00    
- nonlop(forces)                 0.244   1.0      0.242   1.0            528      -1.00    
- fourwf%(den)                   0.193   0.8      0.191   0.8            528      -1.00    
- forces                         0.161   0.7      0.161   0.7             24      -1.00    
- timing timab                   0.130   0.5      0.129   0.5             10      -1.00    
- others (104)                   0.703   2.9      0.720   3.0             -1      -1.00    
-<END_TIMER>

- subtotal                       6.375  26.4      6.392  26.5

================================================================================

 Suggested references for the acknowledgment of ABINIT usage.

 The users of ABINIT have little formal obligations with respect to the ABINIT group
 (those specified in the GNU General Public License, http://www.gnu.org/copyleft/gpl.txt).
 However, it is common practice in the scientific literature,
 to acknowledge the efforts of people that have made the research possible.
 In this spirit, please find below suggested citations of work written by ABINIT developers,
 corresponding to implementations inside of ABINIT that you have used in the present run.
 Note also that it will be of great value to readers of publications presenting these results,
 to read papers enabling them to understand the theoretical formalism and details
 of the ABINIT implementation.
 For information on why they are suggested, see also https://www.abinit.org/about/?text=acknowledgments.
-
- [1] ABINIT : First-principles approach of materials and nanosystem properties.
- X. Gonze, B. Amadon, P.-M. Anglade, J.-M. Beuken, F. Bottin, P. Boulanger, F. Bruneval,
- D. Caliste, R. Caracas, M. Cote, T. Deutsch, L. Genovese, Ph. Ghosez, M. Giantomassi
- S. Goedecker, D.R. Hamann, P. Hermet, F. Jollet, G. Jomard, S. Leroux, M. Mancini, S. Mazevet,
- M.J.T. Oliveira, G. Onida, Y. Pouillon, T. Rangel, G.-M. Rignanese, D. Sangalli, R. Shaltaf,
- M. Torrent, M.J. Verstraete, G. Zerah, J.W. Zwanziger
- Computer Phys. Comm. 180, 2582-2615 (2009).
- Comment : the third generic paper describing the ABINIT project.
- Note that a version of this paper, that is not formatted for Computer Phys. Comm. 
- is available at https://www.abinit.org/about/ABINIT_CPC_v10.pdf .
- The licence allows the authors to put it on the Web.
-
- [2] A brief introduction to the ABINIT software package.
- X. Gonze, G.-M. Rignanese, M. Verstraete, J.-M. Beuken, Y. Pouillon, R. Caracas, F. Jollet,
- M. Torrent, G. Zerah, M. Mikami, Ph. Ghosez, M. Veithen, J.-Y. Raty, V. Olevano, F. Bruneval,
- L. Reining, R. Godby, G. Onida, D.R. Hamann, and D.C. Allan.
- Z. Kristallogr. 220, 558-562 (2005).
- Comment : the second generic paper describing the ABINIT project. Note that this paper
- should be cited especially if you are using the GW part of ABINIT, as several authors
- of this part are not in the list of authors of the first or third paper.
- The .pdf of the latter paper is available at https://www.abinit.org/about/zfk_0505-06_558-562.pdf.
- Note that it should not redistributed (Copyright by Oldenburg Wissenshaftverlag,
- the licence allows the authors to put it on the Web).
-
- And optionally:
-
- [3] First-principles computation of material properties : the ABINIT software project. 
- X. Gonze, J.-M. Beuken, R. Caracas, F. Detraux, M. Fuchs, G.-M. Rignanese, L. Sindic,
- M. Verstraete, G. Zerah, F. Jollet, M. Torrent, A. Roy, M. Mikami, Ph. Ghosez, J.-Y. Raty, D.C. Allan.
- Computational Materials Science 25, 478-492 (2002). http://dx.doi.org/10.1016/S0927-0256(02)00325-7
- Comment : the original paper describing the ABINIT project.
-
- [4] Fast radix 2, 3, 4 and 5 kernels for Fast Fourier Transformations
- on computers with overlapping multiply-add instructions.
- S. Goedecker, SIAM J. on Scientific Computing 18, 1605 (1997).
-
- Proc.   0 individual time (sec): cpu=         24.1  wall=         24.2

================================================================================

 Calculation completed.
.Delivered   8 WARNINGs and   7 COMMENTs to log file.
+Overall time at end (sec) : cpu=         24.1  wall=         24.2
