
.Version 9.0.0 of ABINIT 
.(sequential version, prepared for a x86_64_linux_gnu9.2 computer) 

.Copyright (C) 1998-2020 ABINIT group . 
 ABINIT comes with ABSOLUTELY NO WARRANTY.
 It is free software, and you are welcome to redistribute it
 under certain conditions (GNU General Public License,
 see ~abinit/COPYING or http://www.gnu.org/copyleft/gpl.txt).

 ABINIT is a project of the Universite Catholique de Louvain,
 Corning Inc. and other collaborators, see ~abinit/doc/developers/contributors.txt .
 Please read https://docs.abinit.org/theory/acknowledgments for suggested
 acknowledgments of the ABINIT effort.
 For more information, see https://www.abinit.org .

.Starting date : Tue 25 Feb 2020.
- ( at 00h22 )
  
- input  file    -> /home/buildbot/bb/ABINIT/abiref_gnu_9.2_serial/gmatteo_phdos/tests/Test_suite/seq_tsv7_70/tsv7_70.in
- output file    -> tsv7_70.out
- root for input  files -> tsv7_70i
- root for output files -> tsv7_70o


 DATASET    1 : space group F-4 3 m (#216); Bravais cF (face-center cubic)
================================================================================
 Values of the parameters that define the memory need for DATASET  1.
     intxc =       0    ionmov =       0      iscf =      17    lmnmax =       8
     lnmax =       4     mgfft =      16  mpssoang =       2    mqgrid =    3001
     natom =       2  nloc_mem =       2    nspden =       1   nspinor =       1
    nsppol =       1      nsym =      24    n1xccc =       1    ntypat =       2
    occopt =       1   xclevel =       1
-    mband =           4        mffmem =           1         mkmem =           2
       mpw =         138          nfft =        4096          nkpt =           2
 PAW method is used; the additional fine FFT grid is defined by:
   mgfftf=        20    nfftf =      8000
================================================================================
P This job should need less than                       3.675 Mbytes of memory.
  Rough estimation (10% accuracy) of disk space for files :
_ WF disk file :      0.019 Mbytes ; DEN or POT disk file :      0.063 Mbytes.
================================================================================


 DATASET    2 : space group Im m 2 (# 44); Bravais oI (body-center ortho.)
================================================================================
 Values of the parameters that define the memory need for DATASET  2.
     intxc =       0    ionmov =       0      iscf =      17    lmnmax =       8
     lnmax =       4     mgfft =      16  mpssoang =       2    mqgrid =    3001
     natom =       2  nloc_mem =       2    nspden =       1   nspinor =       1
    nsppol =       1      nsym =       4    n1xccc =       1    ntypat =       2
    occopt =       1   xclevel =       1
-    mband =           4        mffmem =           1         mkmem =           6
       mpw =         138          nfft =        4096          nkpt =           6
 PAW method is used; the additional fine FFT grid is defined by:
   mgfftf=        20    nfftf =      8000
================================================================================
P This job should need less than                       3.737 Mbytes of memory.
  Rough estimation (10% accuracy) of disk space for files :
_ WF disk file :      0.053 Mbytes ; DEN or POT disk file :      0.063 Mbytes.
================================================================================

--------------------------------------------------------------------------------
------------- Echo of variables that govern the present computation ------------
--------------------------------------------------------------------------------
-
- outvars: echo of selected default values                                      
-   iomode0 =  0 , fftalg0 =312 , wfoptalg0 = 10
-
- outvars: echo of global parameters not present in the input file              
-  max_nthreads =    0
-
 -outvars: echo values of preprocessed input variables --------
            acell      1.0530000000E+01  1.0530000000E+01  1.0530000000E+01 Bohr
              amu      2.69815390E+01  7.49215900E+01
         berryopt1         -1
         berryopt2          4
          dilatmx      1.05000000E+00
             ecut      4.00000000E+00 Hartree
           ecutsm      5.00000000E-01 Hartree
           efield1     0.00000000E+00  0.00000000E+00  0.00000000E+00
           efield2     1.00000000E-04  0.00000000E+00  0.00000000E+00
-          fftalg         312
           getwfk1          0
           getwfk2          1
              ixc           7
           jdtset        1    2
              kpt1    -2.50000000E-01  5.00000000E-01  0.00000000E+00
                      -2.50000000E-01  0.00000000E+00  0.00000000E+00
              kpt2    -2.50000000E-01  5.00000000E-01  0.00000000E+00
                       5.00000000E-01 -2.50000000E-01  0.00000000E+00
                      -2.50000000E-01  0.00000000E+00  0.00000000E+00
                      -2.50000000E-01  2.50000000E-01  2.50000000E-01
                       0.00000000E+00 -2.50000000E-01  0.00000000E+00
                       0.00000000E+00  5.00000000E-01  2.50000000E-01
         kptrlatt        2   -2    2     -2    2    2     -2   -2    2
          kptrlen      2.10600000E+01
P           mkmem1          2
P           mkmem2          6
            natom           2
            nband1          4
            nband2          4
           ndtset           2
            ngfft          16      16      16
          ngfftdg          20      20      20
             nkpt1          2
             nkpt2          6
            nstep          10
             nsym1         24
             nsym2          4
           ntypat           2
              occ1     2.000000  2.000000  2.000000  2.000000
              occ2     2.000000  2.000000  2.000000  2.000000
        optforces           1
        pawecutdg      8.00000000E+00 Hartree
            rfdir           1       1       1
            rprim      0.0000000000E+00  5.0000000000E-01  5.0000000000E-01
                       5.0000000000E-01  0.0000000000E+00  5.0000000000E-01
                       5.0000000000E-01  5.0000000000E-01  0.0000000000E+00
           shiftk      5.00000000E-01  5.00000000E-01  5.00000000E-01
          spgroup1        216
          spgroup2         44
           symafm1       1    1    1    1    1    1    1    1    1    1
                         1    1    1    1    1    1    1    1    1    1
                         1    1    1    1
           symafm2       1    1    1    1
        symmorphi           0
           symrel1     1  0  0   0  1  0   0  0  1       0 -1  1   0 -1  0   1 -1  0
                      -1  0  0  -1  0  1  -1  1  0       0  1 -1   1  0 -1   0  0 -1
                      -1  0  0  -1  1  0  -1  0  1       0 -1  1   1 -1  0   0 -1  0
                       1  0  0   0  0  1   0  1  0       0  1 -1   0  0 -1   1  0 -1
                      -1  0  1  -1  1  0  -1  0  0       0 -1  0   1 -1  0   0 -1  1
                       1  0 -1   0  0 -1   0  1 -1       0  1  0   0  0  1   1  0  0
                       1  0 -1   0  1 -1   0  0 -1       0 -1  0   0 -1  1   1 -1  0
                      -1  0  1  -1  0  0  -1  1  0       0  1  0   1  0  0   0  0  1
                       0  0 -1   0  1 -1   1  0 -1       1 -1  0   0 -1  1   0 -1  0
                       0  0  1   1  0  0   0  1  0      -1  1  0  -1  0  0  -1  0  1
                       0  0  1   0  1  0   1  0  0       1 -1  0   0 -1  0   0 -1  1
                       0  0 -1   1  0 -1   0  1 -1      -1  1  0  -1  0  1  -1  0  0
           symrel2     1  0  0   0  1  0   0  0  1      -1  0  0  -1  0  1  -1  1  0
                      -1  0  0  -1  1  0  -1  0  1       1  0  0   0  0  1   0  1  0
            tnons1     0.0000000  0.0000000  0.0000000     0.0000000  0.0000000  0.0000000
                       0.0000000  0.0000000  0.0000000     0.0000000  0.0000000  0.0000000
                       0.0000000  0.0000000  0.0000000     0.0000000  0.0000000  0.0000000
                       0.0000000  0.0000000  0.0000000     0.0000000  0.0000000  0.0000000
                       0.0000000  0.0000000  0.0000000     0.0000000  0.0000000  0.0000000
                       0.0000000  0.0000000  0.0000000     0.0000000  0.0000000  0.0000000
                       0.0000000  0.0000000  0.0000000     0.0000000  0.0000000  0.0000000
                       0.0000000  0.0000000  0.0000000     0.0000000  0.0000000  0.0000000
                       0.0000000  0.0000000  0.0000000     0.0000000  0.0000000  0.0000000
                       0.0000000  0.0000000  0.0000000     0.0000000  0.0000000  0.0000000
                       0.0000000  0.0000000  0.0000000     0.0000000  0.0000000  0.0000000
                       0.0000000  0.0000000  0.0000000     0.0000000  0.0000000  0.0000000
            tnons2     0.0000000  0.0000000  0.0000000     0.0000000  0.0000000  0.0000000
                       0.0000000  0.0000000  0.0000000     0.0000000  0.0000000  0.0000000
           toldfe      1.00000000E-22 Hartree
            typat      1  2
           useylm           1
              wtk1       0.75000    0.25000
              wtk2       0.25000    0.25000    0.12500    0.12500    0.12500    0.12500
           xangst      0.0000000000E+00  0.0000000000E+00  0.0000000000E+00
                       1.3930590016E+00  1.3930590016E+00  1.3930590016E+00
            xcart      0.0000000000E+00  0.0000000000E+00  0.0000000000E+00
                       2.6325000000E+00  2.6325000000E+00  2.6325000000E+00
             xred      0.0000000000E+00  0.0000000000E+00  0.0000000000E+00
                       2.5000000000E-01  2.5000000000E-01  2.5000000000E-01
            znucl       13.00000   33.00000

================================================================================

 chkinp: Checking input parameters for consistency, jdtset=   1.

 chkinp: Checking input parameters for consistency, jdtset=   2.

================================================================================
== DATASET  1 ==================================================================
-   mpi_nproc: 1, omp_nthreads: -1 (-1 if OMP is not activated)


--- !DatasetInfo
iteration_state: {dtset: 1, }
dimensions: {natom: 2, nkpt: 2, mband: 4, nsppol: 1, nspinor: 1, nspden: 1, mpw: 138, }
cutoff_energies: {ecut:   4.0, pawecutdg:   8.0, }
electrons: {nelect:   8.00000000E+00, charge:   0.00000000E+00, occopt:   1.00000000E+00, tsmear:   1.00000000E-02, }
meta: {optdriver: 0, ionmov: 0, optcell: 0, iscf: 17, paral_kgb: 0, }
...

 Exchange-correlation functional for the present dataset will be:
  LDA: Perdew-Wang 92 LSD fit to Ceperley-Alder data - ixc=7
 Citation for XC functional:
  J.P.Perdew and Y.Wang, PRB 45, 13244 (1992)

 Real(R)+Recip(G) space primitive vectors, cartesian coordinates (Bohr,Bohr^-1):
 R(1)=  0.0000000  5.2650000  5.2650000  G(1)= -0.0949668  0.0949668  0.0949668
 R(2)=  5.2650000  0.0000000  5.2650000  G(2)=  0.0949668 -0.0949668  0.0949668
 R(3)=  5.2650000  5.2650000  0.0000000  G(3)=  0.0949668  0.0949668 -0.0949668
 Unit cell volume ucvol=  2.9189397E+02 bohr^3
 Angles (23,13,12)=  6.00000000E+01  6.00000000E+01  6.00000000E+01 degrees

 Coarse grid specifications (used for wave-functions):

 getcut: wavevector=  0.0000  0.0000  0.0000  ngfft=  16  16  16
         ecut(hartree)=      4.410   => boxcut(ratio)=   2.27312

 getcut : COMMENT -
  Note that boxcut > 2.2 ; recall that boxcut=Gcut(box)/Gcut(sphere) = 2
  is sufficient for exact treatment of convolution.
  Such a large boxcut is a waste : you could raise ecut
  e.g. ecut=    5.696695 Hartrees makes boxcut=2


 Fine grid specifications (used for densities):

 getcut: wavevector=  0.0000  0.0000  0.0000  ngfft=  20  20  20
         ecut(hartree)=      8.820   => boxcut(ratio)=   2.00917

--- Pseudopotential description ------------------------------------------------
- pspini: atom type   1  psp file is /home/buildbot/bb/ABINIT/abiref_gnu_9.2_serial/gmatteo_phdos/tests/Psps_for_tests/al_ps.abinit.paw
- pspatm: opening atomic psp file    /home/buildbot/bb/ABINIT/abiref_gnu_9.2_serial/gmatteo_phdos/tests/Psps_for_tests/al_ps.abinit.paw
- Paw atomic data for element Al - Generated by AtomPAW + AtomPAW2Abinit v3.2.1
- 13.00000   3.00000  20091223                znucl, zion, pspdat
    7    7    1    0       473   0.00000      pspcod,pspxc,lmax,lloc,mmax,r2well
 Pseudopotential format is: paw4
 basis_size (lnmax)=  4 (lmn_size=  8), orbitals=   0   0   1   1
 Spheres core radius: rc_sph= 2.01466516
 4 radial meshes are used:
  - mesh 1: r(i)=AA*[exp(BB*(i-1))-1], size= 473 , AA= 0.12205E-02 BB= 0.15866E-01
  - mesh 2: r(i)=AA*[exp(BB*(i-1))-1], size= 468 , AA= 0.12205E-02 BB= 0.15866E-01
  - mesh 3: r(i)=AA*[exp(BB*(i-1))-1], size= 521 , AA= 0.12205E-02 BB= 0.15866E-01
  - mesh 4: r(i)=AA*[exp(BB*(i-1))-1], size= 569 , AA= 0.12205E-02 BB= 0.15866E-01
 Shapefunction is SIN type: shapef(r)=[sin(pi*r/rshp)/(pi*r/rshp)]**2
 Radius for shape functions = sphere core radius
 Radial grid used for partial waves is grid 1
 Radial grid used for projectors is grid  2
 Radial grid used for (t)core density is grid 3
 Radial grid used for Vloc is grid 4
 Radial grid used for pseudo valence density is grid 4
 Compensation charge density is taken into account in XC energy/potential
 pspatm: atomic psp has been read  and splines computed

- pspini: atom type   2  psp file is /home/buildbot/bb/ABINIT/abiref_gnu_9.2_serial/gmatteo_phdos/tests/Psps_for_tests/as_ps.paw
- pspatm: opening atomic psp file    /home/buildbot/bb/ABINIT/abiref_gnu_9.2_serial/gmatteo_phdos/tests/Psps_for_tests/as_ps.paw
- Paw atomic data for element As - Generated by AtomPAW + AtomPAW2Abinit v3.2.0
- 33.00000   5.00000  20090611                znucl, zion, pspdat
    7    7    1    0       495   0.00000      pspcod,pspxc,lmax,lloc,mmax,r2well
 Pseudopotential format is: paw4
 basis_size (lnmax)=  4 (lmn_size=  8), orbitals=   0   0   1   1
 Spheres core radius: rc_sph= 2.20863348
 4 radial meshes are used:
  - mesh 1: r(i)=AA*[exp(BB*(i-1))-1], size= 495 , AA= 0.51795E-03 BB= 0.17092E-01
  - mesh 2: r(i)=AA*[exp(BB*(i-1))-1], size= 501 , AA= 0.51795E-03 BB= 0.17092E-01
  - mesh 3: r(i)=AA*[exp(BB*(i-1))-1], size= 546 , AA= 0.51795E-03 BB= 0.17092E-01
  - mesh 4: r(i)=AA*[exp(BB*(i-1))-1], size= 578 , AA= 0.51795E-03 BB= 0.17092E-01
 Shapefunction is SIN type: shapef(r)=[sin(pi*r/rshp)/(pi*r/rshp)]**2
 Radius for shape functions = sphere core radius
 Radial grid used for partial waves is grid 1
 Radial grid used for projectors is grid  2
 Radial grid used for (t)core density is grid 3
 Radial grid used for Vloc is grid 4
 Radial grid used for pseudo valence density is grid 4
 Compensation charge density is taken into account in XC energy/potential
 pspatm: atomic psp has been read  and splines computed

   2.11748330E+02                                ecore*ucvol(ha*bohr**3)
--------------------------------------------------------------------------------

_setup2: Arith. and geom. avg. npw (full set) are     132.000     131.955
  initberry: for direction 1, nkstr =   2, nstr =     16
  initberry: for direction 2, nkstr =   2, nstr =     16
  initberry: for direction 3, nkstr =   2, nstr =     16

================================================================================

--- !BeginCycle
iteration_state: {dtset: 1, }
solver: {iscf: 17, nstep: 10, nline: 4, wfoptalg: 10, }
tolerances: {toldfe: 1.00E-22, }
...

     iter   Etot(hartree)      deltaE(h)  residm     nres2    diffor    maxfor
 ETOT  1  -8.5888016967677    -8.589E+00 4.264E-03 3.773E-01 0.000E+00 0.000E+00
 ETOT  2  -8.5866365837552     2.165E-03 1.178E-07 5.499E-02 3.069E-28 3.069E-28
 ETOT  3  -8.5852331371898     1.403E-03 4.931E-06 1.227E-03 2.608E-26 2.618E-26
 ETOT  4  -8.5852389559298    -5.819E-06 7.774E-08 9.093E-05 2.598E-26 6.137E-28
 ETOT  5  -8.5852397903812    -8.345E-07 1.772E-08 7.678E-06 7.671E-28 9.717E-28
 ETOT  6  -8.5852399581213    -1.677E-07 3.820E-10 2.876E-07 1.074E-27 1.023E-28
 ETOT  7  -8.5852399596457    -1.524E-09 2.390E-11 6.208E-09 1.406E-28 3.836E-29
 ETOT  8  -8.5852399596791    -3.332E-11 2.701E-13 1.305E-09 5.594E-29 2.078E-29
 ETOT  9  -8.5852399596527     2.640E-11 4.640E-13 1.058E-10 2.078E-29 0.000E+00
 ETOT 10  -8.5852399596467     5.986E-12 2.984E-14 1.033E-12 4.395E-30 4.395E-30

 Computing the polarization (Berry phase) for reciprocal vector:
  0.50000  0.00000  0.00000 (in reduced coordinates)
 -0.04748  0.04748  0.04748 (in cartesian coordinates - atomic units)
 Number of strings:    16
 Number of k points in string:    2

 Summary of the results
 Electronic Berry phase     1.737899401E-02
            Ionic phase    -7.500000000E-01
            Total phase    -7.326210060E-01
    Remapping in [-1,1]    -7.326210060E-01

           Polarization    -1.525885649E-02 (a.u. of charge)/bohr^2
           Polarization    -8.730318343E-01 C/m^2


 Computing the polarization (Berry phase) for reciprocal vector:
  0.00000  0.50000  0.00000 (in reduced coordinates)
  0.04748 -0.04748  0.04748 (in cartesian coordinates - atomic units)
 Number of strings:    16
 Number of k points in string:    2

 Summary of the results
 Electronic Berry phase     1.737899401E-02
            Ionic phase    -7.500000000E-01
            Total phase    -7.326210060E-01
    Remapping in [-1,1]    -7.326210060E-01

           Polarization    -1.525885649E-02 (a.u. of charge)/bohr^2
           Polarization    -8.730318343E-01 C/m^2


 Computing the polarization (Berry phase) for reciprocal vector:
  0.00000  0.00000  0.50000 (in reduced coordinates)
  0.04748  0.04748 -0.04748 (in cartesian coordinates - atomic units)
 Number of strings:    16
 Number of k points in string:    2

 Summary of the results
 Electronic Berry phase     1.737899401E-02
            Ionic phase    -7.500000000E-01
            Total phase    -7.326210060E-01
    Remapping in [-1,1]    -7.326210060E-01

           Polarization    -1.525885649E-02 (a.u. of charge)/bohr^2
           Polarization    -8.730318343E-01 C/m^2


 Polarization in cartesian coordinates (a.u.):
 (the sum of the electronic and ionic Berry phase has been folded into [-1, 1])
     Electronic berry phase:        0.626942747E-03   0.626942747E-03   0.626942747E-03
     ...includes PAW on-site term:  0.000000000E+00   0.000000000E+00   0.000000000E+00
     Ionic:                        -0.270560574E-01  -0.270560574E-01  -0.270560574E-01  
     Total:                        -0.264291147E-01  -0.264291147E-01  -0.264291147E-01

 Polarization in cartesian coordinates (C/m^2):
 (the sum of the electronic and ionic Berry phase has been folded into [-1, 1])
     Electronic berry phase:        0.358703797E-01   0.358703797E-01   0.358703797E-01
     ...includes PAW on-site term:  0.000000000E+00   0.000000000E+00   0.000000000E+00
     Ionic:                        -0.154800587E+01  -0.154800587E+01  -0.154800587E+01  
     Total:                        -0.151213549E+01  -0.151213549E+01  -0.151213549E+01

 Cartesian components of stress tensor (hartree/bohr^3)
  sigma(1 1)= -1.62563221E-04  sigma(3 2)=  0.00000000E+00
  sigma(2 2)= -1.62563221E-04  sigma(3 1)=  0.00000000E+00
  sigma(3 3)= -1.62563221E-04  sigma(2 1)=  0.00000000E+00


 scprqt:  WARNING -
  nstep=   10 was not enough SCF cycles to converge;
  maximum energy difference=  5.986E-12 exceeds toldfe=  1.000E-22


--- !ResultsGS
iteration_state: {dtset: 1, }
comment   : Summary of ground state results
lattice_vectors:
- [  0.0000000,   5.2650000,   5.2650000, ]
- [  5.2650000,   0.0000000,   5.2650000, ]
- [  5.2650000,   5.2650000,   0.0000000, ]
lattice_lengths: [   7.44583,    7.44583,    7.44583, ]
lattice_angles: [ 60.000,  60.000,  60.000, ] # degrees, (23, 13, 12)
lattice_volume:   2.9189397E+02
convergence: {deltae:  5.986E-12, res2:  1.033E-12, residm:  2.984E-14, diffor:  4.395E-30, }
etotal    :  -8.58523996E+00
entropy   :   0.00000000E+00
fermie    :   8.20644201E-02
cartesian_stress_tensor: # hartree/bohr^3
- [ -1.62563221E-04,   0.00000000E+00,   0.00000000E+00, ]
- [  0.00000000E+00,  -1.62563221E-04,   0.00000000E+00, ]
- [  0.00000000E+00,   0.00000000E+00,  -1.62563221E-04, ]
pressure_GPa:   4.7828E+00
xred      :
- [  0.0000E+00,   0.0000E+00,   0.0000E+00, Al]
- [  2.5000E-01,   2.5000E-01,   2.5000E-01, As]
cartesian_forces: # hartree/bohr
- [  4.39504651E-30,  -1.99774841E-30,   1.19864905E-30, ]
- [ -4.39504651E-30,   1.99774841E-30,  -1.19864905E-30, ]
force_length_stats: {min:   4.97435344E-30, max:   4.97435344E-30, mean:   4.97435344E-30, }
...

 Integrated electronic density in atomic spheres:
 ------------------------------------------------
 Atom  Sphere_radius  Integrated_density
    1        2.01467          0.98221041
    2        2.20863          3.19831777

 PAW TEST:
 ==== Compensation charge inside spheres ============
 The following values must be close to each other ...
 Compensation charge over spherical meshes =     -0.941483559191472
 Compensation charge over fine fft grid    =     -0.941464316347658

 ==== Results concerning PAW augmentation regions ====

 Total pseudopotential strength Dij (hartree):
 Atom #  1
   0.35140   0.00184   0.00000   0.00000   0.00000   0.00000   0.00000   0.00000
   0.00184  12.94122   0.00000   0.00000   0.00000   0.00000   0.00000   0.00000
   0.00000   0.00000   0.07809   0.00000   0.00000  -0.01112   0.00000   0.00000
   0.00000   0.00000   0.00000   0.07809   0.00000   0.00000  -0.01112   0.00000
   0.00000   0.00000   0.00000   0.00000   0.07809   0.00000   0.00000  -0.01112
   0.00000   0.00000  -0.01112   0.00000   0.00000   0.10126   0.00000   0.00000
   0.00000   0.00000   0.00000  -0.01112   0.00000   0.00000   0.10126   0.00000
   0.00000   0.00000   0.00000   0.00000  -0.01112   0.00000   0.00000   0.10126
 Atom #  2
   0.26000  -0.05539   0.00000   0.00000   0.00000   0.00000   0.00000   0.00000
  -0.05539   1.29654   0.00000   0.00000   0.00000   0.00000   0.00000   0.00000
   0.00000   0.00000  -0.03869   0.00000   0.00000  -0.00675   0.00000   0.00000
   0.00000   0.00000   0.00000  -0.03869   0.00000   0.00000  -0.00675   0.00000
   0.00000   0.00000   0.00000   0.00000  -0.03869   0.00000   0.00000  -0.00675
   0.00000   0.00000  -0.00675   0.00000   0.00000  -0.15538   0.00000   0.00000
   0.00000   0.00000   0.00000  -0.00675   0.00000   0.00000  -0.15538   0.00000
   0.00000   0.00000   0.00000   0.00000  -0.00675   0.00000   0.00000  -0.15538


 Augmentation waves occupancies Rhoij:
 Atom #  1
   1.24886   0.00274   0.00000   0.00000   0.00000   0.00000   0.00000   0.00000
   0.00274   0.00002   0.00000   0.00000   0.00000   0.00000   0.00000   0.00000
   0.00000   0.00000   0.89491   0.00000   0.00000  -0.01067   0.00000   0.00000
   0.00000   0.00000   0.00000   0.89491   0.00000   0.00000  -0.01067   0.00000
   0.00000   0.00000   0.00000   0.00000   0.89491   0.00000   0.00000  -0.01067
   0.00000   0.00000  -0.01067   0.00000   0.00000   0.00017   0.00000   0.00000
   0.00000   0.00000   0.00000  -0.01067   0.00000   0.00000   0.00017   0.00000
   0.00000   0.00000   0.00000   0.00000  -0.01067   0.00000   0.00000   0.00017
 Atom #  2
   1.76119   0.02611   0.00000   0.00000   0.00000   0.00000   0.00000   0.00000
   0.02611   0.00072   0.00000   0.00000   0.00000   0.00000   0.00000   0.00000
   0.00000   0.00000   0.94714   0.00000   0.00000   0.04995   0.00000   0.00000
   0.00000   0.00000   0.00000   0.94714   0.00000   0.00000   0.04995   0.00000
   0.00000   0.00000   0.00000   0.00000   0.94714   0.00000   0.00000   0.04995
   0.00000   0.00000   0.04995   0.00000   0.00000   0.00277   0.00000   0.00000
   0.00000   0.00000   0.00000   0.04995   0.00000   0.00000   0.00277   0.00000
   0.00000   0.00000   0.00000   0.00000   0.04995   0.00000   0.00000   0.00277


================================================================================

 ----iterations are completed or convergence reached----

 Mean square residual over all n,k,spin=   10.883E-15; max=  29.835E-15
 reduced coordinates (array xred) for    2 atoms
       0.000000000000      0.000000000000      0.000000000000
       0.250000000000      0.250000000000      0.250000000000
 rms dE/dt=  2.5476E-29; max dE/dt=  5.0487E-29; dE/dt below (all hartree)
    1       0.000000000000     -0.000000000000     -0.000000000000
    2       0.000000000000      0.000000000000      0.000000000000

 cartesian coordinates (angstrom) at end:
    1      0.00000000000000     0.00000000000000     0.00000000000000
    2      1.39305900161317     1.39305900161317     1.39305900161317

 cartesian forces (hartree/bohr) at end:
    1      0.00000000000000    -0.00000000000000     0.00000000000000
    2     -0.00000000000000     0.00000000000000    -0.00000000000000
 frms,max,avg= 2.8719443E-30 4.3950465E-30   0.000E+00  0.000E+00  0.000E+00 h/b

 cartesian forces (eV/Angstrom) at end:
    1      0.00000000000000    -0.00000000000000     0.00000000000000
    2     -0.00000000000000     0.00000000000000    -0.00000000000000
 frms,max,avg= 1.4768130E-28 2.2600236E-28   0.000E+00  0.000E+00  0.000E+00 e/A
 length scales= 10.530000000000 10.530000000000 10.530000000000 bohr
              =  5.572236006453  5.572236006453  5.572236006453 angstroms
 prteigrs : about to open file tsv7_70o_DS1_EIG
 Fermi (or HOMO) energy (hartree) =   0.08206   Average Vxc (hartree)=  -0.33066
 Eigenvalues (hartree) for nkpt=   2  k points:
 kpt#   1, nband=  4, wtk=  0.75000, kpt= -0.2500  0.5000  0.0000 (reduced coord)
  -0.27294   -0.09227   -0.00669    0.03741
 prteigrs : prtvol=0 or 1, do not print more k-points.


--- !EnergyTerms
iteration_state     : {dtset: 1, }
comment             : Components of total free energy in Hartree
kinetic             :  3.47974715002177E+00
hartree             :  7.72876250783586E-01
xc                  : -2.69143656061075E+00
Ewald energy        : -8.54432049481056E+00
psp_core            :  7.25428932010496E-01
local_psp           : -2.38444222266217E+00
spherical_terms     :  5.69062120511497E-02
total_energy        : -8.58524073321647E+00
total_energy_eV     : -2.33616281122061E+02
...


--- !EnergyTermsDC
iteration_state     : {dtset: 1, }
comment             : '"Double-counting" decomposition of free energy'
band_energy         : -5.92108141213380E-01
Ewald energy        : -8.54432049481056E+00
psp_core            :  7.25428932010496E-01
xc_dc               : -2.54954975859101E-01
spherical_terms     :  8.07147202258660E-02
total_energy_dc     : -8.58523995964667E+00
total_energy_dc_eV  : -2.33616260072157E+02
...


 Cartesian components of stress tensor (hartree/bohr^3)
  sigma(1 1)= -1.62563221E-04  sigma(3 2)=  0.00000000E+00
  sigma(2 2)= -1.62563221E-04  sigma(3 1)=  0.00000000E+00
  sigma(3 3)= -1.62563221E-04  sigma(2 1)=  0.00000000E+00

-Cartesian components of stress tensor (GPa)         [Pressure=  4.7828E+00 GPa]
- sigma(1 1)= -4.78277428E+00  sigma(3 2)=  0.00000000E+00
- sigma(2 2)= -4.78277428E+00  sigma(3 1)=  0.00000000E+00
- sigma(3 3)= -4.78277428E+00  sigma(2 1)=  0.00000000E+00

================================================================================
== DATASET  2 ==================================================================
-   mpi_nproc: 1, omp_nthreads: -1 (-1 if OMP is not activated)


--- !DatasetInfo
iteration_state: {dtset: 2, }
dimensions: {natom: 2, nkpt: 6, mband: 4, nsppol: 1, nspinor: 1, nspden: 1, mpw: 138, }
cutoff_energies: {ecut:   4.0, pawecutdg:   8.0, }
electrons: {nelect:   8.00000000E+00, charge:   0.00000000E+00, occopt:   1.00000000E+00, tsmear:   1.00000000E-02, }
meta: {optdriver: 0, ionmov: 0, optcell: 0, iscf: 17, paral_kgb: 0, }
...

 mkfilename : getwfk/=0, take file _WFK from output of DATASET   1.

 Exchange-correlation functional for the present dataset will be:
  LDA: Perdew-Wang 92 LSD fit to Ceperley-Alder data - ixc=7
 Citation for XC functional:
  J.P.Perdew and Y.Wang, PRB 45, 13244 (1992)

 Real(R)+Recip(G) space primitive vectors, cartesian coordinates (Bohr,Bohr^-1):
 R(1)=  0.0000000  5.2650000  5.2650000  G(1)= -0.0949668  0.0949668  0.0949668
 R(2)=  5.2650000  0.0000000  5.2650000  G(2)=  0.0949668 -0.0949668  0.0949668
 R(3)=  5.2650000  5.2650000  0.0000000  G(3)=  0.0949668  0.0949668 -0.0949668
 Unit cell volume ucvol=  2.9189397E+02 bohr^3
 Angles (23,13,12)=  6.00000000E+01  6.00000000E+01  6.00000000E+01 degrees

 Coarse grid specifications (used for wave-functions):

 getcut: wavevector=  0.0000  0.0000  0.0000  ngfft=  16  16  16
         ecut(hartree)=      4.410   => boxcut(ratio)=   2.27312

 getcut : COMMENT -
  Note that boxcut > 2.2 ; recall that boxcut=Gcut(box)/Gcut(sphere) = 2
  is sufficient for exact treatment of convolution.
  Such a large boxcut is a waste : you could raise ecut
  e.g. ecut=    5.696695 Hartrees makes boxcut=2


 Fine grid specifications (used for densities):

 getcut: wavevector=  0.0000  0.0000  0.0000  ngfft=  20  20  20
         ecut(hartree)=      8.820   => boxcut(ratio)=   2.00917
--------------------------------------------------------------------------------

-inwffil : will read wavefunctions from disk file tsv7_70o_DS1_WFK
_setup2: Arith. and geom. avg. npw (full set) are     132.000     131.955
  initberry: for direction 1, nkstr =   2, nstr =     16
  initberry: for direction 2, nkstr =   2, nstr =     16
  initberry: for direction 3, nkstr =   2, nstr =     16

 initberry: COMMENT - 
  As a rough estimate,
  to be below the critical field, the bandgap of your system
  should be larger than    0.03 eV.


================================================================================

--- !BeginCycle
iteration_state: {dtset: 2, }
solver: {iscf: 17, nstep: 10, nline: 4, wfoptalg: 10, }
tolerances: {toldfe: 1.00E-22, }
...

     iter   Etot(hartree)      deltaE(h)  residm     nres2    diffor    maxfor
 ETOT  1  -8.5872195660829    -8.587E+00 4.940E-04 5.855E-02 3.632E-04 3.632E-04
 ETOT  2  -8.5846572652710     2.562E-03 1.364E-07 4.926E-03 5.710E-04 2.078E-04
 ETOT  3  -8.5844736352298     1.836E-04 1.187E-06 2.721E-04 1.236E-04 3.314E-04
 ETOT  4  -8.5844694036122     4.232E-06 1.461E-07 1.037E-05 2.282E-05 3.086E-04
 ETOT  5  -8.5844694433566    -3.974E-08 1.171E-07 7.390E-07 3.003E-05 2.785E-04
 ETOT  6  -8.5844693168185     1.265E-07 1.172E-07 4.092E-08 5.444E-07 2.791E-04
 ETOT  7  -8.5844693122506     4.568E-09 1.173E-07 2.015E-09 3.778E-06 2.829E-04
 ETOT  8  -8.5844693239092    -1.166E-08 1.172E-07 1.536E-10 5.600E-07 2.834E-04
 ETOT  9  -8.5844693248564    -9.473E-10 1.172E-07 1.163E-11 7.480E-07 2.827E-04
 ETOT 10  -8.5844693224246     2.432E-09 1.172E-07 2.029E-12 2.000E-07 2.829E-04

 Computing the polarization (Berry phase) for reciprocal vector:
  0.50000  0.00000  0.00000 (in reduced coordinates)
 -0.04748  0.04748  0.04748 (in cartesian coordinates - atomic units)
 Number of strings:    16
 Number of k points in string:    2

 Summary of the results
 Electronic Berry phase     1.627778672E-02
            Ionic phase    -7.500000000E-01
            Total phase    -7.337222133E-01
    Remapping in [-1,1]    -7.337222133E-01

           Polarization    -1.528179217E-02 (a.u. of charge)/bohr^2
           Polarization    -8.743440940E-01 C/m^2


 Computing the polarization (Berry phase) for reciprocal vector:
  0.00000  0.50000  0.00000 (in reduced coordinates)
  0.04748 -0.04748  0.04748 (in cartesian coordinates - atomic units)
 Number of strings:    16
 Number of k points in string:    2

 Summary of the results
 Electronic Berry phase     1.870334724E-02
            Ionic phase    -7.500000000E-01
            Total phase    -7.312966528E-01
    Remapping in [-1,1]    -7.312966528E-01

           Polarization    -1.523127317E-02 (a.u. of charge)/bohr^2
           Polarization    -8.714536615E-01 C/m^2


 Computing the polarization (Berry phase) for reciprocal vector:
  0.00000  0.00000  0.50000 (in reduced coordinates)
  0.04748  0.04748 -0.04748 (in cartesian coordinates - atomic units)
 Number of strings:    16
 Number of k points in string:    2

 Summary of the results
 Electronic Berry phase     1.870334724E-02
            Ionic phase    -7.500000000E-01
            Total phase    -7.312966528E-01
    Remapping in [-1,1]    -7.312966528E-01

           Polarization    -1.523127317E-02 (a.u. of charge)/bohr^2
           Polarization    -8.714536615E-01 C/m^2


 Polarization in cartesian coordinates (a.u.):
 (the sum of the electronic and ionic Berry phase has been folded into [-1, 1])
     Electronic berry phase:        0.674718450E-03   0.630967713E-03   0.630967713E-03
     ...includes PAW on-site term: -0.710088387E-06   0.000000000E+00   0.000000000E+00
     Ionic:                        -0.270560574E-01  -0.270560574E-01  -0.270560574E-01  
     Total:                        -0.263813390E-01  -0.264250897E-01  -0.264250897E-01

 Polarization in cartesian coordinates (C/m^2):
 (the sum of the electronic and ionic Berry phase has been folded into [-1, 1])
     Electronic berry phase:        0.386038552E-01   0.361006672E-01   0.361006672E-01
     ...includes PAW on-site term: -0.406275377E-04   0.000000000E+00   0.000000000E+00
     Ionic:                        -0.154800587E+01  -0.154800587E+01  -0.154800587E+01  
     Total:                        -0.150940202E+01  -0.151190521E+01  -0.151190521E+01

 Stress tensor under a constant electric field:

 Cartesian components of Maxwell stress tensor (hartree/bohr^3)
 Maxstr(1 1)=  3.16628699E-11 Maxstr(3 2)=  0.00000000E+00
 Maxstr(2 2)= -3.16628699E-11 Maxstr(3 1)=  0.00000000E+00
 Maxstr(3 3)= -3.16628699E-11 Maxstr(2 1)=  0.00000000E+00


 Cartesian components of stress tensor (hartree/bohr^3)
  sigma(1 1)= -1.62716848E-04  sigma(3 2)=  1.17238668E-06
  sigma(2 2)= -1.62718742E-04  sigma(3 1)=  0.00000000E+00
  sigma(3 3)= -1.62718742E-04  sigma(2 1)=  0.00000000E+00


 scprqt:  WARNING -
  nstep=   10 was not enough SCF cycles to converge;
  maximum energy difference=  2.432E-09 exceeds toldfe=  1.000E-22


--- !ResultsGS
iteration_state: {dtset: 2, }
comment   : Summary of ground state results
lattice_vectors:
- [  0.0000000,   5.2650000,   5.2650000, ]
- [  5.2650000,   0.0000000,   5.2650000, ]
- [  5.2650000,   5.2650000,   0.0000000, ]
lattice_lengths: [   7.44583,    7.44583,    7.44583, ]
lattice_angles: [ 60.000,  60.000,  60.000, ] # degrees, (23, 13, 12)
lattice_volume:   2.9189397E+02
convergence: {deltae:  2.432E-09, res2:  2.029E-12, residm:  1.172E-07, diffor:  2.000E-07, }
etotal    :  -8.58446932E+00
entropy   :   0.00000000E+00
fermie    :   8.20733365E-02
cartesian_stress_tensor: # hartree/bohr^3
- [ -1.62716848E-04,   0.00000000E+00,   0.00000000E+00, ]
- [  0.00000000E+00,  -1.62718742E-04,   1.17238668E-06, ]
- [  0.00000000E+00,   1.17238668E-06,  -1.62718742E-04, ]
pressure_GPa:   4.7873E+00
xred      :
- [  0.0000E+00,   0.0000E+00,   0.0000E+00, Al]
- [  2.5000E-01,   2.5000E-01,   2.5000E-01, As]
cartesian_forces: # hartree/bohr
- [  2.82878217E-04,   1.26557600E-20,  -1.26557600E-20, ]
- [ -2.82878217E-04,  -1.26557600E-20,   1.26557600E-20, ]
force_length_stats: {min:   2.82878217E-04, max:   2.82878217E-04, mean:   2.82878217E-04, }
...

 Integrated electronic density in atomic spheres:
 ------------------------------------------------
 Atom  Sphere_radius  Integrated_density
    1        2.01467          0.98223496
    2        2.20863          3.19833665

 PAW TEST:
 ==== Compensation charge inside spheres ============
 The following values must be close to each other ...
 Compensation charge over spherical meshes =     -0.941502931804637
 Compensation charge over fine fft grid    =     -0.941484473165823

 ==== Results concerning PAW augmentation regions ====

 Total pseudopotential strength Dij (hartree):
 Atom #  1
   0.35140   0.00184   0.00000   0.00000   0.00000   0.00000   0.00000  -0.00000
   0.00184  12.94123   0.00000   0.00000  -0.00000   0.00000   0.00000  -0.00002
   0.00000   0.00000   0.07809   0.00000   0.00000  -0.01112   0.00000   0.00000
   0.00000   0.00000   0.00000   0.07809   0.00000   0.00000  -0.01112   0.00000
   0.00000  -0.00000   0.00000   0.00000   0.07809   0.00000   0.00000  -0.01112
   0.00000   0.00000  -0.01112   0.00000   0.00000   0.10126   0.00000   0.00000
   0.00000   0.00000   0.00000  -0.01112   0.00000   0.00000   0.10126   0.00000
  -0.00000  -0.00002   0.00000   0.00000  -0.01112   0.00000   0.00000   0.10126
 Atom #  2
   0.26000  -0.05539   0.00000   0.00000   0.00001   0.00000   0.00000   0.00002
  -0.05539   1.29654   0.00000   0.00000  -0.00000   0.00000   0.00000   0.00000
   0.00000   0.00000  -0.03869  -0.00000   0.00000  -0.00675  -0.00000   0.00000
   0.00000   0.00000  -0.00000  -0.03869   0.00000  -0.00000  -0.00675   0.00000
   0.00001  -0.00000   0.00000   0.00000  -0.03869   0.00000   0.00000  -0.00675
   0.00000   0.00000  -0.00675  -0.00000   0.00000  -0.15538   0.00000   0.00000
   0.00000   0.00000  -0.00000  -0.00675   0.00000   0.00000  -0.15538   0.00000
   0.00002   0.00000   0.00000   0.00000  -0.00675   0.00000   0.00000  -0.15538


 Augmentation waves occupancies Rhoij:
 Atom #  1
   1.24912   0.00274   0.00000   0.00000   0.00082   0.00000   0.00000  -0.00001
   0.00274   0.00002   0.00000   0.00000  -0.00001   0.00000   0.00000   0.00000
   0.00000   0.00000   0.89481   0.00133   0.00000  -0.01067  -0.00000   0.00000
   0.00000   0.00000   0.00133   0.89481   0.00000  -0.00000  -0.01067   0.00000
   0.00082  -0.00001   0.00000   0.00000   0.89481   0.00000   0.00000  -0.01067
   0.00000   0.00000  -0.01067  -0.00000   0.00000   0.00017  -0.00000   0.00000
   0.00000   0.00000  -0.00000  -0.01067   0.00000  -0.00000   0.00017   0.00000
  -0.00001   0.00000   0.00000   0.00000  -0.01067   0.00000   0.00000   0.00017
 Atom #  2
   1.76120   0.02612   0.00000   0.00000   0.00081   0.00000   0.00000   0.00002
   0.02612   0.00072   0.00000   0.00000  -0.00004   0.00000   0.00000  -0.00000
   0.00000   0.00000   0.94716  -0.00051   0.00000   0.04995  -0.00001   0.00000
   0.00000   0.00000  -0.00051   0.94716   0.00000  -0.00001   0.04995   0.00000
   0.00081  -0.00004   0.00000   0.00000   0.94716   0.00000   0.00000   0.04995
   0.00000   0.00000   0.04995  -0.00001   0.00000   0.00277  -0.00000   0.00000
   0.00000   0.00000  -0.00001   0.04995   0.00000  -0.00000   0.00277   0.00000
   0.00002  -0.00000   0.00000   0.00000   0.04995   0.00000   0.00000   0.00277


================================================================================

 ----iterations are completed or convergence reached----

 Mean square residual over all n,k,spin=   32.209E-09; max=  11.721E-08
 reduced coordinates (array xred) for    2 atoms
       0.000000000000      0.000000000000      0.000000000000
       0.250000000000      0.250000000000      0.250000000000
 rms dE/dt=  1.2592E-03; max dE/dt=  1.8894E-03; dE/dt below (all hartree)
    1       0.000000000000     -0.001089275337     -0.001089275337
    2       0.000000000000      0.001889432289      0.001889432289

 cartesian coordinates (angstrom) at end:
    1      0.00000000000000     0.00000000000000     0.00000000000000
    2      1.39305900161317     1.39305900161317     1.39305900161317

 cartesian forces (hartree/bohr) at end:
    1      0.00028287821709     0.00000000000000    -0.00000000000000
    2     -0.00028287821709    -0.00000000000000     0.00000000000000
 frms,max,avg= 1.6331981E-04 2.8287822E-04  -7.599E-05  0.000E+00  0.000E+00 h/b

 cartesian forces (eV/Angstrom) at end:
    1      0.01454618155515     0.00000000000000    -0.00000000000000
    2     -0.01454618155515    -0.00000000000000     0.00000000000000
 frms,max,avg= 8.3982418E-03 1.4546182E-02  -3.907E-03  0.000E+00  0.000E+00 e/A
 length scales= 10.530000000000 10.530000000000 10.530000000000 bohr
              =  5.572236006453  5.572236006453  5.572236006453 angstroms
 prteigrs : about to open file tsv7_70o_DS2_EIG
 Fermi (or HOMO) energy (hartree) =   0.08207   Average Vxc (hartree)=  -0.33066
 Eigenvalues (hartree) for nkpt=   6  k points:
 kpt#   1, nband=  4, wtk=  0.25000, kpt= -0.2500  0.5000  0.0000 (reduced coord)
  -0.27294   -0.09228   -0.00668    0.03741
 prteigrs : prtvol=0 or 1, do not print more k-points.


--- !EnergyTerms
iteration_state     : {dtset: 2, }
comment             : Components of total free energy in Hartree
kinetic             :  3.47975699437289E+00
hartree             :  7.72875748132608E-01
xc                  : -2.69143785822285E+00
Ewald energy        : -8.54432049481056E+00
psp_core            :  7.25428932010496E-01
local_psp           : -2.38448029890675E+00
spherical_terms     :  5.69377986841875E-02
electric            :  7.69939234435883E-04
kohn_sham           : -8.58523917873997E+00
total_energy        : -8.58446923950554E+00
total_energy_eV     : -2.33595287710547E+02
...


--- !EnergyTermsDC
iteration_state     : {dtset: 2, }
comment             : '"Double-counting" decomposition of free energy'
band_energy         : -5.92105338939555E-01
Ewald energy        : -8.54432049481056E+00
psp_core            :  7.25428932010496E-01
xc_dc               : -2.54955380439973E-01
electric_field      :  7.69939234435883E-04
spherical_terms     :  8.07130198353880E-02
total_energy_dc     : -8.58446932310976E+00
total_energy_dc_eV  : -2.33595289985534E+02
...


Constant unreduced E calculation  - final values:
 (a. u.)
       E:   1.000000000E-04   0.000000000E+00   0.000000000E+00  
       P:  -2.638133900E-02  -2.642508973E-02  -2.642508973E-02

    ebar:   0.000000000E+00   5.265000000E-04   5.265000000E-04  
    pbar:  -3.496670471E+00  -3.493775837E+00  -3.493775837E+00

       e:  -2.205905416E-04   2.205905416E-04   2.205905416E-04  
       p:  -7.337222133E-01  -7.312966528E-01  -7.312966528E-01

 (S.I.), that is V/m for E, and C/m^2 for P
-      E:   5.142206319E+07   0.000000000E+00   0.000000000E+00  
       P:  -1.509402018E+00  -1.511905206E+00  -1.511905206E+00  


 Please check: COMMENT - 
  As a rough estimate,
  to be below the critical field, the bandgap of your system
  should be larger than    0.03 eV.

--------------------------------------------------------------------------------

 Cartesian components of stress tensor (hartree/bohr^3)
  sigma(1 1)= -1.62716848E-04  sigma(3 2)=  1.17238668E-06
  sigma(2 2)= -1.62718742E-04  sigma(3 1)=  0.00000000E+00
  sigma(3 3)= -1.62718742E-04  sigma(2 1)=  0.00000000E+00

-Cartesian components of stress tensor (GPa)         [Pressure=  4.7873E+00 GPa]
- sigma(1 1)= -4.78729415E+00  sigma(3 2)=  3.44928013E-02
- sigma(2 2)= -4.78734986E+00  sigma(3 1)=  0.00000000E+00
- sigma(3 3)= -4.78734986E+00  sigma(2 1)=  0.00000000E+00

== END DATASET(S) ==============================================================
================================================================================
  
 -outvars: echo values of variables after computation  --------
            acell      1.0530000000E+01  1.0530000000E+01  1.0530000000E+01 Bohr
              amu      2.69815390E+01  7.49215900E+01
         berryopt1         -1
         berryopt2          4
          dilatmx      1.05000000E+00
             ecut      4.00000000E+00 Hartree
           ecutsm      5.00000000E-01 Hartree
           efield1     0.00000000E+00  0.00000000E+00  0.00000000E+00
           efield2     1.00000000E-04  0.00000000E+00  0.00000000E+00
           etotal1    -8.5852399596E+00
           etotal2    -8.5844693231E+00
            fcart1     4.3950465122E-30 -1.9977484146E-30  1.1986490488E-30
                      -4.3950465122E-30  1.9977484146E-30 -1.1986490488E-30
            fcart2     2.8287821709E-04  1.2655760006E-20 -1.2655760006E-20
                      -2.8287821709E-04 -1.2655760006E-20  1.2655760006E-20
-          fftalg         312
           getwfk1          0
           getwfk2          1
              ixc           7
           jdtset        1    2
              kpt1    -2.50000000E-01  5.00000000E-01  0.00000000E+00
                      -2.50000000E-01  0.00000000E+00  0.00000000E+00
              kpt2    -2.50000000E-01  5.00000000E-01  0.00000000E+00
                       5.00000000E-01 -2.50000000E-01  0.00000000E+00
                      -2.50000000E-01  0.00000000E+00  0.00000000E+00
                      -2.50000000E-01  2.50000000E-01  2.50000000E-01
                       0.00000000E+00 -2.50000000E-01  0.00000000E+00
                       0.00000000E+00  5.00000000E-01  2.50000000E-01
         kptrlatt        2   -2    2     -2    2    2     -2   -2    2
          kptrlen      2.10600000E+01
P           mkmem1          2
P           mkmem2          6
            natom           2
            nband1          4
            nband2          4
           ndtset           2
            ngfft          16      16      16
          ngfftdg          20      20      20
             nkpt1          2
             nkpt2          6
            nstep          10
             nsym1         24
             nsym2          4
           ntypat           2
              occ1     2.000000  2.000000  2.000000  2.000000
              occ2     2.000000  2.000000  2.000000  2.000000
        optforces           1
        pawecutdg      8.00000000E+00 Hartree
            rfdir           1       1       1
            rprim      0.0000000000E+00  5.0000000000E-01  5.0000000000E-01
                       5.0000000000E-01  0.0000000000E+00  5.0000000000E-01
                       5.0000000000E-01  5.0000000000E-01  0.0000000000E+00
           shiftk      5.00000000E-01  5.00000000E-01  5.00000000E-01
          spgroup1        216
          spgroup2         44
           strten1    -1.6256322108E-04 -1.6256322108E-04 -1.6256322108E-04
                       0.0000000000E+00  0.0000000000E+00  0.0000000000E+00
           strten2    -1.6271684823E-04 -1.6271874165E-04 -1.6271874165E-04
                       1.1723866837E-06  0.0000000000E+00  0.0000000000E+00
           symafm1       1    1    1    1    1    1    1    1    1    1
                         1    1    1    1    1    1    1    1    1    1
                         1    1    1    1
           symafm2       1    1    1    1
        symmorphi           0
           symrel1     1  0  0   0  1  0   0  0  1       0 -1  1   0 -1  0   1 -1  0
                      -1  0  0  -1  0  1  -1  1  0       0  1 -1   1  0 -1   0  0 -1
                      -1  0  0  -1  1  0  -1  0  1       0 -1  1   1 -1  0   0 -1  0
                       1  0  0   0  0  1   0  1  0       0  1 -1   0  0 -1   1  0 -1
                      -1  0  1  -1  1  0  -1  0  0       0 -1  0   1 -1  0   0 -1  1
                       1  0 -1   0  0 -1   0  1 -1       0  1  0   0  0  1   1  0  0
                       1  0 -1   0  1 -1   0  0 -1       0 -1  0   0 -1  1   1 -1  0
                      -1  0  1  -1  0  0  -1  1  0       0  1  0   1  0  0   0  0  1
                       0  0 -1   0  1 -1   1  0 -1       1 -1  0   0 -1  1   0 -1  0
                       0  0  1   1  0  0   0  1  0      -1  1  0  -1  0  0  -1  0  1
                       0  0  1   0  1  0   1  0  0       1 -1  0   0 -1  0   0 -1  1
                       0  0 -1   1  0 -1   0  1 -1      -1  1  0  -1  0  1  -1  0  0
           symrel2     1  0  0   0  1  0   0  0  1      -1  0  0  -1  0  1  -1  1  0
                      -1  0  0  -1  1  0  -1  0  1       1  0  0   0  0  1   0  1  0
            tnons1     0.0000000  0.0000000  0.0000000     0.0000000  0.0000000  0.0000000
                       0.0000000  0.0000000  0.0000000     0.0000000  0.0000000  0.0000000
                       0.0000000  0.0000000  0.0000000     0.0000000  0.0000000  0.0000000
                       0.0000000  0.0000000  0.0000000     0.0000000  0.0000000  0.0000000
                       0.0000000  0.0000000  0.0000000     0.0000000  0.0000000  0.0000000
                       0.0000000  0.0000000  0.0000000     0.0000000  0.0000000  0.0000000
                       0.0000000  0.0000000  0.0000000     0.0000000  0.0000000  0.0000000
                       0.0000000  0.0000000  0.0000000     0.0000000  0.0000000  0.0000000
                       0.0000000  0.0000000  0.0000000     0.0000000  0.0000000  0.0000000
                       0.0000000  0.0000000  0.0000000     0.0000000  0.0000000  0.0000000
                       0.0000000  0.0000000  0.0000000     0.0000000  0.0000000  0.0000000
                       0.0000000  0.0000000  0.0000000     0.0000000  0.0000000  0.0000000
            tnons2     0.0000000  0.0000000  0.0000000     0.0000000  0.0000000  0.0000000
                       0.0000000  0.0000000  0.0000000     0.0000000  0.0000000  0.0000000
           toldfe      1.00000000E-22 Hartree
            typat      1  2
           useylm           1
              wtk1       0.75000    0.25000
              wtk2       0.25000    0.25000    0.12500    0.12500    0.12500    0.12500
           xangst      0.0000000000E+00  0.0000000000E+00  0.0000000000E+00
                       1.3930590016E+00  1.3930590016E+00  1.3930590016E+00
            xcart      0.0000000000E+00  0.0000000000E+00  0.0000000000E+00
                       2.6325000000E+00  2.6325000000E+00  2.6325000000E+00
             xred      0.0000000000E+00  0.0000000000E+00  0.0000000000E+00
                       2.5000000000E-01  2.5000000000E-01  2.5000000000E-01
            znucl       13.00000   33.00000

================================================================================

- Total cpu        time (s,m,h):          3.3        0.05      0.001
- Total wall clock time (s,m,h):          3.4        0.06      0.001
-
- For major independent code sections, cpu and wall times (sec),
-  as well as % of the time and number of calls for node 0-
-<BEGIN_TIMER mpi_nprocs = 1, omp_nthreads = 1, mpi_rank = 0>
- cpu_time =            3.3, wall_time =            3.4
-
- routine                        cpu     %       wall     %      number of calls  Gflops    Speedup Efficacity
-                                                                  (-1=no count)
- pspini                         0.872  26.6      0.873  26.0              2      -1.00        1.00       1.00
- fourwf%(pot)                   0.172   5.2      0.170   5.1           1804      -1.00        1.01       1.01
- ewald                          0.167   5.1      0.167   5.0              2      -1.00        1.00       1.00
- timing timab                   0.120   3.7      0.121   3.6              9      -1.00        0.99       0.99
- stress                         0.094   2.9      0.093   2.8              2      -1.00        1.01       1.01
- ewald2 (+vdw_dftd)             0.092   2.8      0.092   2.7              2      -1.00        1.00       1.00
- invars2                        0.065   2.0      0.066   2.0              2      -1.00        0.99       0.99
- nonlop(apply)                  0.047   1.4      0.046   1.4           1804      -1.00        1.01       1.01
- pawinit                        0.035   1.1      0.032   1.0              4      -1.00        1.09       1.09
- forces                         0.033   1.0      0.035   1.0             20      -1.00        0.93       0.93
- fourdp                         0.024   0.7      0.027   0.8            247      -1.00        0.88       0.88
- xc:pot/=fourdp                 0.022   0.7      0.026   0.8             40      -1.00        0.85       0.85
- pawdenpot                      0.021   0.6      0.023   0.7             32      -1.00        0.93       0.93
- getghc-other                   0.021   0.6      0.017   0.5             -1      -1.00        1.23       1.23
- pawmkrho                       0.018   0.6      0.018   0.5             20      -1.00        1.01       1.01
- others (119)                   0.124   3.8      0.119   3.5             -1      -1.00        1.04       1.04
-<END_TIMER>
-
- subtotal                       1.926  58.8      1.925  57.4                                  1.00       1.00

- For major independent code sections, cpu and wall times (sec),
- as well as % of the total time and number of calls 

-<BEGIN_TIMER mpi_nprocs = 1, omp_nthreads = 1, mpi_rank = world>
- cpu_time =           3.3, wall_time =           3.4
-
- routine                         cpu     %       wall     %      number of calls Gflops    Speedup Efficacity
-                                                                  (-1=no count)
- pspini                         0.872  26.6      0.873  26.0              2      -1.00        1.00       1.00
- fourwf%(pot)                   0.172   5.2      0.170   5.1           1804      -1.00        1.01       1.01
- ewald                          0.167   5.1      0.167   5.0              2      -1.00        1.00       1.00
- timing timab                   0.120   3.7      0.121   3.6              9      -1.00        0.99       0.99
- stress                         0.094   2.9      0.093   2.8              2      -1.00        1.01       1.01
- ewald2 (+vdw_dftd)             0.092   2.8      0.092   2.7              2      -1.00        1.00       1.00
- invars2                        0.065   2.0      0.066   2.0              2      -1.00        0.99       0.99
- nonlop(apply)                  0.047   1.4      0.046   1.4           1804      -1.00        1.01       1.01
- pawinit                        0.035   1.1      0.032   1.0              4      -1.00        1.09       1.09
- forces                         0.033   1.0      0.035   1.0             20      -1.00        0.93       0.93
- fourdp                         0.024   0.7      0.027   0.8            247      -1.00        0.88       0.88
- xc:pot/=fourdp                 0.022   0.7      0.026   0.8             40      -1.00        0.85       0.85
- pawdenpot                      0.021   0.6      0.023   0.7             32      -1.00        0.93       0.93
- getghc-other                   0.021   0.6      0.017   0.5             -1      -1.00        1.23       1.23
- pawmkrho                       0.018   0.6      0.018   0.5             20      -1.00        1.01       1.01
- others (119)                   0.124   3.8      0.119   3.5             -1      -1.00        1.04       1.04
-<END_TIMER>

- subtotal                       1.926  58.8      1.925  57.4                                  1.00       1.00

================================================================================

 Suggested references for the acknowledgment of ABINIT usage.

 The users of ABINIT have little formal obligations with respect to the ABINIT group
 (those specified in the GNU General Public License, http://www.gnu.org/copyleft/gpl.txt).
 However, it is common practice in the scientific literature,
 to acknowledge the efforts of people that have made the research possible.
 In this spirit, please find below suggested citations of work written by ABINIT developers,
 corresponding to implementations inside of ABINIT that you have used in the present run.
 Note also that it will be of great value to readers of publications presenting these results,
 to read papers enabling them to understand the theoretical formalism and details
 of the ABINIT implementation.
 For information on why they are suggested, see also https://docs.abinit.org/theory/acknowledgments.
-
- [1] Implementation of the Projector Augmented-Wave Method in the ABINIT code.
- M. Torrent, F. Jollet, F. Bottin, G. Zerah, and X. Gonze Comput. Mat. Science 42, 337, (2008).
- Comment: PAW calculations. Strong suggestion to cite this paper.
- DOI and bibtex: see https://docs.abinit.org/theory/bibliography/#torrent2008
-
- [2] The Abinit project: Impact, environment and recent developments.
- Computer Phys. Comm. 248, 107042 (2020).
- X.Gonze, B. Amadon, G. Antonius, F.Arnardi, L.Baguet, J.-M.Beuken,
- J.Bieder, F.Bottin, J.Bouchet, E.Bousquet, N.Brouwer, F.Bruneval,
- G.Brunin, T.Cavignac, J.-B. Charraud, Wei Chen, M.Cote, S.Cottenier,
- J.Denier, G.Geneste, Ph.Ghosez, M.Giantomassi, Y.Gillet, O.Gingras,
- D.R.Hamann, G.Hautier, Xu He, N.Helbig, N.Holzwarth, Y.Jia, F.Jollet,
- W.Lafargue-Dit-Hauret, K.Lejaeghere, M.A.L.Marques, A.Martin, C.Martins,
- H.P.C. Miranda, F.Naccarato, K. Persson, G.Petretto, V.Planes, Y.Pouillon,
- S.Prokhorenko, F.Ricci, G.-M.Rignanese, A.H.Romero, M.M.Schmitt, M.Torrent,
- M.J.van Setten, B.Van Troeye, M.J.Verstraete, G.Zerah and J.W.Zwanzig
- Comment: the fifth generic paper describing the ABINIT project.
- Note that a version of this paper, that is not formatted for Computer Phys. Comm. 
- is available at https://www.abinit.org/sites/default/files/ABINIT20.pdf .
- The licence allows the authors to put it on the Web.
- DOI and bibtex: see https://docs.abinit.org/theory/bibliography/#gonze2020
-
- [3] Recent developments in the ABINIT software package.
- Computer Phys. Comm. 205, 106 (2016).
- X.Gonze, F.Jollet, F.Abreu Araujo, D.Adams, B.Amadon, T.Applencourt,
- C.Audouze, J.-M.Beuken, J.Bieder, A.Bokhanchuk, E.Bousquet, F.Bruneval
- D.Caliste, M.Cote, F.Dahm, F.Da Pieve, M.Delaveau, M.Di Gennaro,
- B.Dorado, C.Espejo, G.Geneste, L.Genovese, A.Gerossier, M.Giantomassi,
- Y.Gillet, D.R.Hamann, L.He, G.Jomard, J.Laflamme Janssen, S.Le Roux,
- A.Levitt, A.Lherbier, F.Liu, I.Lukacevic, A.Martin, C.Martins,
- M.J.T.Oliveira, S.Ponce, Y.Pouillon, T.Rangel, G.-M.Rignanese,
- A.H.Romero, B.Rousseau, O.Rubel, A.A.Shukri, M.Stankovski, M.Torrent,
- M.J.Van Setten, B.Van Troeye, M.J.Verstraete, D.Waroquier, J.Wiktor,
- B.Xu, A.Zhou, J.W.Zwanziger.
- Comment: the fourth generic paper describing the ABINIT project.
- Note that a version of this paper, that is not formatted for Computer Phys. Comm. 
- is available at https://www.abinit.org/sites/default/files/ABINIT16.pdf .
- The licence allows the authors to put it on the Web.
- DOI and bibtex: see https://docs.abinit.org/theory/bibliography/#gonze2016
-
- [4] ABINIT: First-principles approach of materials and nanosystem properties.
- Computer Phys. Comm. 180, 2582-2615 (2009).
- X. Gonze, B. Amadon, P.-M. Anglade, J.-M. Beuken, F. Bottin, P. Boulanger, F. Bruneval,
- D. Caliste, R. Caracas, M. Cote, T. Deutsch, L. Genovese, Ph. Ghosez, M. Giantomassi
- S. Goedecker, D.R. Hamann, P. Hermet, F. Jollet, G. Jomard, S. Leroux, M. Mancini, S. Mazevet,
- M.J.T. Oliveira, G. Onida, Y. Pouillon, T. Rangel, G.-M. Rignanese, D. Sangalli, R. Shaltaf,
- M. Torrent, M.J. Verstraete, G. Zerah, J.W. Zwanziger
- Comment: the third generic paper describing the ABINIT project.
- Note that a version of this paper, that is not formatted for Computer Phys. Comm. 
- is available at https://www.abinit.org/sites/default/files/ABINIT_CPC_v10.pdf .
- The licence allows the authors to put it on the Web.
- DOI and bibtex: see https://docs.abinit.org/theory/bibliography/#gonze2009
-
- And optionally:
-
- [5] A brief introduction to the ABINIT software package.
- Z. Kristallogr. 220, 558-562 (2005).
- X. Gonze, G.-M. Rignanese, M. Verstraete, J.-M. Beuken, Y. Pouillon, R. Caracas, F. Jollet,
- M. Torrent, G. Zerah, M. Mikami, Ph. Ghosez, M. Veithen, J.-Y. Raty, V. Olevano, F. Bruneval,
- L. Reining, R. Godby, G. Onida, D.R. Hamann, and D.C. Allan.
- Comment: the second generic paper describing the ABINIT project. Note that this paper
- should be cited especially if you are using the GW part of ABINIT, as several authors
- of this part are not in the list of authors of the first or third paper.
- The .pdf of the latter paper is available at https://www.abinit.org/sites/default/files/zfk_0505-06_558-562.pdf.
- Note that it should not redistributed (Copyright by Oldenburg Wissenschaftverlag,
- the licence allows the authors to put it on the Web).
- DOI and bibtex: see https://docs.abinit.org/theory/bibliography/#gonze2005
-
- Proc.   0 individual time (sec): cpu=          3.3  wall=          3.4

================================================================================

 Calculation completed.
.Delivered   8 WARNINGs and   9 COMMENTs to log file.
+Overall time at end (sec) : cpu=          3.3  wall=          3.4
