# YAML support is available, but is disabled for this test.
# Start legacy fldiff comparison report
2
< .Version 9.7.4 of ABINIT 
> .Version 9.9.0 of ABINIT 
3
< .(MPI version, prepared for a x86_64_linux_gnu9.3 computer) 
> .(MPI version, prepared for a x86_64_linux_gnu11.3 computer) 
17
< .Starting date : Wed  4 May 2022.
> .Starting date : Thu 17 Nov 2022.
1419
<    1    2   1    1         0.0000000049        -0.0000000193
>    1    2   1    1         0.0000000052        -0.0000000054
1426
<    2    2   1    1         0.0000000051        -0.0000000192
>    2    2   1    1         0.0000000054        -0.0000000051
1433
<    3    2   1    1         0.0000000051        -0.0000000192
>    3    2   1    1         0.0000000054        -0.0000000051
2480
< .Delivered  14 WARNINGs and  19 COMMENTs to log file.
> .Delivered  20 WARNINGs and  19 COMMENTs to log file.
2481
< +Overall time at end (sec) : cpu=          3.6  wall=          3.9
> +Overall time at end (sec) : cpu=          1.4  wall=          1.6
Summary t38.abo: different lines=3, max abs_diff=1.410e-08 (l.1426), max rel_diff=5.802e-01 (l.1426).
