
.Version 8.11.12 of ABINIT 
.(MPI version, prepared for a x86_64_linux_gnu9.2 computer) 

.Copyright (C) 1998-2020 ABINIT group . 
 ABINIT comes with ABSOLUTELY NO WARRANTY.
 It is free software, and you are welcome to redistribute it
 under certain conditions (GNU General Public License,
 see ~abinit/COPYING or http://www.gnu.org/copyleft/gpl.txt).

 ABINIT is a project of the Universite Catholique de Louvain,
 Corning Inc. and other collaborators, see ~abinit/doc/developers/contributors.txt .
 Please read https://docs.abinit.org/theory/acknowledgments for suggested
 acknowledgments of the ABINIT effort.
 For more information, see https://www.abinit.org .

.Starting date : Mon 25 Nov 2019.
- ( at 08h20 )
  
- input  file    -> telast_4.in
- output file    -> telast_4.out
- root for input  files -> telast_4i
- root for output files -> telast_4o


 DATASET    1 : space group P6_3 m c (#186); Bravais hP (primitive hexag.)
================================================================================
 Values of the parameters that define the memory need for DATASET  1.
     intxc =       0    ionmov =       0      iscf =       7    lmnmax =       2
     lnmax =       2     mgfft =      30  mpssoang =       3    mqgrid =    3001
     natom =       4  nloc_mem =       1    nspden =       1   nspinor =       1
    nsppol =       1      nsym =      12    n1xccc =    2501    ntypat =       2
    occopt =       1   xclevel =       1
-    mband =           8        mffmem =           1         mkmem =           8
       mpw =         428          nfft =        9720          nkpt =           8
================================================================================
P This job should need less than                       4.080 Mbytes of memory.
  Rough estimation (10% accuracy) of disk space for files :
_ WF disk file :      0.420 Mbytes ; DEN or POT disk file :      0.076 Mbytes.
================================================================================


 DATASET    2 : space group P6_3 m c (#186); Bravais hP (primitive hexag.)
================================================================================
 Values of the parameters that define the memory need for DATASET  2.
     intxc =       0    ionmov =       0      iscf =       7    lmnmax =       2
     lnmax =       2     mgfft =      30  mpssoang =       3    mqgrid =    3001
     natom =       4  nloc_mem =       1    nspden =       1   nspinor =       1
    nsppol =       1      nsym =      12    n1xccc =    2501    ntypat =       2
    occopt =       1   xclevel =       1
-    mband =           8        mffmem =           1         mkmem =          64
       mpw =         428          nfft =        9720          nkpt =          64
================================================================================
P This job should need less than                       7.369 Mbytes of memory.
  Rough estimation (10% accuracy) of disk space for files :
_ WF disk file :      3.346 Mbytes ; DEN or POT disk file :      0.076 Mbytes.
================================================================================


 DATASET    3 : space group P6_3 m c (#186); Bravais hP (primitive hexag.)
================================================================================
 Values of the parameters that define the memory need for DATASET  3.
     intxc =       0    ionmov =       0      iscf =       7    lmnmax =       2
     lnmax =       2     mgfft =      30  mpssoang =       3    mqgrid =    3001
     natom =       4  nloc_mem =       1    nspden =       1   nspinor =       1
    nsppol =       1      nsym =      12    n1xccc =    2501    ntypat =       2
    occopt =       1   xclevel =       1
-    mband =           8        mffmem =           1         mkmem =           8
       mpw =         428          nfft =        9720          nkpt =           8
================================================================================
P This job should need less than                       4.080 Mbytes of memory.
  Rough estimation (10% accuracy) of disk space for files :
_ WF disk file :      0.420 Mbytes ; DEN or POT disk file :      0.076 Mbytes.
================================================================================


 DATASET    4 : space group P6_3 m c (#186); Bravais hP (primitive hexag.)
================================================================================
 Values of the parameters that define the memory need for DATASET  4.
     intxc =       0    ionmov =       0      iscf =       7    lmnmax =       2
     lnmax =       2     mgfft =      30  mpssoang =       3    mqgrid =    3001
     natom =       4  nloc_mem =       1    nspden =       1   nspinor =       1
    nsppol =       1      nsym =      12    n1xccc =    2501    ntypat =       2
    occopt =       1   xclevel =       1
-    mband =           8        mffmem =           1         mkmem =          64
       mpw =         428          nfft =        9720          nkpt =          64
================================================================================
P This job should need less than                       7.369 Mbytes of memory.
  Rough estimation (10% accuracy) of disk space for files :
_ WF disk file :      3.346 Mbytes ; DEN or POT disk file :      0.076 Mbytes.
================================================================================

--------------------------------------------------------------------------------
------------- Echo of variables that govern the present computation ------------
--------------------------------------------------------------------------------
-
- outvars: echo of selected default values                                      
-   iomode0 =  0 , fftalg0 =312 , wfoptalg0 =  0
-
- outvars: echo of global parameters not present in the input file              
-  max_nthreads =    0
-
 -outvars: echo values of preprocessed input variables --------
            acell      7.5389648144E+00  7.5389648144E+00  1.2277795374E+01 Bohr
              amu      2.69815390E+01  7.49215900E+01
         berryopt1          0
         berryopt2         -1
         berryopt3          0
         berryopt4         -1
           diemac      9.00000000E+00
             ecut      6.00000000E+00 Hartree
           ecutsm      5.00000000E-01 Hartree
-          fftalg         312
           getwfk1          0
           getwfk2         -1
           getwfk3         -1
           getwfk4         -1
           jdtset        1    2    3    4
              kpt1     0.00000000E+00  0.00000000E+00  1.25000000E-01
                       2.50000000E-01  0.00000000E+00  1.25000000E-01
                       5.00000000E-01  0.00000000E+00  1.25000000E-01
                       2.50000000E-01  2.50000000E-01  1.25000000E-01
                       0.00000000E+00  0.00000000E+00  3.75000000E-01
                       2.50000000E-01  0.00000000E+00  3.75000000E-01
                       5.00000000E-01  0.00000000E+00  3.75000000E-01
                       2.50000000E-01  2.50000000E-01  3.75000000E-01
              kpt2     0.00000000E+00  0.00000000E+00  1.25000000E-01
                       2.50000000E-01  0.00000000E+00  1.25000000E-01
                       5.00000000E-01  0.00000000E+00  1.25000000E-01
                      -2.50000000E-01  0.00000000E+00  1.25000000E-01
                       0.00000000E+00  2.50000000E-01  1.25000000E-01
                       2.50000000E-01  2.50000000E-01  1.25000000E-01
                       5.00000000E-01  2.50000000E-01  1.25000000E-01
                      -2.50000000E-01  2.50000000E-01  1.25000000E-01
                       0.00000000E+00  5.00000000E-01  1.25000000E-01
                       2.50000000E-01  5.00000000E-01  1.25000000E-01
                       5.00000000E-01  5.00000000E-01  1.25000000E-01
                      -2.50000000E-01  5.00000000E-01  1.25000000E-01
                       0.00000000E+00 -2.50000000E-01  1.25000000E-01
                       2.50000000E-01 -2.50000000E-01  1.25000000E-01
                       5.00000000E-01 -2.50000000E-01  1.25000000E-01
                      -2.50000000E-01 -2.50000000E-01  1.25000000E-01
                       0.00000000E+00  0.00000000E+00  3.75000000E-01
                       2.50000000E-01  0.00000000E+00  3.75000000E-01
                       5.00000000E-01  0.00000000E+00  3.75000000E-01
                      -2.50000000E-01  0.00000000E+00  3.75000000E-01
                       0.00000000E+00  2.50000000E-01  3.75000000E-01
                       2.50000000E-01  2.50000000E-01  3.75000000E-01
                       5.00000000E-01  2.50000000E-01  3.75000000E-01
                      -2.50000000E-01  2.50000000E-01  3.75000000E-01
                       0.00000000E+00  5.00000000E-01  3.75000000E-01
                       2.50000000E-01  5.00000000E-01  3.75000000E-01
                       5.00000000E-01  5.00000000E-01  3.75000000E-01
                      -2.50000000E-01  5.00000000E-01  3.75000000E-01
                       0.00000000E+00 -2.50000000E-01  3.75000000E-01
                       2.50000000E-01 -2.50000000E-01  3.75000000E-01
                       5.00000000E-01 -2.50000000E-01  3.75000000E-01
                      -2.50000000E-01 -2.50000000E-01  3.75000000E-01
                       0.00000000E+00  0.00000000E+00 -3.75000000E-01
                       2.50000000E-01  0.00000000E+00 -3.75000000E-01
                       5.00000000E-01  0.00000000E+00 -3.75000000E-01
                      -2.50000000E-01  0.00000000E+00 -3.75000000E-01
                       0.00000000E+00  2.50000000E-01 -3.75000000E-01
                       2.50000000E-01  2.50000000E-01 -3.75000000E-01
                       5.00000000E-01  2.50000000E-01 -3.75000000E-01
                      -2.50000000E-01  2.50000000E-01 -3.75000000E-01
                       0.00000000E+00  5.00000000E-01 -3.75000000E-01
                       2.50000000E-01  5.00000000E-01 -3.75000000E-01
                       5.00000000E-01  5.00000000E-01 -3.75000000E-01
                      -2.50000000E-01  5.00000000E-01 -3.75000000E-01
                       0.00000000E+00 -2.50000000E-01 -3.75000000E-01
                       2.50000000E-01 -2.50000000E-01 -3.75000000E-01
                       5.00000000E-01 -2.50000000E-01 -3.75000000E-01
                      -2.50000000E-01 -2.50000000E-01 -3.75000000E-01
                       0.00000000E+00  0.00000000E+00 -1.25000000E-01
                       2.50000000E-01  0.00000000E+00 -1.25000000E-01
              kpt3     0.00000000E+00  0.00000000E+00  1.25000000E-01
                       2.50000000E-01  0.00000000E+00  1.25000000E-01
                       5.00000000E-01  0.00000000E+00  1.25000000E-01
                       2.50000000E-01  2.50000000E-01  1.25000000E-01
                       0.00000000E+00  0.00000000E+00  3.75000000E-01
                       2.50000000E-01  0.00000000E+00  3.75000000E-01
                       5.00000000E-01  0.00000000E+00  3.75000000E-01
                       2.50000000E-01  2.50000000E-01  3.75000000E-01
              kpt4     0.00000000E+00  0.00000000E+00  1.25000000E-01
                       2.50000000E-01  0.00000000E+00  1.25000000E-01
                       5.00000000E-01  0.00000000E+00  1.25000000E-01
                      -2.50000000E-01  0.00000000E+00  1.25000000E-01
                       0.00000000E+00  2.50000000E-01  1.25000000E-01
                       2.50000000E-01  2.50000000E-01  1.25000000E-01
                       5.00000000E-01  2.50000000E-01  1.25000000E-01
                      -2.50000000E-01  2.50000000E-01  1.25000000E-01
                       0.00000000E+00  5.00000000E-01  1.25000000E-01
                       2.50000000E-01  5.00000000E-01  1.25000000E-01
                       5.00000000E-01  5.00000000E-01  1.25000000E-01
                      -2.50000000E-01  5.00000000E-01  1.25000000E-01
                       0.00000000E+00 -2.50000000E-01  1.25000000E-01
                       2.50000000E-01 -2.50000000E-01  1.25000000E-01
                       5.00000000E-01 -2.50000000E-01  1.25000000E-01
                      -2.50000000E-01 -2.50000000E-01  1.25000000E-01
                       0.00000000E+00  0.00000000E+00  3.75000000E-01
                       2.50000000E-01  0.00000000E+00  3.75000000E-01
                       5.00000000E-01  0.00000000E+00  3.75000000E-01
                      -2.50000000E-01  0.00000000E+00  3.75000000E-01
                       0.00000000E+00  2.50000000E-01  3.75000000E-01
                       2.50000000E-01  2.50000000E-01  3.75000000E-01
                       5.00000000E-01  2.50000000E-01  3.75000000E-01
                      -2.50000000E-01  2.50000000E-01  3.75000000E-01
                       0.00000000E+00  5.00000000E-01  3.75000000E-01
                       2.50000000E-01  5.00000000E-01  3.75000000E-01
                       5.00000000E-01  5.00000000E-01  3.75000000E-01
                      -2.50000000E-01  5.00000000E-01  3.75000000E-01
                       0.00000000E+00 -2.50000000E-01  3.75000000E-01
                       2.50000000E-01 -2.50000000E-01  3.75000000E-01
                       5.00000000E-01 -2.50000000E-01  3.75000000E-01
                      -2.50000000E-01 -2.50000000E-01  3.75000000E-01
                       0.00000000E+00  0.00000000E+00 -3.75000000E-01
                       2.50000000E-01  0.00000000E+00 -3.75000000E-01
                       5.00000000E-01  0.00000000E+00 -3.75000000E-01
                      -2.50000000E-01  0.00000000E+00 -3.75000000E-01
                       0.00000000E+00  2.50000000E-01 -3.75000000E-01
                       2.50000000E-01  2.50000000E-01 -3.75000000E-01
                       5.00000000E-01  2.50000000E-01 -3.75000000E-01
                      -2.50000000E-01  2.50000000E-01 -3.75000000E-01
                       0.00000000E+00  5.00000000E-01 -3.75000000E-01
                       2.50000000E-01  5.00000000E-01 -3.75000000E-01
                       5.00000000E-01  5.00000000E-01 -3.75000000E-01
                      -2.50000000E-01  5.00000000E-01 -3.75000000E-01
                       0.00000000E+00 -2.50000000E-01 -3.75000000E-01
                       2.50000000E-01 -2.50000000E-01 -3.75000000E-01
                       5.00000000E-01 -2.50000000E-01 -3.75000000E-01
                      -2.50000000E-01 -2.50000000E-01 -3.75000000E-01
                       0.00000000E+00  0.00000000E+00 -1.25000000E-01
                       2.50000000E-01  0.00000000E+00 -1.25000000E-01
                       outvar_i_n : Printing only first  50 k-points.
           kptopt1          1
           kptopt2          3
           kptopt3          1
           kptopt4          3
         kptrlatt        4    0    0      0    4    0      0    0    4
          kptrlen      3.01558593E+01
P           mkmem1          8
P           mkmem2         64
P           mkmem3          8
P           mkmem4         64
            natom           4
            nband1          8
            nband2          8
            nband3          8
            nband4          8
           ndtset           4
            ngfft          18      18      30
             nkpt1          8
             nkpt2         64
             nkpt3          8
             nkpt4         64
            nstep          40
             nsym          12
           ntypat           2
              occ1     2.000000  2.000000  2.000000  2.000000  2.000000  2.000000
                       2.000000  2.000000
              occ2     2.000000  2.000000  2.000000  2.000000  2.000000  2.000000
                       2.000000  2.000000
              occ3     2.000000  2.000000  2.000000  2.000000  2.000000  2.000000
                       2.000000  2.000000
              occ4     2.000000  2.000000  2.000000  2.000000  2.000000  2.000000
                       2.000000  2.000000
        optforces           1
            rfdir1          0       0       0
            rfdir2          1       1       1
            rfdir3          0       0       0
            rfdir4          1       1       1
            rprim1     8.6602540378E-01  5.0000000000E-01  0.0000000000E+00
                      -8.6602540378E-01  5.0000000000E-01  0.0000000000E+00
                       0.0000000000E+00  0.0000000000E+00  9.9990000000E-01
            rprim2     8.6602540378E-01  5.0000000000E-01  0.0000000000E+00
                      -8.6602540378E-01  5.0000000000E-01  0.0000000000E+00
                       0.0000000000E+00  0.0000000000E+00  9.9990000000E-01
            rprim3     8.6602540378E-01  5.0000000000E-01  0.0000000000E+00
                      -8.6602540378E-01  5.0000000000E-01  0.0000000000E+00
                       0.0000000000E+00  0.0000000000E+00  1.0001000000E+00
            rprim4     8.6602540378E-01  5.0000000000E-01  0.0000000000E+00
                      -8.6602540378E-01  5.0000000000E-01  0.0000000000E+00
                       0.0000000000E+00  0.0000000000E+00  1.0001000000E+00
           shiftk      0.00000000E+00  0.00000000E+00  5.00000000E-01
          spgroup         186
           symrel      1  0  0   0  1  0   0  0  1       0  1  0   1  0  0   0  0  1
                       1  1  0  -1  0  0   0  0  1      -1  0  0   1  1  0   0  0  1
                       0  1  0  -1 -1  0   0  0  1      -1 -1  0   0  1  0   0  0  1
                      -1  0  0   0 -1  0   0  0  1       0 -1  0  -1  0  0   0  0  1
                      -1 -1  0   1  0  0   0  0  1       1  0  0  -1 -1  0   0  0  1
                       0 -1  0   1  1  0   0  0  1       1  1  0   0 -1  0   0  0  1
            tnons      0.0000000  0.0000000  0.0000000     0.0000000  0.0000000  0.5000000
                       0.0000000  0.0000000  0.5000000    -0.0000000  0.0000000  0.0000000
                       0.0000000  0.0000000  0.0000000     0.0000000 -0.0000000  0.5000000
                       0.0000000  0.0000000  0.5000000     0.0000000  0.0000000  0.0000000
                      -0.0000000  0.0000000  0.0000000     0.0000000  0.0000000  0.5000000
                       0.0000000 -0.0000000  0.5000000     0.0000000  0.0000000  0.0000000
           tolvrs      1.00000000E-18
            typat      1  1  2  2
              wtk1       0.03125    0.18750    0.09375    0.18750    0.03125    0.18750
                         0.09375    0.18750
              wtk2       0.01563    0.01563    0.01563    0.01563    0.01563    0.01563
                         0.01563    0.01563    0.01563    0.01563    0.01563    0.01563
                         0.01563    0.01563    0.01563    0.01563    0.01563    0.01563
                         0.01563    0.01563    0.01563    0.01563    0.01563    0.01563
                         0.01563    0.01563    0.01563    0.01563    0.01563    0.01563
                         0.01563    0.01563    0.01563    0.01563    0.01563    0.01563
                         0.01563    0.01563    0.01563    0.01563    0.01563    0.01563
                         0.01563    0.01563    0.01563    0.01563    0.01563    0.01563
                         0.01563    0.01563
              wtk3       0.03125    0.18750    0.09375    0.18750    0.03125    0.18750
                         0.09375    0.18750
              wtk4       0.01563    0.01563    0.01563    0.01563    0.01563    0.01563
                         0.01563    0.01563    0.01563    0.01563    0.01563    0.01563
                         0.01563    0.01563    0.01563    0.01563    0.01563    0.01563
                         0.01563    0.01563    0.01563    0.01563    0.01563    0.01563
                         0.01563    0.01563    0.01563    0.01563    0.01563    0.01563
                         0.01563    0.01563    0.01563    0.01563    0.01563    0.01563
                         0.01563    0.01563    0.01563    0.01563    0.01563    0.01563
                         0.01563    0.01563    0.01563    0.01563    0.01563    0.01563
                         0.01563    0.01563
                       outvars : Printing only first  50 k-points.
           xangst1    -1.1516545412E+00  1.9947241781E+00  0.0000000000E+00
                       1.1516545412E+00  1.9947241781E+00  3.2482398854E+00
                      -1.1516545412E+00  1.9947241781E+00  2.4432343357E+00
                       1.1516545412E+00  1.9947241781E+00  5.6914742211E+00
           xangst2    -1.1516545412E+00  1.9947241781E+00  0.0000000000E+00
                       1.1516545412E+00  1.9947241781E+00  3.2482398854E+00
                      -1.1516545412E+00  1.9947241781E+00  2.4432343357E+00
                       1.1516545412E+00  1.9947241781E+00  5.6914742211E+00
           xangst3    -1.1516545412E+00  1.9947241781E+00  0.0000000000E+00
                       1.1516545412E+00  1.9947241781E+00  3.2488895983E+00
                      -1.1516545412E+00  1.9947241781E+00  2.4437230314E+00
                       1.1516545412E+00  1.9947241781E+00  5.6926126297E+00
           xangst4    -1.1516545412E+00  1.9947241781E+00  0.0000000000E+00
                       1.1516545412E+00  1.9947241781E+00  3.2488895983E+00
                      -1.1516545412E+00  1.9947241781E+00  2.4437230314E+00
                       1.1516545412E+00  1.9947241781E+00  5.6926126297E+00
            xcart1    -2.1763116825E+00  3.7694824072E+00  0.0000000000E+00
                       2.1763116825E+00  3.7694824072E+00  6.1382837972E+00
                      -2.1763116825E+00  3.7694824072E+00  4.6170437729E+00
                       2.1763116825E+00  3.7694824072E+00  1.0755327570E+01
            xcart2    -2.1763116825E+00  3.7694824072E+00  0.0000000000E+00
                       2.1763116825E+00  3.7694824072E+00  6.1382837972E+00
                      -2.1763116825E+00  3.7694824072E+00  4.6170437729E+00
                       2.1763116825E+00  3.7694824072E+00  1.0755327570E+01
            xcart3    -2.1763116825E+00  3.7694824072E+00  0.0000000000E+00
                       2.1763116825E+00  3.7694824072E+00  6.1395115768E+00
                      -2.1763116825E+00  3.7694824072E+00  4.6179672740E+00
                       2.1763116825E+00  3.7694824072E+00  1.0757478851E+01
            xcart4    -2.1763116825E+00  3.7694824072E+00  0.0000000000E+00
                       2.1763116825E+00  3.7694824072E+00  6.1395115768E+00
                      -2.1763116825E+00  3.7694824072E+00  4.6179672740E+00
                       2.1763116825E+00  3.7694824072E+00  1.0757478851E+01
             xred      3.3333333333E-01  6.6666666667E-01  0.0000000000E+00
                       6.6666666667E-01  3.3333333333E-01  5.0000000000E-01
                       3.3333333333E-01  6.6666666667E-01  3.7608588373E-01
                       6.6666666667E-01  3.3333333333E-01  8.7608588373E-01
            znucl       13.00000   33.00000

================================================================================

 chkinp: Checking input parameters for consistency, jdtset=   1.

 chkinp: Checking input parameters for consistency, jdtset=   2.

 chkinp: Checking input parameters for consistency, jdtset=   3.

 chkinp: Checking input parameters for consistency, jdtset=   4.

================================================================================
== DATASET  1 ==================================================================
-   nproc =    1

 Exchange-correlation functional for the present dataset will be:
  LDA: new Teter (4/93) with spin-polarized option - ixc=1
 Citation for XC functional:
  S. Goedecker, M. Teter, J. Huetter, PRB 54, 1703 (1996)

 Real(R)+Recip(G) space primitive vectors, cartesian coordinates (Bohr,Bohr^-1):
 R(1)=  6.5289350  3.7694824  0.0000000  G(1)=  0.0765822  0.1326442  0.0000000
 R(2)= -6.5289350  3.7694824  0.0000000  G(2)= -0.0765822  0.1326442  0.0000000
 R(3)=  0.0000000  0.0000000 12.2765676  G(3)=  0.0000000  0.0000000  0.0814560
 Unit cell volume ucvol=  6.0426999E+02 bohr^3
 Angles (23,13,12)=  9.00000000E+01  9.00000000E+01  1.20000000E+02 degrees

 getcut: wavevector=  0.0000  0.0000  0.0000  ngfft=  18  18  30
         ecut(hartree)=      6.000   => boxcut(ratio)=   2.16976

--- Pseudopotential description ------------------------------------------------
- pspini: atom type   1  psp file is /home/buildbot/bb/ABINIT/abiref_gnu_9.2_openmpi/trunk__gonze3/tests/Psps_for_tests/13al.pspnc
- pspatm: opening atomic psp file    /home/buildbot/bb/ABINIT/abiref_gnu_9.2_openmpi/trunk__gonze3/tests/Psps_for_tests/13al.pspnc
-  Troullier-Martins psp for element  Al        Thu Oct 27 17:31:05 EDT 1994
- 13.00000   3.00000    940714                znucl, zion, pspdat
    1    1    2    2      2001   0.00000      pspcod,pspxc,lmax,lloc,mmax,r2well
    0   4.657  11.889    1   2.2761078        l,e99.0,e99.9,nproj,rcpsp
   0.00000000   0.00000000   0.00000000   0.00000000     rms, ekb1, ekb2, epsatm
    1   1.829   2.761    1   2.2761078        l,e99.0,e99.9,nproj,rcpsp
   0.00000000   0.00000000   0.00000000   0.00000000     rms, ekb1, ekb2, epsatm
    2   0.000   0.000    0   2.2761078        l,e99.0,e99.9,nproj,rcpsp
   0.00000000   0.00000000   0.00000000   0.00000000     rms, ekb1, ekb2, epsatm
    2.09673076353074    0.12648111154518    1.01742091001718   rchrg,fchrg,qchrg
  pspatm : epsatm=    0.22155260
         --- l  ekb(1:nproj) -->
             0    2.540658
             1    1.353815
 pspatm: atomic psp has been read  and splines computed

- pspini: atom type   2  psp file is /home/buildbot/bb/ABINIT/abiref_gnu_9.2_openmpi/trunk__gonze3/tests/Psps_for_tests/33as.pspnc
- pspatm: opening atomic psp file    /home/buildbot/bb/ABINIT/abiref_gnu_9.2_openmpi/trunk__gonze3/tests/Psps_for_tests/33as.pspnc
-  Troullier-Martins psp for element  As        Thu Oct 27 17:37:14 EDT 1994
- 33.00000   5.00000    940714                znucl, zion, pspdat
    1    1    1    1      2001   0.00000      pspcod,pspxc,lmax,lloc,mmax,r2well
    0   4.772  10.829    1   2.5306160        l,e99.0,e99.9,nproj,rcpsp
   0.00000000   0.00000000   0.00000000   0.00000000     rms, ekb1, ekb2, epsatm
    1   2.745   5.580    0   2.5306160        l,e99.0,e99.9,nproj,rcpsp
   0.00000000   0.00000000   0.00000000   0.00000000     rms, ekb1, ekb2, epsatm
    2.05731715564010    0.36322996461007    2.76014815959125   rchrg,fchrg,qchrg
  pspatm : epsatm=   27.20579911
         --- l  ekb(1:nproj) -->
             0    0.838751
 pspatm: atomic psp has been read  and splines computed

   8.77675255E+02                                ecore*ucvol(ha*bohr**3)
--------------------------------------------------------------------------------

_setup2: Arith. and geom. avg. npw (full set) are     424.219     424.184

================================================================================

     iter   Etot(hartree)      deltaE(h)  residm     vres2    diffor    maxfor
 ETOT  1  -20.254720582060    -2.025E+01 4.636E-03 8.324E+00 1.023E-03 1.023E-03
 ETOT  2  -20.270119378556    -1.540E-02 1.123E-07 4.547E-01 1.203E-03 1.804E-04
 ETOT  3  -20.270903168107    -7.838E-04 5.227E-06 3.336E-02 1.728E-04 7.692E-06
 ETOT  4  -20.270943306141    -4.014E-05 1.668E-07 8.826E-04 1.101E-06 6.591E-06
 ETOT  5  -20.270943750080    -4.439E-07 1.667E-09 6.078E-06 1.363E-05 2.022E-05
 ETOT  6  -20.270943753778    -3.698E-09 1.518E-11 1.057E-07 2.965E-06 1.725E-05
 ETOT  7  -20.270943753861    -8.324E-11 1.171E-12 3.585E-09 1.307E-06 1.856E-05
 ETOT  8  -20.270943753865    -4.352E-12 9.175E-14 4.515E-11 2.849E-07 1.827E-05
 ETOT  9  -20.270943753865    -1.243E-13 2.252E-16 6.440E-13 3.354E-09 1.828E-05
 ETOT 10  -20.270943753865     3.197E-14 4.010E-18 1.234E-14 4.284E-10 1.828E-05
 ETOT 11  -20.270943753865    -1.066E-14 6.958E-20 1.346E-16 1.631E-12 1.828E-05
 ETOT 12  -20.270943753865    -2.132E-14 4.511E-22 1.033E-18 9.566E-12 1.828E-05
 ETOT 13  -20.270943753865     1.208E-13 6.035E-24 6.244E-21 1.039E-12 1.828E-05

 At SCF step   13       vres2   =  6.24E-21 < tolvrs=  1.00E-18 =>converged.

 Cartesian components of stress tensor (hartree/bohr^3)
  sigma(1 1)= -7.20297483E-08  sigma(3 2)=  0.00000000E+00
  sigma(2 2)= -7.20297483E-08  sigma(3 1)=  0.00000000E+00
  sigma(3 3)= -6.19938072E-07  sigma(2 1)=  0.00000000E+00

 Integrated electronic density in atomic spheres:
 ------------------------------------------------
 Atom  Sphere_radius  Integrated_density
    1        2.00000          0.92174755
    2        2.00000          0.92174755
    3        2.00000          2.53749845
    4        2.00000          2.53749845
================================================================================

 ----iterations are completed or convergence reached----

 Mean square residual over all n,k,spin=   23.105E-25; max=  60.353E-25
 reduced coordinates (array xred) for    4 atoms
       0.333333333333      0.666666666667      0.000000000000
       0.666666666667      0.333333333333      0.500000000000
       0.333333333333      0.666666666667      0.376085883730
       0.666666666667      0.333333333333      0.876085883730
 rms dE/dt=  1.2955E-04; max dE/dt=  2.2441E-04; dE/dt below (all hartree)
    1       0.000000000000      0.000000000000      0.000224408041
    2       0.000000000000      0.000000000000      0.000224408041
    3       0.000000000000      0.000000000000     -0.000224358435
    4       0.000000000000      0.000000000000     -0.000224358435

 cartesian coordinates (angstrom) at end:
    1     -1.15165454116847     1.99472417807121     0.00000000000000
    2      1.15165454116847     1.99472417807121     3.24823988535208
    3     -1.15165454116847     1.99472417807121     2.44323433569935
    4      1.15165454116847     1.99472417807121     5.69147422105143

 cartesian forces (hartree/bohr) at end:
    1     -0.00000000000000    -0.00000000000000    -0.00001827735936
    2     -0.00000000000000    -0.00000000000000    -0.00001827735936
    3     -0.00000000000000    -0.00000000000000     0.00001827735936
    4     -0.00000000000000    -0.00000000000000     0.00001827735936
 frms,max,avg= 1.0552438E-05 1.8277359E-05   0.000E+00  0.000E+00 -2.020E-09 h/b

 cartesian forces (eV/Angstrom) at end:
    1     -0.00000000000000    -0.00000000000000    -0.00093985952809
    2     -0.00000000000000    -0.00000000000000    -0.00093985952809
    3     -0.00000000000000    -0.00000000000000     0.00093985952809
    4     -0.00000000000000    -0.00000000000000     0.00093985952809
 frms,max,avg= 5.4262815E-04 9.3985953E-04   0.000E+00  0.000E+00 -1.039E-07 e/A
 length scales=  7.538964814400  7.538964814400 12.277795374000 bohr
              =  3.989448356142  3.989448356142  6.497129483653 angstroms
 prteigrs : about to open file telast_4o_DS1_EIG
 Fermi (or HOMO) energy (hartree) =   0.08618   Average Vxc (hartree)=  -0.34270
 Eigenvalues (hartree) for nkpt=   8  k points:
 kpt#   1, nband=  8, wtk=  0.03125, kpt=  0.0000  0.0000  0.1250 (reduced coord)
  -0.35500   -0.30560   -0.11713    0.05114    0.05114    0.06673    0.08618    0.08618
 prteigrs : prtvol=0 or 1, do not print more k-points.


--------------------------------------------------------------------------------
 Components of total free energy (in Hartree) :

    Kinetic energy  =  5.91968852102006E+00
    Hartree energy  =  1.65273631666129E+00
    XC energy       = -8.68526752215255E+00
    Ewald energy    = -1.68703089910137E+01
    PspCore energy  =  1.45245548203013E+00
    Loc. psp. energy= -4.92365808719574E+00
    NL   psp  energy=  1.18341052678518E+00
    >>>>>>>>> Etotal= -2.02709437538654E+01

 Other information on the energy :
    Total energy(eV)= -5.51600431690900E+02 ; Band energy (Ha)=  -1.4271558574E+00
--------------------------------------------------------------------------------



 Cartesian components of stress tensor (hartree/bohr^3)
  sigma(1 1)= -7.20297483E-08  sigma(3 2)=  0.00000000E+00
  sigma(2 2)= -7.20297483E-08  sigma(3 1)=  0.00000000E+00
  sigma(3 3)= -6.19938072E-07  sigma(2 1)=  0.00000000E+00

-Cartesian components of stress tensor (GPa)         [Pressure=  7.4925E-03 GPa]
- sigma(1 1)= -2.11918800E-03  sigma(3 2)=  0.00000000E+00
- sigma(2 2)= -2.11918800E-03  sigma(3 1)=  0.00000000E+00
- sigma(3 3)= -1.82392047E-02  sigma(2 1)=  0.00000000E+00

================================================================================
== DATASET  2 ==================================================================
-   nproc =    1

 mkfilename : getwfk/=0, take file _WFK from output of DATASET   1.

 Exchange-correlation functional for the present dataset will be:
  LDA: new Teter (4/93) with spin-polarized option - ixc=1
 Citation for XC functional:
  S. Goedecker, M. Teter, J. Huetter, PRB 54, 1703 (1996)

 Real(R)+Recip(G) space primitive vectors, cartesian coordinates (Bohr,Bohr^-1):
 R(1)=  6.5289350  3.7694824  0.0000000  G(1)=  0.0765822  0.1326442  0.0000000
 R(2)= -6.5289350  3.7694824  0.0000000  G(2)= -0.0765822  0.1326442  0.0000000
 R(3)=  0.0000000  0.0000000 12.2765676  G(3)=  0.0000000  0.0000000  0.0814560
 Unit cell volume ucvol=  6.0426999E+02 bohr^3
 Angles (23,13,12)=  9.00000000E+01  9.00000000E+01  1.20000000E+02 degrees

 getcut: wavevector=  0.0000  0.0000  0.0000  ngfft=  18  18  30
         ecut(hartree)=      6.000   => boxcut(ratio)=   2.16976
--------------------------------------------------------------------------------

-inwffil : will read wavefunctions from disk file telast_4o_DS1_WFK
_setup2: Arith. and geom. avg. npw (full set) are     424.219     424.184
  initberry: for direction 1, nkstr =   4, nstr =     16
  initberry: for direction 2, nkstr =   4, nstr =     16
  initberry: for direction 3, nkstr =   4, nstr =     16

================================================================================

     iter   Etot(hartree)      deltaE(h)  residm     vres2    diffor    maxfor
 ETOT  1  -20.270943753864    -2.027E+01 1.668E-26 5.081E-21 1.828E-05 1.828E-05

 At SCF step    1       vres2   =  5.08E-21 < tolvrs=  1.00E-18 =>converged.

 Computing the polarization (Berry phase) for reciprocal vector:
  0.25000  0.00000  0.00000 (in reduced coordinates)
  0.01915  0.03316  0.00000 (in cartesian coordinates - atomic units)
 Number of strings:    16
 Number of k points in string:    4

 Summary of the results
 Electronic Berry phase    -2.553528944E-11
            Ionic phase     2.220446049E-15
            Total phase    -2.553306899E-11
    Remapping in [-1,1]    -2.553306899E-11

           Polarization    -2.758762684E-13 (a.u. of charge)/bohr^2
           Polarization    -1.578419489E-11 C/m^2


 Computing the polarization (Berry phase) for reciprocal vector:
  0.00000  0.25000  0.00000 (in reduced coordinates)
 -0.01915  0.03316  0.00000 (in cartesian coordinates - atomic units)
 Number of strings:    16
 Number of k points in string:    4

 Summary of the results
 Electronic Berry phase     2.552486716E-11
            Ionic phase     2.220446049E-15
            Total phase     2.552708761E-11
    Remapping in [-1,1]     2.552708761E-11

           Polarization     2.758116416E-13 (a.u. of charge)/bohr^2
           Polarization     1.578049729E-11 C/m^2


 Computing the polarization (Berry phase) for reciprocal vector:
  0.00000  0.00000  0.25000 (in reduced coordinates)
  0.00000  0.00000  0.02036 (in cartesian coordinates - atomic units)
 Number of strings:    16
 Number of k points in string:    4

 Summary of the results
 Electronic Berry phase    -1.722040493E-02
            Ionic phase    -2.391411627E-01
            Total phase    -2.563615676E-01
    Remapping in [-1,1]    -2.563615676E-01

           Polarization    -5.208334326E-03 (a.u. of charge)/bohr^2
           Polarization    -2.979936062E-01 C/m^2


 Polarization in cartesian coordinates (a.u.):
 (the sum of the electronic and ionic Berry phase has been folded into [-1, 1])
     Electronic berry phase:       -0.551687910E-12  -0.650149349E-16  -0.349855975E-03
     Ionic:                         0.000000000E+00   0.277026247E-16  -0.485847835E-02  
     Total:                        -0.551687910E-12  -0.373123103E-16  -0.520833433E-02

 Polarization in cartesian coordinates (C/m^2):
 (the sum of the electronic and ionic Berry phase has been folded into [-1, 1])
     Electronic berry phase:       -0.315646922E-10  -0.371981400E-14  -0.200169261E-01
     Ionic:                         0.000000000E+00   0.158499906E-14  -0.277976680E+00  
     Total:                        -0.315646922E-10  -0.213481493E-14  -0.297993606E+00

 Cartesian components of stress tensor (hartree/bohr^3)
  sigma(1 1)= -7.20297608E-08  sigma(3 2)=  0.00000000E+00
  sigma(2 2)= -7.20297608E-08  sigma(3 1)=  0.00000000E+00
  sigma(3 3)= -6.19938084E-07  sigma(2 1)=  0.00000000E+00

 Integrated electronic density in atomic spheres:
 ------------------------------------------------
 Atom  Sphere_radius  Integrated_density
    1        2.00000          0.92174755
    2        2.00000          0.92174755
    3        2.00000          2.53749845
    4        2.00000          2.53749845
================================================================================

 ----iterations are completed or convergence reached----

 Mean square residual over all n,k,spin=   47.927E-29; max=  16.678E-27
 reduced coordinates (array xred) for    4 atoms
       0.333333333333      0.666666666667      0.000000000000
       0.666666666667      0.333333333333      0.500000000000
       0.333333333333      0.666666666667      0.376085883730
       0.666666666667      0.333333333333      0.876085883730
 rms dE/dt=  1.2955E-04; max dE/dt=  2.2441E-04; dE/dt below (all hartree)
    1       0.000000000000      0.000000000000      0.000224408044
    2       0.000000000000      0.000000000000      0.000224408044
    3       0.000000000000      0.000000000000     -0.000224358436
    4       0.000000000000      0.000000000000     -0.000224358436

 cartesian coordinates (angstrom) at end:
    1     -1.15165454116847     1.99472417807121     0.00000000000000
    2      1.15165454116847     1.99472417807121     3.24823988535208
    3     -1.15165454116847     1.99472417807121     2.44323433569935
    4      1.15165454116847     1.99472417807121     5.69147422105143

 cartesian forces (hartree/bohr) at end:
    1     -0.00000000000000    -0.00000000000000    -0.00001827735956
    2     -0.00000000000000    -0.00000000000000    -0.00001827735956
    3     -0.00000000000000    -0.00000000000000     0.00001827735956
    4     -0.00000000000000    -0.00000000000000     0.00001827735956
 frms,max,avg= 1.0552438E-05 1.8277360E-05   0.000E+00  0.000E+00 -2.020E-09 h/b

 cartesian forces (eV/Angstrom) at end:
    1     -0.00000000000000    -0.00000000000000    -0.00093985953853
    2     -0.00000000000000    -0.00000000000000    -0.00093985953853
    3     -0.00000000000000    -0.00000000000000     0.00093985953853
    4     -0.00000000000000    -0.00000000000000     0.00093985953853
 frms,max,avg= 5.4262816E-04 9.3985954E-04   0.000E+00  0.000E+00 -1.039E-07 e/A
 length scales=  7.538964814400  7.538964814400 12.277795374000 bohr
              =  3.989448356142  3.989448356142  6.497129483653 angstroms
 prteigrs : about to open file telast_4o_DS2_EIG
 Fermi (or HOMO) energy (hartree) =   0.08618   Average Vxc (hartree)=  -0.34270
 Eigenvalues (hartree) for nkpt=  64  k points:
 kpt#   1, nband=  8, wtk=  0.01563, kpt=  0.0000  0.0000  0.1250 (reduced coord)
  -0.35500   -0.30560   -0.11713    0.05114    0.05114    0.06673    0.08618    0.08618
 prteigrs : prtvol=0 or 1, do not print more k-points.


--------------------------------------------------------------------------------
 Components of total free energy (in Hartree) :

    Kinetic energy  =  5.91968852102838E+00
    Hartree energy  =  1.65273631667010E+00
    XC energy       = -8.68526752215605E+00
    Ewald energy    = -1.68703089910137E+01
    PspCore energy  =  1.45245548203013E+00
    Loc. psp. energy= -4.92365808720359E+00
    NL   psp  energy=  1.18341052678071E+00
    >>>>>>>>> Etotal= -2.02709437538641E+01

 Other information on the energy :
    Total energy(eV)= -5.51600431690864E+02 ; Band energy (Ha)=  -1.4271558574E+00
--------------------------------------------------------------------------------



 Cartesian components of stress tensor (hartree/bohr^3)
  sigma(1 1)= -7.20297608E-08  sigma(3 2)=  0.00000000E+00
  sigma(2 2)= -7.20297608E-08  sigma(3 1)=  0.00000000E+00
  sigma(3 3)= -6.19938084E-07  sigma(2 1)=  0.00000000E+00

-Cartesian components of stress tensor (GPa)         [Pressure=  7.4925E-03 GPa]
- sigma(1 1)= -2.11918837E-03  sigma(3 2)=  0.00000000E+00
- sigma(2 2)= -2.11918837E-03  sigma(3 1)=  0.00000000E+00
- sigma(3 3)= -1.82392051E-02  sigma(2 1)=  0.00000000E+00

================================================================================
== DATASET  3 ==================================================================
-   nproc =    1

 mkfilename : getwfk/=0, take file _WFK from output of DATASET   2.

 Exchange-correlation functional for the present dataset will be:
  LDA: new Teter (4/93) with spin-polarized option - ixc=1
 Citation for XC functional:
  S. Goedecker, M. Teter, J. Huetter, PRB 54, 1703 (1996)

 Real(R)+Recip(G) space primitive vectors, cartesian coordinates (Bohr,Bohr^-1):
 R(1)=  6.5289350  3.7694824  0.0000000  G(1)=  0.0765822  0.1326442  0.0000000
 R(2)= -6.5289350  3.7694824  0.0000000  G(2)= -0.0765822  0.1326442  0.0000000
 R(3)=  0.0000000  0.0000000 12.2790232  G(3)=  0.0000000  0.0000000  0.0814397
 Unit cell volume ucvol=  6.0439085E+02 bohr^3
 Angles (23,13,12)=  9.00000000E+01  9.00000000E+01  1.20000000E+02 degrees

 getcut: wavevector=  0.0000  0.0000  0.0000  ngfft=  18  18  30
         ecut(hartree)=      6.000   => boxcut(ratio)=   2.16976
--------------------------------------------------------------------------------

-inwffil : will read wavefunctions from disk file telast_4o_DS2_WFK
_setup2: Arith. and geom. avg. npw (full set) are     424.219     424.184

================================================================================

     iter   Etot(hartree)      deltaE(h)  residm     vres2    diffor    maxfor
 ETOT  1  -20.270943689549    -2.027E+01 1.114E-11 4.253E-05 9.750E-06 9.750E-06
 ETOT  2  -20.270943750362    -6.081E-08 2.752E-14 1.964E-06 2.971E-05 1.996E-05
 ETOT  3  -20.270943753623    -3.261E-09 2.395E-11 1.081E-07 1.722E-06 1.824E-05
 ETOT  4  -20.270943753774    -1.509E-10 9.434E-13 2.525E-09 1.255E-07 1.837E-05
 ETOT  5  -20.270943753776    -1.947E-12 2.674E-14 3.332E-11 6.648E-08 1.843E-05
 ETOT  6  -20.270943753776    -2.842E-14 6.379E-16 4.779E-13 3.151E-08 1.840E-05
 ETOT  7  -20.270943753776     1.421E-14 6.166E-18 4.414E-15 2.065E-09 1.840E-05
 ETOT  8  -20.270943753776    -1.350E-13 8.440E-21 9.615E-17 1.356E-10 1.840E-05
 ETOT  9  -20.270943753776     1.315E-13 5.209E-22 2.507E-18 1.228E-11 1.840E-05
 ETOT 10  -20.270943753776     2.842E-14 4.876E-24 3.159E-20 1.818E-12 1.840E-05

 At SCF step   10       vres2   =  3.16E-20 < tolvrs=  1.00E-18 =>converged.

 Cartesian components of stress tensor (hartree/bohr^3)
  sigma(1 1)=  7.13389339E-08  sigma(3 2)=  0.00000000E+00
  sigma(2 2)=  7.13389339E-08  sigma(3 1)=  0.00000000E+00
  sigma(3 3)=  6.21252196E-07  sigma(2 1)=  0.00000000E+00

 Integrated electronic density in atomic spheres:
 ------------------------------------------------
 Atom  Sphere_radius  Integrated_density
    1        2.00000          0.92183596
    2        2.00000          0.92183596
    3        2.00000          2.53778558
    4        2.00000          2.53778558
================================================================================

 ----iterations are completed or convergence reached----

 Mean square residual over all n,k,spin=   14.376E-25; max=  48.759E-25
 reduced coordinates (array xred) for    4 atoms
       0.333333333333      0.666666666667      0.000000000000
       0.666666666667      0.333333333333      0.500000000000
       0.333333333333      0.666666666667      0.376085883730
       0.666666666667      0.333333333333      0.876085883730
 rms dE/dt=  1.3048E-04; max dE/dt=  2.2602E-04; dE/dt below (all hartree)
    1       0.000000000000      0.000000000000     -0.000225968224
    2       0.000000000000      0.000000000000     -0.000225968224
    3       0.000000000000      0.000000000000      0.000226017295
    4       0.000000000000      0.000000000000      0.000226017295

 cartesian coordinates (angstrom) at end:
    1     -1.15165454116847     1.99472417807121     0.00000000000000
    2      1.15165454116847     1.99472417807121     3.24888959830045
    3     -1.15165454116847     1.99472417807121     2.44372303143606
    4      1.15165454116847     1.99472417807121     5.69261262973651

 cartesian forces (hartree/bohr) at end:
    1     -0.00000000000000    -0.00000000000000     0.00001840478321
    2     -0.00000000000000    -0.00000000000000     0.00001840478321
    3     -0.00000000000000    -0.00000000000000    -0.00001840478321
    4     -0.00000000000000    -0.00000000000000    -0.00001840478321
 frms,max,avg= 1.0626007E-05 1.8404783E-05   0.000E+00  0.000E+00 -1.998E-09 h/b

 cartesian forces (eV/Angstrom) at end:
    1     -0.00000000000000    -0.00000000000000     0.00094641192543
    2     -0.00000000000000    -0.00000000000000     0.00094641192543
    3     -0.00000000000000    -0.00000000000000    -0.00094641192543
    4     -0.00000000000000    -0.00000000000000    -0.00094641192543
 frms,max,avg= 5.4641118E-04 9.4641193E-04   0.000E+00  0.000E+00 -1.027E-07 e/A
 length scales=  7.538964814400  7.538964814400 12.277795374000 bohr
              =  3.989448356142  3.989448356142  6.497129483653 angstroms
 prteigrs : about to open file telast_4o_DS3_EIG
 Fermi (or HOMO) energy (hartree) =   0.08614   Average Vxc (hartree)=  -0.34267
 Eigenvalues (hartree) for nkpt=   8  k points:
 kpt#   1, nband=  8, wtk=  0.03125, kpt=  0.0000  0.0000  0.1250 (reduced coord)
  -0.35501   -0.30565   -0.11715    0.05113    0.05113    0.06665    0.08614    0.08614
 prteigrs : prtvol=0 or 1, do not print more k-points.


--------------------------------------------------------------------------------
 Components of total free energy (in Hartree) :

    Kinetic energy  =  5.91926810754704E+00
    Hartree energy  =  1.65296606364121E+00
    XC energy       = -8.68503964046039E+00
    Ewald energy    = -1.68692134754787E+01
    PspCore energy  =  1.45216501997993E+00
    Loc. psp. energy= -4.92443934451740E+00
    NL   psp  energy=  1.18334951551210E+00
    >>>>>>>>> Etotal= -2.02709437537762E+01

 Other information on the energy :
    Total energy(eV)= -5.51600431688473E+02 ; Band energy (Ha)=  -1.4276931027E+00
--------------------------------------------------------------------------------



 Cartesian components of stress tensor (hartree/bohr^3)
  sigma(1 1)=  7.13389339E-08  sigma(3 2)=  0.00000000E+00
  sigma(2 2)=  7.13389339E-08  sigma(3 1)=  0.00000000E+00
  sigma(3 3)=  6.21252196E-07  sigma(2 1)=  0.00000000E+00

-Cartesian components of stress tensor (GPa)         [Pressure= -7.4919E-03 GPa]
- sigma(1 1)=  2.09886354E-03  sigma(3 2)=  0.00000000E+00
- sigma(2 2)=  2.09886354E-03  sigma(3 1)=  0.00000000E+00
- sigma(3 3)=  1.82778676E-02  sigma(2 1)=  0.00000000E+00

================================================================================
== DATASET  4 ==================================================================
-   nproc =    1

 mkfilename : getwfk/=0, take file _WFK from output of DATASET   3.

 Exchange-correlation functional for the present dataset will be:
  LDA: new Teter (4/93) with spin-polarized option - ixc=1
 Citation for XC functional:
  S. Goedecker, M. Teter, J. Huetter, PRB 54, 1703 (1996)

 Real(R)+Recip(G) space primitive vectors, cartesian coordinates (Bohr,Bohr^-1):
 R(1)=  6.5289350  3.7694824  0.0000000  G(1)=  0.0765822  0.1326442  0.0000000
 R(2)= -6.5289350  3.7694824  0.0000000  G(2)= -0.0765822  0.1326442  0.0000000
 R(3)=  0.0000000  0.0000000 12.2790232  G(3)=  0.0000000  0.0000000  0.0814397
 Unit cell volume ucvol=  6.0439085E+02 bohr^3
 Angles (23,13,12)=  9.00000000E+01  9.00000000E+01  1.20000000E+02 degrees

 getcut: wavevector=  0.0000  0.0000  0.0000  ngfft=  18  18  30
         ecut(hartree)=      6.000   => boxcut(ratio)=   2.16976
--------------------------------------------------------------------------------

-inwffil : will read wavefunctions from disk file telast_4o_DS3_WFK
_setup2: Arith. and geom. avg. npw (full set) are     424.219     424.184
  initberry: for direction 1, nkstr =   4, nstr =     16
  initberry: for direction 2, nkstr =   4, nstr =     16
  initberry: for direction 3, nkstr =   4, nstr =     16

================================================================================

     iter   Etot(hartree)      deltaE(h)  residm     vres2    diffor    maxfor
 ETOT  1  -20.270943753775    -2.027E+01 1.616E-26 2.304E-21 1.840E-05 1.840E-05

 At SCF step    1       vres2   =  2.30E-21 < tolvrs=  1.00E-18 =>converged.

 Computing the polarization (Berry phase) for reciprocal vector:
  0.25000  0.00000  0.00000 (in reduced coordinates)
  0.01915  0.03316  0.00000 (in cartesian coordinates - atomic units)
 Number of strings:    16
 Number of k points in string:    4

 Summary of the results
 Electronic Berry phase    -2.553201884E-11
            Ionic phase     2.220446049E-15
            Total phase    -2.552979839E-11
    Remapping in [-1,1]    -2.552979839E-11

           Polarization    -2.757857680E-13 (a.u. of charge)/bohr^2
           Polarization    -1.577901694E-11 C/m^2


 Computing the polarization (Berry phase) for reciprocal vector:
  0.00000  0.25000  0.00000 (in reduced coordinates)
 -0.01915  0.03316  0.00000 (in cartesian coordinates - atomic units)
 Number of strings:    16
 Number of k points in string:    4

 Summary of the results
 Electronic Berry phase     2.552183584E-11
            Ionic phase     2.220446049E-15
            Total phase     2.552405629E-11
    Remapping in [-1,1]     2.552405629E-11

           Polarization     2.757237389E-13 (a.u. of charge)/bohr^2
           Polarization     1.577546795E-11 C/m^2


 Computing the polarization (Berry phase) for reciprocal vector:
  0.00000  0.00000  0.25000 (in reduced coordinates)
  0.00000  0.00000  0.02036 (in cartesian coordinates - atomic units)
 Number of strings:    16
 Number of k points in string:    4

 Summary of the results
 Electronic Berry phase    -1.734868976E-02
            Ionic phase    -2.391411627E-01
            Total phase    -2.564898525E-01
    Remapping in [-1,1]    -2.564898525E-01

           Polarization    -5.210940608E-03 (a.u. of charge)/bohr^2
           Polarization    -2.981427239E-01 C/m^2


 Polarization in cartesian coordinates (a.u.):
 (the sum of the electronic and ionic Berry phase has been folded into [-1, 1])
     Electronic berry phase:       -0.551509507E-12  -0.635096240E-16  -0.352462256E-03
     Ionic:                         0.000000000E+00   0.276970847E-16  -0.485847835E-02  
     Total:                        -0.551509507E-12  -0.358125393E-16  -0.521094061E-02

 Polarization in cartesian coordinates (C/m^2):
 (the sum of the electronic and ionic Berry phase has been folded into [-1, 1])
     Electronic berry phase:       -0.315544849E-10  -0.363368799E-14  -0.201660439E-01
     Ionic:                         0.000000000E+00   0.158468209E-14  -0.277976680E+00  
     Total:                        -0.315544849E-10  -0.204900589E-14  -0.298142724E+00

 Cartesian components of stress tensor (hartree/bohr^3)
  sigma(1 1)=  7.13389514E-08  sigma(3 2)=  0.00000000E+00
  sigma(2 2)=  7.13389514E-08  sigma(3 1)=  0.00000000E+00
  sigma(3 3)=  6.21252206E-07  sigma(2 1)=  0.00000000E+00

 Integrated electronic density in atomic spheres:
 ------------------------------------------------
 Atom  Sphere_radius  Integrated_density
    1        2.00000          0.92183596
    2        2.00000          0.92183596
    3        2.00000          2.53778558
    4        2.00000          2.53778558
================================================================================

 ----iterations are completed or convergence reached----

 Mean square residual over all n,k,spin=   46.291E-29; max=  16.157E-27
 reduced coordinates (array xred) for    4 atoms
       0.333333333333      0.666666666667      0.000000000000
       0.666666666667      0.333333333333      0.500000000000
       0.333333333333      0.666666666667      0.376085883730
       0.666666666667      0.333333333333      0.876085883730
 rms dE/dt=  1.3048E-04; max dE/dt=  2.2602E-04; dE/dt below (all hartree)
    1       0.000000000000      0.000000000000     -0.000225968227
    2       0.000000000000      0.000000000000     -0.000225968227
    3       0.000000000000      0.000000000000      0.000226017300
    4       0.000000000000      0.000000000000      0.000226017300

 cartesian coordinates (angstrom) at end:
    1     -1.15165454116847     1.99472417807121     0.00000000000000
    2      1.15165454116847     1.99472417807121     3.24888959830045
    3     -1.15165454116847     1.99472417807121     2.44372303143606
    4      1.15165454116847     1.99472417807121     5.69261262973651

 cartesian forces (hartree/bohr) at end:
    1     -0.00000000000000    -0.00000000000000     0.00001840478355
    2     -0.00000000000000    -0.00000000000000     0.00001840478355
    3     -0.00000000000000    -0.00000000000000    -0.00001840478355
    4     -0.00000000000000    -0.00000000000000    -0.00001840478355
 frms,max,avg= 1.0626007E-05 1.8404784E-05   0.000E+00  0.000E+00 -1.998E-09 h/b

 cartesian forces (eV/Angstrom) at end:
    1     -0.00000000000000    -0.00000000000000     0.00094641194261
    2     -0.00000000000000    -0.00000000000000     0.00094641194261
    3     -0.00000000000000    -0.00000000000000    -0.00094641194261
    4     -0.00000000000000    -0.00000000000000    -0.00094641194261
 frms,max,avg= 5.4641119E-04 9.4641194E-04   0.000E+00  0.000E+00 -1.028E-07 e/A
 length scales=  7.538964814400  7.538964814400 12.277795374000 bohr
              =  3.989448356142  3.989448356142  6.497129483653 angstroms
 prteigrs : about to open file telast_4o_DS4_EIG
 Fermi (or HOMO) energy (hartree) =   0.08614   Average Vxc (hartree)=  -0.34267
 Eigenvalues (hartree) for nkpt=  64  k points:
 kpt#   1, nband=  8, wtk=  0.01563, kpt=  0.0000  0.0000  0.1250 (reduced coord)
  -0.35501   -0.30565   -0.11715    0.05113    0.05113    0.06665    0.08614    0.08614
 prteigrs : prtvol=0 or 1, do not print more k-points.


--------------------------------------------------------------------------------
 Components of total free energy (in Hartree) :

    Kinetic energy  =  5.91926810754015E+00
    Hartree energy  =  1.65296606363325E+00
    XC energy       = -8.68503964045694E+00
    Ewald energy    = -1.68692134754787E+01
    PspCore energy  =  1.45216501997993E+00
    Loc. psp. energy= -4.92443934450414E+00
    NL   psp  energy=  1.18334951551147E+00
    >>>>>>>>> Etotal= -2.02709437537750E+01

 Other information on the energy :
    Total energy(eV)= -5.51600431688440E+02 ; Band energy (Ha)=  -1.4276931027E+00
--------------------------------------------------------------------------------



 Cartesian components of stress tensor (hartree/bohr^3)
  sigma(1 1)=  7.13389514E-08  sigma(3 2)=  0.00000000E+00
  sigma(2 2)=  7.13389514E-08  sigma(3 1)=  0.00000000E+00
  sigma(3 3)=  6.21252206E-07  sigma(2 1)=  0.00000000E+00

-Cartesian components of stress tensor (GPa)         [Pressure= -7.4919E-03 GPa]
- sigma(1 1)=  2.09886406E-03  sigma(3 2)=  0.00000000E+00
- sigma(2 2)=  2.09886406E-03  sigma(3 1)=  0.00000000E+00
- sigma(3 3)=  1.82778679E-02  sigma(2 1)=  0.00000000E+00

== END DATASET(S) ==============================================================
================================================================================
  
 -outvars: echo values of variables after computation  --------
            acell      7.5389648144E+00  7.5389648144E+00  1.2277795374E+01 Bohr
              amu      2.69815390E+01  7.49215900E+01
         berryopt1          0
         berryopt2         -1
         berryopt3          0
         berryopt4         -1
           diemac      9.00000000E+00
             ecut      6.00000000E+00 Hartree
           ecutsm      5.00000000E-01 Hartree
           etotal1    -2.0270943754E+01
           etotal2    -2.0270943754E+01
           etotal3    -2.0270943754E+01
           etotal4    -2.0270943754E+01
            fcart1    -0.0000000000E+00 -0.0000000000E+00 -1.8277359362E-05
                      -0.0000000000E+00 -0.0000000000E+00 -1.8277359362E-05
                      -0.0000000000E+00 -0.0000000000E+00  1.8277359362E-05
                      -0.0000000000E+00 -0.0000000000E+00  1.8277359362E-05
            fcart2    -0.0000000000E+00 -0.0000000000E+00 -1.8277359565E-05
                      -0.0000000000E+00 -0.0000000000E+00 -1.8277359565E-05
                      -0.0000000000E+00 -0.0000000000E+00  1.8277359565E-05
                      -0.0000000000E+00 -0.0000000000E+00  1.8277359565E-05
            fcart3    -0.0000000000E+00 -0.0000000000E+00  1.8404783213E-05
                      -0.0000000000E+00 -0.0000000000E+00  1.8404783213E-05
                      -0.0000000000E+00 -0.0000000000E+00 -1.8404783213E-05
                      -0.0000000000E+00 -0.0000000000E+00 -1.8404783213E-05
            fcart4    -0.0000000000E+00 -0.0000000000E+00  1.8404783547E-05
                      -0.0000000000E+00 -0.0000000000E+00  1.8404783547E-05
                      -0.0000000000E+00 -0.0000000000E+00 -1.8404783547E-05
                      -0.0000000000E+00 -0.0000000000E+00 -1.8404783547E-05
-          fftalg         312
           getwfk1          0
           getwfk2         -1
           getwfk3         -1
           getwfk4         -1
           jdtset        1    2    3    4
              kpt1     0.00000000E+00  0.00000000E+00  1.25000000E-01
                       2.50000000E-01  0.00000000E+00  1.25000000E-01
                       5.00000000E-01  0.00000000E+00  1.25000000E-01
                       2.50000000E-01  2.50000000E-01  1.25000000E-01
                       0.00000000E+00  0.00000000E+00  3.75000000E-01
                       2.50000000E-01  0.00000000E+00  3.75000000E-01
                       5.00000000E-01  0.00000000E+00  3.75000000E-01
                       2.50000000E-01  2.50000000E-01  3.75000000E-01
              kpt2     0.00000000E+00  0.00000000E+00  1.25000000E-01
                       2.50000000E-01  0.00000000E+00  1.25000000E-01
                       5.00000000E-01  0.00000000E+00  1.25000000E-01
                      -2.50000000E-01  0.00000000E+00  1.25000000E-01
                       0.00000000E+00  2.50000000E-01  1.25000000E-01
                       2.50000000E-01  2.50000000E-01  1.25000000E-01
                       5.00000000E-01  2.50000000E-01  1.25000000E-01
                      -2.50000000E-01  2.50000000E-01  1.25000000E-01
                       0.00000000E+00  5.00000000E-01  1.25000000E-01
                       2.50000000E-01  5.00000000E-01  1.25000000E-01
                       5.00000000E-01  5.00000000E-01  1.25000000E-01
                      -2.50000000E-01  5.00000000E-01  1.25000000E-01
                       0.00000000E+00 -2.50000000E-01  1.25000000E-01
                       2.50000000E-01 -2.50000000E-01  1.25000000E-01
                       5.00000000E-01 -2.50000000E-01  1.25000000E-01
                      -2.50000000E-01 -2.50000000E-01  1.25000000E-01
                       0.00000000E+00  0.00000000E+00  3.75000000E-01
                       2.50000000E-01  0.00000000E+00  3.75000000E-01
                       5.00000000E-01  0.00000000E+00  3.75000000E-01
                      -2.50000000E-01  0.00000000E+00  3.75000000E-01
                       0.00000000E+00  2.50000000E-01  3.75000000E-01
                       2.50000000E-01  2.50000000E-01  3.75000000E-01
                       5.00000000E-01  2.50000000E-01  3.75000000E-01
                      -2.50000000E-01  2.50000000E-01  3.75000000E-01
                       0.00000000E+00  5.00000000E-01  3.75000000E-01
                       2.50000000E-01  5.00000000E-01  3.75000000E-01
                       5.00000000E-01  5.00000000E-01  3.75000000E-01
                      -2.50000000E-01  5.00000000E-01  3.75000000E-01
                       0.00000000E+00 -2.50000000E-01  3.75000000E-01
                       2.50000000E-01 -2.50000000E-01  3.75000000E-01
                       5.00000000E-01 -2.50000000E-01  3.75000000E-01
                      -2.50000000E-01 -2.50000000E-01  3.75000000E-01
                       0.00000000E+00  0.00000000E+00 -3.75000000E-01
                       2.50000000E-01  0.00000000E+00 -3.75000000E-01
                       5.00000000E-01  0.00000000E+00 -3.75000000E-01
                      -2.50000000E-01  0.00000000E+00 -3.75000000E-01
                       0.00000000E+00  2.50000000E-01 -3.75000000E-01
                       2.50000000E-01  2.50000000E-01 -3.75000000E-01
                       5.00000000E-01  2.50000000E-01 -3.75000000E-01
                      -2.50000000E-01  2.50000000E-01 -3.75000000E-01
                       0.00000000E+00  5.00000000E-01 -3.75000000E-01
                       2.50000000E-01  5.00000000E-01 -3.75000000E-01
                       5.00000000E-01  5.00000000E-01 -3.75000000E-01
                      -2.50000000E-01  5.00000000E-01 -3.75000000E-01
                       0.00000000E+00 -2.50000000E-01 -3.75000000E-01
                       2.50000000E-01 -2.50000000E-01 -3.75000000E-01
                       5.00000000E-01 -2.50000000E-01 -3.75000000E-01
                      -2.50000000E-01 -2.50000000E-01 -3.75000000E-01
                       0.00000000E+00  0.00000000E+00 -1.25000000E-01
                       2.50000000E-01  0.00000000E+00 -1.25000000E-01
              kpt3     0.00000000E+00  0.00000000E+00  1.25000000E-01
                       2.50000000E-01  0.00000000E+00  1.25000000E-01
                       5.00000000E-01  0.00000000E+00  1.25000000E-01
                       2.50000000E-01  2.50000000E-01  1.25000000E-01
                       0.00000000E+00  0.00000000E+00  3.75000000E-01
                       2.50000000E-01  0.00000000E+00  3.75000000E-01
                       5.00000000E-01  0.00000000E+00  3.75000000E-01
                       2.50000000E-01  2.50000000E-01  3.75000000E-01
              kpt4     0.00000000E+00  0.00000000E+00  1.25000000E-01
                       2.50000000E-01  0.00000000E+00  1.25000000E-01
                       5.00000000E-01  0.00000000E+00  1.25000000E-01
                      -2.50000000E-01  0.00000000E+00  1.25000000E-01
                       0.00000000E+00  2.50000000E-01  1.25000000E-01
                       2.50000000E-01  2.50000000E-01  1.25000000E-01
                       5.00000000E-01  2.50000000E-01  1.25000000E-01
                      -2.50000000E-01  2.50000000E-01  1.25000000E-01
                       0.00000000E+00  5.00000000E-01  1.25000000E-01
                       2.50000000E-01  5.00000000E-01  1.25000000E-01
                       5.00000000E-01  5.00000000E-01  1.25000000E-01
                      -2.50000000E-01  5.00000000E-01  1.25000000E-01
                       0.00000000E+00 -2.50000000E-01  1.25000000E-01
                       2.50000000E-01 -2.50000000E-01  1.25000000E-01
                       5.00000000E-01 -2.50000000E-01  1.25000000E-01
                      -2.50000000E-01 -2.50000000E-01  1.25000000E-01
                       0.00000000E+00  0.00000000E+00  3.75000000E-01
                       2.50000000E-01  0.00000000E+00  3.75000000E-01
                       5.00000000E-01  0.00000000E+00  3.75000000E-01
                      -2.50000000E-01  0.00000000E+00  3.75000000E-01
                       0.00000000E+00  2.50000000E-01  3.75000000E-01
                       2.50000000E-01  2.50000000E-01  3.75000000E-01
                       5.00000000E-01  2.50000000E-01  3.75000000E-01
                      -2.50000000E-01  2.50000000E-01  3.75000000E-01
                       0.00000000E+00  5.00000000E-01  3.75000000E-01
                       2.50000000E-01  5.00000000E-01  3.75000000E-01
                       5.00000000E-01  5.00000000E-01  3.75000000E-01
                      -2.50000000E-01  5.00000000E-01  3.75000000E-01
                       0.00000000E+00 -2.50000000E-01  3.75000000E-01
                       2.50000000E-01 -2.50000000E-01  3.75000000E-01
                       5.00000000E-01 -2.50000000E-01  3.75000000E-01
                      -2.50000000E-01 -2.50000000E-01  3.75000000E-01
                       0.00000000E+00  0.00000000E+00 -3.75000000E-01
                       2.50000000E-01  0.00000000E+00 -3.75000000E-01
                       5.00000000E-01  0.00000000E+00 -3.75000000E-01
                      -2.50000000E-01  0.00000000E+00 -3.75000000E-01
                       0.00000000E+00  2.50000000E-01 -3.75000000E-01
                       2.50000000E-01  2.50000000E-01 -3.75000000E-01
                       5.00000000E-01  2.50000000E-01 -3.75000000E-01
                      -2.50000000E-01  2.50000000E-01 -3.75000000E-01
                       0.00000000E+00  5.00000000E-01 -3.75000000E-01
                       2.50000000E-01  5.00000000E-01 -3.75000000E-01
                       5.00000000E-01  5.00000000E-01 -3.75000000E-01
                      -2.50000000E-01  5.00000000E-01 -3.75000000E-01
                       0.00000000E+00 -2.50000000E-01 -3.75000000E-01
                       2.50000000E-01 -2.50000000E-01 -3.75000000E-01
                       5.00000000E-01 -2.50000000E-01 -3.75000000E-01
                      -2.50000000E-01 -2.50000000E-01 -3.75000000E-01
                       0.00000000E+00  0.00000000E+00 -1.25000000E-01
                       2.50000000E-01  0.00000000E+00 -1.25000000E-01
                       outvar_i_n : Printing only first  50 k-points.
           kptopt1          1
           kptopt2          3
           kptopt3          1
           kptopt4          3
         kptrlatt        4    0    0      0    4    0      0    0    4
          kptrlen      3.01558593E+01
P           mkmem1          8
P           mkmem2         64
P           mkmem3          8
P           mkmem4         64
            natom           4
            nband1          8
            nband2          8
            nband3          8
            nband4          8
           ndtset           4
            ngfft          18      18      30
             nkpt1          8
             nkpt2         64
             nkpt3          8
             nkpt4         64
            nstep          40
             nsym          12
           ntypat           2
              occ1     2.000000  2.000000  2.000000  2.000000  2.000000  2.000000
                       2.000000  2.000000
              occ2     2.000000  2.000000  2.000000  2.000000  2.000000  2.000000
                       2.000000  2.000000
              occ3     2.000000  2.000000  2.000000  2.000000  2.000000  2.000000
                       2.000000  2.000000
              occ4     2.000000  2.000000  2.000000  2.000000  2.000000  2.000000
                       2.000000  2.000000
        optforces           1
            rfdir1          0       0       0
            rfdir2          1       1       1
            rfdir3          0       0       0
            rfdir4          1       1       1
            rprim1     8.6602540378E-01  5.0000000000E-01  0.0000000000E+00
                      -8.6602540378E-01  5.0000000000E-01  0.0000000000E+00
                       0.0000000000E+00  0.0000000000E+00  9.9990000000E-01
            rprim2     8.6602540378E-01  5.0000000000E-01  0.0000000000E+00
                      -8.6602540378E-01  5.0000000000E-01  0.0000000000E+00
                       0.0000000000E+00  0.0000000000E+00  9.9990000000E-01
            rprim3     8.6602540378E-01  5.0000000000E-01  0.0000000000E+00
                      -8.6602540378E-01  5.0000000000E-01  0.0000000000E+00
                       0.0000000000E+00  0.0000000000E+00  1.0001000000E+00
            rprim4     8.6602540378E-01  5.0000000000E-01  0.0000000000E+00
                      -8.6602540378E-01  5.0000000000E-01  0.0000000000E+00
                       0.0000000000E+00  0.0000000000E+00  1.0001000000E+00
           shiftk      0.00000000E+00  0.00000000E+00  5.00000000E-01
          spgroup         186
           strten1    -7.2029748319E-08 -7.2029748317E-08 -6.1993807218E-07
                       0.0000000000E+00  0.0000000000E+00  0.0000000000E+00
           strten2    -7.2029760832E-08 -7.2029760830E-08 -6.1993808415E-07
                       0.0000000000E+00  0.0000000000E+00  0.0000000000E+00
           strten3     7.1338933897E-08  7.1338933899E-08  6.2125219634E-07
                       0.0000000000E+00  0.0000000000E+00  0.0000000000E+00
           strten4     7.1338951435E-08  7.1338951437E-08  6.2125220556E-07
                       0.0000000000E+00  0.0000000000E+00  0.0000000000E+00
           symrel      1  0  0   0  1  0   0  0  1       0  1  0   1  0  0   0  0  1
                       1  1  0  -1  0  0   0  0  1      -1  0  0   1  1  0   0  0  1
                       0  1  0  -1 -1  0   0  0  1      -1 -1  0   0  1  0   0  0  1
                      -1  0  0   0 -1  0   0  0  1       0 -1  0  -1  0  0   0  0  1
                      -1 -1  0   1  0  0   0  0  1       1  0  0  -1 -1  0   0  0  1
                       0 -1  0   1  1  0   0  0  1       1  1  0   0 -1  0   0  0  1
            tnons      0.0000000  0.0000000  0.0000000     0.0000000  0.0000000  0.5000000
                       0.0000000  0.0000000  0.5000000    -0.0000000  0.0000000  0.0000000
                       0.0000000  0.0000000  0.0000000     0.0000000 -0.0000000  0.5000000
                       0.0000000  0.0000000  0.5000000     0.0000000  0.0000000  0.0000000
                      -0.0000000  0.0000000  0.0000000     0.0000000  0.0000000  0.5000000
                       0.0000000 -0.0000000  0.5000000     0.0000000  0.0000000  0.0000000
           tolvrs      1.00000000E-18
            typat      1  1  2  2
              wtk1       0.03125    0.18750    0.09375    0.18750    0.03125    0.18750
                         0.09375    0.18750
              wtk2       0.01563    0.01563    0.01563    0.01563    0.01563    0.01563
                         0.01563    0.01563    0.01563    0.01563    0.01563    0.01563
                         0.01563    0.01563    0.01563    0.01563    0.01563    0.01563
                         0.01563    0.01563    0.01563    0.01563    0.01563    0.01563
                         0.01563    0.01563    0.01563    0.01563    0.01563    0.01563
                         0.01563    0.01563    0.01563    0.01563    0.01563    0.01563
                         0.01563    0.01563    0.01563    0.01563    0.01563    0.01563
                         0.01563    0.01563    0.01563    0.01563    0.01563    0.01563
                         0.01563    0.01563
              wtk3       0.03125    0.18750    0.09375    0.18750    0.03125    0.18750
                         0.09375    0.18750
              wtk4       0.01563    0.01563    0.01563    0.01563    0.01563    0.01563
                         0.01563    0.01563    0.01563    0.01563    0.01563    0.01563
                         0.01563    0.01563    0.01563    0.01563    0.01563    0.01563
                         0.01563    0.01563    0.01563    0.01563    0.01563    0.01563
                         0.01563    0.01563    0.01563    0.01563    0.01563    0.01563
                         0.01563    0.01563    0.01563    0.01563    0.01563    0.01563
                         0.01563    0.01563    0.01563    0.01563    0.01563    0.01563
                         0.01563    0.01563    0.01563    0.01563    0.01563    0.01563
                         0.01563    0.01563
                       outvars : Printing only first  50 k-points.
           xangst1    -1.1516545412E+00  1.9947241781E+00  0.0000000000E+00
                       1.1516545412E+00  1.9947241781E+00  3.2482398854E+00
                      -1.1516545412E+00  1.9947241781E+00  2.4432343357E+00
                       1.1516545412E+00  1.9947241781E+00  5.6914742211E+00
           xangst2    -1.1516545412E+00  1.9947241781E+00  0.0000000000E+00
                       1.1516545412E+00  1.9947241781E+00  3.2482398854E+00
                      -1.1516545412E+00  1.9947241781E+00  2.4432343357E+00
                       1.1516545412E+00  1.9947241781E+00  5.6914742211E+00
           xangst3    -1.1516545412E+00  1.9947241781E+00  0.0000000000E+00
                       1.1516545412E+00  1.9947241781E+00  3.2488895983E+00
                      -1.1516545412E+00  1.9947241781E+00  2.4437230314E+00
                       1.1516545412E+00  1.9947241781E+00  5.6926126297E+00
           xangst4    -1.1516545412E+00  1.9947241781E+00  0.0000000000E+00
                       1.1516545412E+00  1.9947241781E+00  3.2488895983E+00
                      -1.1516545412E+00  1.9947241781E+00  2.4437230314E+00
                       1.1516545412E+00  1.9947241781E+00  5.6926126297E+00
            xcart1    -2.1763116825E+00  3.7694824072E+00  0.0000000000E+00
                       2.1763116825E+00  3.7694824072E+00  6.1382837972E+00
                      -2.1763116825E+00  3.7694824072E+00  4.6170437729E+00
                       2.1763116825E+00  3.7694824072E+00  1.0755327570E+01
            xcart2    -2.1763116825E+00  3.7694824072E+00  0.0000000000E+00
                       2.1763116825E+00  3.7694824072E+00  6.1382837972E+00
                      -2.1763116825E+00  3.7694824072E+00  4.6170437729E+00
                       2.1763116825E+00  3.7694824072E+00  1.0755327570E+01
            xcart3    -2.1763116825E+00  3.7694824072E+00  0.0000000000E+00
                       2.1763116825E+00  3.7694824072E+00  6.1395115768E+00
                      -2.1763116825E+00  3.7694824072E+00  4.6179672740E+00
                       2.1763116825E+00  3.7694824072E+00  1.0757478851E+01
            xcart4    -2.1763116825E+00  3.7694824072E+00  0.0000000000E+00
                       2.1763116825E+00  3.7694824072E+00  6.1395115768E+00
                      -2.1763116825E+00  3.7694824072E+00  4.6179672740E+00
                       2.1763116825E+00  3.7694824072E+00  1.0757478851E+01
             xred      3.3333333333E-01  6.6666666667E-01  0.0000000000E+00
                       6.6666666667E-01  3.3333333333E-01  5.0000000000E-01
                       3.3333333333E-01  6.6666666667E-01  3.7608588373E-01
                       6.6666666667E-01  3.3333333333E-01  8.7608588373E-01
            znucl       13.00000   33.00000

================================================================================


- Timing analysis has been suppressed with timopt=0



================================================================================

 Suggested references for the acknowledgment of ABINIT usage.

 The users of ABINIT have little formal obligations with respect to the ABINIT group
 (those specified in the GNU General Public License, http://www.gnu.org/copyleft/gpl.txt).
 However, it is common practice in the scientific literature,
 to acknowledge the efforts of people that have made the research possible.
 In this spirit, please find below suggested citations of work written by ABINIT developers,
 corresponding to implementations inside of ABINIT that you have used in the present run.
 Note also that it will be of great value to readers of publications presenting these results,
 to read papers enabling them to understand the theoretical formalism and details
 of the ABINIT implementation.
 For information on why they are suggested, see also https://docs.abinit.org/theory/acknowledgments.
-
- [1] Recent developments in the ABINIT software package.
- Computer Phys. Comm. 205, 106 (2016).
- X.Gonze, F.Jollet, F.Abreu Araujo, D.Adams, B.Amadon, T.Applencourt,
- C.Audouze, J.-M.Beuken, J.Bieder, A.Bokhanchuk, E.Bousquet, F.Bruneval
- D.Caliste, M.Cote, F.Dahm, F.Da Pieve, M.Delaveau, M.Di Gennaro,
- B.Dorado, C.Espejo, G.Geneste, L.Genovese, A.Gerossier, M.Giantomassi,
- Y.Gillet, D.R.Hamann, L.He, G.Jomard, J.Laflamme Janssen, S.Le Roux,
- A.Levitt, A.Lherbier, F.Liu, I.Lukacevic, A.Martin, C.Martins,
- M.J.T.Oliveira, S.Ponce, Y.Pouillon, T.Rangel, G.-M.Rignanese,
- A.H.Romero, B.Rousseau, O.Rubel, A.A.Shukri, M.Stankovski, M.Torrent,
- M.J.Van Setten, B.Van Troeye, M.J.Verstraete, D.Waroquier, J.Wiktor,
- B.Xu, A.Zhou, J.W.Zwanziger.
- Comment: the fourth generic paper describing the ABINIT project.
- Note that a version of this paper, that is not formatted for Computer Phys. Comm. 
- is available at https://www.abinit.org/about/ABINIT16.pdf .
- The licence allows the authors to put it on the Web.
- DOI and bibtex: see https://docs.abinit.org/theory/bibliography/#gonze2016
-
- [2] ABINIT: First-principles approach of materials and nanosystem properties.
- Computer Phys. Comm. 180, 2582-2615 (2009).
- X. Gonze, B. Amadon, P.-M. Anglade, J.-M. Beuken, F. Bottin, P. Boulanger, F. Bruneval,
- D. Caliste, R. Caracas, M. Cote, T. Deutsch, L. Genovese, Ph. Ghosez, M. Giantomassi
- S. Goedecker, D.R. Hamann, P. Hermet, F. Jollet, G. Jomard, S. Leroux, M. Mancini, S. Mazevet,
- M.J.T. Oliveira, G. Onida, Y. Pouillon, T. Rangel, G.-M. Rignanese, D. Sangalli, R. Shaltaf,
- M. Torrent, M.J. Verstraete, G. Zerah, J.W. Zwanziger
- Comment: the third generic paper describing the ABINIT project.
- Note that a version of this paper, that is not formatted for Computer Phys. Comm. 
- is available at https://www.abinit.org/about/ABINIT_CPC_v10.pdf .
- The licence allows the authors to put it on the Web.
- DOI and bibtex: see https://docs.abinit.org/theory/bibliography/#gonze2009
-
- [3] A brief introduction to the ABINIT software package.
- Z. Kristallogr. 220, 558-562 (2005).
- X. Gonze, G.-M. Rignanese, M. Verstraete, J.-M. Beuken, Y. Pouillon, R. Caracas, F. Jollet,
- M. Torrent, G. Zerah, M. Mikami, Ph. Ghosez, M. Veithen, J.-Y. Raty, V. Olevano, F. Bruneval,
- L. Reining, R. Godby, G. Onida, D.R. Hamann, and D.C. Allan.
- Comment: the second generic paper describing the ABINIT project. Note that this paper
- should be cited especially if you are using the GW part of ABINIT, as several authors
- of this part are not in the list of authors of the first or third paper.
- The .pdf of the latter paper is available at https://www.abinit.org/about/zfk_0505-06_558-562.pdf.
- Note that it should not redistributed (Copyright by Oldenburg Wissenshaftverlag,
- the licence allows the authors to put it on the Web).
- DOI and bibtex: see https://docs.abinit.org/theory/bibliography/#gonze2005
-
- And optionally:
-
- [4] First-principles computation of material properties: the ABINIT software project. 
- X. Gonze, J.-M. Beuken, R. Caracas, F. Detraux, M. Fuchs, G.-M. Rignanese, L. Sindic,
- M. Verstraete, G. Zerah, F. Jollet, M. Torrent, A. Roy, M. Mikami, Ph. Ghosez, J.-Y. Raty, D.C. Allan.
- Computational Materials Science 25, 478-492 (2002). http://dx.doi.org/10.1016/S0927-0256(02)00325-7
- Comment: the original paper describing the ABINIT project.
- DOI and bibtex : see https://docs.abinit.org/theory/bibliography/#gonze2002
-
- Proc.   0 individual time (sec): cpu=         15.5  wall=         16.9

================================================================================

 Calculation completed.
.Delivered   6 WARNINGs and  13 COMMENTs to log file.
+Overall time at end (sec) : cpu=         15.5  wall=         16.9
