
.Version 9.3.3 of ABINIT 
.(MPI version, prepared for a x86_64_darwin18.7.0_gnu8.2 computer) 

.Copyright (C) 1998-2020 ABINIT group . 
 ABINIT comes with ABSOLUTELY NO WARRANTY.
 It is free software, and you are welcome to redistribute it
 under certain conditions (GNU General Public License,
 see ~abinit/COPYING or http://www.gnu.org/copyleft/gpl.txt).

 ABINIT is a project of the Universite Catholique de Louvain,
 Corning Inc. and other collaborators, see ~abinit/doc/developers/contributors.txt .
 Please read https://docs.abinit.org/theory/acknowledgments for suggested
 acknowledgments of the ABINIT effort.
 For more information, see https://www.abinit.org .

.Starting date : Tue 15 Dec 2020.
- ( at 23h36 )
  
- input  file    -> /Users/gmatteo/git_repos/abinit_rmms/_build/tests/Test_suite/tutorespfn_teph4isotc_1-teph4isotc_2-teph4isotc_3/teph4isotc_2.abi
- output file    -> teph4isotc_2.abo
- root for input  files -> teph4isotc_2i
- root for output files -> teph4isotc_2o


 DATASET    1 : space group P6/m m m (#191); Bravais hP (primitive hexag.)
================================================================================
 Values of the parameters that define the memory need for DATASET  1.
     intxc =       0    ionmov =       0      iscf =       7    lmnmax =       4
     lnmax =       4     mgfft =      24  mpssoang =       2    mqgrid =    3001
     natom =       3  nloc_mem =       1    nspden =       1   nspinor =       1
    nsppol =       1      nsym =      24    n1xccc =    2501    ntypat =       2
    occopt =       4   xclevel =       1
-    mband =           8        mffmem =           1         mkmem =         133
       mpw =        2211          nfft =        7776          nkpt =         133
================================================================================
P This job should need less than                      43.941 Mbytes of memory.
  Rough estimation (10% accuracy) of disk space for files :
_ WF disk file :     35.898 Mbytes ; DEN or POT disk file :      0.061 Mbytes.
================================================================================

--------------------------------------------------------------------------------
------------- Echo of variables that govern the present computation ------------
--------------------------------------------------------------------------------
-
- outvars: echo of selected default values                                      
-   iomode0 =  0 , fftalg0 =312 , wfoptalg0 =  0
-
- outvars: echo of global parameters not present in the input file              
-  max_nthreads =    0
-
 -outvars: echo values of preprocessed input variables --------
            acell      1.0000000000E+00  1.0000000000E+00  1.0000000000E+00 Bohr
              amu      2.43050000E+01  1.08110000E+01
        boxcutmin      1.10000000E+00
        ddb_ngqpt        4    4    4
           dipdip           0
             ecut      3.80000000E+01 Hartree
       eph_fsewin      1.10247976E-02 Hartree
       eph_fsmear     -1.00000000E+00 Hartree
      eph_intmeth           1
-          fftalg         312
           istwfk        2    0    0    0    0    0    3    0    0    0
                         0    0    0    0    0    0    0    0    0    0
                         0    0    0    0    0    0    0    0    0    0
                         0    0    0    0    0    0    0    0    0    0
                         0    0    0    0    0    0    0    0    0    0
                       outvar_i_n : Printing only first  50 k-points.
              ixc       -1012
           jdtset        1
              kpt      0.00000000E+00  0.00000000E+00  0.00000000E+00
                       8.33333333E-02  0.00000000E+00  0.00000000E+00
                       1.66666667E-01  0.00000000E+00  0.00000000E+00
                       2.50000000E-01  0.00000000E+00  0.00000000E+00
                       3.33333333E-01  0.00000000E+00  0.00000000E+00
                       4.16666667E-01  0.00000000E+00  0.00000000E+00
                       5.00000000E-01  0.00000000E+00  0.00000000E+00
                       8.33333333E-02  8.33333333E-02  0.00000000E+00
                       1.66666667E-01  8.33333333E-02  0.00000000E+00
                       2.50000000E-01  8.33333333E-02  0.00000000E+00
                       3.33333333E-01  8.33333333E-02  0.00000000E+00
                       4.16666667E-01  8.33333333E-02  0.00000000E+00
                       1.66666667E-01  1.66666667E-01  0.00000000E+00
                       2.50000000E-01  1.66666667E-01  0.00000000E+00
                       3.33333333E-01  1.66666667E-01  0.00000000E+00
                       4.16666667E-01  1.66666667E-01  0.00000000E+00
                       2.50000000E-01  2.50000000E-01  0.00000000E+00
                       3.33333333E-01  2.50000000E-01  0.00000000E+00
                       3.33333333E-01  3.33333333E-01  0.00000000E+00
                       0.00000000E+00  0.00000000E+00  8.33333333E-02
                       8.33333333E-02  0.00000000E+00  8.33333333E-02
                       1.66666667E-01  0.00000000E+00  8.33333333E-02
                       2.50000000E-01  0.00000000E+00  8.33333333E-02
                       3.33333333E-01  0.00000000E+00  8.33333333E-02
                       4.16666667E-01  0.00000000E+00  8.33333333E-02
                       5.00000000E-01  0.00000000E+00  8.33333333E-02
                       8.33333333E-02  8.33333333E-02  8.33333333E-02
                       1.66666667E-01  8.33333333E-02  8.33333333E-02
                       2.50000000E-01  8.33333333E-02  8.33333333E-02
                       3.33333333E-01  8.33333333E-02  8.33333333E-02
                       4.16666667E-01  8.33333333E-02  8.33333333E-02
                       1.66666667E-01  1.66666667E-01  8.33333333E-02
                       2.50000000E-01  1.66666667E-01  8.33333333E-02
                       3.33333333E-01  1.66666667E-01  8.33333333E-02
                       4.16666667E-01  1.66666667E-01  8.33333333E-02
                       2.50000000E-01  2.50000000E-01  8.33333333E-02
                       3.33333333E-01  2.50000000E-01  8.33333333E-02
                       3.33333333E-01  3.33333333E-01  8.33333333E-02
                       0.00000000E+00  0.00000000E+00  1.66666667E-01
                       8.33333333E-02  0.00000000E+00  1.66666667E-01
                       1.66666667E-01  0.00000000E+00  1.66666667E-01
                       2.50000000E-01  0.00000000E+00  1.66666667E-01
                       3.33333333E-01  0.00000000E+00  1.66666667E-01
                       4.16666667E-01  0.00000000E+00  1.66666667E-01
                       5.00000000E-01  0.00000000E+00  1.66666667E-01
                       8.33333333E-02  8.33333333E-02  1.66666667E-01
                       1.66666667E-01  8.33333333E-02  1.66666667E-01
                       2.50000000E-01  8.33333333E-02  1.66666667E-01
                       3.33333333E-01  8.33333333E-02  1.66666667E-01
                       4.16666667E-01  8.33333333E-02  1.66666667E-01
                       outvar_i_n : Printing only first  50 k-points.
         kptrlatt       12    0    0      0   12    0      0    0   12
          kptrlen      6.99803379E+01
          mixprec        1
P           mkmem         133
            natom           3
            nband           8
           ndtset           1
            ngfft          18      18      24
             nkpt         133
             nsym          24
           ntypat           2
              occ      2.000000  2.000000  2.000000  2.000000  0.000000  0.000000
                       0.000000  0.000000
                       2.000000  2.000000  2.000000  2.000000  0.000000  0.000000
                       0.000000  0.000000
                       2.000000  2.000000  2.000000  2.000000  0.000000  0.000000
                       0.000000  0.000000
                       2.000000  2.000000  2.000000  2.000000  0.000000  0.000000
                       0.000000  0.000000
                       2.000000  2.000000  2.000000  2.000000  0.000000  0.000000
                       0.000000  0.000000
                       2.000000  2.000000  2.000000  2.000000  0.000000  0.000000
                       0.000000  0.000000
                       2.000000  2.000000  2.000000  2.000000  0.000000  0.000000
                       0.000000  0.000000
                       2.000000  2.000000  2.000000  2.000000  0.000000  0.000000
                       0.000000  0.000000
                       2.000000  2.000000  2.000000  2.000000  0.000000  0.000000
                       0.000000  0.000000
                       2.000000  2.000000  2.000000  2.000000  0.000000  0.000000
                       0.000000  0.000000
                       2.000000  2.000000  2.000000  2.000000  0.000000  0.000000
                       0.000000  0.000000
                       2.000000  2.000000  2.000000  2.000000  0.000000  0.000000
                       0.000000  0.000000
                       2.000000  2.000000  2.000000  2.000000  0.000000  0.000000
                       0.000000  0.000000
                       2.000000  2.000000  2.000000  2.000000  0.000000  0.000000
                       0.000000  0.000000
                       2.000000  2.000000  2.000000  2.000000  0.000000  0.000000
                       0.000000  0.000000
                       2.000000  2.000000  2.000000  2.000000  0.000000  0.000000
                       0.000000  0.000000
                       2.000000  2.000000  2.000000  2.000000  0.000000  0.000000
                       0.000000  0.000000
                       2.000000  2.000000  2.000000  2.000000  0.000000  0.000000
                       0.000000  0.000000
                       2.000000  2.000000  2.000000  2.000000  0.000000  0.000000
                       0.000000  0.000000
                       2.000000  2.000000  2.000000  2.000000  0.000000  0.000000
                       0.000000  0.000000
                       2.000000  2.000000  2.000000  2.000000  0.000000  0.000000
                       0.000000  0.000000
                       2.000000  2.000000  2.000000  2.000000  0.000000  0.000000
                       0.000000  0.000000
                       2.000000  2.000000  2.000000  2.000000  0.000000  0.000000
                       0.000000  0.000000
                       2.000000  2.000000  2.000000  2.000000  0.000000  0.000000
                       0.000000  0.000000
                       2.000000  2.000000  2.000000  2.000000  0.000000  0.000000
                       0.000000  0.000000
                       2.000000  2.000000  2.000000  2.000000  0.000000  0.000000
                       0.000000  0.000000
                       2.000000  2.000000  2.000000  2.000000  0.000000  0.000000
                       0.000000  0.000000
                       2.000000  2.000000  2.000000  2.000000  0.000000  0.000000
                       0.000000  0.000000
                       2.000000  2.000000  2.000000  2.000000  0.000000  0.000000
                       0.000000  0.000000
                       2.000000  2.000000  2.000000  2.000000  0.000000  0.000000
                       0.000000  0.000000
                       2.000000  2.000000  2.000000  2.000000  0.000000  0.000000
                       0.000000  0.000000
                       2.000000  2.000000  2.000000  2.000000  0.000000  0.000000
                       0.000000  0.000000
                       2.000000  2.000000  2.000000  2.000000  0.000000  0.000000
                       0.000000  0.000000
                       2.000000  2.000000  2.000000  2.000000  0.000000  0.000000
                       0.000000  0.000000
                       2.000000  2.000000  2.000000  2.000000  0.000000  0.000000
                       0.000000  0.000000
                       2.000000  2.000000  2.000000  2.000000  0.000000  0.000000
                       0.000000  0.000000
                       2.000000  2.000000  2.000000  2.000000  0.000000  0.000000
                       0.000000  0.000000
                       2.000000  2.000000  2.000000  2.000000  0.000000  0.000000
                       0.000000  0.000000
                       2.000000  2.000000  2.000000  2.000000  0.000000  0.000000
                       0.000000  0.000000
                       2.000000  2.000000  2.000000  2.000000  0.000000  0.000000
                       0.000000  0.000000
                       2.000000  2.000000  2.000000  2.000000  0.000000  0.000000
                       0.000000  0.000000
                       2.000000  2.000000  2.000000  2.000000  0.000000  0.000000
                       0.000000  0.000000
                       2.000000  2.000000  2.000000  2.000000  0.000000  0.000000
                       0.000000  0.000000
                       2.000000  2.000000  2.000000  2.000000  0.000000  0.000000
                       0.000000  0.000000
                       2.000000  2.000000  2.000000  2.000000  0.000000  0.000000
                       0.000000  0.000000
                       2.000000  2.000000  2.000000  2.000000  0.000000  0.000000
                       0.000000  0.000000
                       2.000000  2.000000  2.000000  2.000000  0.000000  0.000000
                       0.000000  0.000000
                       2.000000  2.000000  2.000000  2.000000  0.000000  0.000000
                       0.000000  0.000000
                       2.000000  2.000000  2.000000  2.000000  0.000000  0.000000
                       0.000000  0.000000
                       2.000000  2.000000  2.000000  2.000000  0.000000  0.000000
                       0.000000  0.000000
                       prtocc : prtvol=0, do not print more k-points.
           occopt           4
        optdriver           7
        ph_nqpath           8
            rprim      5.0503958640E+00  2.9158474116E+00  0.0000000000E+00
                      -5.0503958640E+00  2.9158474116E+00  0.0000000000E+00
                       0.0000000000E+00  0.0000000000E+00  6.6575051400E+00
          spgroup         191
           symrel      1  0  0   0  1  0   0  0  1      -1  0  0   0 -1  0   0  0 -1
                       0  1  0   1  0  0   0  0  1       0 -1  0  -1  0  0   0  0 -1
                       1  1  0  -1  0  0   0  0  1      -1 -1  0   1  0  0   0  0 -1
                      -1  0  0   1  1  0   0  0  1       1  0  0  -1 -1  0   0  0 -1
                       0  1  0  -1 -1  0   0  0  1       0 -1  0   1  1  0   0  0 -1
                      -1 -1  0   0  1  0   0  0  1       1  1  0   0 -1  0   0  0 -1
                      -1  0  0   0 -1  0   0  0  1       1  0  0   0  1  0   0  0 -1
                       0 -1  0  -1  0  0   0  0  1       0  1  0   1  0  0   0  0 -1
                      -1 -1  0   1  0  0   0  0  1       1  1  0  -1  0  0   0  0 -1
                       1  0  0  -1 -1  0   0  0  1      -1  0  0   1  1  0   0  0 -1
                       0 -1  0   1  1  0   0  0  1       0  1  0  -1 -1  0   0  0 -1
                       1  1  0   0 -1  0   0  0  1      -1 -1  0   0  1  0   0  0 -1
           tsmear      2.00000000E-02 Hartree
            typat      1  2  2
              wtk        0.00058    0.00347    0.00347    0.00347    0.00347    0.00347
                         0.00174    0.00347    0.00694    0.00694    0.00694    0.00694
                         0.00347    0.00694    0.00694    0.00347    0.00347    0.00694
                         0.00116    0.00116    0.00694    0.00694    0.00694    0.00694
                         0.00694    0.00347    0.00694    0.01389    0.01389    0.01389
                         0.01389    0.00694    0.01389    0.01389    0.00694    0.00694
                         0.01389    0.00231    0.00116    0.00694    0.00694    0.00694
                         0.00694    0.00694    0.00347    0.00694    0.01389    0.01389
                         0.01389    0.01389
                       outvars : Printing only first  50 k-points.
           xangst      0.0000000000E+00  0.0000000000E+00  0.0000000000E+00
                      -8.9085146186E-01  1.5429999939E+00  1.7614999931E+00
                       8.9085146186E-01  1.5429999939E+00  1.7614999931E+00
            xcart      0.0000000000E+00  0.0000000000E+00  0.0000000000E+00
                      -1.6834652880E+00  2.9158474116E+00  3.3287525700E+00
                       1.6834652880E+00  2.9158474116E+00  3.3287525700E+00
             xred      0.0000000000E+00  0.0000000000E+00  0.0000000000E+00
                       3.3333333333E-01  6.6666666667E-01  5.0000000000E-01
                       6.6666666667E-01  3.3333333333E-01  5.0000000000E-01
            znucl       12.00000    5.00000

================================================================================

 chkinp: Checking input parameters for consistency, jdtset=   1.

================================================================================
== DATASET  1 ==================================================================
-   mpi_nproc: 1, omp_nthreads: -1 (-1 if OMP is not activated)


--- !DatasetInfo
iteration_state: {dtset: 1, }
dimensions: {natom: 3, nkpt: 133, mband: 8, nsppol: 1, nspinor: 1, nspden: 1, mpw: 2211, }
cutoff_energies: {ecut:  38.0, pawecutdg:  -1.0, }
electrons: {nelect:   8.00000000E+00, charge:   0.00000000E+00, occopt:   4.00000000E+00, tsmear:   2.00000000E-02, }
meta: {optdriver: 7, eph_task: 1, }
...

 mkfilename: getwfk from: MgB2_eph4isotc/flow_mgb2_phonons/w0/t0/outdata/out_WFK.nc

 mkfilename: getddb from: MgB2_eph4isotc/flow_mgb2_phonons/w1/outdata/out_DDB

 mkfilename: getdvdb from: teph4isotc_1_DVDB

- Reading GS states from WFK file: MgB2_eph4isotc/flow_mgb2_phonons/w0/t0/outdata/out_WFK.nc
- Reading DDB from file: MgB2_eph4isotc/flow_mgb2_phonons/w1/outdata/out_DDB
- Reading DVDB from file: teph4isotc_1_DVDB



 Real(R)+Recip(G) space primitive vectors, cartesian coordinates (Bohr,Bohr^-1):
 R(1)=  5.0503959  2.9158474  0.0000000  G(1)=  0.0990021  0.1714767  0.0000000
 R(2)= -5.0503959  2.9158474  0.0000000  G(2)= -0.0990021  0.1714767  0.0000000
 R(3)=  0.0000000  0.0000000  6.6575051  G(3)=  0.0000000  0.0000000  0.1502064
 Unit cell volume ucvol=  1.9607929E+02 bohr^3
 Angles (23,13,12)=  9.00000000E+01  9.00000000E+01  1.20000000E+02 degrees
 Now the whole DDB is in central memory
- Cannot find dielectric tensor and Born effective charges in DDB file: MgB2_eph4isotc/flow_mgb2_phonons/w1/outdata/out_DDB
 Values initialized with zeros.
- Cannot find quadrupole tensor in DDB file: MgB2_eph4isotc/flow_mgb2_phonons/w1/outdata/out_DDB
 Values initialized with zeros.
       Homogeneous q point set in the B.Z.
 Grid q points  :       64
  1)   0.00000000E+00  0.00000000E+00  0.00000000E+00
  2)   2.50000000E-01  0.00000000E+00  0.00000000E+00
  3)   5.00000000E-01  0.00000000E+00  0.00000000E+00
  4)  -2.50000000E-01  0.00000000E+00  0.00000000E+00
  5)   0.00000000E+00  2.50000000E-01  0.00000000E+00
  6)   2.50000000E-01  2.50000000E-01  0.00000000E+00
  7)   5.00000000E-01  2.50000000E-01  0.00000000E+00
  8)  -2.50000000E-01  2.50000000E-01  0.00000000E+00
  9)   0.00000000E+00  5.00000000E-01  0.00000000E+00
 10)   2.50000000E-01  5.00000000E-01  0.00000000E+00
 11)   5.00000000E-01  5.00000000E-01  0.00000000E+00
 12)  -2.50000000E-01  5.00000000E-01  0.00000000E+00
 13)   0.00000000E+00 -2.50000000E-01  0.00000000E+00
 14)   2.50000000E-01 -2.50000000E-01  0.00000000E+00
 15)   5.00000000E-01 -2.50000000E-01  0.00000000E+00
 16)  -2.50000000E-01 -2.50000000E-01  0.00000000E+00
 17)   0.00000000E+00  0.00000000E+00  2.50000000E-01
 18)   2.50000000E-01  0.00000000E+00  2.50000000E-01
 19)   5.00000000E-01  0.00000000E+00  2.50000000E-01
 20)  -2.50000000E-01  0.00000000E+00  2.50000000E-01
 21)   0.00000000E+00  2.50000000E-01  2.50000000E-01
 22)   2.50000000E-01  2.50000000E-01  2.50000000E-01
 23)   5.00000000E-01  2.50000000E-01  2.50000000E-01
 24)  -2.50000000E-01  2.50000000E-01  2.50000000E-01
 25)   0.00000000E+00  5.00000000E-01  2.50000000E-01
 26)   2.50000000E-01  5.00000000E-01  2.50000000E-01
 27)   5.00000000E-01  5.00000000E-01  2.50000000E-01
 28)  -2.50000000E-01  5.00000000E-01  2.50000000E-01
 29)   0.00000000E+00 -2.50000000E-01  2.50000000E-01
 30)   2.50000000E-01 -2.50000000E-01  2.50000000E-01
 31)   5.00000000E-01 -2.50000000E-01  2.50000000E-01
 32)  -2.50000000E-01 -2.50000000E-01  2.50000000E-01
 33)   0.00000000E+00  0.00000000E+00  5.00000000E-01
 34)   2.50000000E-01  0.00000000E+00  5.00000000E-01
 35)   5.00000000E-01  0.00000000E+00  5.00000000E-01
 36)  -2.50000000E-01  0.00000000E+00  5.00000000E-01
 37)   0.00000000E+00  2.50000000E-01  5.00000000E-01
 38)   2.50000000E-01  2.50000000E-01  5.00000000E-01
 39)   5.00000000E-01  2.50000000E-01  5.00000000E-01
 40)  -2.50000000E-01  2.50000000E-01  5.00000000E-01
 41)   0.00000000E+00  5.00000000E-01  5.00000000E-01
 42)   2.50000000E-01  5.00000000E-01  5.00000000E-01
 43)   5.00000000E-01  5.00000000E-01  5.00000000E-01
 44)  -2.50000000E-01  5.00000000E-01  5.00000000E-01
 45)   0.00000000E+00 -2.50000000E-01  5.00000000E-01
 46)   2.50000000E-01 -2.50000000E-01  5.00000000E-01
 47)   5.00000000E-01 -2.50000000E-01  5.00000000E-01
 48)  -2.50000000E-01 -2.50000000E-01  5.00000000E-01
 49)   0.00000000E+00  0.00000000E+00 -2.50000000E-01
 50)   2.50000000E-01  0.00000000E+00 -2.50000000E-01
 51)   5.00000000E-01  0.00000000E+00 -2.50000000E-01
 52)  -2.50000000E-01  0.00000000E+00 -2.50000000E-01
 53)   0.00000000E+00  2.50000000E-01 -2.50000000E-01
 54)   2.50000000E-01  2.50000000E-01 -2.50000000E-01
 55)   5.00000000E-01  2.50000000E-01 -2.50000000E-01
 56)  -2.50000000E-01  2.50000000E-01 -2.50000000E-01
 57)   0.00000000E+00  5.00000000E-01 -2.50000000E-01
 58)   2.50000000E-01  5.00000000E-01 -2.50000000E-01
 59)   5.00000000E-01  5.00000000E-01 -2.50000000E-01
 60)  -2.50000000E-01  5.00000000E-01 -2.50000000E-01
 61)   0.00000000E+00 -2.50000000E-01 -2.50000000E-01
 62)   2.50000000E-01 -2.50000000E-01 -2.50000000E-01
 63)   5.00000000E-01 -2.50000000E-01 -2.50000000E-01
 64)  -2.50000000E-01 -2.50000000E-01 -2.50000000E-01

 The interatomic forces have been obtained
 Average speed of sound partial sums:     0.3310080577E-02 (at units)
-                                   =           7.2414 [km/s]

 Debye frequency from partial sums:     0.2220811270E-02 (Ha)
-                                 =     0.1461223620E+02 (THz)
-Debye temperature from partial sums:     0.7012759015E+03 (K)

- Writing phonon DOS to netcdf file: teph4isotc_2o_DS1_PHDOS.nc

--- Pseudopotential description ------------------------------------------------
- pspini: atom type   1  psp file is /Users/gmatteo/git_repos/abinit_rmms/tests/Psps_for_tests/Pseudodojo_nc_sr_04_pw_standard_psp8/Mg-low.psp8
- pspatm: opening atomic psp file    /Users/gmatteo/git_repos/abinit_rmms/tests/Psps_for_tests/Pseudodojo_nc_sr_04_pw_standard_psp8/Mg-low.psp8
- Mg    ONCVPSP-3.3.0  r_core=   2.31813   2.10714
- 12.00000   2.00000    171101                znucl, zion, pspdat
    8   -1012    1    4       400   0.00000   pspcod,pspxc,lmax,lloc,mmax,r2well
    3.99000000000000    4.00000000000000    0.00000000000000   rchrg,fchrg,qchrg
     nproj     2     2
     extension_switch     1
  pspatm : epsatm=   -8.82287245
         --- l  ekb(1:nproj) -->
             0    6.239305    0.688626
             1    4.197993    0.757155
 pspatm: atomic psp has been read  and splines computed

- pspini: atom type   2  psp file is /Users/gmatteo/git_repos/abinit_rmms/tests/Psps_for_tests/Pseudodojo_nc_sr_04_pw_standard_psp8/B.psp8
- pspatm: opening atomic psp file    /Users/gmatteo/git_repos/abinit_rmms/tests/Psps_for_tests/Pseudodojo_nc_sr_04_pw_standard_psp8/B.psp8
- B     ONCVPSP-3.3.0  r_core=   1.20849   1.20849
-  5.00000   3.00000    171101                znucl, zion, pspdat
    8   -1012    1    4       600   0.00000   pspcod,pspxc,lmax,lloc,mmax,r2well
    5.99000000000000    2.90000000000000    0.00000000000000   rchrg,fchrg,qchrg
     nproj     2     2
     extension_switch     1
  pspatm : epsatm=    3.19369224
         --- l  ekb(1:nproj) -->
             0    8.437831    1.245441
             1   -3.670611   -0.766497
 pspatm: atomic psp has been read  and splines computed

  -1.94839037E+01                                ecore*ucvol(ha*bohr**3)
--------------------------------------------------------------------------------



 Linear tetrahedron method.
 Mesh step:  10.0 (meV) with npts: 2757
 From emin:  -5.1 to emax:  22.5 (eV)
 Number of k-points in the IBZ: 133
 Fermi level:   7.63392108E+00 (eV)
 Total electron DOS at Fermi level in states/eV:   7.36154553E-01
 Total number of electrons at eF:    8.0

- Writing electron DOS to file: teph4isotc_2o_DS1_EDOS 

 ==== Fermi surface info ====
 FS integration done with adaptive gaussian method
 Total number of k-points in the full mesh: 1728
 For spin: 1
    Number of BZ k-points close to the Fermi surface: 291 [ 16.8 %]
    Maximum number of bands crossing the Fermi level: 3
    min band: 3
    Max band: 5

 q-point =    0.000000E+00    0.000000E+00    0.000000E+00
 Mode number    Frequency (Ha)  Linewidth (Ha)  Lambda(q,n)
    1        0.000000E+00    0.000000E+00    0.000000E+00
    2        0.000000E+00    0.000000E+00    0.000000E+00
    3        0.000000E+00    0.000000E+00    0.000000E+00
    4        1.444402E-03    4.898804E-07    3.731164E-03
    5        1.444402E-03    4.898804E-07    3.731164E-03
    6        1.674636E-03    2.955247E-15    1.674492E-11
    7        2.426616E-03    1.025439E-03    2.767185E+00
    8        2.426616E-03    1.025439E-03    2.767185E+00
    9        3.127043E-03    3.508418E-08    5.701304E-05

 q-point =    2.500000E-01    0.000000E+00    0.000000E+00
 Mode number    Frequency (Ha)  Linewidth (Ha)  Lambda(q,n)
    1        7.237844E-04    1.612089E-15    4.889912E-11
    2        8.965423E-04    7.083535E-07    1.400357E-02
    3        1.194306E-03    8.463091E-08    9.428194E-04
    4        1.596353E-03    3.181247E-15    1.983673E-11
    5        1.760701E-03    2.959816E-06    1.517135E-02
    6        2.246875E-03    1.108415E-06    3.488792E-03
    7        2.956425E-03    3.216424E-05    5.847497E-02
    8        2.970940E-03    3.652198E-15    6.575018E-12
    9        3.050800E-03    3.574687E-05    6.102967E-02

 q-point =    5.000000E-01    0.000000E+00    0.000000E+00
 Mode number    Frequency (Ha)  Linewidth (Ha)  Lambda(q,n)
    1        1.098969E-03    9.614800E-09    1.265028E-04
    2        1.101708E-03    1.616954E-07    2.116875E-03
    3        1.438751E-03    5.232054E-06    4.016350E-02
    4        1.880495E-03    1.104715E-05    4.964051E-02
    5        2.076873E-03    1.193906E-05    4.398258E-02
    6        2.226540E-03    2.320177E-05    7.436876E-02
    7        3.128503E-03    4.655737E-07    7.558675E-04
    8        3.175605E-03    9.505319E-07    1.497767E-03
    9        3.386380E-03    1.364680E-04    1.890993E-01

 q-point =    2.500000E-01    2.500000E-01    0.000000E+00
 Mode number    Frequency (Ha)  Linewidth (Ha)  Lambda(q,n)
    1        1.080363E-03    6.455984E-08    8.789278E-04
    2        1.156637E-03    4.009254E-06    4.762112E-02
    3        1.356728E-03    5.192311E-07    4.482348E-03
    4        1.708710E-03    3.615651E-07    1.967798E-03
    5        2.472429E-03    4.934387E-06    1.282674E-02
    6        2.539647E-03    6.781966E-06    1.670857E-02
    7        2.842878E-03    4.042394E-06    7.947902E-03
    8        3.323619E-03    5.890872E-07    8.473982E-04
    9        3.477157E-03    7.902480E-06    1.038593E-02

 q-point =    0.000000E+00    0.000000E+00    2.500000E-01
 Mode number    Frequency (Ha)  Linewidth (Ha)  Lambda(q,n)
    1        5.147952E-04    7.020841E-07    4.209695E-02
    2        5.147952E-04    7.020841E-07    4.209695E-02
    3        8.957056E-04    4.351059E-06    8.617769E-02
    4        1.318238E-03    1.339241E-06    1.224621E-02
    5        1.318238E-03    1.339241E-06    1.224621E-02
    6        1.716861E-03    5.799123E-06    3.126240E-02
    7        2.333673E-03    6.296271E-04    1.837105E+00
    8        2.333673E-03    6.296271E-04    1.837105E+00
    9        3.034537E-03    1.078731E-08    1.861482E-05

 q-point =    2.500000E-01    0.000000E+00    2.500000E-01
 Mode number    Frequency (Ha)  Linewidth (Ha)  Lambda(q,n)
    1        9.724732E-04    1.773530E-08    2.979982E-04
    2        9.740461E-04    1.861502E-07    3.117705E-03
    3        1.232610E-03    5.015923E-08    5.246017E-04
    4        1.708482E-03    4.920080E-08    2.678441E-04
    5        1.717518E-03    5.411406E-07    2.914996E-03
    6        2.253640E-03    4.013634E-07    1.255739E-03
    7        2.857062E-03    5.771966E-06    1.123608E-02
    8        2.939371E-03    6.306622E-06    1.159895E-02
    9        3.152921E-03    4.246735E-05    6.788277E-02

 q-point =    5.000000E-01    0.000000E+00    2.500000E-01
 Mode number    Frequency (Ha)  Linewidth (Ha)  Lambda(q,n)
    1        1.107692E-03    4.824009E-07    6.247422E-03
    2        1.130000E-03    5.537211E-08    6.890724E-04
    3        1.393578E-03    1.481244E-06    1.211977E-02
    4        2.028730E-03    8.132037E-06    3.139652E-02
    5        2.082105E-03    1.178745E-06    4.320611E-03
    6        2.281875E-03    2.435107E-05    7.431302E-02
    7        3.157827E-03    3.971688E-07    6.328910E-04
    8        3.247549E-03    1.451929E-07    2.187582E-04
    9        3.390216E-03    1.136462E-05    1.571197E-02

 q-point =    2.500000E-01    2.500000E-01    2.500000E-01
 Mode number    Frequency (Ha)  Linewidth (Ha)  Lambda(q,n)
    1        1.124538E-03    4.072545E-07    5.117385E-03
    2        1.178103E-03    3.286648E-07    3.762849E-03
    3        1.331635E-03    4.338158E-07    3.887454E-03
    4        1.883209E-03    4.672299E-06    2.093457E-02
    5        2.473968E-03    5.526688E-06    1.434852E-02
    6        2.543947E-03    8.083354E-08    1.984751E-04
    7        2.852219E-03    9.227946E-08    1.802477E-04
    8        3.273746E-03    2.301415E-07    3.412207E-04
    9        3.510010E-03    3.686830E-07    4.755178E-04

 q-point =    0.000000E+00    0.000000E+00    5.000000E-01
 Mode number    Frequency (Ha)  Linewidth (Ha)  Lambda(q,n)
    1        9.602792E-04    1.944029E-06    3.349949E-02
    2        9.602792E-04    1.944029E-06    3.349949E-02
    3        9.719371E-04    1.521193E-09    2.558812E-05
    4        9.719371E-04    1.521193E-09    2.558812E-05
    5        1.321742E-03    3.085107E-05    2.806127E-01
    6        1.658837E-03    3.397891E-06    1.962151E-02
    7        2.094124E-03    8.237971E-04    2.985012E+00
    8        2.094124E-03    8.237971E-04    2.985012E+00
    9        2.815751E-03    1.638557E-10    3.284004E-07

 q-point =    2.500000E-01    0.000000E+00    5.000000E-01
 Mode number    Frequency (Ha)  Linewidth (Ha)  Lambda(q,n)
    1        1.052581E-03    2.732729E-08    3.919364E-04
    2        1.138941E-03    6.738797E-08    8.254866E-04
    3        1.227407E-03    2.333658E-06    2.461446E-02
    4        1.668533E-03    1.188794E-06    6.785274E-03
    5        1.794636E-03    2.047929E-07    1.010398E-03
    6        2.260158E-03    7.616852E-06    2.369347E-02
    7        2.832421E-03    3.605836E-06    7.142013E-03
    8        2.947008E-03    1.157583E-05    2.117970E-02
    9        3.210153E-03    7.926393E-05    1.222235E-01

 q-point =    5.000000E-01    0.000000E+00    5.000000E-01
 Mode number    Frequency (Ha)  Linewidth (Ha)  Lambda(q,n)
    1        1.113166E-03    2.141010E-07    2.745550E-03
    2        1.154295E-03    1.193394E-07    1.423249E-03
    3        1.364368E-03    1.950607E-06    1.665087E-02
    4        2.087408E-03    3.911934E-07    1.426616E-03
    5        2.133413E-03    6.741518E-06    2.353631E-02
    6        2.335951E-03    1.723896E-05    5.020120E-02
    7        3.181130E-03    1.506834E-06    2.366101E-03
    8        3.295781E-03    6.501289E-07    9.510718E-04
    9        3.392392E-03    3.221654E-05    4.448334E-02

 q-point =    2.500000E-01    2.500000E-01    5.000000E-01
 Mode number    Frequency (Ha)  Linewidth (Ha)  Lambda(q,n)
    1        1.165203E-03    5.424376E-07    6.348589E-03
    2        1.204197E-03    1.141817E-07    1.251215E-03
    3        1.307685E-03    2.786222E-07    2.589046E-03
    4        2.000954E-03    2.219036E-06    8.806845E-03
    5        2.472797E-03    1.948266E-06    5.062928E-03
    6        2.542534E-03    1.207784E-05    2.968836E-02
    7        2.867109E-03    2.012898E-06    3.891023E-03
    8        3.183165E-03    2.316937E-06    3.633510E-03
    9        3.528668E-03    3.961135E-05    5.055084E-02

 lambda=   0.4286

== END DATASET(S) ==============================================================
================================================================================
  
 -outvars: echo values of variables after computation  --------
            acell      1.0000000000E+00  1.0000000000E+00  1.0000000000E+00 Bohr
              amu      2.43050000E+01  1.08110000E+01
        boxcutmin      1.10000000E+00
        ddb_ngqpt        4    4    4
           dipdip           0
             ecut      3.80000000E+01 Hartree
       eph_fsewin      1.10247976E-02 Hartree
       eph_fsmear     -1.00000000E+00 Hartree
      eph_intmeth           1
           etotal1     0.0000000000E+00
            fcart1     0.0000000000E+00  0.0000000000E+00  0.0000000000E+00
                       0.0000000000E+00  0.0000000000E+00  0.0000000000E+00
                       0.0000000000E+00  0.0000000000E+00  0.0000000000E+00
-          fftalg         312
              ixc       -1012
           jdtset        1
         kptrlatt       12    0    0      0   12    0      0    0   12
          kptrlen      6.99803379E+01
          mixprec        1
P           mkmem         133
            natom           3
            nband           8
           ndtset           1
            ngfft          18      18      24
             nkpt         133
             nsym          24
           ntypat           2
              occ      2.000000  2.000000  2.000000  2.000000  0.000000  0.000000
                       0.000000  0.000000
                       2.000000  2.000000  2.000000  2.000000  0.000000  0.000000
                       0.000000  0.000000
                       2.000000  2.000000  2.000000  2.000000  0.000000  0.000000
                       0.000000  0.000000
                       2.000000  2.000000  2.000000  2.000000  0.000000  0.000000
                       0.000000  0.000000
                       2.000000  2.000000  2.000000  2.000000  0.000000  0.000000
                       0.000000  0.000000
                       2.000000  2.000000  2.000000  2.000000  0.000000  0.000000
                       0.000000  0.000000
                       2.000000  2.000000  2.000000  2.000000  0.000000  0.000000
                       0.000000  0.000000
                       2.000000  2.000000  2.000000  2.000000  0.000000  0.000000
                       0.000000  0.000000
                       2.000000  2.000000  2.000000  2.000000  0.000000  0.000000
                       0.000000  0.000000
                       2.000000  2.000000  2.000000  2.000000  0.000000  0.000000
                       0.000000  0.000000
                       2.000000  2.000000  2.000000  2.000000  0.000000  0.000000
                       0.000000  0.000000
                       2.000000  2.000000  2.000000  2.000000  0.000000  0.000000
                       0.000000  0.000000
                       2.000000  2.000000  2.000000  2.000000  0.000000  0.000000
                       0.000000  0.000000
                       2.000000  2.000000  2.000000  2.000000  0.000000  0.000000
                       0.000000  0.000000
                       2.000000  2.000000  2.000000  2.000000  0.000000  0.000000
                       0.000000  0.000000
                       2.000000  2.000000  2.000000  2.000000  0.000000  0.000000
                       0.000000  0.000000
                       2.000000  2.000000  2.000000  2.000000  0.000000  0.000000
                       0.000000  0.000000
                       2.000000  2.000000  2.000000  2.000000  0.000000  0.000000
                       0.000000  0.000000
                       2.000000  2.000000  2.000000  2.000000  0.000000  0.000000
                       0.000000  0.000000
                       2.000000  2.000000  2.000000  2.000000  0.000000  0.000000
                       0.000000  0.000000
                       2.000000  2.000000  2.000000  2.000000  0.000000  0.000000
                       0.000000  0.000000
                       2.000000  2.000000  2.000000  2.000000  0.000000  0.000000
                       0.000000  0.000000
                       2.000000  2.000000  2.000000  2.000000  0.000000  0.000000
                       0.000000  0.000000
                       2.000000  2.000000  2.000000  2.000000  0.000000  0.000000
                       0.000000  0.000000
                       2.000000  2.000000  2.000000  2.000000  0.000000  0.000000
                       0.000000  0.000000
                       2.000000  2.000000  2.000000  2.000000  0.000000  0.000000
                       0.000000  0.000000
                       2.000000  2.000000  2.000000  2.000000  0.000000  0.000000
                       0.000000  0.000000
                       2.000000  2.000000  2.000000  2.000000  0.000000  0.000000
                       0.000000  0.000000
                       2.000000  2.000000  2.000000  2.000000  0.000000  0.000000
                       0.000000  0.000000
                       2.000000  2.000000  2.000000  2.000000  0.000000  0.000000
                       0.000000  0.000000
                       2.000000  2.000000  2.000000  2.000000  0.000000  0.000000
                       0.000000  0.000000
                       2.000000  2.000000  2.000000  2.000000  0.000000  0.000000
                       0.000000  0.000000
                       2.000000  2.000000  2.000000  2.000000  0.000000  0.000000
                       0.000000  0.000000
                       2.000000  2.000000  2.000000  2.000000  0.000000  0.000000
                       0.000000  0.000000
                       2.000000  2.000000  2.000000  2.000000  0.000000  0.000000
                       0.000000  0.000000
                       2.000000  2.000000  2.000000  2.000000  0.000000  0.000000
                       0.000000  0.000000
                       2.000000  2.000000  2.000000  2.000000  0.000000  0.000000
                       0.000000  0.000000
                       2.000000  2.000000  2.000000  2.000000  0.000000  0.000000
                       0.000000  0.000000
                       2.000000  2.000000  2.000000  2.000000  0.000000  0.000000
                       0.000000  0.000000
                       2.000000  2.000000  2.000000  2.000000  0.000000  0.000000
                       0.000000  0.000000
                       2.000000  2.000000  2.000000  2.000000  0.000000  0.000000
                       0.000000  0.000000
                       2.000000  2.000000  2.000000  2.000000  0.000000  0.000000
                       0.000000  0.000000
                       2.000000  2.000000  2.000000  2.000000  0.000000  0.000000
                       0.000000  0.000000
                       2.000000  2.000000  2.000000  2.000000  0.000000  0.000000
                       0.000000  0.000000
                       2.000000  2.000000  2.000000  2.000000  0.000000  0.000000
                       0.000000  0.000000
                       2.000000  2.000000  2.000000  2.000000  0.000000  0.000000
                       0.000000  0.000000
                       2.000000  2.000000  2.000000  2.000000  0.000000  0.000000
                       0.000000  0.000000
                       2.000000  2.000000  2.000000  2.000000  0.000000  0.000000
                       0.000000  0.000000
                       2.000000  2.000000  2.000000  2.000000  0.000000  0.000000
                       0.000000  0.000000
                       2.000000  2.000000  2.000000  2.000000  0.000000  0.000000
                       0.000000  0.000000
                       prtocc : prtvol=0, do not print more k-points.
           occopt           4
        optdriver           7
        ph_nqpath           8
            rprim      5.0503958640E+00  2.9158474116E+00  0.0000000000E+00
                      -5.0503958640E+00  2.9158474116E+00  0.0000000000E+00
                       0.0000000000E+00  0.0000000000E+00  6.6575051400E+00
          spgroup         191
           strten1     0.0000000000E+00  0.0000000000E+00  0.0000000000E+00
                       0.0000000000E+00  0.0000000000E+00  0.0000000000E+00
           symrel      1  0  0   0  1  0   0  0  1      -1  0  0   0 -1  0   0  0 -1
                       0  1  0   1  0  0   0  0  1       0 -1  0  -1  0  0   0  0 -1
                       1  1  0  -1  0  0   0  0  1      -1 -1  0   1  0  0   0  0 -1
                      -1  0  0   1  1  0   0  0  1       1  0  0  -1 -1  0   0  0 -1
                       0  1  0  -1 -1  0   0  0  1       0 -1  0   1  1  0   0  0 -1
                      -1 -1  0   0  1  0   0  0  1       1  1  0   0 -1  0   0  0 -1
                      -1  0  0   0 -1  0   0  0  1       1  0  0   0  1  0   0  0 -1
                       0 -1  0  -1  0  0   0  0  1       0  1  0   1  0  0   0  0 -1
                      -1 -1  0   1  0  0   0  0  1       1  1  0  -1  0  0   0  0 -1
                       1  0  0  -1 -1  0   0  0  1      -1  0  0   1  1  0   0  0 -1
                       0 -1  0   1  1  0   0  0  1       0  1  0  -1 -1  0   0  0 -1
                       1  1  0   0 -1  0   0  0  1      -1 -1  0   0  1  0   0  0 -1
           tsmear      2.00000000E-02 Hartree
            typat      1  2  2
           xangst      0.0000000000E+00  0.0000000000E+00  0.0000000000E+00
                      -8.9085146186E-01  1.5429999939E+00  1.7614999931E+00
                       8.9085146186E-01  1.5429999939E+00  1.7614999931E+00
            xcart      0.0000000000E+00  0.0000000000E+00  0.0000000000E+00
                      -1.6834652880E+00  2.9158474116E+00  3.3287525700E+00
                       1.6834652880E+00  2.9158474116E+00  3.3287525700E+00
             xred      0.0000000000E+00  0.0000000000E+00  0.0000000000E+00
                       3.3333333333E-01  6.6666666667E-01  5.0000000000E-01
                       6.6666666667E-01  3.3333333333E-01  5.0000000000E-01
            znucl       12.00000    5.00000

================================================================================


- Timing analysis has been suppressed with timopt=0



================================================================================

 Suggested references for the acknowledgment of ABINIT usage.

 The users of ABINIT have little formal obligations with respect to the ABINIT group
 (those specified in the GNU General Public License, http://www.gnu.org/copyleft/gpl.txt).
 However, it is common practice in the scientific literature,
 to acknowledge the efforts of people that have made the research possible.
 In this spirit, please find below suggested citations of work written by ABINIT developers,
 corresponding to implementations inside of ABINIT that you have used in the present run.
 Note also that it will be of great value to readers of publications presenting these results,
 to read papers enabling them to understand the theoretical formalism and details
 of the ABINIT implementation.
 For information on why they are suggested, see also https://docs.abinit.org/theory/acknowledgments.
-
- [1] Libxc: A library of exchange and correlation functionals for density functional theory.
- M.A.L. Marques, M.J.T. Oliveira, T. Burnus, Computer Physics Communications 183, 2227 (2012).
- Comment: to be cited when LibXC is used (negative value of ixc)
- Strong suggestion to cite this paper.
- DOI and bibtex: see https://docs.abinit.org/theory/bibliography/#marques2012
-
- [2] The Abinit project: Impact, environment and recent developments.
- Computer Phys. Comm. 248, 107042 (2020).
- X.Gonze, B. Amadon, G. Antonius, F.Arnardi, L.Baguet, J.-M.Beuken,
- J.Bieder, F.Bottin, J.Bouchet, E.Bousquet, N.Brouwer, F.Bruneval,
- G.Brunin, T.Cavignac, J.-B. Charraud, Wei Chen, M.Cote, S.Cottenier,
- J.Denier, G.Geneste, Ph.Ghosez, M.Giantomassi, Y.Gillet, O.Gingras,
- D.R.Hamann, G.Hautier, Xu He, N.Helbig, N.Holzwarth, Y.Jia, F.Jollet,
- W.Lafargue-Dit-Hauret, K.Lejaeghere, M.A.L.Marques, A.Martin, C.Martins,
- H.P.C. Miranda, F.Naccarato, K. Persson, G.Petretto, V.Planes, Y.Pouillon,
- S.Prokhorenko, F.Ricci, G.-M.Rignanese, A.H.Romero, M.M.Schmitt, M.Torrent,
- M.J.van Setten, B.Van Troeye, M.J.Verstraete, G.Zerah and J.W.Zwanzig
- Comment: the fifth generic paper describing the ABINIT project.
- Note that a version of this paper, that is not formatted for Computer Phys. Comm. 
- is available at https://www.abinit.org/sites/default/files/ABINIT20.pdf .
- The licence allows the authors to put it on the Web.
- DOI and bibtex: see https://docs.abinit.org/theory/bibliography/#gonze2020
-
- [3] Optimized norm-conserving Vanderbilt pseudopotentials.
- D.R. Hamann, Phys. Rev. B 88, 085117 (2013).
- Comment: Some pseudopotential generated using the ONCVPSP code were used.
- DOI and bibtex: see https://docs.abinit.org/theory/bibliography/#hamann2013
-
- [4] ABINIT: Overview, and focus on selected capabilities
- J. Chem. Phys. 152, 124102 (2020).
- A. Romero, D.C. Allan, B. Amadon, G. Antonius, T. Applencourt, L.Baguet,
- J.Bieder, F.Bottin, J.Bouchet, E.Bousquet, F.Bruneval,
- G.Brunin, D.Caliste, M.Cote,
- J.Denier, C. Dreyer, Ph.Ghosez, M.Giantomassi, Y.Gillet, O.Gingras,
- D.R.Hamann, G.Hautier, F.Jollet, G. Jomard,
- A.Martin, 
- H.P.C. Miranda, F.Naccarato, G.Petretto, N.A. Pike, V.Planes,
- S.Prokhorenko, T. Rangel, F.Ricci, G.-M.Rignanese, M.Royo, M.Stengel, M.Torrent,
- M.J.van Setten, B.Van Troeye, M.J.Verstraete, J.Wiktor, J.W.Zwanziger, and X.Gonze.
- Comment: a global overview of ABINIT, with focus on selected capabilities .
- Note that a version of this paper, that is not formatted for J. Chem. Phys 
- is available at https://www.abinit.org/sites/default/files/ABINIT20_JPC.pdf .
- The licence allows the authors to put it on the Web.
- DOI and bibtex: see https://docs.abinit.org/theory/bibliography/#romero2020
-
- [5] Recent developments in the ABINIT software package.
- Computer Phys. Comm. 205, 106 (2016).
- X.Gonze, F.Jollet, F.Abreu Araujo, D.Adams, B.Amadon, T.Applencourt,
- C.Audouze, J.-M.Beuken, J.Bieder, A.Bokhanchuk, E.Bousquet, F.Bruneval
- D.Caliste, M.Cote, F.Dahm, F.Da Pieve, M.Delaveau, M.Di Gennaro,
- B.Dorado, C.Espejo, G.Geneste, L.Genovese, A.Gerossier, M.Giantomassi,
- Y.Gillet, D.R.Hamann, L.He, G.Jomard, J.Laflamme Janssen, S.Le Roux,
- A.Levitt, A.Lherbier, F.Liu, I.Lukacevic, A.Martin, C.Martins,
- M.J.T.Oliveira, S.Ponce, Y.Pouillon, T.Rangel, G.-M.Rignanese,
- A.H.Romero, B.Rousseau, O.Rubel, A.A.Shukri, M.Stankovski, M.Torrent,
- M.J.Van Setten, B.Van Troeye, M.J.Verstraete, D.Waroquier, J.Wiktor,
- B.Xu, A.Zhou, J.W.Zwanziger.
- Comment: the fourth generic paper describing the ABINIT project.
- Note that a version of this paper, that is not formatted for Computer Phys. Comm. 
- is available at https://www.abinit.org/sites/default/files/ABINIT16.pdf .
- The licence allows the authors to put it on the Web.
- DOI and bibtex: see https://docs.abinit.org/theory/bibliography/#gonze2016
-
- Proc.   0 individual time (sec): cpu=         23.3  wall=         27.4

================================================================================

 Calculation completed.
.Delivered   3 WARNINGs and   2 COMMENTs to log file.
+Overall time at end (sec) : cpu=         23.3  wall=         27.4
- [ALL OK] MEMORY CONSUMPTION REPORT FOR C CODE:
-   There were 32 allocations and 32 deallocations in C code
- [ALL OK] MEMORY CONSUMPTION REPORT FOR FORTRAN CODE:
-   There were 2156059 allocations and 2156059 deallocations in Fortran
-   Remaining memory at the end of the calculation is 0
