 DIM-GROUP
 3  1
 PRIMVEC
 0.0000000000E+00   6.0921526139E+00   6.0921526139E+00
 6.0921526139E+00   0.0000000000E+00   6.0921526139E+00
 6.0921526139E+00   6.0921526139E+00   0.0000000000E+00
 PRIMCOORD
          54  1
        3    0.0000000000E+00    0.0000000000E+00    0.0000000000E+00
        9    2.0307175380E+00    2.0307175380E+00    2.0307175380E+00
        3    0.0000000000E+00    2.0307175380E+00    2.0307175380E+00
        9    2.0307175380E+00    4.0614350759E+00    4.0614350759E+00
        3    0.0000000000E+00    4.0614350759E+00    4.0614350759E+00
        9    2.0307175380E+00    6.0921526139E+00    6.0921526139E+00
        3    2.0307175380E+00    0.0000000000E+00    2.0307175380E+00
        9    4.0614350759E+00    2.0307175380E+00    4.0614350759E+00
        3    2.0307175380E+00    2.0307175380E+00    4.0614350759E+00
        9    4.0614350759E+00    4.0614350759E+00    6.0921526139E+00
        3    2.0307175380E+00    4.0614350759E+00    6.0921526139E+00
        9    4.0614350759E+00    6.0921526139E+00    8.1228701519E+00
        3    4.0614350759E+00    0.0000000000E+00    4.0614350759E+00
        9    6.0921526139E+00    2.0307175380E+00    6.0921526139E+00
        3    4.0614350759E+00    2.0307175380E+00    6.0921526139E+00
        9    6.0921526139E+00    4.0614350759E+00    8.1228701519E+00
        3    4.0614350759E+00    4.0614350759E+00    8.1228701519E+00
        9    6.0921526139E+00    6.0921526139E+00    1.0153587690E+01
        3    2.0307175380E+00    2.0307175380E+00    0.0000000000E+00
        9    4.0614350759E+00    4.0614350759E+00    2.0307175380E+00
        3    2.0307175380E+00    4.0614350759E+00    2.0307175380E+00
        9    4.0614350759E+00    6.0921526139E+00    4.0614350759E+00
        3    2.0307175380E+00    6.0921526139E+00    4.0614350759E+00
        9    4.0614350759E+00    8.1228701519E+00    6.0921526139E+00
        3    4.0614350759E+00    2.0307175380E+00    2.0307175380E+00
        9    6.0921526139E+00    4.0614350759E+00    4.0614350759E+00
        3    4.0614350759E+00    4.0614350759E+00    4.0614350759E+00
        9    6.0921526139E+00    6.0921526139E+00    6.0921526139E+00
        3    4.0614350759E+00    6.0921526139E+00    6.0921526139E+00
        9    6.0921526139E+00    8.1228701519E+00    8.1228701519E+00
        3    6.0921526139E+00    2.0307175380E+00    4.0614350759E+00
        9    8.1228701519E+00    4.0614350759E+00    6.0921526139E+00
        3    6.0921526139E+00    4.0614350759E+00    6.0921526139E+00
        9    8.1228701519E+00    6.0921526139E+00    8.1228701519E+00
        3    6.0921526139E+00    6.0921526139E+00    8.1228701519E+00
        9    8.1228701519E+00    8.1228701519E+00    1.0153587690E+01
        3    4.0614350759E+00    4.0614350759E+00    0.0000000000E+00
        9    6.0921526139E+00    6.0921526139E+00    2.0307175380E+00
        3    4.0614350759E+00    6.0921526139E+00    2.0307175380E+00
        9    6.0921526139E+00    8.1228701519E+00    4.0614350759E+00
        3    4.0614350759E+00    8.1228701519E+00    4.0614350759E+00
        9    6.0921526139E+00    1.0153587690E+01    6.0921526139E+00
        3    6.0921526139E+00    4.0614350759E+00    2.0307175380E+00
        9    8.1228701519E+00    6.0921526139E+00    4.0614350759E+00
        3    6.0921526139E+00    6.0921526139E+00    4.0614350759E+00
        9    8.1228701519E+00    8.1228701519E+00    6.0921526139E+00
        3    6.0921526139E+00    8.1228701519E+00    6.0921526139E+00
        9    8.1228701519E+00    1.0153587690E+01    8.1228701519E+00
        3    8.1228701519E+00    4.0614350759E+00    4.0614350759E+00
        9    1.0153587690E+01    6.0921526139E+00    6.0921526139E+00
        3    8.1228701519E+00    6.0921526139E+00    6.0921526139E+00
        9    1.0153587690E+01    8.1228701519E+00    8.1228701519E+00
        3    8.1228701519E+00    8.1228701519E+00    8.1228701519E+00
        9    1.0153587690E+01    1.0153587690E+01    1.0153587690E+01
 ATOMS
        3    0.0000000000E+00    0.0000000000E+00    0.0000000000E+00
        9    2.0307175380E+00    2.0307175380E+00    2.0307175380E+00
        3    0.0000000000E+00    2.0307175380E+00    2.0307175380E+00
        9    2.0307175380E+00    4.0614350759E+00    4.0614350759E+00
        3    0.0000000000E+00    4.0614350759E+00    4.0614350759E+00
        9    2.0307175380E+00    6.0921526139E+00    6.0921526139E+00
        3    2.0307175380E+00    0.0000000000E+00    2.0307175380E+00
        9    4.0614350759E+00    2.0307175380E+00    4.0614350759E+00
        3    2.0307175380E+00    2.0307175380E+00    4.0614350759E+00
        9    4.0614350759E+00    4.0614350759E+00    6.0921526139E+00
        3    2.0307175380E+00    4.0614350759E+00    6.0921526139E+00
        9    4.0614350759E+00    6.0921526139E+00    8.1228701519E+00
        3    4.0614350759E+00    0.0000000000E+00    4.0614350759E+00
        9    6.0921526139E+00    2.0307175380E+00    6.0921526139E+00
        3    4.0614350759E+00    2.0307175380E+00    6.0921526139E+00
        9    6.0921526139E+00    4.0614350759E+00    8.1228701519E+00
        3    4.0614350759E+00    4.0614350759E+00    8.1228701519E+00
        9    6.0921526139E+00    6.0921526139E+00    1.0153587690E+01
        3    2.0307175380E+00    2.0307175380E+00    0.0000000000E+00
        9    4.0614350759E+00    4.0614350759E+00    2.0307175380E+00
        3    2.0307175380E+00    4.0614350759E+00    2.0307175380E+00
        9    4.0614350759E+00    6.0921526139E+00    4.0614350759E+00
        3    2.0307175380E+00    6.0921526139E+00    4.0614350759E+00
        9    4.0614350759E+00    8.1228701519E+00    6.0921526139E+00
        3    4.0614350759E+00    2.0307175380E+00    2.0307175380E+00
        9    6.0921526139E+00    4.0614350759E+00    4.0614350759E+00
        3    4.0614350759E+00    4.0614350759E+00    4.0614350759E+00
        9    6.0921526139E+00    6.0921526139E+00    6.0921526139E+00
        3    4.0614350759E+00    6.0921526139E+00    6.0921526139E+00
        9    6.0921526139E+00    8.1228701519E+00    8.1228701519E+00
        3    6.0921526139E+00    2.0307175380E+00    4.0614350759E+00
        9    8.1228701519E+00    4.0614350759E+00    6.0921526139E+00
        3    6.0921526139E+00    4.0614350759E+00    6.0921526139E+00
        9    8.1228701519E+00    6.0921526139E+00    8.1228701519E+00
        3    6.0921526139E+00    6.0921526139E+00    8.1228701519E+00
        9    8.1228701519E+00    8.1228701519E+00    1.0153587690E+01
        3    4.0614350759E+00    4.0614350759E+00    0.0000000000E+00
        9    6.0921526139E+00    6.0921526139E+00    2.0307175380E+00
        3    4.0614350759E+00    6.0921526139E+00    2.0307175380E+00
        9    6.0921526139E+00    8.1228701519E+00    4.0614350759E+00
        3    4.0614350759E+00    8.1228701519E+00    4.0614350759E+00
        9    6.0921526139E+00    1.0153587690E+01    6.0921526139E+00
        3    6.0921526139E+00    4.0614350759E+00    2.0307175380E+00
        9    8.1228701519E+00    6.0921526139E+00    4.0614350759E+00
        3    6.0921526139E+00    6.0921526139E+00    4.0614350759E+00
        9    8.1228701519E+00    8.1228701519E+00    6.0921526139E+00
        3    6.0921526139E+00    8.1228701519E+00    6.0921526139E+00
        9    8.1228701519E+00    1.0153587690E+01    8.1228701519E+00
        3    8.1228701519E+00    4.0614350759E+00    4.0614350759E+00
        9    1.0153587690E+01    6.0921526139E+00    6.0921526139E+00
        3    8.1228701519E+00    6.0921526139E+00    6.0921526139E+00
        9    1.0153587690E+01    8.1228701519E+00    8.1228701519E+00
        3    8.1228701519E+00    8.1228701519E+00    8.1228701519E+00
        9    1.0153587690E+01    1.0153587690E+01    1.0153587690E+01
 BEGIN_BLOCK_DATAGRID3D
 datagrid
 DATAGRID_3D_DENSITY
          46          46          46
   0.0000000000000000        0.0000000000000000        0.0000000000000000     
   0.0000000000000000        6.0921526138923738        6.0921526138923738     
   6.0921526138923738        0.0000000000000000        6.0921526138923738     
   6.0921526138923738        6.0921526138923738        0.0000000000000000     
  1.68551878E-06  1.74900856E-06  1.89790080E-06  2.17689990E-06  2.62557023E-06  3.21073389E-06  3.36365724E-06  3.09938696E-06
  2.77955633E-06  1.89585364E-06  9.69060466E-07  5.52901156E-07  2.67879074E-07  1.35790657E-07  1.01087323E-07  3.27263407E-08
  2.03062225E-08  1.02548313E-07  1.56087808E-07  2.29204915E-07  2.02566866E-07  2.86048646E-07  3.05883702E-07  2.94535482E-07
  2.74236669E-07  2.48232539E-07  1.74259071E-07  7.43760893E-08  8.38129779E-08  6.52030119E-09  9.44835876E-12  2.53533611E-10
  6.59494575E-08  4.91930017E-08  4.91968102E-08  5.27657029E-08  1.51503876E-08  9.07637254E-09  6.01786156E-12  1.73782020E-08
  8.67484715E-08  1.39196302E-07  2.57654705E-07  1.45340522E-07  3.42360153E-07  1.68551878E-06
  3.51279383E-09  2.11188098E-08  8.39483789E-08  4.75187790E-07  1.16122089E-06  1.87473779E-06  2.10788744E-06  1.74274589E-06
  1.63240111E-06  1.42803447E-06  1.06492132E-06  6.10483653E-07  4.65713782E-07  3.86881283E-07  2.20147101E-07  1.15502040E-07
  4.77059003E-10  4.89178120E-08  9.56030917E-08  1.63096914E-07  1.96638140E-07  3.06892872E-07  3.70519700E-07  4.17161743E-07
  2.89851840E-07  2.48673672E-07  1.89899978E-07  9.60096216E-08  7.05459016E-08  6.16147577E-09  3.77080485E-12  4.91639351E-09
  3.02745384E-08  3.82880145E-08  5.81437796E-08  2.85977606E-08  7.07034298E-09  6.10901538E-11  2.05849346E-08  1.14540811E-07
  3.10329284E-07  5.34039145E-07  1.04267201E-06  1.00761736E-06  1.56591994E-07  3.51279383E-09
  1.60064144E-06  7.35497622E-07  1.70995776E-07  3.16051074E-10  1.48483451E-07  8.03887644E-07  1.11583540E-06  9.30558656E-07
  7.73037243E-07  7.61490696E-07  6.79274706E-07  3.80326469E-07  4.11550701E-07  3.64504359E-07  2.43615204E-07  6.95540550E-08
  1.24530173E-08  6.40205045E-08  1.47537918E-07  2.06519857E-07  3.04755673E-07  3.90386447E-07  3.86720103E-07  3.86434351E-07
  2.78175122E-07  2.87153767E-07  2.00630865E-07  9.59770503E-08  8.29908657E-08  2.29177051E-08  9.54968458E-14  5.10949283E-09
  1.90670129E-08  2.92635711E-08  2.17393055E-08  1.12136327E-08  1.32892781E-08  6.13269935E-10  9.42690903E-08  3.02371319E-07
  8.08031302E-07  1.54477652E-06  2.64158962E-06  3.68467181E-06  2.95357131E-06  1.60064144E-06
  5.06613696E-06  2.51068855E-06  1.05430206E-06  3.60633578E-07  2.01496597E-08  5.99073928E-08  3.16119610E-07  5.62769856E-07
  3.89150671E-07  4.04299016E-07  3.90768491E-07  2.06419955E-07  2.31612432E-07  1.51469948E-07  2.61224695E-08  2.47208720E-09
  3.42559119E-08  9.70017311E-08  1.61826264E-07  2.20848349E-07  3.83551679E-07  3.41507075E-07  3.32909565E-07  4.59939201E-07
  3.72931311E-07  2.90954034E-07  1.92765967E-07  7.49304832E-08  5.01336928E-08  1.68364789E-08  2.33036111E-13  1.02230722E-08
  2.55007144E-08  2.17524310E-08  1.17332215E-08  2.01598049E-09  2.98432123E-09  3.28660157E-08  2.35886461E-07  5.91094192E-07
  1.77428478E-06  3.33770208E-06  5.06624292E-06  6.63319634E-06  6.83524377E-06  5.06613696E-06
  7.51022799E-06  4.71770727E-06  2.37004247E-06  7.26660232E-07  2.02712371E-07  4.93432424E-08  2.20762555E-08  1.73498535E-07
  1.44346117E-07  2.37239291E-07  2.62492335E-07  1.43711304E-07  1.38529572E-07  5.49144232E-08  3.83155019E-09  2.33798425E-09
  5.32470850E-08  1.33643780E-07  1.87417442E-07  3.03081777E-07  4.38991208E-07  4.24767450E-07  4.41146312E-07  4.67857717E-07
  2.84607466E-07  2.53837783E-07  1.75697480E-07  4.41733761E-08  2.87090796E-08  1.02010747E-08  5.37729963E-13  1.27439161E-08
  2.45336018E-08  3.49702773E-08  1.54594986E-08  1.05241393E-09  4.02418376E-10  1.26406078E-07  4.29243556E-07  1.11929774E-06
  3.06637253E-06  5.99732630E-06  8.15970634E-06  9.07406320E-06  9.57665452E-06  7.51022799E-06
  8.74231046E-06  6.20007859E-06  3.35651362E-06  1.22731535E-06  2.87541525E-07  1.00055054E-07  4.54324489E-09  4.49057715E-08
  3.79719935E-08  9.05410857E-08  8.86087719E-08  3.44598980E-08  3.34510624E-08  4.77998530E-09  1.36180633E-09  4.99323356E-08
  1.42468977E-07  1.89659460E-07  2.90878432E-07  3.18974571E-07  4.58442145E-07  4.32511342E-07  3.47841791E-07  3.99733864E-07
  2.98500510E-07  2.53796969E-07  1.26137820E-07  5.94129652E-08  3.01537710E-08  2.84755308E-09  6.40611425E-13  9.12913212E-09
  1.63159317E-08  2.01265173E-08  6.01994010E-09  1.85193649E-09  7.40621919E-09  2.07301269E-07  7.66513324E-07  1.86630439E-06
  4.19991920E-06  8.19356683E-06  1.07558253E-05  1.19089109E-05  1.13748629E-05  8.74231046E-06
  9.16838053E-06  6.18057038E-06  3.95437610E-06  1.76282038E-06  4.59806557E-07  1.79309751E-07  1.07667875E-08  2.65193223E-09
  2.47134668E-09  3.59180490E-08  2.50002188E-08  2.05680593E-08  1.21212951E-09  1.40342307E-08  1.81471584E-08  8.69444392E-08
  1.35824820E-07  2.19898595E-07  3.19189468E-07  3.26695670E-07  4.54312669E-07  3.61617680E-07  4.08009697E-07  4.34110575E-07
  2.83404120E-07  1.88124076E-07  8.92704719E-08  8.12052363E-08  2.16955627E-08  1.56447411E-09  9.29838671E-13  9.86223281E-09
  1.18979795E-08  8.86193963E-09  7.91632182E-09  4.16415702E-09  1.89928073E-08  2.81231081E-07  1.12871464E-06  2.53706094E-06
  5.11975895E-06  9.03282853E-06  1.25326233E-05  1.45133727E-05  1.26452587E-05  9.16838053E-06
  8.48148011E-06  5.26043777E-06  3.35684535E-06  1.71136367E-06  6.56780685E-07  2.14285947E-07  4.43933992E-08  6.26501029E-09
  4.58742866E-09  1.32429596E-08  1.60278439E-08  2.05201545E-08  2.45266274E-09  9.70792691E-09  1.86970510E-08  1.22271942E-07
  1.44547784E-07  2.27406403E-07  3.07358562E-07  3.26546370E-07  4.12567545E-07  4.16794052E-07  3.90076792E-07  3.03334929E-07
  3.34247034E-07  2.06356177E-07  9.29717245E-08  9.31873885E-08  2.70622706E-08  5.68300429E-09  1.22377195E-12  1.13749339E-08
  1.81684960E-08  1.91409661E-08  3.21415285E-08  5.37016032E-09  2.80456227E-08  2.16091436E-07  1.02948218E-06  2.96344388E-06
  6.08600385E-06  9.70194378E-06  1.28837128E-05  1.40736147E-05  1.21459589E-05  8.48148011E-06
  6.68567736E-06  4.09996119E-06  2.20583684E-06  1.07367850E-06  4.46169139E-07  1.79874121E-07  4.13632399E-08  1.68875136E-09
  1.89992938E-10  4.00050187E-10  7.84964021E-12  1.25527894E-10  6.28697849E-09  2.95165687E-08  6.60627038E-08  1.28731259E-07
  1.47167185E-07  2.07577145E-07  2.08652935E-07  2.45427373E-07  3.30877810E-07  3.25080748E-07  3.13624867E-07  3.65187702E-07
  3.84991949E-07  2.01093783E-07  1.00540525E-07  7.49290976E-08  3.11871347E-08  4.38699344E-09  3.16315962E-12  3.98899314E-09
  7.88088439E-09  1.24206281E-08  3.68847033E-08  9.98753524E-09  1.01635700E-09  6.39861923E-08  5.94953804E-07  2.26453290E-06
  5.35962135E-06  8.41912606E-06  1.06014459E-05  1.12029020E-05  9.39152415E-06  6.68567736E-06
  4.31542912E-06  2.80244535E-06  1.42780777E-06  7.12931865E-07  3.91016755E-07  1.43426305E-07  2.67019775E-08  1.30524418E-08
  8.24931856E-09  8.70432704E-09  5.32244249E-10  7.20909599E-09  6.09278672E-09  3.28502843E-08  2.34887434E-08  9.83225306E-08
  1.60450142E-07  1.53814639E-07  1.82242559E-07  2.28189066E-07  2.11789214E-07  2.92532377E-07  3.88745917E-07  2.80017105E-07
  2.91437999E-07  2.61469353E-07  9.13660969E-08  7.25795672E-08  3.42673268E-08  2.48177978E-10  7.60021473E-12  7.88421328E-09
  1.24011583E-08  1.94255563E-08  7.68083552E-08  9.41853671E-08  4.06367029E-08  7.41932960E-10  1.05486208E-07  8.94751906E-07
  2.81452594E-06  5.03578622E-06  7.45666375E-06  7.18757474E-06  5.36417065E-06  4.31542912E-06
  2.09579412E-06  1.52639780E-06  9.35846742E-07  4.97995586E-07  2.66667257E-07  8.07233462E-08  3.96477873E-08  6.70713884E-09
  1.29437776E-08  4.01128852E-10  9.38702782E-10  5.76190384E-09  9.57706092E-09  1.50648134E-08  2.54815173E-08  6.26518428E-08
  6.82602206E-08  1.14681505E-07  1.65017724E-07  1.76034121E-07  2.05495681E-07  3.23202471E-07  3.39899202E-07  2.81098124E-07
  4.49413818E-07  2.75584398E-07  8.18666663E-08  1.11517423E-07  3.16596065E-08  5.13243803E-09  2.03896362E-11  2.22036149E-08
  2.00047356E-08  5.36326645E-08  1.72435207E-07  2.95780126E-07  2.49764270E-07  1.81705673E-07  3.68102775E-08  1.28758515E-07
  6.37448807E-07  1.90742185E-06  3.54754434E-06  3.27328598E-06  2.61040282E-06  2.09579412E-06
  7.99481086E-07  7.70464453E-07  4.98758595E-07  2.56638458E-07  1.43599337E-07  6.40869118E-08  1.49908779E-08  1.34373410E-08
  4.21714175E-09  1.37583611E-10  1.65163083E-09  2.64172517E-10  6.54907417E-09  2.25108909E-08  5.03056352E-09  6.80068224E-09
  4.58346712E-08  7.55735741E-08  1.04735825E-07  2.31408208E-07  2.14816154E-07  2.63882441E-07  4.19082568E-07  3.92913705E-07
  3.68292888E-07  1.73636224E-07  1.16573702E-07  1.05108036E-07  3.54630743E-08  1.71476646E-08  6.59880206E-11  7.85727386E-11
  4.40951808E-09  6.84723531E-08  2.46988122E-07  5.54102428E-07  8.40273231E-07  1.08971972E-06  6.02739703E-07  1.39627844E-07
  3.23513466E-10  2.29029112E-07  7.33892705E-07  1.17974218E-06  1.04673529E-06  7.99481086E-07
  3.21389081E-07  4.12015197E-07  4.45745513E-07  2.36623308E-07  1.68172491E-07  7.77330555E-08  6.28293373E-09  1.53862008E-08
  9.59554303E-09  4.66292960E-09  1.26279454E-09  1.15547678E-08  1.34842712E-12  1.28023092E-09  8.33203895E-10  6.44047704E-09
  1.91463005E-08  5.71295757E-08  1.60128963E-07  2.47245879E-07  1.99011282E-07  3.96411792E-07  4.60992538E-07  3.33120767E-07
  3.40485258E-07  2.31474630E-07  1.42748718E-07  4.14347276E-08  6.13102680E-09  1.32220887E-10  1.99496544E-10  9.47654311E-09
  5.11427636E-11  5.22971533E-08  3.05948475E-07  6.50858397E-07  1.36693814E-06  2.18289438E-06  1.88400452E-06  1.07500171E-06
  2.93353310E-07  4.50538558E-08  9.63563007E-09  1.83654862E-07  2.60578219E-07  3.21389081E-07
  5.46778267E-08  2.62167674E-07  3.63476744E-07  1.06574284E-07  1.73492538E-07  8.05460445E-08  1.80583584E-08  9.98562477E-09
  4.05472855E-09  1.82788409E-10  8.44650661E-09  1.19701760E-08  2.32129072E-08  4.34952767E-08  1.82352551E-08  5.30172315E-08
  2.61645727E-09  1.10977233E-07  1.62049034E-07  3.13852951E-07  4.83991357E-07  5.60182627E-07  5.06102140E-07  5.46536398E-07
  4.01874360E-07  2.18192554E-07  8.53225046E-08  2.33538588E-09  8.21908597E-10  1.59247582E-09  8.41528069E-10  4.86443845E-08
  5.95716649E-08  6.06431572E-09  1.70695358E-07  4.81844609E-07  1.31943580E-06  2.17897582E-06  2.55567693E-06  1.85379895E-06
  7.31546322E-07  3.34087076E-07  1.33923706E-07  4.84185403E-09  2.72554654E-08  5.46778267E-08
  6.69371447E-09  2.00452675E-07  1.86215686E-07  1.06047509E-07  1.69457564E-07  6.74549412E-08  4.54393856E-08  1.85346156E-08
  1.75633563E-10  7.61931140E-09  1.73265775E-08  2.62091397E-08  1.24953758E-07  1.38425932E-07  2.16865558E-07  9.00265533E-08
  3.07861328E-08  1.25835939E-07  3.19532973E-07  6.09133167E-07  6.32237629E-07  6.74213538E-07  7.88905652E-07  5.44440297E-07
  2.41219709E-07  1.27748933E-07  1.23777486E-08  2.98419067E-08  8.13281460E-08  6.33134363E-08  2.70622924E-09  2.62580727E-07
  3.85021849E-07  1.23144019E-07  8.01995248E-10  2.31620604E-07  7.56379563E-07  1.31955505E-06  1.96191172E-06  1.81987491E-06
  1.03928073E-06  6.13501868E-07  4.05356587E-07  1.40534809E-07  1.67231846E-08  6.69371447E-09
  1.80601312E-08  1.94426462E-07  3.54433155E-07  2.30265982E-07  1.41014425E-07  8.37441334E-08  3.11252215E-08  3.02463832E-09
  2.83952262E-09  3.05833794E-08  8.29974880E-08  1.40445394E-07  2.29596367E-07  3.54726097E-07  1.94907642E-07  1.81427513E-08
  4.20778719E-08  4.27001794E-07  6.96323013E-07  7.96483391E-07  1.09128700E-06  1.21926621E-06  9.01692999E-07  5.33617140E-07
  1.91431340E-07  4.07179013E-10  2.44749259E-07  8.94587515E-07  1.19472827E-06  5.41370298E-07  3.01305536E-09  6.60763192E-07
  1.25196539E-06  9.01817543E-07  2.44355533E-07  4.36553765E-10  1.88721813E-07  5.27455825E-07  8.91458058E-07  1.20700736E-06
  1.08205745E-06  7.90918932E-07  6.92640128E-07  4.25836731E-07  4.22550421E-08  1.80601312E-08
  4.76665685E-09  2.46491510E-07  4.22183774E-07  2.39334923E-07  2.56155488E-07  1.40365955E-07  4.05972926E-08  6.00672934E-09
  2.59590749E-09  9.47106429E-08  2.76256088E-07  2.22842814E-07  4.32552980E-07  3.88009965E-07  8.51013908E-08  3.15255511E-09
  3.83993694E-07  9.73177976E-07  1.10532119E-06  1.91583536E-06  2.15634759E-06  1.64343885E-06  1.20851212E-06  6.00295664E-07
  1.67501621E-08  1.04264939E-06  2.68453778E-06  4.38146708E-06  4.03326885E-06  1.57509862E-06  4.62761912E-10  1.23886696E-06
  2.54341580E-06  2.25526310E-06  1.52731491E-06  5.54963265E-07  7.17313675E-09  8.84950779E-08  3.30561278E-07  6.98398139E-07
  9.35288313E-07  7.80938933E-07  9.33730234E-07  5.87824786E-07  4.37876615E-08  4.76665685E-09
  4.39879138E-08  3.72893197E-07  4.47637916E-07  4.52101887E-07  3.53036882E-07  1.57487889E-07  3.60148604E-08  5.26367039E-09
  5.08023774E-08  2.74701335E-07  4.38880846E-07  4.29833563E-07  5.03415436E-07  1.38415302E-07  3.28023098E-09  2.54880462E-07
  1.08454594E-06  1.37353175E-06  2.49696745E-06  2.95424957E-06  2.87254670E-06  2.45320803E-06  1.07641824E-06  2.77460780E-13
  1.96802739E-06  6.29390343E-06  1.11560284E-05  1.31695133E-05  1.03135972E-05  3.46533943E-06  3.52967405E-10  1.87147634E-06
  4.35041829E-06  4.90507227E-06  4.17886031E-06  2.22181075E-06  5.37399956E-07  2.06009587E-09  9.31988637E-08  4.30256421E-07
  8.83631401E-07  7.44626846E-07  9.24621816E-07  4.26299124E-07  2.07026929E-08  4.39879138E-08
  2.67700443E-07  6.65751088E-07  8.17412285E-07  6.11930773E-07  3.69676286E-07  1.67533358E-07  2.59811772E-09  7.28096836E-08
  1.98529776E-07  4.88870398E-07  7.81302106E-07  6.93144329E-07  2.94880181E-07  1.74694890E-08  1.85253015E-07  1.09731320E-06
  1.80642951E-06  3.18490765E-06  3.81903055E-06  4.03141757E-06  4.77841422E-06  1.87067826E-06  2.42928733E-11  2.61077071E-06
  1.20501245E-05  2.69903012E-05  3.80167912E-05  3.59926016E-05  2.25567255E-05  5.68755331E-06  1.87500793E-09  2.98355371E-06
  7.62592572E-06  8.74925718E-06  7.42289194E-06  4.94188816E-06  1.73368119E-06  1.71905100E-07  5.13331825E-12  3.47615128E-07
  8.64493018E-07  7.58219642E-07  6.82609311E-07  1.49542245E-07  1.73676380E-08  2.67700443E-07
  6.47624347E-07  1.28540080E-06  1.18904973E-06  8.76124489E-07  5.14713520E-07  1.06878936E-07  8.14659729E-10  2.58911427E-07
  5.15482554E-07  9.21725700E-07  1.22112340E-06  6.22212724E-07  1.71007727E-07  5.66130716E-08  9.72824068E-07  2.17952538E-06
  3.98579459E-06  5.10663494E-06  4.99333100E-06  5.71542159E-06  2.59836293E-06  4.82453810E-09  4.10770690E-06  2.18885652E-05
  5.59684449E-05  8.90412412E-05  9.58164674E-05  7.72255371E-05  3.98722477E-05  8.81452524E-06  3.40016770E-09  4.73363480E-06
  1.13867818E-05  1.29167784E-05  1.05735589E-05  6.88684440E-06  2.57626834E-06  4.09644315E-07  2.30617928E-10  4.00859022E-07
  8.90992112E-07  7.64554954E-07  4.12947941E-07  1.13358665E-08  1.97064708E-07  6.47624347E-07
  1.69964471E-06  2.29978104E-06  1.76473247E-06  1.35560833E-06  2.90641026E-07  3.16506075E-08  7.61521974E-08  7.64616118E-07
  1.00008833E-06  1.67461098E-06  1.09772031E-06  4.09211822E-07  1.42419743E-09  8.71901364E-07  2.25469034E-06  4.26696761E-06
  5.70011025E-06  5.67502002E-06  5.54942062E-06  2.11228235E-06  1.03034644E-07  6.72599253E-06  3.71264032E-05  1.01971840E-04
  1.75291367E-04  2.13992244E-04  2.01723044E-04  1.46774997E-04  6.67645509E-05  1.42881490E-05  4.89270136E-09  6.54727364E-06
  1.52379762E-05  1.65151068E-05  1.17246846E-05  7.15744454E-06  2.61005334E-06  1.92440368E-07  7.18095450E-08  6.38979486E-07
  1.02968022E-06  6.15117983E-07  1.67129528E-07  1.19012796E-07  8.19245770E-07  1.69964471E-06
  3.47636637E-06  3.26627060E-06  2.63528364E-06  1.28564659E-06  1.25553669E-07  2.68763811E-09  5.21414506E-07  1.23834809E-06
  1.96653241E-06  2.13491353E-06  8.87829060E-07  2.32514296E-07  4.42543637E-07  2.35894322E-06  4.70003897E-06  6.84300221E-06
  6.00256726E-06  5.63153617E-06  1.88566855E-06  4.98253939E-07  1.10184819E-05  5.66900453E-05  1.59542280E-04  2.90360360E-04
  4.08737309E-04  4.53581277E-04  3.98184930E-04  2.54421524E-04  1.04605730E-04  2.13547864E-05  6.27275609E-09  7.96235872E-06
  1.78187420E-05  1.76860794E-05  1.17989684E-05  7.01303816E-06  1.83429484E-06  9.20960197E-09  2.75489867E-07  1.13240060E-06
  1.03006937E-06  3.91584763E-07  3.94784413E-11  8.68174880E-07  2.02458386E-06  3.47636637E-06
  5.30629222E-06  4.07500556E-06  2.99138856E-06  7.59925740E-07  5.58818201E-08  1.96216817E-07  1.51692677E-06  2.14449619E-06
  3.13759983E-06  1.96845826E-06  7.96436439E-07  2.25906440E-08  2.01554440E-06  4.86686031E-06  8.78982883E-06  7.29965313E-06
  5.18145771E-06  1.86266197E-06  1.07022868E-06  1.63123277E-05  7.52609849E-05  2.20156959E-04  4.19540098E-04  6.47694163E-04
  8.40153720E-04  8.69359646E-04  6.89146924E-04  3.90217348E-04  1.47668441E-04  2.71303325E-05  7.14581816E-09  8.39507902E-06
  1.78873033E-05  1.66768041E-05  1.07804990E-05  5.16019873E-06  6.27267582E-07  5.70812553E-08  8.16012346E-07  1.79870960E-06
  8.17237265E-07  1.11078592E-07  4.40377079E-07  2.42795522E-06  4.15434351E-06  5.30629222E-06
  6.58407271E-06  4.68192547E-06  2.36788696E-06  3.55036377E-07  7.28822780E-09  1.20383936E-06  2.60587944E-06  3.53798191E-06
  3.45863714E-06  1.68996132E-06  1.29281062E-07  1.26507075E-06  4.43943418E-06  9.38133871E-06  9.99496297E-06  5.75227523E-06
  2.21703590E-06  9.90692570E-07  1.96756646E-05  8.38201086E-05  2.56527273E-04  5.32859529E-04  8.81345535E-04  1.27064099E-03
  1.50499376E-03  1.41172518E-03  1.00452232E-03  5.16008295E-04  1.76655274E-04  2.89623604E-05  7.25774196E-09  7.98245128E-06
  1.54037480E-05  1.31516963E-05  7.68707287E-06  2.40138115E-06  2.09732054E-08  4.61551934E-07  1.92785342E-06  1.99131705E-06
  4.59915753E-07  6.30160173E-08  2.48503375E-06  5.42926500E-06  7.32035778E-06  6.58407271E-06
  6.98897111E-06  4.58750856E-06  1.52660868E-06  1.19393789E-07  3.67366198E-07  2.39513111E-06  3.84860550E-06  4.74871604E-06
  3.23364611E-06  1.00475040E-06  2.52763471E-07  3.50586924E-06  8.63755395E-06  1.30943408E-05  9.08748279E-06  4.21466302E-06
  8.16787065E-08  1.64585417E-05  7.77493624E-05  2.54028535E-04  5.78691892E-04  1.01376872E-03  1.57824147E-03  2.09628791E-03
  2.23625218E-03  1.88166311E-03  1.20913121E-03  5.67107578E-04  1.76923611E-04  2.71626686E-05  6.56285160E-09  6.61216973E-06
  1.15790690E-05  9.00530267E-06  4.41298971E-06  6.44817533E-07  1.48877206E-07  1.28606541E-06  2.71076851E-06  1.39186568E-06
  7.19683868E-08  1.06793016E-06  5.36229754E-06  8.47164301E-06  9.38910216E-06  6.98897111E-06
  6.55112262E-06  3.32554987E-06  5.52990514E-07  4.57187284E-08  1.59998547E-06  3.68740257E-06  5.26867325E-06  4.59886496E-06
  2.26657357E-06  9.25922308E-08  1.96876931E-06  6.95219524E-06  1.40663587E-05  1.40236170E-05  8.49490061E-06  1.40752195E-06
  6.32539150E-06  5.21242655E-05  1.99189351E-04  5.33203129E-04  1.00603630E-03  1.62261736E-03  2.35511689E-03  2.83438829E-03
  2.71739229E-03  2.06314912E-03  1.21070538E-03  5.17730135E-04  1.48404622E-04  2.15244145E-05  5.27135269E-09  4.81166398E-06
  7.80538630E-06  5.12856286E-06  1.66515724E-06  4.37697034E-09  7.34854439E-07  2.32135858E-06  2.27799069E-06  3.89791381E-07
  1.90690571E-07  3.21346693E-06  7.62728632E-06  1.06648122E-05  9.68672794E-06  6.55112262E-06
  5.57746034E-06  1.64446556E-06  3.50980223E-08  7.41212830E-07  3.01056934E-06  4.73259524E-06  5.49958395E-06  3.26029613E-06
  9.03626926E-07  4.79198889E-07  4.78535912E-06  1.14338636E-05  1.76396425E-05  1.37318530E-05  9.09247410E-06  4.70515175E-07
  1.42932367E-05  1.00585290E-04  3.68709356E-04  8.49227072E-04  1.45190128E-03  2.19526980E-03  2.90051289E-03  3.13740177E-03
  2.72133620E-03  1.88680470E-03  1.00869639E-03  3.92651127E-04  1.05589708E-04  1.45261520E-05  3.75746456E-09  3.04644936E-06
  4.50337075E-06  2.39752399E-06  2.84457002E-07  2.20469076E-07  1.41963335E-06  2.55969712E-06  1.01969999E-06  6.49929277E-11
  1.50235678E-06  5.69710528E-06  9.40623795E-06  1.10179599E-05  8.61260651E-06  5.57746034E-06
  3.78309164E-06  4.35319862E-07  1.65631292E-07  2.38763005E-06  4.14105989E-06  5.28101828E-06  4.18993432E-06  1.64716369E-06
  2.29558275E-08  2.41581211E-06  7.46475553E-06  1.66446353E-05  2.03319341E-05  1.90781975E-05  1.82836429E-05  3.78100253E-06
  7.80067239E-06  1.29123393E-04  5.33933751E-04  1.12367270E-03  1.76883512E-03  2.44856812E-03  2.90692062E-03  2.84460024E-03
  2.24801898E-03  1.42099464E-03  6.94730843E-04  2.57054489E-04  6.77557109E-05  9.01753265E-06  2.10868878E-09  1.93219580E-06
  2.66595293E-06  9.67031724E-07  2.61857674E-10  5.30066416E-07  1.61659625E-06  1.54627901E-06  2.56920202E-07  2.79096525E-07
  3.32023569E-06  6.73824752E-06  9.22475101E-06  8.95692938E-06  7.29852081E-06  3.78309164E-06
  1.31592901E-06  1.04251123E-08  1.69079158E-06  4.45559272E-06  4.48701530E-06  4.49297613E-06  1.96855990E-06  4.02045828E-07
  4.67569350E-07  4.54031215E-06  1.09390294E-05  2.21460596E-05  2.89923009E-05  4.33557689E-05  6.84356855E-05  8.50565848E-05
  2.16469616E-05  9.02389875E-05  6.32768206E-04  1.24482566E-03  1.77623925E-03  2.20959517E-03  2.37317989E-03  2.11507408E-03
  1.52042159E-03  8.79604660E-04  4.03934508E-04  1.49287633E-04  4.07444350E-05  5.85481348E-06  3.86725180E-10  1.29597242E-06
  1.31747026E-06  1.31432131E-07  1.92111273E-07  7.92923458E-07  1.15716159E-06  4.67143792E-07  9.06604125E-10  1.14638374E-06
  3.95542384E-06  6.38347774E-06  8.01842725E-06  6.88401951E-06  5.40848487E-06  1.31592901E-06
  4.16909707E-08  8.79117863E-07  3.94037852E-06  4.31218041E-06  3.84497889E-06  2.73045703E-06  6.66800190E-07  8.46270876E-09
  1.75904415E-06  6.51754453E-06  1.47407181E-05  2.99973108E-05  5.50688710E-05  1.32622823E-04  3.99707293E-04  6.95731491E-04