 DIM-GROUP
 3  1
 PRIMVEC
 0.0000000000E+00   6.0921526139E+00   6.0921526139E+00
 6.0921526139E+00   0.0000000000E+00   6.0921526139E+00
 6.0921526139E+00   6.0921526139E+00   0.0000000000E+00
 PRIMCOORD
          54  1
        3    0.0000000000E+00    0.0000000000E+00    0.0000000000E+00
        9    2.0307175380E+00    2.0307175380E+00    2.0307175380E+00
        3    0.0000000000E+00    2.0307175380E+00    2.0307175380E+00
        9    2.0307175380E+00    4.0614350759E+00    4.0614350759E+00
        3    0.0000000000E+00    4.0614350759E+00    4.0614350759E+00
        9    2.0307175380E+00    6.0921526139E+00    6.0921526139E+00
        3    2.0307175380E+00    0.0000000000E+00    2.0307175380E+00
        9    4.0614350759E+00    2.0307175380E+00    4.0614350759E+00
        3    2.0307175380E+00    2.0307175380E+00    4.0614350759E+00
        9    4.0614350759E+00    4.0614350759E+00    6.0921526139E+00
        3    2.0307175380E+00    4.0614350759E+00    6.0921526139E+00
        9    4.0614350759E+00    6.0921526139E+00    8.1228701519E+00
        3    4.0614350759E+00    0.0000000000E+00    4.0614350759E+00
        9    6.0921526139E+00    2.0307175380E+00    6.0921526139E+00
        3    4.0614350759E+00    2.0307175380E+00    6.0921526139E+00
        9    6.0921526139E+00    4.0614350759E+00    8.1228701519E+00
        3    4.0614350759E+00    4.0614350759E+00    8.1228701519E+00
        9    6.0921526139E+00    6.0921526139E+00    1.0153587690E+01
        3    2.0307175380E+00    2.0307175380E+00    0.0000000000E+00
        9    4.0614350759E+00    4.0614350759E+00    2.0307175380E+00
        3    2.0307175380E+00    4.0614350759E+00    2.0307175380E+00
        9    4.0614350759E+00    6.0921526139E+00    4.0614350759E+00
        3    2.0307175380E+00    6.0921526139E+00    4.0614350759E+00
        9    4.0614350759E+00    8.1228701519E+00    6.0921526139E+00
        3    4.0614350759E+00    2.0307175380E+00    2.0307175380E+00
        9    6.0921526139E+00    4.0614350759E+00    4.0614350759E+00
        3    4.0614350759E+00    4.0614350759E+00    4.0614350759E+00
        9    6.0921526139E+00    6.0921526139E+00    6.0921526139E+00
        3    4.0614350759E+00    6.0921526139E+00    6.0921526139E+00
        9    6.0921526139E+00    8.1228701519E+00    8.1228701519E+00
        3    6.0921526139E+00    2.0307175380E+00    4.0614350759E+00
        9    8.1228701519E+00    4.0614350759E+00    6.0921526139E+00
        3    6.0921526139E+00    4.0614350759E+00    6.0921526139E+00
        9    8.1228701519E+00    6.0921526139E+00    8.1228701519E+00
        3    6.0921526139E+00    6.0921526139E+00    8.1228701519E+00
        9    8.1228701519E+00    8.1228701519E+00    1.0153587690E+01
        3    4.0614350759E+00    4.0614350759E+00    0.0000000000E+00
        9    6.0921526139E+00    6.0921526139E+00    2.0307175380E+00
        3    4.0614350759E+00    6.0921526139E+00    2.0307175380E+00
        9    6.0921526139E+00    8.1228701519E+00    4.0614350759E+00
        3    4.0614350759E+00    8.1228701519E+00    4.0614350759E+00
        9    6.0921526139E+00    1.0153587690E+01    6.0921526139E+00
        3    6.0921526139E+00    4.0614350759E+00    2.0307175380E+00
        9    8.1228701519E+00    6.0921526139E+00    4.0614350759E+00
        3    6.0921526139E+00    6.0921526139E+00    4.0614350759E+00
        9    8.1228701519E+00    8.1228701519E+00    6.0921526139E+00
        3    6.0921526139E+00    8.1228701519E+00    6.0921526139E+00
        9    8.1228701519E+00    1.0153587690E+01    8.1228701519E+00
        3    8.1228701519E+00    4.0614350759E+00    4.0614350759E+00
        9    1.0153587690E+01    6.0921526139E+00    6.0921526139E+00
        3    8.1228701519E+00    6.0921526139E+00    6.0921526139E+00
        9    1.0153587690E+01    8.1228701519E+00    8.1228701519E+00
        3    8.1228701519E+00    8.1228701519E+00    8.1228701519E+00
        9    1.0153587690E+01    1.0153587690E+01    1.0153587690E+01
 ATOMS
        3    0.0000000000E+00    0.0000000000E+00    0.0000000000E+00
        9    2.0307175380E+00    2.0307175380E+00    2.0307175380E+00
        3    0.0000000000E+00    2.0307175380E+00    2.0307175380E+00
        9    2.0307175380E+00    4.0614350759E+00    4.0614350759E+00
        3    0.0000000000E+00    4.0614350759E+00    4.0614350759E+00
        9    2.0307175380E+00    6.0921526139E+00    6.0921526139E+00
        3    2.0307175380E+00    0.0000000000E+00    2.0307175380E+00
        9    4.0614350759E+00    2.0307175380E+00    4.0614350759E+00
        3    2.0307175380E+00    2.0307175380E+00    4.0614350759E+00
        9    4.0614350759E+00    4.0614350759E+00    6.0921526139E+00
        3    2.0307175380E+00    4.0614350759E+00    6.0921526139E+00
        9    4.0614350759E+00    6.0921526139E+00    8.1228701519E+00
        3    4.0614350759E+00    0.0000000000E+00    4.0614350759E+00
        9    6.0921526139E+00    2.0307175380E+00    6.0921526139E+00
        3    4.0614350759E+00    2.0307175380E+00    6.0921526139E+00
        9    6.0921526139E+00    4.0614350759E+00    8.1228701519E+00
        3    4.0614350759E+00    4.0614350759E+00    8.1228701519E+00
        9    6.0921526139E+00    6.0921526139E+00    1.0153587690E+01
        3    2.0307175380E+00    2.0307175380E+00    0.0000000000E+00
        9    4.0614350759E+00    4.0614350759E+00    2.0307175380E+00
        3    2.0307175380E+00    4.0614350759E+00    2.0307175380E+00
        9    4.0614350759E+00    6.0921526139E+00    4.0614350759E+00
        3    2.0307175380E+00    6.0921526139E+00    4.0614350759E+00
        9    4.0614350759E+00    8.1228701519E+00    6.0921526139E+00
        3    4.0614350759E+00    2.0307175380E+00    2.0307175380E+00
        9    6.0921526139E+00    4.0614350759E+00    4.0614350759E+00
        3    4.0614350759E+00    4.0614350759E+00    4.0614350759E+00
        9    6.0921526139E+00    6.0921526139E+00    6.0921526139E+00
        3    4.0614350759E+00    6.0921526139E+00    6.0921526139E+00
        9    6.0921526139E+00    8.1228701519E+00    8.1228701519E+00
        3    6.0921526139E+00    2.0307175380E+00    4.0614350759E+00
        9    8.1228701519E+00    4.0614350759E+00    6.0921526139E+00
        3    6.0921526139E+00    4.0614350759E+00    6.0921526139E+00
        9    8.1228701519E+00    6.0921526139E+00    8.1228701519E+00
        3    6.0921526139E+00    6.0921526139E+00    8.1228701519E+00
        9    8.1228701519E+00    8.1228701519E+00    1.0153587690E+01
        3    4.0614350759E+00    4.0614350759E+00    0.0000000000E+00
        9    6.0921526139E+00    6.0921526139E+00    2.0307175380E+00
        3    4.0614350759E+00    6.0921526139E+00    2.0307175380E+00
        9    6.0921526139E+00    8.1228701519E+00    4.0614350759E+00
        3    4.0614350759E+00    8.1228701519E+00    4.0614350759E+00
        9    6.0921526139E+00    1.0153587690E+01    6.0921526139E+00
        3    6.0921526139E+00    4.0614350759E+00    2.0307175380E+00
        9    8.1228701519E+00    6.0921526139E+00    4.0614350759E+00
        3    6.0921526139E+00    6.0921526139E+00    4.0614350759E+00
        9    8.1228701519E+00    8.1228701519E+00    6.0921526139E+00
        3    6.0921526139E+00    8.1228701519E+00    6.0921526139E+00
        9    8.1228701519E+00    1.0153587690E+01    8.1228701519E+00
        3    8.1228701519E+00    4.0614350759E+00    4.0614350759E+00
        9    1.0153587690E+01    6.0921526139E+00    6.0921526139E+00
        3    8.1228701519E+00    6.0921526139E+00    6.0921526139E+00
        9    1.0153587690E+01    8.1228701519E+00    8.1228701519E+00
        3    8.1228701519E+00    8.1228701519E+00    8.1228701519E+00
        9    1.0153587690E+01    1.0153587690E+01    1.0153587690E+01
 BEGIN_BLOCK_DATAGRID3D
 datagrid
 DATAGRID_3D_DENSITY
          46          46          46
   0.0000000000000000        0.0000000000000000        0.0000000000000000     
   0.0000000000000000        6.0921526138923738        6.0921526138923738     
   6.0921526138923738        0.0000000000000000        6.0921526138923738     
   6.0921526138923738        6.0921526138923738        0.0000000000000000     
  1.22889271E-03  6.09685259E-04  7.38569433E-05  3.64117295E-06  7.71214502E-07  2.23915686E-06  5.81919721E-06  7.64043307E-06
  9.29361795E-06  8.51117056E-06  5.35697609E-06  2.83300164E-06  1.46418176E-06  4.18609943E-07  3.81183485E-09  5.68683545E-09
  1.05003643E-07  1.00996161E-07  7.46470108E-10  1.02275499E-09  2.02702868E-08  4.32187832E-08  6.61623716E-08  6.62580746E-08
  4.34921148E-08  2.05881125E-08  9.28841781E-10  6.39484021E-10  9.92607312E-08  1.03423567E-07  5.49684431E-09  3.75114828E-09
  4.14804845E-07  1.45411695E-06  2.81698613E-06  5.32983540E-06  8.47264891E-06  9.25517452E-06  7.60921785E-06  5.79749849E-06
  2.23180245E-06  7.70823249E-07  3.64897301E-06  7.39098759E-05  6.09797833E-04  1.22889271E-03
  1.13318360E-03  3.69429181E-04  6.68179928E-05  2.00420054E-05  1.13030092E-05  1.11603740E-05  1.20184641E-05  1.29271684E-05
  1.12438574E-05  6.15881845E-06  3.05971753E-06  1.38759299E-06  3.33044312E-07  3.50338669E-09  4.94126269E-08  1.93018366E-07
  2.84574554E-07  5.35075593E-08  1.83023765E-08  1.34444056E-09  3.72609943E-09  3.47553031E-09  3.02675183E-08  3.52220875E-09
  3.80154486E-09  1.29058841E-09  1.78825150E-08  5.28257935E-08  2.82244656E-07  1.91155934E-07  4.93502696E-08  3.37928618E-09
  3.30155075E-07  1.37820405E-06  3.04301625E-06  6.12953590E-06  1.11946356E-05  1.28725651E-05  1.19717452E-05  1.11211330E-05
  1.12737807E-05  2.00201102E-05  6.68018911E-05  3.69434769E-04  1.13320537E-03  1.13318360E-03
  3.85218067E-04  1.32259898E-04  4.64700679E-05  2.25832118E-05  1.75073965E-05  1.82954682E-05  1.71951342E-05  1.25287543E-05
  6.76032550E-06  3.36337325E-06  1.33520734E-06  1.54718961E-07  6.15600404E-10  9.83228716E-08  3.80690693E-07  4.16635345E-07
  2.09702307E-07  9.15250737E-08  1.88880982E-08  2.96735680E-09  1.10618903E-09  1.09803224E-08  1.09276330E-08  1.12499066E-09
  3.00327785E-09  1.86809164E-08  9.07692694E-08  2.08823423E-07  4.14064630E-07  3.79210462E-07  9.84796102E-08  6.59727273E-10
  1.53036211E-07  1.32693697E-06  3.34584729E-06  6.72936130E-06  1.24735261E-05  1.71242336E-05  1.82266213E-05  1.74504094E-05
  2.25365784E-05  4.64198565E-05  1.32206842E-04  3.85186868E-04  6.00688858E-04  3.85218067E-04
  1.14717564E-04  5.96064056E-05  3.36867415E-05  2.52617956E-05  2.28144563E-05  1.88710965E-05  1.21570974E-05  6.62171306E-06
  3.15655370E-06  8.49374430E-07  1.79674213E-08  9.50337196E-08  2.39086603E-07  4.99517171E-07  4.84575651E-07  3.07459374E-07
  1.96079881E-07  6.05153616E-08  7.89669130E-09  3.88004868E-13  5.77220716E-10  3.70824371E-10  5.56021340E-10  8.76976877E-13
  7.91046428E-09  6.02653500E-08  1.95332603E-07  3.06544848E-07  4.82937310E-07  4.98351596E-07  2.39014270E-07  9.53914849E-08
  1.76845898E-08  8.44117721E-07  3.14094495E-06  6.59268198E-06  1.21054527E-05  1.87994101E-05  2.27353739E-05  2.51930978E-05
  3.36263984E-05  5.95466518E-05  1.14669514E-04  1.82493954E-04  1.82515374E-04  1.14717564E-04
  5.16831606E-05  3.50896153E-05  2.73930182E-05  2.17772194E-05  1.59746196E-05  1.03858565E-05  5.68397127E-06  2.34221761E-06
  1.90171278E-07  8.61390532E-08  2.83462185E-07  5.44055524E-07  6.87669228E-07  4.75835293E-07  2.85771335E-07  2.09012782E-07
  6.31177244E-08  3.95330062E-08  3.37588979E-08  2.90650348E-09  1.69798078E-08  1.70314749E-08  2.91583224E-09  3.38244135E-08
  3.96586266E-08  6.30129477E-08  2.08550844E-07  2.85198581E-07  4.74677790E-07  6.86026056E-07  5.43442695E-07  2.83050355E-07
  8.62229186E-08  1.88687594E-07  2.33207129E-06  5.65933260E-06  1.03469611E-05  1.59190349E-05  2.17089182E-05  2.73290025E-05
  3.50313712E-05  5.16363361E-05  7.40425385E-05  8.55272883E-05  7.40708492E-05  5.16831606E-05
  2.40860845E-05  1.88925696E-05  1.49497664E-05  1.10586916E-05  7.69379403E-06  3.70168323E-06  8.63598757E-07  2.84628410E-09
  4.82063854E-07  6.85087116E-07  9.94918310E-07  1.20705261E-06  8.37807079E-07  5.16316049E-07  3.61570898E-07  1.37066564E-07
  4.80594835E-08  3.02365848E-08  1.10164089E-09  2.39205739E-10  4.86225549E-09  2.39644637E-10  1.15064969E-09  3.03648449E-08
  4.81313975E-08  1.37161038E-07  3.61056237E-07  5.15327940E-07  8.35878666E-07  1.20387028E-06  9.91863430E-07  6.83153530E-07
  4.80808239E-07  2.80528156E-09  8.60030866E-07  3.68791325E-06  7.66975245E-06  1.10211422E-05  1.49083862E-05  1.88531867E-05
  2.40499194E-05  3.22200030E-05  3.90338791E-05  3.90428831E-05  3.22442356E-05  2.40860845E-05
  1.13519463E-05  9.37609639E-06  7.10880249E-06  4.38375628E-06  1.40620432E-06  1.09267360E-08  4.82066525E-07  1.21059657E-06
  1.65737242E-06  1.99090505E-06  1.65710503E-06  9.77525815E-07  5.68769678E-07  3.57127306E-07  1.53508211E-07  6.66424640E-08
  2.90761317E-08  3.09730241E-09  1.60075384E-08  3.12361714E-09  3.10400172E-09  1.61583849E-08  3.19718274E-09  2.91973237E-08
  6.69367353E-08  1.53690323E-07  3.56680260E-07  5.67641962E-07  9.74983777E-07  1.65152926E-06  1.98380440E-06  1.65138181E-06
  1.20480752E-06  4.79421828E-07  1.09513065E-08  1.40342900E-06  4.37187236E-06  7.08868993E-06  9.35501157E-06  1.13306196E-05
  1.37335801E-05  1.52439588E-05  1.53929632E-05  1.52545290E-05  1.37512416E-05  1.13519463E-05
  4.76003515E-06  3.20644858E-06  1.31541833E-06  8.23200139E-08  3.36557946E-07  1.48823915E-06  2.58393607E-06  3.07572623E-06
  2.98804912E-06  1.96671522E-06  1.05736456E-06  5.97482313E-07  2.65780784E-07  9.69070086E-08  1.93213872E-08  1.91011686E-08
  3.96234601E-09  1.55856963E-08  2.20178862E-08  8.18165258E-10  2.21108625E-08  1.57549493E-08  4.07578726E-09  1.93740632E-08
  1.94982626E-08  9.70748744E-08  2.65479116E-07  5.96038717E-07  1.05413926E-06  1.95972780E-06  2.97644601E-06  3.06252741E-06
  2.57217334E-06  1.48054687E-06  3.34159267E-07  8.26530595E-08  1.31332456E-06  3.19970331E-06  4.75015622E-06  5.93938421E-06
  7.06924948E-06  7.31993669E-06  7.32326953E-06  7.07639174E-06  5.94874018E-06  4.76003515E-06
  6.25760265E-07  8.44990424E-08  7.13091595E-08  9.23669404E-07  2.41889461E-06  3.89740626E-06  4.35587071E-06  3.41177565E-06
  2.17119828E-06  1.31117770E-06  8.62123215E-07  3.34003829E-07  1.24325496E-07  2.78280226E-08  1.05220790E-10  8.05114475E-10
  4.33384262E-09  1.78873250E-09  6.89001300E-09  6.80575685E-09  1.73068204E-09  4.22498569E-09  8.76975159E-10  1.25572247E-10
  2.81104828E-08  1.24624790E-07  3.33697642E-07  8.60113857E-07  1.30651790E-06  2.16306921E-06  3.39740791E-06  4.33677405E-06
  3.87815817E-06  2.40548275E-06  9.18140358E-07  7.04043899E-08  8.47677128E-08  6.25018004E-07  1.33933975E-06  1.93375899E-06
  2.31457375E-06  2.32764137E-06  2.31640865E-06  1.93618416E-06  1.34144602E-06  6.25760265E-07
  8.08919154E-09  2.66164022E-07  1.28348802E-06  3.36616813E-06  4.83768690E-06  4.92193840E-06  3.75727495E-06  2.66463621E-06
  1.63008110E-06  6.13812290E-07  1.25811695E-07  1.31655202E-08  2.30721220E-09  8.67170957E-09  1.28993003E-08  9.53715862E-09
  2.23047110E-08  6.54386900E-09  1.53090196E-09  6.42834319E-09  2.20428191E-08  9.26779364E-09  1.26154927E-08  8.39684677E-09
  2.43962517E-09  1.33276119E-08  1.26159819E-07  6.12236988E-07  1.62453046E-06  2.65508766E-06  3.74153251E-06  4.89958211E-06
  4.81353663E-06  3.34944662E-06  1.27547412E-06  2.63913250E-07  7.90377275E-09  7.87045380E-08  2.46739063E-07  3.60363828E-07
  3.07697093E-07  3.07991456E-07  3.60943972E-07  2.46929915E-07  7.84226941E-08  8.08919154E-09
  7.34393041E-07  2.01016292E-06  3.72505065E-06  4.68086955E-06  4.43093359E-06  3.65050278E-06  2.50066228E-06  1.35365156E-06
  2.73701659E-07  1.96872385E-09  5.29067101E-09  4.82950497E-08  8.94484558E-08  8.71196946E-08  7.95237511E-08  4.67511576E-08
  4.00108604E-08  5.40386438E-08  5.38856888E-08  3.97303808E-08  4.61148524E-08  7.84518548E-08  8.60386322E-08  8.81656277E-08
  4.75823185E-08  5.08706544E-09  2.05905248E-09  2.73420170E-07  1.34998049E-06  2.49113100E-06  3.63561480E-06  4.41024804E-06
  4.65887706E-06  3.70693374E-06  1.99871238E-06  7.30232330E-07  1.36289117E-07  8.57997140E-09  1.16412853E-08  5.38892806E-08
  5.68378056E-08  5.39746914E-08  1.15814611E-08  8.71212347E-09  1.37290087E-07  7.34393041E-07
  2.18767264E-06  3.14179260E-06  3.89549996E-06  3.81399741E-06  2.99252110E-06  1.73564740E-06  4.83736983E-07  3.75928124E-08
  1.41669796E-08  5.04808781E-08  1.67786638E-07  3.47652730E-07  2.38109024E-07  2.36553063E-07  1.72390372E-07  9.41853315E-08
  1.26486555E-07  1.35209561E-07  1.25868894E-07  9.34032940E-08  1.70648775E-07  2.34192854E-07  2.35778160E-07  3.44325059E-07
  1.65698808E-07  4.96765082E-08  1.38204621E-08  3.78878049E-08  4.82402925E-07  1.72958232E-06  2.97976521E-06  3.79489416E-06
  3.87691443E-06  3.12590464E-06  2.17631077E-06  1.09605503E-06  4.25236323E-07  1.52886088E-07  6.46988028E-08  3.69864530E-08
  3.69407651E-08  6.49322871E-08  1.53596716E-07  4.27046928E-07  1.10157816E-06  2.18767264E-06
  2.38492726E-06  3.55625002E-06  3.93272467E-06  2.30608111E-06  8.49201172E-07  1.06051260E-07  4.06293452E-08  1.89642321E-07
  4.95868221E-07  9.33023898E-07  1.00633986E-06  6.19999298E-07  4.31368278E-07  3.22192960E-07  1.65982769E-07  1.76376119E-07
  7.88242787E-08  7.84782372E-08  1.75118828E-07  1.64455102E-07  3.19165594E-07  4.27441535E-07  6.14920282E-07  9.98295150E-07
  9.26009193E-07  4.91585695E-07  1.87488354E-07  4.00875493E-08  1.06234623E-07  8.46896739E-07  2.29614125E-06  3.91516551E-06
  3.53880841E-06  2.37233849E-06  1.45120271E-06  8.02625777E-07  3.15322751E-07  1.49368105E-07  1.61017837E-07  1.49334767E-07
  1.61146943E-07  1.49939922E-07  3.16710924E-07  8.06917512E-07  1.45920330E-06  2.38492726E-06
  3.06873790E-06  2.94513802E-06  1.38468806E-06  1.93643700E-07  3.13070547E-09  3.12612855E-07  1.03511377E-06  1.71295676E-06
  2.26044699E-06  1.98718521E-06  1.28594922E-06  8.58856538E-07  6.01176396E-07  3.27907628E-07  3.45750777E-07  3.22403679E-07
  1.75585313E-07  3.21245807E-07  3.43234660E-07  3.25019954E-07  5.95824588E-07  8.51671189E-07  1.27617761E-06  1.97354552E-06
  2.24479118E-06  1.69997099E-06  1.02780041E-06  3.09636278E-07  2.97934322E-09  1.93316339E-07  1.37964514E-06  2.93084599E-06
  3.05216372E-06  1.82703320E-06  9.16668171E-07  5.29371448E-07  1.85453302E-07  8.32907716E-08  4.73459210E-08  4.74375312E-08
  8.36509102E-08  1.86401877E-07  5.32121817E-07  9.21737978E-07  1.83685245E-06  3.06873790E-06
  1.37520283E-06  3.69799380E-07  1.11519527E-09  2.81432875E-07  1.11494398E-06  2.40252939E-06  3.40952943E-06  3.49696893E-06
  3.02404919E-06  2.41933071E-06  1.69765042E-06  9.31216846E-07  4.82424809E-07  2.90519154E-07  2.33201717E-07  2.31659385E-07
  2.31241913E-07  2.31416877E-07  2.87733826E-07  4.78030643E-07  9.23214657E-07  1.68507324E-06  2.40226564E-06  3.00356601E-06
  3.47286732E-06  3.38710538E-06  2.38613734E-06  1.10645021E-06  2.79074584E-07  1.14402376E-09  3.67332262E-07  1.36666858E-06
  1.67894041E-06  8.71019324E-07  5.09979998E-07  2.99626151E-07  1.21582318E-07  7.83275098E-08  6.59473756E-08  7.85735281E-08
  1.22252260E-07  3.01363542E-07  5.12814097E-07  8.76633749E-07  1.68903250E-06  1.37520283E-06
  6.68372024E-08  1.65178193E-07  1.11136706E-06  2.85632655E-06  4.16613238E-06  4.85737291E-06  5.18893012E-06  4.88589922E-06
  3.92107086E-06  2.53672420E-06  1.18642015E-06  4.22972477E-07  1.81255658E-07  3.51026728E-08  1.70261991E-08  5.70757770E-08
  1.66870731E-08  3.43526629E-08  1.78993290E-07  4.18374526E-07  1.17718378E-06  2.51884489E-06  3.89497427E-06  4.85493365E-06
  5.15597867E-06  4.82625228E-06  4.14037186E-06  2.83886493E-06  1.10348117E-06  1.64602881E-07  6.61745858E-08  5.02425792E-07
  4.50547020E-07  2.60695884E-07  1.33968399E-07  4.87679337E-08  2.29724808E-08  2.57552148E-08  2.58235833E-08  2.31376305E-08
  4.92926446E-08  1.35046946E-07  2.62826632E-07  4.54459013E-07  5.05365506E-07  6.68372024E-08
  7.74651312E-07  2.56968997E-06  4.23893107E-06  5.50398863E-06  6.39428526E-06  7.15058286E-06  6.88542241E-06  5.27106658E-06
  2.85226656E-06  1.31785191E-06  5.02616274E-07  1.04029986E-07  7.52143858E-09  1.09159064E-08  9.31221500E-09  9.45262091E-09
  1.11779102E-08  7.23897253E-09  1.02332841E-07  4.98011673E-07  1.30766830E-06  2.83229542E-06  5.23802237E-06  6.84320457E-06
  7.10774475E-06  6.35658853E-06  5.47335958E-06  4.21337245E-06  2.55507484E-06  7.71446139E-07  2.22077912E-08  2.06347046E-08
  7.15385440E-08  5.19893035E-08  2.31762058E-08  1.19643602E-08  2.15805804E-10  2.74448676E-11  2.37772496E-10  1.21269892E-08
  2.35365256E-08  5.25928066E-08  7.24464755E-08  2.10127133E-08  2.22819843E-08  7.74651312E-07
  3.03295315E-06  4.14355509E-06  5.07006689E-06  6.52268363E-06  8.00123416E-06  7.58001806E-06  5.83680867E-06  3.59066098E-06
  1.45844990E-06  4.65641591E-07  3.70071369E-08  3.17382955E-08  1.42368137E-07  3.30016746E-07  4.32415476E-07  3.30617240E-07
  1.42815708E-07  3.21518776E-08  3.63581876E-08  4.61407978E-07  1.44752937E-06  3.56917417E-06  5.80146570E-06  7.53663926E-06
  7.95624146E-06  6.48442938E-06  5.04053969E-06  4.12003737E-06  3.01758382E-06  1.32933451E-06  3.74541798E-07  4.47384956E-08
  4.93590724E-10  8.40378045E-11  1.20568791E-08  3.33664374E-10  7.27140903E-10  7.57189922E-10  3.58993529E-10  1.22151764E-08
  1.09563456E-10  4.54561416E-10  4.45346870E-08  3.75103070E-07  1.33522394E-06  3.03295315E-06
  2.99656540E-06  4.53804341E-06  5.72887529E-06  6.39830341E-06  6.32716728E-06  4.87316265E-06  3.26980216E-06  1.33805179E-06
  1.24631327E-07  3.84766921E-08  2.49865053E-07  4.27374573E-07  5.90727666E-07  7.46687306E-07  7.46596072E-07  5.90244611E-07
  4.27120028E-07  2.49725645E-07  3.86716863E-08  1.23218584E-07  1.33048718E-06  3.25122505E-06  4.84512975E-06  6.29291026E-06
  6.36191862E-06  5.69625536E-06  4.51291544E-06  2.98054897E-06  1.80692371E-06  8.47088074E-07  2.47525890E-07  5.54100907E-08
  2.78718240E-08  7.47698237E-10  7.63395747E-09  2.71232583E-08  2.70818568E-09  2.70071681E-08  7.52605089E-09  7.01572800E-10
  2.75783734E-08  5.53442483E-08  2.48073917E-07  8.50527726E-07  1.81627934E-06  2.99656540E-06
  3.21410357E-06  4.18660102E-06  4.18451918E-06  4.19631169E-06  3.29791646E-06  1.55989017E-06  3.23795746E-07  1.06038085E-08
  3.20264434E-07  5.48146829E-07  6.52779988E-07  6.82330437E-07  5.96188954E-07  5.50427444E-07  5.95327094E-07  6.80434482E-07
  6.50594473E-07  5.46005424E-07  3.18942170E-07  1.05391322E-08  3.21967349E-07  1.55130283E-06  3.28086571E-06  4.17392130E-06
  4.16329476E-06  4.16514013E-06  3.19672677E-06  1.82663700E-06  8.97443101E-07  3.15912985E-07  8.79886457E-08  3.41989441E-08
  3.34854966E-09  6.63958832E-10  6.18980200E-09  6.07547035E-09  6.08327211E-09  6.08017858E-09  7.11450288E-10  3.31024053E-09
  3.40811326E-08  8.81612863E-08  3.17465663E-07  9.01996430E-07  1.83612678E-06  3.21410357E-06
  1.78531889E-06  1.99167062E-06  2.22502149E-06  1.64408902E-06  4.84272277E-07  1.44923962E-09  4.10842489E-07  8.66737139E-07
  1.07901519E-06  1.09973917E-06  9.46617774E-07  7.13100974E-07  6.35233448E-07  6.34581852E-07  7.10991685E-07  9.42454108E-07
  1.09375912E-06  1.07251162E-06  8.61009880E-07  4.08046731E-07  1.37801681E-09  4.83618010E-07  1.63761649E-06  2.21502455E-06
  1.98244857E-06  1.77573190E-06  1.39791757E-06  8.54450377E-07  3.95142507E-07  1.49343521E-07  4.35261533E-08  1.11231957E-08
  3.95790023E-09  6.61102353E-11  2.27338010E-10  2.64350292E-10  2.34416292E-10  8.04299752E-11  3.89179178E-09  1.10753424E-08
  4.34896492E-08  1.50001227E-07  3.97296162E-07  8.59039176E-07  1.40591862E-06  1.78531889E-06
  7.69940016E-07  7.99795600E-07  3.61653150E-07  2.57848276E-09  1.89659772E-07  9.83661721E-07  2.06006257E-06  2.40999429E-06
  1.90166065E-06  1.04864159E-06  4.86180795E-07  2.36880325E-07  1.78238551E-07  2.35809509E-07  4.83546103E-07  1.04200933E-06
  1.88911361E-06  2.39404881E-06  2.04543335E-06  9.74675686E-07  1.86607480E-07  2.76966028E-09  3.61601650E-07  7.97052962E-07
  7.66608025E-07  5.91989874E-07  3.51858517E-07  1.89971573E-07  1.01361259E-07  3.78364149E-08  2.98931968E-09  2.73885492E-09
  7.76503484E-09  1.46784551E-09  7.98041355E-10  7.82760412E-10  1.45566115E-09  7.69698172E-09  2.67588329E-09  2.98671288E-09
  3.80178271E-08  1.01981364E-07  1.91305816E-07  3.54342717E-07  5.95047823E-07  7.69940016E-07
  1.21495987E-07  1.23199995E-09  1.87607384E-07  7.95123640E-07  1.79160111E-06  3.04915397E-06  3.18111461E-06  2.04000276E-06
  7.38471670E-07  1.76483738E-07  1.25524489E-08  4.04086542E-08  4.05722744E-08  1.22623245E-08  1.74499490E-07  7.32042167E-07
  2.02460524E-06  3.15708371E-06  3.02362810E-06  1.77394645E-06  7.86434384E-07  1.84425232E-07  1.38046552E-09  1.21584506E-07
  2.32551230E-07  1.58446539E-07  8.62763940E-08  4.82999063E-08  1.41652867E-08  8.42340531E-10  4.36912950E-09  2.10024247E-08
  1.56747397E-08  1.32813680E-08  2.47205438E-08  1.33882851E-08  1.56306523E-08  2.11207478E-08  4.36192193E-09  8.67769689E-10
  1.43086822E-08  4.87664735E-08  8.69648105E-08  1.59248458E-07  2.33054848E-07  1.21495987E-07
  1.05257108E-07  3.30951963E-07  9.96583481E-07  2.30780597E-06  3.25230076E-06  2.69076713E-06  1.36601705E-06  3.99916502E-07
  1.66939351E-08  6.38728821E-08  4.01949052E-07  7.29898204E-07  4.02066632E-07  6.45989786E-08  1.61105742E-08  3.95474757E-07
  1.35282687E-06  2.66629581E-06  3.22091410E-06  2.28226963E-06  9.83031100E-07  3.24808212E-07  1.03020689E-07  3.46210149E-09
  5.60752111E-09  8.12816303E-09  5.54443824E-09  9.70166614E-10  1.33966900E-08  9.49121226E-09  2.21058478E-08  5.38368106E-08
  2.71823133E-08  4.26982822E-08  4.28242508E-08  2.71352185E-08  5.37794094E-08  2.20286012E-08  9.38944744E-09  1.33282807E-08
  9.02251496E-10  5.66740654E-09  8.17344059E-09  5.56368063E-09  3.64995834E-09  1.05257108E-07
  4.45108014E-07  8.93866286E-07  1.68684358E-06  2.08721553E-06  1.66738459E-06  7.76411184E-07  1.14820246E-07  6.49449419E-08
  9.00239115E-07  2.40695090E-06  3.40224756E-06  3.40013457E-06  2.40548161E-06  9.00558803E-07  6.55181225E-08  1.12531012E-07
  7.66337109E-07  1.64719052E-06  2.05859897E-06  1.66012728E-06  8.77855541E-07  4.36582440E-07  1.70746219E-07  5.62259821E-08
  4.05191152E-08  3.55591006E-08  4.01257445E-08  4.44714239E-08  4.77769788E-08  2.39330316E-08  2.55099071E-08  2.51875694E-08
  2.65644040E-08  5.70940273E-08  2.64482214E-08  2.50249190E-08  2.53403503E-08  2.36590179E-08  4.75403077E-08  4.40786216E-08
  3.98239806E-08  3.55992960E-08  4.08124770E-08  5.73834882E-08  1.74486573E-07  4.45108014E-07
  7.98556528E-07  1.10942347E-06  1.07616734E-06  6.67794495E-07  2.40103020E-07  1.26679573E-08  8.26197379E-07  2.91214337E-06
  6.08744767E-06  8.26845371E-06  8.54512746E-06  8.25757525E-06  6.07228594E-06  2.90184903E-06  8.24561255E-07  1.32300650E-08
  2.33672054E-07  6.51455366E-07  1.05065033E-06  1.08343158E-06  7.80347818E-07  4.33453096E-07  1.92481536E-07  1.38359042E-07
  9.85827171E-08  6.35828385E-08  3.72454174E-08  2.53537973E-08  3.47538993E-08  4.74423025E-08  6.57468391E-08  5.31995354E-08
  7.95078776E-08  7.92796726E-08  5.28172919E-08  6.51883099E-08  4.68114969E-08  3.42709576E-08  2.49123708E-08  3.69605679E-08
  6.36776463E-08  9.90711229E-08  1.40530204E-07  1.97126468E-07  4.43549652E-07  7.98556528E-07
  5.68848009E-07  5.72102465E-07  2.80503684E-07  2.08110795E-09  3.27443331E-07  1.93624396E-06  5.07348068E-06  8.79797244E-06
  1.22827641E-05  1.35168893E-05  1.35029331E-05  1.22459478E-05  8.75455316E-06  5.04257969E-06  1.92524703E-06  3.30324070E-07
  1.24112787E-09  2.64251298E-07  5.46042543E-07  5.45060800E-07  4.60584687E-07  2.89855905E-07  1.90720314E-07  1.57768582E-07
  7.67872379E-08  5.18790451E-08  5.77205554E-08  3.81477854E-08  4.04438332E-08  7.50384572E-08  5.65315545E-08  3.60427634E-08
  4.64826044E-08  3.56157841E-08  5.57402444E-08  7.37366719E-08  3.95975484E-08  3.73906488E-08  5.70017420E-08  5.18905061E-08
  7.72554074E-08  1.60280706E-07  1.95643935E-07  2.98842934E-07  4.77786500E-07  5.68848009E-07
  1.74917304E-07  4.71089621E-08  8.94601015E-08  9.98710902E-07  2.68335179E-06  5.78663003E-06  1.01181186E-05  1.47395367E-05
  1.86385150E-05  1.98175258E-05  1.85833524E-05  1.46544344E-05  1.00343414E-05  5.73100897E-06  2.66579400E-06  1.01221588E-06
  1.02014177E-07  3.59722243E-08  1.54756137E-07  2.06024524E-07  1.84588927E-07  1.08090454E-07  8.27564577E-08  8.89425280E-08
  5.17083905E-08  6.20378628E-08  7.59900303E-08  4.31228599E-08  4.37237730E-08  4.64828318E-08  4.70996824E-08  7.44365707E-08
  7.38117691E-08  4.60313174E-08  4.51143976E-08  4.22642366E-08  4.19432986E-08  7.46972262E-08  6.15592128E-08  5.19986081E-08
  9.07272550E-08  8.61575202E-08  1.13722159E-07  1.96754598E-07  2.24059249E-07  1.74917304E-07
  3.34397177E-09  2.34142689E-07  1.21420953E-06  2.87191961E-06  5.07723826E-06  8.78913579E-06  1.29935543E-05  1.71999163E-05
  1.98844555E-05  1.98369326E-05  1.70815001E-05  1.28471193E-05  8.66256778E-06  5.00507122E-06  2.86619934E-06  1.26920725E-06
  2.83209175E-07  1.10945502E-08  1.99094483E-08  4.60300633E-08  8.26443198E-08  6.23771896E-08  4.60251464E-08  6.05195538E-08
  4.16667767E-08  4.38293526E-08  4.82049423E-08  4.14665990E-08  2.69757159E-08  2.85883512E-08  4.65746766E-08  4.74529998E-08
  4.52472584E-08  2.70718665E-08  2.54280366E-08  3.95479773E-08  4.66118166E-08  4.29099742E-08  4.15311980E-08  6.16264302E-08
  4.84197180E-08  6.67741773E-08  9.09133604E-08  5.55000383E-08  2.97865874E-08  3.34397177E-09
  7.41526662E-08  4.40249238E-07  1.27774945E-06  2.25580720E-06  3.66685322E-06  5.72072213E-06  7.76164143E-06  9.27977817E-06
  9.69828034E-06  9.19222475E-06  7.61885485E-06  5.56665418E-06  3.54940789E-06  2.20142852E-06  1.31471211E-06  5.30724549E-07