 DIM-GROUP
 3  1
 PRIMVEC
 0.0000000000E+00   6.0921526139E+00   6.0921526139E+00
 6.0921526139E+00   0.0000000000E+00   6.0921526139E+00
 6.0921526139E+00   6.0921526139E+00   0.0000000000E+00
 PRIMCOORD
          54  1
        3    0.0000000000E+00    0.0000000000E+00    0.0000000000E+00
        9    2.0307175380E+00    2.0307175380E+00    2.0307175380E+00
        3    0.0000000000E+00    2.0307175380E+00    2.0307175380E+00
        9    2.0307175380E+00    4.0614350759E+00    4.0614350759E+00
        3    0.0000000000E+00    4.0614350759E+00    4.0614350759E+00
        9    2.0307175380E+00    6.0921526139E+00    6.0921526139E+00
        3    2.0307175380E+00    0.0000000000E+00    2.0307175380E+00
        9    4.0614350759E+00    2.0307175380E+00    4.0614350759E+00
        3    2.0307175380E+00    2.0307175380E+00    4.0614350759E+00
        9    4.0614350759E+00    4.0614350759E+00    6.0921526139E+00
        3    2.0307175380E+00    4.0614350759E+00    6.0921526139E+00
        9    4.0614350759E+00    6.0921526139E+00    8.1228701519E+00
        3    4.0614350759E+00    0.0000000000E+00    4.0614350759E+00
        9    6.0921526139E+00    2.0307175380E+00    6.0921526139E+00
        3    4.0614350759E+00    2.0307175380E+00    6.0921526139E+00
        9    6.0921526139E+00    4.0614350759E+00    8.1228701519E+00
        3    4.0614350759E+00    4.0614350759E+00    8.1228701519E+00
        9    6.0921526139E+00    6.0921526139E+00    1.0153587690E+01
        3    2.0307175380E+00    2.0307175380E+00    0.0000000000E+00
        9    4.0614350759E+00    4.0614350759E+00    2.0307175380E+00
        3    2.0307175380E+00    4.0614350759E+00    2.0307175380E+00
        9    4.0614350759E+00    6.0921526139E+00    4.0614350759E+00
        3    2.0307175380E+00    6.0921526139E+00    4.0614350759E+00
        9    4.0614350759E+00    8.1228701519E+00    6.0921526139E+00
        3    4.0614350759E+00    2.0307175380E+00    2.0307175380E+00
        9    6.0921526139E+00    4.0614350759E+00    4.0614350759E+00
        3    4.0614350759E+00    4.0614350759E+00    4.0614350759E+00
        9    6.0921526139E+00    6.0921526139E+00    6.0921526139E+00
        3    4.0614350759E+00    6.0921526139E+00    6.0921526139E+00
        9    6.0921526139E+00    8.1228701519E+00    8.1228701519E+00
        3    6.0921526139E+00    2.0307175380E+00    4.0614350759E+00
        9    8.1228701519E+00    4.0614350759E+00    6.0921526139E+00
        3    6.0921526139E+00    4.0614350759E+00    6.0921526139E+00
        9    8.1228701519E+00    6.0921526139E+00    8.1228701519E+00
        3    6.0921526139E+00    6.0921526139E+00    8.1228701519E+00
        9    8.1228701519E+00    8.1228701519E+00    1.0153587690E+01
        3    4.0614350759E+00    4.0614350759E+00    0.0000000000E+00
        9    6.0921526139E+00    6.0921526139E+00    2.0307175380E+00
        3    4.0614350759E+00    6.0921526139E+00    2.0307175380E+00
        9    6.0921526139E+00    8.1228701519E+00    4.0614350759E+00
        3    4.0614350759E+00    8.1228701519E+00    4.0614350759E+00
        9    6.0921526139E+00    1.0153587690E+01    6.0921526139E+00
        3    6.0921526139E+00    4.0614350759E+00    2.0307175380E+00
        9    8.1228701519E+00    6.0921526139E+00    4.0614350759E+00
        3    6.0921526139E+00    6.0921526139E+00    4.0614350759E+00
        9    8.1228701519E+00    8.1228701519E+00    6.0921526139E+00
        3    6.0921526139E+00    8.1228701519E+00    6.0921526139E+00
        9    8.1228701519E+00    1.0153587690E+01    8.1228701519E+00
        3    8.1228701519E+00    4.0614350759E+00    4.0614350759E+00
        9    1.0153587690E+01    6.0921526139E+00    6.0921526139E+00
        3    8.1228701519E+00    6.0921526139E+00    6.0921526139E+00
        9    1.0153587690E+01    8.1228701519E+00    8.1228701519E+00
        3    8.1228701519E+00    8.1228701519E+00    8.1228701519E+00
        9    1.0153587690E+01    1.0153587690E+01    1.0153587690E+01
 ATOMS
        3    0.0000000000E+00    0.0000000000E+00    0.0000000000E+00
        9    2.0307175380E+00    2.0307175380E+00    2.0307175380E+00
        3    0.0000000000E+00    2.0307175380E+00    2.0307175380E+00
        9    2.0307175380E+00    4.0614350759E+00    4.0614350759E+00
        3    0.0000000000E+00    4.0614350759E+00    4.0614350759E+00
        9    2.0307175380E+00    6.0921526139E+00    6.0921526139E+00
        3    2.0307175380E+00    0.0000000000E+00    2.0307175380E+00
        9    4.0614350759E+00    2.0307175380E+00    4.0614350759E+00
        3    2.0307175380E+00    2.0307175380E+00    4.0614350759E+00
        9    4.0614350759E+00    4.0614350759E+00    6.0921526139E+00
        3    2.0307175380E+00    4.0614350759E+00    6.0921526139E+00
        9    4.0614350759E+00    6.0921526139E+00    8.1228701519E+00
        3    4.0614350759E+00    0.0000000000E+00    4.0614350759E+00
        9    6.0921526139E+00    2.0307175380E+00    6.0921526139E+00
        3    4.0614350759E+00    2.0307175380E+00    6.0921526139E+00
        9    6.0921526139E+00    4.0614350759E+00    8.1228701519E+00
        3    4.0614350759E+00    4.0614350759E+00    8.1228701519E+00
        9    6.0921526139E+00    6.0921526139E+00    1.0153587690E+01
        3    2.0307175380E+00    2.0307175380E+00    0.0000000000E+00
        9    4.0614350759E+00    4.0614350759E+00    2.0307175380E+00
        3    2.0307175380E+00    4.0614350759E+00    2.0307175380E+00
        9    4.0614350759E+00    6.0921526139E+00    4.0614350759E+00
        3    2.0307175380E+00    6.0921526139E+00    4.0614350759E+00
        9    4.0614350759E+00    8.1228701519E+00    6.0921526139E+00
        3    4.0614350759E+00    2.0307175380E+00    2.0307175380E+00
        9    6.0921526139E+00    4.0614350759E+00    4.0614350759E+00
        3    4.0614350759E+00    4.0614350759E+00    4.0614350759E+00
        9    6.0921526139E+00    6.0921526139E+00    6.0921526139E+00
        3    4.0614350759E+00    6.0921526139E+00    6.0921526139E+00
        9    6.0921526139E+00    8.1228701519E+00    8.1228701519E+00
        3    6.0921526139E+00    2.0307175380E+00    4.0614350759E+00
        9    8.1228701519E+00    4.0614350759E+00    6.0921526139E+00
        3    6.0921526139E+00    4.0614350759E+00    6.0921526139E+00
        9    8.1228701519E+00    6.0921526139E+00    8.1228701519E+00
        3    6.0921526139E+00    6.0921526139E+00    8.1228701519E+00
        9    8.1228701519E+00    8.1228701519E+00    1.0153587690E+01
        3    4.0614350759E+00    4.0614350759E+00    0.0000000000E+00
        9    6.0921526139E+00    6.0921526139E+00    2.0307175380E+00
        3    4.0614350759E+00    6.0921526139E+00    2.0307175380E+00
        9    6.0921526139E+00    8.1228701519E+00    4.0614350759E+00
        3    4.0614350759E+00    8.1228701519E+00    4.0614350759E+00
        9    6.0921526139E+00    1.0153587690E+01    6.0921526139E+00
        3    6.0921526139E+00    4.0614350759E+00    2.0307175380E+00
        9    8.1228701519E+00    6.0921526139E+00    4.0614350759E+00
        3    6.0921526139E+00    6.0921526139E+00    4.0614350759E+00
        9    8.1228701519E+00    8.1228701519E+00    6.0921526139E+00
        3    6.0921526139E+00    8.1228701519E+00    6.0921526139E+00
        9    8.1228701519E+00    1.0153587690E+01    8.1228701519E+00
        3    8.1228701519E+00    4.0614350759E+00    4.0614350759E+00
        9    1.0153587690E+01    6.0921526139E+00    6.0921526139E+00
        3    8.1228701519E+00    6.0921526139E+00    6.0921526139E+00
        9    1.0153587690E+01    8.1228701519E+00    8.1228701519E+00
        3    8.1228701519E+00    8.1228701519E+00    8.1228701519E+00
        9    1.0153587690E+01    1.0153587690E+01    1.0153587690E+01
 BEGIN_BLOCK_DATAGRID3D
 datagrid
 DATAGRID_3D_DENSITY
          46          46          46
   0.0000000000000000        0.0000000000000000        0.0000000000000000     
   0.0000000000000000        6.0921526138923738        6.0921526138923738     
   6.0921526138923738        0.0000000000000000        6.0921526138923738     
   6.0921526138923738        6.0921526138923738        0.0000000000000000     
  8.91881026E-17  1.63665334E-07  2.32398918E-07  3.85077186E-07  4.78356412E-07  2.92598173E-07  2.69194572E-07  2.40526191E-07
  1.00611985E-07  8.85213769E-09  1.36777467E-09  3.85048304E-09  4.72155683E-08  1.27861313E-07  6.59237799E-07  5.08910659E-07
  2.72156093E-08  6.95281166E-09  1.13228822E-07  1.24853088E-07  7.76613405E-08  5.77285917E-08  5.18243315E-09  5.21529930E-09
  5.78313895E-08  7.77683908E-08  1.24967443E-07  1.13312531E-07  6.96122315E-09  2.72360570E-08  5.09136953E-07  6.59486318E-07
  1.27919222E-07  4.72306780E-08  3.85169496E-09  1.36822786E-09  8.85528451E-09  1.00627119E-07  2.40548758E-07  2.69216429E-07
  2.92618324E-07  4.78380002E-07  3.85091141E-07  2.32398747E-07  1.63654576E-07  8.91881026E-17
  1.64101976E-07  3.79306101E-07  5.08645883E-07  6.39118014E-07  5.30663272E-07  4.95307404E-07  4.60321957E-07  2.13720298E-07
  5.90655098E-08  2.89940818E-08  5.28695754E-09  6.17938554E-08  1.76936851E-07  5.99636337E-07  1.28784927E-06  8.38110680E-07
  6.05824539E-07  5.41813847E-07  6.48638149E-07  1.21420214E-06  2.02929937E-06  3.46005595E-06  4.46839749E-06  4.65382163E-06
  3.93115943E-06  2.93070093E-06  2.54266729E-06  1.62503920E-06  6.42032603E-07  5.40735705E-08  2.37990854E-08  1.89585680E-09
  7.20465311E-12  8.65420929E-11  3.82766624E-10  6.45451970E-10  3.68597952E-08  9.47443084E-08  1.12800478E-07  1.54162976E-07
  2.24599603E-07  2.10823728E-07  1.32279169E-07  8.33556300E-08  5.99069134E-14  1.64101976E-07
  2.32007523E-07  5.08492974E-07  6.25926646E-07  6.53817551E-07  7.52333847E-07  7.28949374E-07  4.19521825E-07  2.06473061E-07
  1.10428317E-07  3.45446161E-08  1.13939995E-08  1.61310211E-07  3.41635996E-07  8.29055409E-07  1.32155640E-06  1.56417332E-06
  1.70353564E-06  2.34298363E-06  4.17173032E-06  6.78705146E-06  1.09734365E-05  1.46778011E-05  1.56365422E-05  1.40340517E-05
  1.03626116E-05  7.45406624E-06  5.30983289E-06  3.25281962E-06  1.43985847E-06  5.39849282E-07  2.94537500E-07  6.73584779E-08
  6.19136253E-09  1.66979520E-11  1.48194452E-08  8.00264632E-10  1.85846734E-08  1.32545370E-08  4.54551667E-08  9.78395960E-08
  8.48259418E-08  7.92277604E-08  8.56474713E-08  9.98322451E-14  8.43296419E-08  2.32007523E-07
  3.82869842E-07  6.37076823E-07  6.52010840E-07  8.05581010E-07  8.02081956E-07  6.12025644E-07  4.41887920E-07  2.70681738E-07
  4.63237164E-08  8.01510325E-09  7.48689928E-08  1.89415530E-07  4.19822072E-07  8.61861963E-07  1.61138587E-06  2.20517109E-06
  3.10895325E-06  5.68064206E-06  9.85281895E-06  1.68220413E-05  2.38304820E-05  2.72126035E-05  2.68900549E-05  2.16093722E-05
  1.53724395E-05  9.66017251E-06  6.10778079E-06  3.97742997E-06  1.97593522E-06  9.95499022E-07  2.86791050E-07  2.23569643E-08
  7.85782461E-09  9.42333211E-10  1.23212507E-09  3.56607743E-10  3.75970810E-09  2.74578627E-09  3.06367021E-08  5.18880796E-08
  2.44908147E-08  2.71424057E-08  1.45174928E-13  8.63850573E-08  1.33623644E-07  3.82869842E-07
  4.77131323E-07  5.28775843E-07  7.51396954E-07  7.99432996E-07  6.48452897E-07  5.82604059E-07  3.85320448E-07  1.11206354E-07
  6.68229694E-10  3.93543544E-08  6.49228298E-08  2.15487887E-07  5.09806682E-07  9.83829523E-07  1.72483328E-06  2.78380094E-06
  5.08521816E-06  8.92883691E-06  1.67338221E-05  2.69229586E-05  3.29402646E-05  3.58977231E-05  3.14091776E-05  2.35676198E-05
  1.54832014E-05  8.54784776E-06  5.79780681E-06  3.41042028E-06  1.54901591E-06  6.83119879E-07  1.30874028E-07  2.94731439E-08
  6.02436012E-09  3.52147561E-10  1.18567902E-08  4.79843791E-08  3.02598702E-09  3.23821037E-09  1.07522933E-08  1.51575392E-08
  7.10029535E-10  1.62993357E-13  2.71571032E-08  7.94638169E-08  2.11779735E-07  4.77131323E-07
  2.89790421E-07  4.90174841E-07  7.20333276E-07  5.99191480E-07  5.72351667E-07  3.60000371E-07  1.07371648E-07  1.51162922E-08
  4.16179935E-09  2.63739910E-08  9.37155278E-08  3.05957485E-07  5.18889408E-07  8.34914772E-07  1.59993863E-06  3.39995768E-06
  6.44198872E-06  1.21917619E-05  2.20598249E-05  3.00633201E-05  3.58504985E-05  3.52279603E-05  2.71877634E-05  1.94284494E-05
  1.12738871E-05  6.70961572E-06  4.17111050E-06  1.82539179E-06  9.59455861E-07  3.91272749E-07  7.49486020E-08  6.67793687E-09
  1.11597771E-08  3.16878150E-08  5.72537324E-08  2.09878532E-08  1.62292235E-10  2.92414537E-09  8.11135104E-10  1.33672073E-09
  1.15308520E-13  8.09985745E-10  2.46104470E-08  8.46297894E-08  2.23442825E-07  2.89790421E-07
  2.63865502E-07  4.49109734E-07  4.05693697E-07  4.24109288E-07  3.69159551E-07  1.02857356E-07  1.78054034E-08  7.80150666E-10
  1.37191192E-08  5.66445912E-08  1.63612825E-07  2.93147110E-07  3.84360959E-07  7.31930641E-07  1.65200424E-06  3.52310872E-06
  7.24742176E-06  1.40208667E-05  2.11664828E-05  2.69581215E-05  2.99620078E-05  2.55712384E-05  1.90792271E-05  1.22746051E-05
  7.06598894E-06  4.28376234E-06  2.01719672E-06  1.04674450E-06  5.54165695E-07  1.26097490E-07  1.30340494E-08  9.96627314E-09
  4.00775377E-08  2.19056773E-08  2.19055831E-08  1.26093100E-08  9.40580502E-09  2.19605201E-09  1.63114322E-09  9.57013874E-14
  1.52795121E-09  1.61910059E-08  5.25639763E-08  9.67457154E-08  1.50877426E-07  2.63865502E-07
  2.34302505E-07  2.02138366E-07  1.90442577E-07  2.47484195E-07  9.55666835E-08  1.09583080E-08  2.85283741E-10  1.49130432E-08
  6.55340315E-08  1.08130436E-07  1.48599298E-07  1.68011141E-07  3.19744970E-07  8.24655729E-07  1.61208277E-06  3.22056803E-06
  6.86670955E-06  1.19340730E-05  1.63262703E-05  1.92542848E-05  1.87108635E-05  1.54212921E-05  1.08016102E-05  6.56655448E-06
  4.08740425E-06  2.13906287E-06  1.11514191E-06  5.98755378E-07  1.64337877E-07  2.79394410E-08  1.34510819E-10  1.62507465E-08
  7.98965516E-09  1.65432539E-08  4.09371843E-08  1.40134864E-08  1.68418690E-09  1.23831709E-10  7.62992574E-14  1.59169111E-09
  8.81655970E-10  1.12762626E-08  3.14829336E-08  4.49098359E-08  1.10216014E-07  2.34302505E-07
  9.31332167E-08  4.80624749E-08  9.07714295E-08  3.19344622E-08  4.27030322E-09  9.70407044E-09  2.06855564E-08  7.39147339E-08
  1.10218103E-07  8.00625131E-08  4.77665978E-08  5.99681869E-08  2.34090308E-07  7.39303857E-07  1.52503662E-06  2.85044121E-06
  5.16329828E-06  7.94385778E-06  1.00948582E-05  1.08230488E-05  9.96208109E-06  7.75507215E-06  5.19011837E-06  3.56757982E-06
  2.07074140E-06  9.42101735E-07  4.06983133E-07  1.10603672E-07  2.89937354E-08  4.07097384E-10  1.04201385E-08  9.04909836E-09
  2.26728378E-08  4.61608174E-08  9.17719856E-09  6.93133773E-10  2.53550225E-09  3.45678516E-14  7.69036501E-11  2.39368525E-09
  2.82186030E-09  3.66015618E-09  3.05031556E-09  1.26239117E-08  9.06065836E-08  9.31332167E-08
  5.19131182E-09  1.78465065E-08  1.95557970E-08  2.08568647E-08  6.49187513E-08  4.45019381E-08  7.68027775E-08  1.27987903E-07
  8.95845744E-08  2.74706728E-08  2.52216559E-08  4.98210007E-08  1.54658636E-07  5.79278662E-07  1.21452899E-06  1.92042580E-06
  2.99267936E-06  4.11279552E-06  5.10681184E-06  5.26320309E-06  4.38880807E-06  3.33849539E-06  2.40459553E-06  1.45214358E-06
  6.32878312E-07  2.20588092E-07  4.62925946E-08  9.47789669E-09  2.06854547E-10  9.12122289E-09  1.54141624E-08  3.73582090E-08
  5.36470530E-08  8.81982576E-09  5.06833964E-10  9.88825022E-09  5.08392732E-15  2.70459810E-09  1.75746429E-09  8.71109140E-09
  9.62193103E-11  2.64993472E-09  3.75327325E-09  1.70371610E-08  3.19824522E-08  5.19131182E-09
  1.51141086E-14  1.59436186E-10  3.45329703E-08  1.29650346E-07  1.12087427E-07  1.38674707E-07  2.07383067E-07  1.81458077E-07
  6.17836022E-08  2.96345650E-08  7.85750487E-08  8.81139073E-08  1.30667260E-07  3.06410413E-07  5.16381192E-07  9.77560717E-07
  1.41013902E-06  1.78064522E-06  2.25074291E-06  1.92263951E-06  1.58188607E-06  1.28286422E-06  6.61180309E-07  2.79708246E-07
  1.41143374E-07  4.75531081E-08  1.15203369E-09  5.94188210E-09  1.65795733E-08  2.69257772E-08  5.33814877E-08  6.23366816E-08
  2.15981935E-08  3.10050807E-09  8.77031603E-09  8.34595433E-16  9.74534142E-09  6.88799795E-10  1.31896991E-08  1.21050556E-08
  2.03682440E-08  4.58161438E-08  3.94407423E-10  3.29058919E-10  2.33043762E-09  1.51141086E-14
  1.69176655E-08  1.25088761E-07  2.78430974E-07  3.10344461E-07  3.22260519E-07  4.01368993E-07  3.62622387E-07  2.11518540E-07
  8.02955853E-08  6.04559389E-08  9.41556948E-08  1.06268018E-07  1.42665158E-07  1.45602073E-07  2.59574222E-07  5.56343480E-07
  6.08483163E-07  8.01160752E-07  8.18732360E-07  5.80559004E-07  5.26073393E-07  2.82330689E-07  1.04616845E-07  5.40107727E-08
  1.63084639E-08  6.14063689E-09  6.37565023E-08  5.47246799E-08  4.81688289E-08  6.54633752E-08  4.95195422E-08  2.87484792E-08
  1.00928519E-08  2.54995625E-09  6.78212610E-16  8.21650570E-09  3.99826838E-10  9.04508202E-09  4.00063840E-08  2.10042970E-08
  5.36847899E-08  1.08356968E-08  1.73554993E-09  2.02200354E-08  3.76704179E-09  1.69176655E-08
  1.18549607E-07  3.70809943E-07  6.14180010E-07  6.48375760E-07  6.77668766E-07  6.35087019E-07  4.60557658E-07  3.78669426E-07
  2.77084524E-07  1.80846115E-07  1.45221279E-07  1.49688006E-07  1.61552833E-07  1.15507753E-07  1.76393371E-07  2.69217509E-07
  3.03806445E-07  3.44090807E-07  2.36434346E-07  1.59206394E-07  5.70610581E-08  1.76558999E-08  5.08664488E-09  8.63119443E-09
  4.31727365E-08  1.15775315E-07  9.85346347E-08  5.74175409E-08  7.51553770E-08  5.70922332E-08  4.85954388E-08  3.74673270E-08
  5.40190026E-09  1.13413968E-14  2.30925257E-09  2.66835287E-09  8.53639115E-09  4.47609239E-08  1.49330184E-08  1.98318837E-08
  2.99126413E-08  3.75599357E-10  1.80515736E-09  1.06491937E-09  7.26416038E-09  1.18549607E-07
  4.04564048E-07  1.31823197E-06  1.47448668E-06  1.20775462E-06  1.16841238E-06  9.37575862E-07  8.02551199E-07  8.92182243E-07
  8.03448131E-07  6.29484191E-07  3.30858882E-07  1.56070058E-07  1.20843907E-07  6.66103759E-08  8.05205076E-08  1.38972609E-07
  1.18567606E-07  4.07881906E-08  2.06286472E-08  4.24802665E-10  4.00328446E-08  2.31977264E-08  7.90001877E-08  1.05125132E-07
  8.47176764E-08  1.23441055E-07  1.11206184E-07  1.18677107E-07  1.06983819E-07  1.13227998E-07  6.61759927E-08  7.96243338E-09
  4.24683922E-14  5.18996801E-09  9.85456872E-09  2.10688604E-08  5.16885841E-08  2.12798614E-08  6.99847735E-09  3.80008167E-08
  1.03585496E-08  6.08972606E-09  4.46262671E-09  1.70351455E-10  2.20764278E-08  4.04564048E-07
  1.80170889E-06  2.80070844E-06  2.11865699E-06  1.91300046E-06  1.82617725E-06  1.63424420E-06  1.67283827E-06  1.63786649E-06
  1.56676072E-06  1.25939721E-06  5.36413836E-07  2.69199830E-07  1.82930521E-07  8.18331429E-08  9.19847736E-08  1.05248766E-07
  1.03108793E-08  1.00078870E-08  2.58613575E-08  1.36471471E-07  1.39005962E-07  1.29644121E-07  2.10419174E-07  1.47526961E-07
  1.82395837E-07  2.38539400E-07  2.30823218E-07  1.41146870E-07  1.28350550E-07  7.84874388E-08  2.21487620E-10  2.14102106E-13
  7.57309149E-09  3.70881885E-08  2.90307067E-08  6.05774915E-08  3.64322261E-08  8.65768790E-09  1.40336809E-08  7.74396902E-09
  8.61570104E-09  2.94048270E-08  1.32501361E-08  2.25748202E-08  1.17168007E-07  1.80170889E-06
  1.68597467E-06  1.75446576E-06  1.90804644E-06  2.19209142E-06  2.64557502E-06  3.23485256E-06  3.38918653E-06  3.12306634E-06
  2.79964161E-06  1.90936566E-06  9.75886337E-07  5.56326995E-07  2.69572325E-07  1.36765834E-07  1.02248656E-07  3.35441257E-08
  1.99318428E-08  1.02227958E-07  1.55656437E-07  2.28376805E-07  2.01025486E-07  2.83252319E-07  3.02180581E-07  2.90324664E-07
  2.69985378E-07  2.44279704E-07  1.71170285E-07  7.27469995E-08  8.29967348E-08  6.62234534E-09  2.15386248E-13  1.67860725E-10
  6.50457181E-08  4.87083263E-08  4.88335381E-08  5.25002726E-08  1.50062291E-08  8.93166341E-09  1.14009904E-11  1.76380333E-08
  8.75105783E-08  1.40454404E-07  2.59686090E-07  1.47042371E-07  3.40510724E-07  1.68597467E-06
  1.81000502E-07  7.06766514E-07  1.49044786E-06  2.67042196E-06  4.49669369E-06  5.85246335E-06  6.73306886E-06  6.45377759E-06
  4.88597425E-06  2.85530859E-06  1.35358550E-06  5.81392726E-07  2.90522337E-07  1.12250419E-07  8.94380037E-09  2.01164951E-08
  1.65493702E-07  2.53376982E-07  3.11179406E-07  3.73561107E-07  4.36961585E-07  4.05982263E-07  3.29402980E-07  2.85430076E-07
  1.78451998E-07  1.91941012E-07  1.00649018E-07  6.06296524E-08  4.62120440E-08  3.09805113E-14  6.32350483E-09  7.81599852E-08
  1.13949952E-07  5.64837777E-08  6.58057360E-08  2.67267186E-08  8.30036129E-09  8.83978446E-10  3.49791947E-08  1.52544317E-07
  4.57001676E-07  7.67839538E-07  1.01792523E-06  3.74577553E-07  3.39343464E-09  1.81000502E-07
  4.89712981E-08  2.72670377E-07  1.66159737E-06  4.57854685E-06  7.58650276E-06  1.07561755E-05  1.26991563E-05  1.09267958E-05
  7.28457235E-06  3.76977300E-06  1.62571064E-06  7.25435939E-07  3.13355343E-07  3.52163951E-08  1.14469572E-08  1.01767988E-07
  2.51630752E-07  3.68269554E-07  4.52506811E-07  5.33948139E-07  5.43324063E-07  3.72068456E-07  3.79718699E-07  3.01767756E-07
  1.89760868E-07  1.55481374E-07  5.16878380E-08  2.95186737E-08  7.51962128E-16  4.52696227E-08  8.20770438E-08  1.29569742E-07
  1.06855950E-07  7.67141231E-08  5.00318151E-08  1.66935674E-08  3.21602939E-10  3.54685170E-08  1.99159658E-07  6.62059165E-07
  1.15331932E-06  1.83838733E-06  2.29520151E-06  1.60664797E-06  7.31741409E-07  4.89712981E-08
  4.98520933E-07  1.85617594E-07  2.80289828E-06  7.74112777E-06  1.40449847E-05  1.91373492E-05  1.86647321E-05  1.45202939E-05
  8.96350230E-06  4.52207541E-06  1.98715998E-06  7.08902064E-07  2.01546527E-07  1.54875970E-08  2.87903692E-08  1.55928205E-07
  3.09663790E-07  4.49562179E-07  4.77779508E-07  5.92899369E-07  5.53763073E-07  4.49060423E-07  4.76403130E-07  2.46922269E-07
  1.19361715E-07  5.58640316E-08  8.75934081E-09  3.14473924E-14  2.88549895E-08  6.01025789E-08  7.29809670E-08  1.40665037E-07
  1.20643151E-07  6.03107324E-08  5.68385978E-08  6.40300346E-09  1.19604193E-08  1.36655103E-07  7.11368045E-07  1.29969544E-06
  2.29996681E-06  4.25018652E-06  5.08255425E-06  4.39200130E-06  2.56992394E-06  4.98520933E-07
  7.24032645E-07  3.72237480E-07  4.50114067E-06  1.31774541E-05  2.23807219E-05  2.55140403E-05  2.31771010E-05  1.66441496E-05
  9.31330396E-06  4.52624727E-06  1.62813933E-06  4.73627182E-07  1.27883894E-07  1.65663727E-09  1.41166367E-07  2.26669087E-07
  3.68508950E-07  5.24496954E-07  5.90324362E-07  6.91284981E-07  5.21228458E-07  4.27671807E-07  2.92773080E-07  9.83205553E-08
  5.36009637E-08  1.55096735E-08  4.45325437E-14  8.17091017E-09  5.11482092E-08  1.02362705E-07  1.71991402E-07  2.33698387E-07
  1.15246671E-07  1.02532027E-07  6.77643044E-08  1.39425382E-09  6.04674568E-08  4.91827620E-07  1.37618815E-06  2.59654030E-06
  5.32623881E-06  7.53249378E-06  8.24861036E-06  7.58427359E-06  4.30513410E-06  7.24032645E-07
  7.56703400E-07  6.99932741E-07  7.42001612E-06  1.84913624E-05  2.68372041E-05  2.99156654E-05  2.52589070E-05  1.57427803E-05
  8.33523063E-06  3.63980917E-06  1.28377530E-06  4.18708851E-07  3.93335959E-08  4.75419135E-08  1.40525941E-07  1.96811385E-07
  4.27501533E-07  5.33867080E-07  5.53263760E-07  5.19896787E-07  3.76177240E-07  2.97856673E-07  1.37291579E-07  5.28130641E-08
  2.37604532E-08  4.18648474E-14  1.47826569E-08  5.44298011E-08  1.57168529E-07  1.94173481E-07  2.49091698E-07  2.45988389E-07
  1.29729202E-07  1.23397811E-07  6.73193723E-09  5.70470284E-08  2.79563523E-07  1.17707623E-06  2.73604655E-06  5.52719757E-06
  8.76873855E-06  1.14013728E-05  1.31674487E-05  1.08568402E-05  5.27414068E-06  7.56703400E-07
  8.09572327E-07  1.43885256E-06  9.99431086E-06  2.07509565E-05  2.87863986E-05  2.87967778E-05  2.09575428E-05  1.26336854E-05
  6.30311388E-06  2.68139070E-06  1.01261298E-06  2.10174505E-07  9.65923785E-09  2.75790484E-08  1.28293763E-07  2.76376937E-07
  3.95756501E-07  3.63655403E-07  4.43603938E-07  4.23186151E-07  2.97232020E-07  1.77560992E-07  7.02106462E-08  2.22029897E-08
  4.44571917E-14  2.35804105E-08  5.31882094E-08  1.21196365E-07  1.91637326E-07  1.81697686E-07  2.78387432E-07  1.90287423E-07
  9.14316303E-08  4.52369164E-08  1.95843342E-08  1.76054826E-07  8.05247851E-07  2.62300523E-06  5.26238591E-06  9.19596550E-06
  1.47199235E-05  2.03004511E-05  2.07330395E-05  1.50582464E-05  7.00590454E-06  8.09572327E-07
  5.85301336E-07  2.00621093E-06  1.05463041E-05  2.01990970E-05  2.45808078E-05  2.15424880E-05  1.52166012E-05  8.59281499E-06
  4.09170661E-06  1.88738011E-06  4.87556690E-07  6.96212936E-08  1.90597049E-09  8.40464764E-08  2.06652658E-07  2.95907512E-07
  3.20770653E-07  3.71296693E-07  4.71168988E-07  2.91313313E-07  1.36941679E-07  6.99367320E-08  2.33234800E-08  2.72060765E-14
  2.27338894E-08  5.31072999E-08  9.89125795E-08  2.49444042E-07  3.05654225E-07  2.93216374E-07  2.98435140E-07  1.54520677E-07
  1.08824359E-07  6.98932334E-09  7.04627325E-08  3.70994343E-07  1.84736098E-06  4.55629015E-06  8.50612560E-06  1.58113417E-05
  2.49553668E-05  3.05600406E-05  2.87863240E-05  1.99996757E-05  8.21426784E-06  5.85301336E-07
  3.81240540E-07  2.13939279E-06  9.31792601E-06  1.58682651E-05  1.80270272E-05  1.50955784E-05  9.52724622E-06  5.04112404E-06
  2.75387129E-06  1.09834559E-06  1.86874630E-07  3.26334089E-08  1.40913663E-08  1.09154456E-07  1.45676140E-07  2.85842333E-07
  2.79703869E-07  2.97167588E-07  2.43735343E-07  9.68351443E-08  5.21758032E-08  2.21533121E-08  1.43552078E-14  2.42871661E-08
  7.19479445E-08  1.36731970E-07  2.92978967E-07  4.80447454E-07  3.88738215E-07  3.37999154E-07  3.09395716E-07  2.16288598E-07
  7.72551800E-08  8.98083474E-09  1.49329054E-07  8.83561256E-07  3.09164921E-06  6.70504278E-06  1.38558053E-05  2.42912629E-05
  3.45743356E-05  4.01091020E-05  3.52092684E-05  2.20285947E-05  7.97426219E-06  3.81240540E-07
  1.67762479E-07  1.77430434E-06  6.67258610E-06  1.10491519E-05  1.15655357E-05  8.48185482E-06  5.30596299E-06  3.04982927E-06
  1.54080635E-06  4.41613537E-07  8.60691429E-08  6.43021014E-09  5.21336432E-08  8.81749074E-08  1.82502887E-07  2.66608822E-07
  1.76229278E-07  1.86989240E-07  1.17273089E-07  5.30173523E-08  2.38326816E-08  3.80003290E-15  2.27309158E-08  7.17164070E-08
  1.79134418E-07  3.02403578E-07  4.31925230E-07  4.55433621E-07  3.82172175E-07  4.15130529E-07  2.89422360E-07  1.28763318E-07
  1.87212272E-08  3.07378656E-08  3.93187833E-07  1.69085217E-06  4.32731849E-06  9.92200694E-06  1.95061402E-05  3.20187646E-05
  4.38568568E-05  4.50964508E-05  3.52470379E-05  2.05253727E-05  6.39514474E-06  1.67762479E-07
  8.92385259E-08  1.29501257E-06  4.75266916E-06  6.75436650E-06  6.13015391E-06  4.93390507E-06  3.14686008E-06  1.52951759E-06
  6.55932638E-07  1.29174182E-07  2.13165023E-08  1.40508458E-08  1.29087937E-07  1.31052275E-07  2.41276126E-07  2.43951149E-07
  1.91645583E-07  1.54327282E-07  5.51411325E-08  1.52603903E-08  1.32046994E-15  2.37699478E-08  5.26570858E-08  1.36692691E-07
  3.02152102E-07  3.83868240E-07  5.24803227E-07  5.64427296E-07  5.57776048E-07  4.48325011E-07  2.03857226E-07  1.30920426E-07
  2.91102200E-08  9.10917777E-08  7.17008220E-07  2.10133476E-06  5.63163894E-06  1.25599490E-05  2.32359689E-05  3.67079738E-05
  4.39837786E-05  4.09100867E-05  3.04895548E-05  1.54156969E-05  4.05672881E-06  8.92385259E-08
  1.67839076E-08  1.25475890E-06  3.44834757E-06  4.25584540E-06  4.21719187E-06  3.05644812E-06  1.41415364E-06  7.77739615E-07
  2.55374204E-07  1.45922439E-08  8.77235673E-10  8.53757314E-08  1.13892071E-07  1.20835253E-07  2.37028260E-07  1.74247177E-07
  1.01991887E-07  5.21574250E-08  8.52922799E-09  1.99968319E-16  1.46728958E-08  5.29602779E-08  9.80289840E-08  2.92593512E-07
  4.28871942E-07  5.24660152E-07  7.02373029E-07  6.10720235E-07  5.49138633E-07  3.85512266E-07  2.30595418E-07  1.26185199E-07
  2.74910011E-10  2.26769870E-07  8.01355554E-07  2.50875860E-06  6.62644607E-06  1.34211341E-05  2.34551080E-05  3.25812180E-05
  3.63537001E-05  3.28850838E-05  2.14114225E-05  9.66479365E-06  2.54240172E-06  1.67839076E-08
  5.30165634E-10  8.76615900E-07  2.21408459E-06  2.90591288E-06  2.53506983E-06  1.28875104E-06  7.26417738E-07  4.04068459E-07
  5.04619848E-08  4.44594139E-10  1.80547026E-08  7.37709556E-08  6.92086388E-08  1.30042153E-07  1.49631404E-07  7.69504780E-08
  6.33610213E-08  3.06196810E-08  1.20106847E-15  8.08690714E-09  5.42104814E-08  1.20077488E-07  2.48148154E-07  4.78067875E-07
  4.52857307E-07  5.66706206E-07  6.09942106E-07  4.93312200E-07  4.67489912E-07  3.25407939E-07  1.59714759E-07  2.24232082E-08
  3.32207257E-08  3.22128074E-07  1.07165272E-06  2.84093585E-06  6.30392287E-06  1.22228239E-05  1.94965996E-05  2.51134825E-05
  2.62364574E-05  2.03428426E-05  1.25412580E-05  5.91853131E-06  1.41030523E-06  5.30165634E-10
  4.01336031E-09  4.96433756E-07  1.16072817E-06  1.55427176E-06  1.16740978E-06  6.84399311E-07  3.77311039E-07  8.82757192E-08
  7.89608379E-09  2.39371878E-09  3.15114619E-08  6.31218171E-08  8.83669387E-08  1.18263529E-07  1.37977352E-07  8.78066544E-08
  4.79738915E-08  2.96053990E-19  3.01403702E-08  5.22213917E-08  1.57431458E-07  1.91189585E-07  3.04793531E-07  3.84665100E-07
  3.78274791E-07  5.53603229E-07  5.44083150E-07  4.66952372E-07  3.88253142E-07  2.71170677E-07  1.10693897E-07  9.82219373E-09
  5.50035715E-08  4.34336471E-07  1.01233366E-06  2.20526954E-06  4.93716061E-06  9.35024491E-06  1.39075355E-05  1.63271761E-05
  1.44043370E-05  1.08046670E-05  7.13258851E-06  3.24743837E-06  9.41348560E-07  4.01336031E-09
  2.40997733E-09  2.04622665E-07  6.21844606E-07  8.67711947E-07  5.25551741E-07  2.70699871E-07  6.86026240E-08  7.91422661E-09
  2.00212580E-09  2.23315055E-08  4.11720364E-08  8.11295635E-08  6.76099319E-08  1.23762661E-07  8.59179607E-08  7.53309060E-09