 DIM-GROUP
 3  1
 PRIMVEC
 0.0000000000E+00   2.6399327994E+01   2.6399327994E+01
 2.6399327994E+01   0.0000000000E+00   2.6399327994E+01
 2.6399327994E+01   2.6399327994E+01   0.0000000000E+00
 PRIMCOORD
4394 1
        3    0.0000000000E+00    0.0000000000E+00    0.0000000000E+00   -3.5444119384E-04    1.2917735261E-06    1.3570369131E-06
        9    2.0307175380E+00    2.0307175380E+00    2.0307175380E+00    1.3004643010E-04    2.7532993740E-08    1.1156134434E-08
        3    0.0000000000E+00    2.0307175380E+00    2.0307175380E+00   -3.5528268540E-04   -4.5290828249E-09    4.9930041184E-08
        9    2.0307175380E+00    4.0614350759E+00    4.0614350759E+00    1.3026196491E-04    1.0966049723E-05    1.0938536538E-05
        3    0.0000000000E+00    4.0614350759E+00    4.0614350759E+00   -3.5436630015E-04   -1.2714687741E-06   -1.2301517178E-06
        9    2.0307175380E+00    6.0921526139E+00    6.0921526139E+00    1.3018872939E-04    1.3202886952E-05    1.3159670414E-05
        3    0.0000000000E+00    6.0921526139E+00    6.0921526139E+00   -3.5298870793E-04   -9.1139864530E-06   -9.0855617112E-06
        9    2.0307175380E+00    8.1228701519E+00    8.1228701519E+00    1.2993620719E-04    9.5880926400E-06    9.5445273291E-06
        3    0.0000000000E+00    8.1228701519E+00    8.1228701519E+00   -3.5303273683E-04   -1.8473932931E-05   -1.8442403272E-05
        9    2.0307175380E+00    1.0153587690E+01    1.0153587690E+01    1.2997599151E-04    1.1012978691E-05    1.1009681714E-05
        3    0.0000000000E+00    1.0153587690E+01    1.0153587690E+01   -3.5502615732E-04   -1.8345639004E-05   -1.8279850349E-05
        9    2.0307175380E+00    1.2184305228E+01    1.2184305228E+01    1.3034592379E-04    1.5751404386E-05    1.5784301742E-05
        3    0.0000000000E+00    1.2184305228E+01    1.2184305228E+01   -3.5718276707E-04   -9.0874339976E-06   -8.9860684410E-06
        9    2.0307175380E+00    1.4215022766E+01    1.4215022766E+01    1.3022440280E-04    8.2936983046E-06    8.3059300532E-06
        3    0.0000000000E+00    1.4215022766E+01    1.4215022766E+01   -3.5828455919E-04   -2.2479747720E-06   -2.1526039424E-06
        9    2.0307175380E+00    1.6245740304E+01    1.6245740304E+01    1.2927054236E-04   -9.1065566822E-06   -9.1333402121E-06
        3    0.0000000000E+00    1.6245740304E+01    1.6245740304E+01   -3.5914455086E-04    6.1553733871E-07    6.8066598767E-07
        9    2.0307175380E+00    1.8276457842E+01    1.8276457842E+01    1.2871573498E-04   -1.5719415698E-05   -1.5755392705E-05
        3    0.0000000000E+00    1.8276457842E+01    1.8276457842E+01   -3.5866971732E-04    8.5773086999E-06    8.6309324761E-06
        9    2.0307175380E+00    2.0307175380E+01    2.0307175380E+01    1.2942606176E-04   -1.0393801962E-05   -1.0422572781E-05
        3    0.0000000000E+00    2.0307175380E+01    2.0307175380E+01   -3.5550838940E-04    1.8857530550E-05    1.8919328308E-05
        9    2.0307175380E+00    2.2337892918E+01    2.2337892918E+01    1.3029753499E-04   -9.1857857941E-06   -9.2040452717E-06
        3    0.0000000000E+00    2.2337892918E+01    2.2337892918E+01   -3.5256451208E-04    1.9104224812E-05    1.9174272130E-05
        9    2.0307175380E+00    2.4368610456E+01    2.4368610456E+01    1.3028465821E-04   -1.3213981078E-05   -1.3220117323E-05
        3    0.0000000000E+00    2.4368610456E+01    2.4368610456E+01   -3.5265377671E-04    9.3638908189E-06    9.4350440966E-06
        9    2.0307175380E+00    2.6399327994E+01    2.6399327994E+01    1.2996761544E-04   -1.1008467085E-05   -1.1014538793E-05
        3    2.0307175380E+00    0.0000000000E+00    2.0307175380E+00   -3.5578590859E-04    4.2226850356E-07    5.9697075225E-08
        9    4.0614350759E+00    2.0307175380E+00    4.0614350759E+00    1.4091832224E-04    2.3605112251E-07    1.0945308477E-05
        3    2.0307175380E+00    2.0307175380E+00    4.0614350759E+00   -3.5567243582E-04    9.8339523094E-08   -5.0877408245E-07
        9    4.0614350759E+00    4.0614350759E+00    6.0921526139E+00    1.3745638719E-04    7.5094768425E-06    1.5792904913E-05
        3    2.0307175380E+00    4.0614350759E+00    6.0921526139E+00   -3.5560386075E-04   -1.4189110326E-06   -8.5304479349E-06
        9    4.0614350759E+00    6.0921526139E+00    8.1228701519E+00    1.3171956263E-04    6.3033383903E-06    1.3533262172E-05
        3    2.0307175380E+00    6.0921526139E+00    8.1228701519E+00   -3.5575066853E-04   -7.0573999760E-06   -2.3817966356E-05
        9    4.0614350759E+00    8.1228701519E+00    1.0153587690E+01    1.2641997886E-04    3.4712122116E-06    1.4694996011E-05
        3    2.0307175380E+00    8.1228701519E+00    1.0153587690E+01   -3.5581595790E-04   -9.5212971527E-06   -3.3741288819E-05
        9    4.0614350759E+00    1.0153587690E+01    1.2184305228E+01    1.2361693895E-04    4.7820186343E-06    2.5083578690E-05
        3    2.0307175380E+00    1.0153587690E+01    1.2184305228E+01   -3.5551775437E-04   -2.2987429800E-06   -2.9687045309E-05
        9    4.0614350759E+00    1.2184305228E+01    1.4215022766E+01    1.2298442396E-04    2.5553266862E-07    3.0073609428E-05
        3    2.0307175380E+00    1.2184305228E+01    1.4215022766E+01   -3.5528868314E-04    8.4518974793E-06   -2.0323756229E-05
        9    4.0614350759E+00    1.4215022766E+01    1.6245740304E+01    1.2239715970E-04   -1.7114654308E-05    1.6485995862E-05
        3    2.0307175380E+00    1.4215022766E+01    1.6245740304E+01   -3.5585038814E-04    1.4285826744E-05   -1.5543900371E-05
        9    4.0614350759E+00    1.6245740304E+01    1.8276457842E+01    1.2144318501E-04   -2.9919819739E-05   -8.8555525864E-07
        3    2.0307175380E+00    1.6245740304E+01    1.8276457842E+01   -3.5674493478E-04    2.0185906195E-05   -9.7272071224E-06
        9    4.0614350759E+00    1.8276457842E+01    2.0307175380E+01    1.2248848190E-04   -2.4264916900E-05   -4.9510203044E-06
        3    2.0307175380E+00    1.8276457842E+01    2.0307175380E+01   -3.5665942382E-04    3.0643319667E-05    1.8278370667E-06
        9    4.0614350759E+00    2.0307175380E+01    2.2337892918E+01    1.2663381495E-04   -1.4142883450E-05   -3.4688844089E-06
        3    2.0307175380E+00    2.0307175380E+01    2.2337892918E+01   -3.5572507292E-04    3.4676201152E-05    9.6577750662E-06
        9    4.0614350759E+00    2.2337892918E+01    2.4368610456E+01    1.3225849637E-04   -1.3666989436E-05   -6.3547500458E-06
        3    2.0307175380E+00    2.2337892918E+01    2.4368610456E+01   -3.5528567472E-04    2.3992042656E-05    7.2972823545E-06
        9    4.0614350759E+00    2.4368610456E+01    2.6399327994E+01    1.3745709797E-04   -1.6070117735E-05   -7.3971107883E-06
        3    2.0307175380E+00    2.4368610456E+01    2.6399327994E+01   -3.5557028995E-04    8.2765053540E-06    1.6304728363E-06
        9    4.0614350759E+00    2.6399327994E+01    2.8430045531E+01    1.4077160671E-04   -1.0827889197E-05    8.6207382107E-08
        3    4.0614350759E+00    0.0000000000E+00    4.0614350759E+00   -3.5711723298E-04    1.3338626408E-06   -1.2144909457E-06
        9    6.0921526139E+00    2.0307175380E+00    6.0921526139E+00    1.4308618597E-04    1.8151554511E-07    1.3173644886E-05
        3    4.0614350759E+00    2.0307175380E+00    6.0921526139E+00   -3.5726829948E-04    1.7679115832E-07   -8.5229064029E-06
        9    6.0921526139E+00    4.0614350759E+00    8.1228701519E+00    1.3619203833E-04    1.7738673761E-06    1.3541404995E-05
        3    4.0614350759E+00    4.0614350759E+00    8.1228701519E+00   -3.5761068553E-04   -1.7586616490E-06   -2.5496666256E-05
        9    6.0921526139E+00    6.0921526139E+00    1.0153587690E+01    1.2849862536E-04   -1.4315153551E-06    1.6029928686E-05
        3    4.0614350759E+00    6.0921526139E+00    1.0153587690E+01   -3.5705423737E-04   -3.1756173169E-06   -4.2432241327E-05
        9    6.0921526139E+00    8.1228701519E+00    1.2184305228E+01    1.2288939773E-04   -2.6195786568E-06    2.9230549855E-05
        3    4.0614350759E+00    8.1228701519E+00    1.2184305228E+01   -3.5466933697E-04    2.5887873454E-06   -4.5347055387E-05
        9    6.0921526139E+00    1.0153587690E+01    1.4215022766E+01    1.1994642499E-04   -5.3621880910E-06    4.4176268439E-05
        3    4.0614350759E+00    1.0153587690E+01    1.4215022766E+01   -3.5168816946E-04    1.5496448721E-05   -3.6701839609E-05
        9    6.0921526139E+00    1.2184305228E+01    1.6245740304E+01    1.1849821208E-04   -2.0762494884E-05    4.0731067915E-05
        3    4.0614350759E+00    1.2184305228E+01    1.6245740304E+01   -3.5048536844E-04    2.5592925320E-05   -3.0380528464E-05
        9    6.0921526139E+00    1.4215022766E+01    1.8276457842E+01    1.1751442822E-04   -4.0885669186E-05    2.0082022798E-05
        3    4.0614350759E+00    1.4215022766E+01    1.8276457842E+01   -3.5136601734E-04    3.0111500217E-05   -2.6851876739E-05
        9    6.0921526139E+00    1.6245740304E+01    2.0307175380E+01    1.1828311659E-04   -4.3462961869E-05    4.7901110371E-06
        3    4.0614350759E+00    1.6245740304E+01    2.0307175380E+01   -3.5320483777E-04    3.7760968064E-05   -1.6693636161E-05
        9    6.0921526139E+00    1.8276457842E+01    2.2337892918E+01    1.2242373961E-04   -2.8296413825E-05    2.2183076880E-06
        3    4.0614350759E+00    1.8276457842E+01    2.2337892918E+01   -3.5514819117E-04    4.6722421781E-05   -3.2069628172E-06
        9    6.0921526139E+00    2.0307175380E+01    2.4368610456E+01    1.2912268940E-04   -1.5694387493E-05    1.0490998221E-06
        3    4.0614350759E+00    2.0307175380E+01    2.4368610456E+01   -3.5656599078E-04    4.2949983312E-05    3.0029145202E-06
        9    6.0921526139E+00    2.2337892918E+01    2.6399327994E+01    1.3665465920E-04   -1.3707671466E-05   -1.9178456325E-06
        3    4.0614350759E+00    2.2337892918E+01    2.6399327994E+01   -3.5724331904E-04    2.5175866910E-05    1.8691301246E-06
        9    6.0921526139E+00    2.4368610456E+01    2.8430045531E+01    1.4307117535E-04   -1.3159373859E-05    1.1378284210E-07
        3    4.0614350759E+00    2.4368610456E+01    2.8430045531E+01   -3.5729970027E-04    8.2045238507E-06    1.0944086449E-07
        9    6.0921526139E+00    2.6399327994E+01    3.0460763069E+01    1.4575472271E-04   -7.1731499691E-06    7.5616117680E-06
        3    6.0921526139E+00    0.0000000000E+00    6.0921526139E+00   -3.6502479734E-04    2.7356737569E-06   -9.0648455851E-06
        9    8.1228701519E+00    2.0307175380E+00    8.1228701519E+00    1.3943241835E-04   -6.0326010309E-08    9.5695169458E-06
        3    6.0921526139E+00    2.0307175380E+00    8.1228701519E+00   -3.6296602315E-04    4.3542103527E-08   -2.3803299274E-05
        9    8.1228701519E+00    4.0614350759E+00    1.0153587690E+01    1.3335986329E-04   -3.5569623002E-06    1.4710093354E-05
        3    6.0921526139E+00    4.0614350759E+00    1.0153587690E+01   -3.5905218673E-04   -1.2249672406E-06   -4.2425645724E-05
        9    8.1228701519E+00    6.0921526139E+00    1.2184305228E+01    1.2734819250E-04   -7.1025952140E-06    2.9233301697E-05
        3    6.0921526139E+00    6.0921526139E+00    1.2184305228E+01   -3.5310565753E-04    2.7083522605E-06   -5.0950064734E-05
        9    8.1228701519E+00    8.1228701519E+00    1.4215022766E+01    1.2116115599E-04   -8.8589862564E-06    4.9007438662E-05
        3    6.0921526139E+00    8.1228701519E+00    1.4215022766E+01   -3.4557666653E-04    1.5648433463E-05   -4.5829075275E-05
        9    8.1228701519E+00    1.0153587690E+01    1.6245740304E+01    1.1521987850E-04   -1.8917502445E-05    5.5669099239E-05
        3    6.0921526139E+00    1.0153587690E+01    1.6245740304E+01   -3.3940881466E-04    3.1260915961E-05   -4.0186790721E-05
        9    8.1228701519E+00    1.2184305228E+01    1.8276457842E+01    1.1191367756E-04   -4.0664471049E-05    4.0081320077E-05
        3    6.0921526139E+00    1.2184305228E+01    1.8276457842E+01   -3.3777070024E-04    3.8579826840E-05   -3.9313740034E-05
        9    8.1228701519E+00    1.4215022766E+01    2.0307175380E+01    1.1351772334E-04   -5.5670042343E-05    1.8455378552E-05
        3    6.0921526139E+00    1.4215022766E+01    2.0307175380E+01   -3.4090196093E-04    4.0630946434E-05   -3.2395159033E-05
        9    8.1228701519E+00    1.6245740304E+01    2.2337892918E+01    1.1975014646E-04   -4.8217618850E-05    8.6422249635E-06
        3    6.0921526139E+00    1.6245740304E+01    2.2337892918E+01   -3.4676669800E-04    4.7227749590E-05   -1.6528593102E-05
        9    8.1228701519E+00    1.8276457842E+01    2.4368610456E+01    1.2734800264E-04   -2.8324755989E-05    6.7314405249E-06
        3    6.0921526139E+00    1.8276457842E+01    2.4368610456E+01   -3.5300559466E-04    5.2114906041E-05   -3.2677906947E-06
        9    8.1228701519E+00    2.0307175380E+01    2.6399327994E+01    1.3394660574E-04   -1.4273354044E-05    3.0261604220E-06
        3    6.0921526139E+00    2.0307175380E+01    2.6399327994E+01   -3.5846280237E-04    4.2633708412E-05    9.2937043578E-07
        9    8.1228701519E+00    2.2337892918E+01    2.8430045531E+01    1.3966660687E-04   -9.4346659353E-06   -1.8842573992E-07
        3    6.0921526139E+00    2.2337892918E+01    2.8430045531E+01   -3.6273550941E-04    2.3488893479E-05   -3.4737264742E-08
        9    8.1228701519E+00    2.4368610456E+01    3.0460763069E+01    1.4361848812E-04   -6.3026626819E-06    1.9126526999E-06
        3    6.0921526139E+00    2.4368610456E+01    3.0460763069E+01   -3.6503678950E-04    8.9387621190E-06   -2.6052114394E-06
        9    8.1228701519E+00    2.6399327994E+01    3.2491480607E+01    1.4363438550E-04   -1.7670518617E-06    6.5022334371E-06
        3    8.1228701519E+00    0.0000000000E+00    8.1228701519E+00   -3.7442647422E-04    2.7109790679E-06   -1.8412339818E-05
        9    1.0153587690E+01    2.0307175380E+00    1.0153587690E+01    1.4087115597E-04   -4.7537558633E-08    1.1042638172E-05
        3    8.1228701519E+00    2.0307175380E+00    1.0153587690E+01   -3.6543852083E-04   -3.6473849737E-08   -3.3720786501E-05
        9    1.0153587690E+01    4.0614350759E+00    1.2184305228E+01    1.3472456936E-04   -6.3993766732E-06    2.5095801257E-05
        3    8.1228701519E+00    4.0614350759E+00    1.2184305228E+01   -3.5325299507E-04    1.1145968116E-06   -4.5342492170E-05
        9    1.0153587690E+01    6.0921526139E+00    1.4215022766E+01    1.2466528132E-04   -1.0059368777E-05    4.4168424408E-05
        3    8.1228701519E+00    6.0921526139E+00    1.4215022766E+01   -3.4011531606E-04    1.0193719895E-05   -4.5837427812E-05
        9    1.0153587690E+01    8.1228701519E+00    1.6245740304E+01    1.1113768651E-04   -1.4772915882E-05    5.5654742669E-05
        3    8.1228701519E+00    8.1228701519E+00    1.6245740304E+01   -3.2803601658E-04    2.7708592589E-05   -4.3530940189E-05
        9    1.0153587690E+01    1.0153587690E+01    1.8276457842E+01    1.0027404032E-04   -2.9747840272E-05    4.8448096029E-05
        3    8.1228701519E+00    1.0153587690E+01    1.8276457842E+01   -3.2080909966E-04    4.2667571481E-05   -4.6033141822E-05
        9    1.0153587690E+01    1.2184305228E+01    2.0307175380E+01    9.9337738217E-05   -4.9436616109E-05    2.9151701062E-05
        3    8.1228701519E+00    1.2184305228E+01    2.0307175380E+01   -3.2180574907E-04    4.5357841143E-05   -4.3408058889E-05
        9    1.0153587690E+01    1.4215022766E+01    2.2337892918E+01    1.0942702292E-04   -5.5942857069E-05    1.5083220710E-05
        3    8.1228701519E+00    1.4215022766E+01    2.2337892918E+01   -3.2983822953E-04    4.3769320470E-05   -2.7967649345E-05
        9    1.0153587690E+01    1.6245740304E+01    2.4368610456E+01    1.2387980706E-04   -4.3494449220E-05    1.0601151186E-05
        3    8.1228701519E+00    1.6245740304E+01    2.4368610456E+01   -3.4087285541E-04    4.6882509256E-05   -1.0271722260E-05
        9    1.0153587690E+01    1.8276457842E+01    2.6399327994E+01    1.3499724861E-04   -2.4162194807E-05    6.3769979867E-06
        3    8.1228701519E+00    1.8276457842E+01    2.6399327994E+01   -3.5285567160E-04    4.6237518256E-05   -1.3996549891E-06
        9    1.0153587690E+01    2.0307175380E+01    2.8430045531E+01    1.4124210215E-04   -1.0471639325E-05   -4.5243841971E-07
        3    8.1228701519E+00    2.0307175380E+01    2.8430045531E+01   -3.6495646050E-04    3.3935247696E-05   -3.5005839565E-07
        9    1.0153587690E+01    2.2337892918E+01    3.0460763069E+01    1.4478980437E-04   -3.4590171947E-06   -3.7383285425E-06
        3    8.1228701519E+00    2.2337892918E+01    3.0460763069E+01   -3.7430673788E-04    1.8234026412E-05   -2.9752334899E-06
        9    1.0153587690E+01    2.4368610456E+01    3.2491480607E+01    1.4615627681E-04    1.1797263174E-06   -1.3151127815E-06
        3    8.1228701519E+00    2.4368610456E+01    3.2491480607E+01   -3.7774734282E-04    8.0779067658E-06   -8.2833326815E-06
        9    1.0153587690E+01    2.6399327994E+01    3.4522198145E+01    1.4472699691E-04    3.3050520903E-06    3.6214431867E-06
        3    1.0153587690E+01    0.0000000000E+00    1.0153587690E+01   -3.7429727663E-04    7.0040008666E-07   -1.8241035351E-05
        9    1.2184305228E+01    2.0307175380E+00    1.2184305228E+01    1.4566074411E-04    2.9878529588E-07    1.5813773746E-05
        3    1.0153587690E+01    2.0307175380E+00    1.2184305228E+01   -3.5816951332E-04    2.3095665006E-07   -2.9672101872E-05
        9    1.2184305228E+01    4.0614350759E+00    1.4215022766E+01    1.3026593286E-04   -7.0213145609E-06    3.0071670618E-05
        3    1.0153587690E+01    4.0614350759E+00    1.4215022766E+01   -3.4027215355E-04    4.0813979754E-06   -3.6718562517E-05
        9    1.2184305228E+01    6.0921526139E+00    1.6245740304E+01    1.0932582740E-04   -1.1456450047E-05    4.0701463101E-05
        3    1.0153587690E+01    6.0921526139E+00    1.6245740304E+01   -3.2443238321E-04    1.6387599063E-05   -4.0226828427E-05
        9    1.2184305228E+01    8.1228701519E+00    1.8276457842E+01    8.9457520947E-05   -1.8016301121E-05    4.0039294772E-05
        3    1.0153587690E+01    8.1228701519E+00    1.8276457842E+01   -3.1301152823E-04    3.4985336791E-05   -4.6068414330E-05
        9    1.2184305228E+01    1.0153587690E+01    2.0307175380E+01    8.0685426136E-05   -3.0641162429E-05    2.9121385085E-05
        3    1.0153587690E+01    1.0153587690E+01    2.0307175380E+01   -3.0934332667E-04    4.6369810515E-05   -4.7589289892E-05
        9    1.2184305228E+01    1.2184305228E+01    2.2337892918E+01    8.8415013398E-05   -4.1677399341E-05    1.7919793133E-05
        3    1.0153587690E+01    1.2184305228E+01    2.2337892918E+01   -3.1474874370E-04    4.4499409210E-05   -3.4787733756E-05
        9    1.2184305228E+01    1.4215022766E+01    2.4368610456E+01    1.0848570099E-04   -4.1211141613E-05    1.2682174880E-05
        3    1.0153587690E+01    1.4215022766E+01    2.4368610456E+01   -3.2598722674E-04    3.9709095733E-05   -1.5275042648E-05
        9    1.2184305228E+01    1.6245740304E+01    2.6399327994E+01    1.3037376337E-04   -2.9491100398E-05    8.3206194159E-06
        3    1.0153587690E+01    1.6245740304E+01    2.6399327994E+01   -3.4041935661E-04    3.7307647838E-05   -3.2451925672E-06
        9    1.2184305228E+01    1.8276457842E+01    2.8430045531E+01    1.4622938245E-04   -1.5030914704E-05    1.7795793236E-07
        3    1.0153587690E+01    1.8276457842E+01    2.8430045531E+01   -3.5754643385E-04    3.0378997188E-05   -1.5191649325E-07
        9    1.2184305228E+01    2.0307175380E+01    3.0460763069E+01    1.5517050141E-04   -4.3557562383E-06   -6.8808954918E-06
        3    1.0153587690E+01    2.0307175380E+01    3.0460763069E+01   -3.7386031007E-04    1.8416047948E-05   -1.0667498777E-06
        9    1.2184305228E+01    2.2337892918E+01    3.2491480607E+01    1.5914259436E-04    2.6482840783E-06   -7.4654792823E-06
        3    1.0153587690E+01    2.2337892918E+01    3.2491480607E+01   -3.8357743098E-04    8.8764772599E-06   -4.0444530983E-06
        9    1.2184305228E+01    2.4368610456E+01    3.4522198145E+01    1.5906295554E-04    7.0953794894E-06   -2.7809545485E-06
        3    1.0153587690E+01    2.4368610456E+01    3.4522198145E+01   -3.8367966923E-04    3.6116108355E-06   -9.1477384056E-06
        9    1.2184305228E+01    2.6399327994E+01    3.6552915683E+01    1.5481249696E-04    6.6642988686E-06    4.7024573180E-06
        3    1.2184305228E+01    0.0000000000E+00    1.2184305228E+01   -3.6499758311E-04   -1.4822985054E-06   -8.9517898886E-06
        9    1.4215022766E+01    2.0307175380E+00    1.4215022766E+01    1.3825946761E-04    1.9081014052E-07    8.3197969807E-06
        3    1.2184305228E+01    2.0307175380E+00    1.4215022766E+01   -3.4734589897E-04    4.5868994230E-07   -2.0330882941E-05
        9    1.4215022766E+01    4.0614350759E+00    1.6245740304E+01    1.1295251345E-04   -7.5751531700E-06    1.6462603938E-05
        3    1.2184305228E+01    4.0614350759E+00    1.6245740304E+01   -3.3009458443E-04    5.3195899797E-06   -3.0432829745E-05
        9    1.4215022766E+01    6.0921526139E+00    1.8276457842E+01    8.9264309456E-05   -1.2406094157E-05    2.0027096133E-05
        3    1.2184305228E+01    6.0921526139E+00    1.8276457842E+01   -3.1702592881E-04    1.8084862781E-05   -3.9395791811E-05
        9    1.4215022766E+01    8.1228701519E+00    2.0307175380E+01    7.4541980588E-05   -1.6389681248E-05    1.8386831735E-05
        3    1.2184305228E+01    8.1228701519E+00    2.0307175380E+01   -3.1020513505E-04    3.4045955380E-05   -4.3487423126E-05
        9    1.4215022766E+01    1.0153587690E+01    2.2337892918E+01    7.4297359963E-05   -2.0519422022E-05    1.5026984732E-05
        3    1.2184305228E+01    1.0153587690E+01    2.2337892918E+01   -3.1106660898E-04    4.1016859801E-05   -3.4833001820E-05
        9    1.4215022766E+01    1.2184305228E+01    2.4368610456E+01    8.8989564456E-05   -2.1529276605E-05    1.2654983868E-05
        3    1.2184305228E+01    1.2184305228E+01    2.4368610456E+01   -3.1855704869E-04    3.7076445592E-05   -1.6901726814E-05
        9    1.4215022766E+01    1.4215022766E+01    2.6399327994E+01    1.1335367634E-04   -1.6725697016E-05    8.9697407335E-06
        3    1.2184305228E+01    1.4215022766E+01    2.6399327994E+01   -3.3058502801E-04    2.9636433866E-05   -3.4406598210E-06
        9    1.4215022766E+01    1.6245740304E+01    2.8430045531E+01    1.3932395608E-04   -7.8516438080E-06    1.2719959736E-06
        3    1.2184305228E+01    1.6245740304E+01    2.8430045531E+01   -3.4656139852E-04    2.0712905049E-05    8.8660802198E-07
        9    1.4215022766E+01    1.8276457842E+01    3.0460763069E+01    1.6063113107E-04    4.7247803843E-07   -6.8799476183E-06
        3    1.2184305228E+01    1.8276457842E+01    3.0460763069E+01   -3.6393794000E-04    9.4165610477E-06    2.0161224409E-06
        9    1.4215022766E+01    2.0307175380E+01    3.2491480607E+01    1.7415738908E-04    5.9220017726E-06   -1.0415191586E-05
        3    1.2184305228E+01    2.0307175380E+01    3.2491480607E+01   -3.7704724309E-04    2.3952838577E-07    3.1513556176E-06
        9    1.4215022766E+01    2.2337892918E+01    3.4522198145E+01    1.7857803591E-04    9.3837111075E-06   -9.3172379507E-06
        3    1.2184305228E+01    2.2337892918E+01    3.4522198145E+01   -3.8189738952E-04   -3.3450167634E-06    3.1733590925E-06
        9    1.4215022766E+01    2.4368610456E+01    3.6552915683E+01    1.7352138196E-04    1.0775254629E-05   -5.8060367819E-06
        3    1.2184305228E+01    2.4368610456E+01    3.6552915683E+01   -3.7764231390E-04   -3.1466930823E-06   -1.9921756056E-07
        9    1.4215022766E+01    2.6399327994E+01    3.8583633221E+01    1.5952496910E-04    7.7875962542E-06   -5.2747486109E-08
        3    1.4215022766E+01    0.0000000000E+00    1.4215022766E+01   -3.5809562643E-04   -2.5862632568E-06   -2.1390827798E-06
        9    1.6245740304E+01    2.0307175380E+00    1.6245740304E+01    1.2091227512E-04   -7.6359788244E-07   -9.1443721840E-06
        3    1.4215022766E+01    2.0307175380E+00    1.6245740304E+01   -3.4144292718E-04   -8.7579251456E-08   -1.5580582109E-05
        9    1.6245740304E+01    4.0614350759E+00    1.8276457842E+01    1.0019016352E-04   -8.5425821987E-06   -9.3161955425E-07
        3    1.4215022766E+01    4.0614350759E+00    1.8276457842E+01   -3.2550759380E-04    4.4608427147E-06   -2.6936145107E-05
        9    1.6245740304E+01    6.0921526139E+00    2.0307175380E+01    8.6730607756E-05   -1.1660325206E-05    4.7203179616E-06
        3    1.4215022766E+01    6.0921526139E+00    2.0307175380E+01   -3.1489207542E-04    1.4969151612E-05   -3.2505949019E-05
        9    1.6245740304E+01    8.1228701519E+00    2.2337892918E+01    8.2046946241E-05   -1.0166474315E-05    8.5693461403E-06
        3    1.4215022766E+01    8.1228701519E+00    2.2337892918E+01   -3.1168273584E-04    2.6035682549E-05   -2.8072615251E-05
        9    1.6245740304E+01    1.0153587690E+01    2.4368610456E+01    8.6799133301E-05   -6.0238978488E-06    1.0544159355E-05
        3    1.4215022766E+01    1.0153587690E+01    2.4368610456E+01   -3.1573250972E-04    2.9846051358E-05   -1.5346921364E-05
        9    1.6245740304E+01    1.2184305228E+01    2.6399327994E+01    1.0075600745E-04    4.7292893373E-07    8.2839036157E-06
        3    1.4215022766E+01    1.2184305228E+01    2.6399327994E+01   -3.2589209849E-04    2.5183012569E-05   -3.4712408048E-06
        9    1.6245740304E+01    1.4215022766E+01    2.8430045531E+01    1.2227716126E-04    9.4037762813E-06    1.2514181442E-06
        3    1.4215022766E+01    1.4215022766E+01    2.8430045531E+01   -3.4047555960E-04    1.5222980084E-05    1.5590377556E-06
        9    1.6245740304E+01    1.6245740304E+01    3.0460763069E+01    1.4785289948E-04    1.7869650945E-05   -6.2360720730E-06
        3    1.4215022766E+01    1.6245740304E+01    3.0460763069E+01   -3.5625520344E-04    2.4884665734E-06    3.9507980476E-06
        9    1.6245740304E+01    1.8276457842E+01    3.2491480607E+01    1.7148715078E-04    2.1517040920E-05   -1.0814352788E-05
        3    1.4215022766E+01    1.8276457842E+01    3.2491480607E+01   -3.6895080726E-04   -9.6842966687E-06    9.2209461751E-06
        9    1.6245740304E+01    2.0307175380E+01    3.4522198145E+01    1.8560392813E-04    1.9589794381E-05   -1.4614274569E-05
        3    1.4215022766E+01    2.0307175380E+01    3.4522198145E+01   -3.7589703596E-04   -1.6210370502E-05    1.5304505196E-05
        9    1.6245740304E+01    2.2337892918E+01    3.6552915683E+01    1.8492649514E-04    1.5442088232E-05   -1.9128649641E-05
        3    1.4215022766E+01    2.2337892918E+01    3.6552915683E+01   -3.7652183307E-04   -1.4720730650E-05    1.6505124422E-05
        9    1.6245740304E+01    2.4368610456E+01    3.8583633221E+01    1.6980106294E-04    1.1882346442E-05   -2.1163617083E-05
        3    1.4215022766E+01    2.4368610456E+01    3.8583633221E+01   -3.7057379872E-04   -8.2011571647E-06    1.0021834773E-05
        9    1.6245740304E+01    2.6399327994E+01    4.0614350759E+01    1.4595450150E-04    7.1798944707E-06   -1.7420972172E-05
        3    1.6245740304E+01    0.0000000000E+00    1.6245740304E+01   -3.5516141924E-04   -3.4502932944E-06    6.6596335960E-07
        9    1.8276457842E+01    2.0307175380E+00    1.8276457842E+01    1.1434695272E-04   -1.3497777040E-06   -1.5789853348E-05
        3    1.6245740304E+01    2.0307175380E+00    1.8276457842E+01   -3.3548826013E-04   -9.9579859043E-07   -9.7886340028E-06
        9    1.8276457842E+01    4.0614350759E+00    2.0307175380E+01    1.0586611479E-04   -7.5275485070E-06   -5.0072245292E-06
        3    1.6245740304E+01    4.0614350759E+00    2.0307175380E+01   -3.1781627736E-04    2.5989460390E-06   -1.6791895914E-05
        9    1.8276457842E+01    6.0921526139E+00    2.2337892918E+01    1.0189819415E-04   -7.5399978340E-06    2.1568228467E-06
        3    1.6245740304E+01    6.0921526139E+00    2.2337892918E+01   -3.0825774960E-04    9.0823351927E-06   -1.6639127229E-05
        9    1.8276457842E+01    8.1228701519E+00    2.4368610456E+01    1.0192227887E-04   -2.5646000035E-06    6.6802240178E-06
        3    1.6245740304E+01    8.1228701519E+00    2.4368610456E+01   -3.0853590353E-04    1.5012018636E-05   -1.0367656603E-05
        9    1.8276457842E+01    1.0153587690E+01    2.6399327994E+01    1.0610234845E-04    5.1412419438E-06    6.3373382972E-06
        3    1.6245740304E+01    1.0153587690E+01    2.6399327994E+01   -3.1810549673E-04    1.5493000558E-05   -3.3114943644E-06
        9    1.8276457842E+01    1.2184305228E+01    2.8430045531E+01    1.1520378582E-04    1.6427691273E-05    1.3759689946E-07
        3    1.6245740304E+01    1.2184305228E+01    2.8430045531E+01   -3.3477863861E-04    9.3580752685E-06    8.4725550439E-07
        9    1.8276457842E+01    1.4215022766E+01    3.0460763069E+01    1.3064196984E-04    3.0841877196E-05   -6.9245775338E-06
        3    1.6245740304E+01    1.4215022766E+01    3.0460763069E+01   -3.5314246431E-04   -3.7434294559E-07    3.9294985856E-06
        9    1.8276457842E+01    1.6245740304E+01    3.2491480607E+01    1.5159700638E-04    4.1632001883E-05   -1.0846095196E-05
        3    1.6245740304E+01    1.6245740304E+01    3.2491480607E+01   -3.6769864468E-04   -1.1914936525E-05    1.1300978064E-05
        9    1.8276457842E+01    1.8276457842E+01    3.4522198145E+01    1.7092178071E-04    4.0950989426E-05   -1.6655714279E-05
        3    1.6245740304E+01    1.8276457842E+01    3.4522198145E+01   -3.7668377182E-04   -2.3314071284E-05    2.2557436415E-05
        9    1.8276457842E+01    2.0307175380E+01    3.6552915683E+01    1.7827469314E-04    2.9548232491E-05   -2.8861432445E-05
        3    1.6245740304E+01    2.0307175380E+01    3.6552915683E+01   -3.8035246868E-04   -2.7918723855E-05    2.8690007133E-05