
 **** DERIVATIVE DATABASE ****    
+DDB, Version number    100401

 Total ddb for Al FCC system

    usepaw         0
     natom         1
      nkpt       216
    nsppol         1
      nsym        48
    ntypat         1
    occopt         7
     nband        10
     acell  0.75000000000000D+01  0.75000000000000D+01  0.75000000000000D+01
       amu  0.26981539000000D+02
   dilatmx  0.10000000000000D+01
      ecut  0.40000000000000D+01
    ecutsm  0.00000000000000D+00
     intxc         0
      iscf         7
       ixc        11
       kpt  0.00000000000000D+00  0.00000000000000D+00  0.00000000000000D+00
            0.16666666666667D+00  0.00000000000000D+00  0.00000000000000D+00
            0.33333333333333D+00  0.00000000000000D+00  0.00000000000000D+00
            0.50000000000000D+00  0.00000000000000D+00  0.00000000000000D+00
           -0.33333333333333D+00  0.00000000000000D+00  0.00000000000000D+00
           -0.16666666666667D+00  0.00000000000000D+00  0.00000000000000D+00
            0.00000000000000D+00  0.16666666666667D+00  0.00000000000000D+00
            0.16666666666667D+00  0.16666666666667D+00  0.00000000000000D+00
            0.33333333333333D+00  0.16666666666667D+00  0.00000000000000D+00
            0.50000000000000D+00  0.16666666666667D+00  0.00000000000000D+00
           -0.33333333333333D+00  0.16666666666667D+00  0.00000000000000D+00
           -0.16666666666667D+00  0.16666666666667D+00  0.00000000000000D+00
            0.00000000000000D+00  0.33333333333333D+00  0.00000000000000D+00
            0.16666666666667D+00  0.33333333333333D+00  0.00000000000000D+00
            0.33333333333333D+00  0.33333333333333D+00  0.00000000000000D+00
            0.50000000000000D+00  0.33333333333333D+00  0.00000000000000D+00
           -0.33333333333333D+00  0.33333333333333D+00  0.00000000000000D+00
           -0.16666666666667D+00  0.33333333333333D+00  0.00000000000000D+00
            0.00000000000000D+00  0.50000000000000D+00  0.00000000000000D+00
            0.16666666666667D+00  0.50000000000000D+00  0.00000000000000D+00
            0.33333333333333D+00  0.50000000000000D+00  0.00000000000000D+00
            0.50000000000000D+00  0.50000000000000D+00  0.00000000000000D+00
           -0.33333333333333D+00  0.50000000000000D+00  0.00000000000000D+00
           -0.16666666666667D+00  0.50000000000000D+00  0.00000000000000D+00
            0.00000000000000D+00 -0.33333333333333D+00  0.00000000000000D+00
            0.16666666666667D+00 -0.33333333333333D+00  0.00000000000000D+00
            0.33333333333333D+00 -0.33333333333333D+00  0.00000000000000D+00
            0.50000000000000D+00 -0.33333333333333D+00  0.00000000000000D+00
           -0.33333333333333D+00 -0.33333333333333D+00  0.00000000000000D+00
           -0.16666666666667D+00 -0.33333333333333D+00  0.00000000000000D+00
            0.00000000000000D+00 -0.16666666666667D+00  0.00000000000000D+00
            0.16666666666667D+00 -0.16666666666667D+00  0.00000000000000D+00
            0.33333333333333D+00 -0.16666666666667D+00  0.00000000000000D+00
            0.50000000000000D+00 -0.16666666666667D+00  0.00000000000000D+00
           -0.33333333333333D+00 -0.16666666666667D+00  0.00000000000000D+00
           -0.16666666666667D+00 -0.16666666666667D+00  0.00000000000000D+00
            0.00000000000000D+00  0.00000000000000D+00  0.16666666666667D+00
            0.16666666666667D+00  0.00000000000000D+00  0.16666666666667D+00
            0.33333333333333D+00  0.00000000000000D+00  0.16666666666667D+00
            0.50000000000000D+00  0.00000000000000D+00  0.16666666666667D+00
           -0.33333333333333D+00  0.00000000000000D+00  0.16666666666667D+00
           -0.16666666666667D+00  0.00000000000000D+00  0.16666666666667D+00
            0.00000000000000D+00  0.16666666666667D+00  0.16666666666667D+00
            0.16666666666667D+00  0.16666666666667D+00  0.16666666666667D+00
            0.33333333333333D+00  0.16666666666667D+00  0.16666666666667D+00
            0.50000000000000D+00  0.16666666666667D+00  0.16666666666667D+00
           -0.33333333333333D+00  0.16666666666667D+00  0.16666666666667D+00
           -0.16666666666667D+00  0.16666666666667D+00  0.16666666666667D+00
            0.00000000000000D+00  0.33333333333333D+00  0.16666666666667D+00
            0.16666666666667D+00  0.33333333333333D+00  0.16666666666667D+00
            0.33333333333333D+00  0.33333333333333D+00  0.16666666666667D+00
            0.50000000000000D+00  0.33333333333333D+00  0.16666666666667D+00
           -0.33333333333333D+00  0.33333333333333D+00  0.16666666666667D+00
           -0.16666666666667D+00  0.33333333333333D+00  0.16666666666667D+00
            0.00000000000000D+00  0.50000000000000D+00  0.16666666666667D+00
            0.16666666666667D+00  0.50000000000000D+00  0.16666666666667D+00
            0.33333333333333D+00  0.50000000000000D+00  0.16666666666667D+00
            0.50000000000000D+00  0.50000000000000D+00  0.16666666666667D+00
           -0.33333333333333D+00  0.50000000000000D+00  0.16666666666667D+00
           -0.16666666666667D+00  0.50000000000000D+00  0.16666666666667D+00
            0.00000000000000D+00 -0.33333333333333D+00  0.16666666666667D+00
            0.16666666666667D+00 -0.33333333333333D+00  0.16666666666667D+00
            0.33333333333333D+00 -0.33333333333333D+00  0.16666666666667D+00
            0.50000000000000D+00 -0.33333333333333D+00  0.16666666666667D+00
           -0.33333333333333D+00 -0.33333333333333D+00  0.16666666666667D+00
           -0.16666666666667D+00 -0.33333333333333D+00  0.16666666666667D+00
            0.00000000000000D+00 -0.16666666666667D+00  0.16666666666667D+00
            0.16666666666667D+00 -0.16666666666667D+00  0.16666666666667D+00
            0.33333333333333D+00 -0.16666666666667D+00  0.16666666666667D+00
            0.50000000000000D+00 -0.16666666666667D+00  0.16666666666667D+00
           -0.33333333333333D+00 -0.16666666666667D+00  0.16666666666667D+00
           -0.16666666666667D+00 -0.16666666666667D+00  0.16666666666667D+00
            0.00000000000000D+00  0.00000000000000D+00  0.33333333333333D+00
            0.16666666666667D+00  0.00000000000000D+00  0.33333333333333D+00
            0.33333333333333D+00  0.00000000000000D+00  0.33333333333333D+00
            0.50000000000000D+00  0.00000000000000D+00  0.33333333333333D+00
           -0.33333333333333D+00  0.00000000000000D+00  0.33333333333333D+00
           -0.16666666666667D+00  0.00000000000000D+00  0.33333333333333D+00
            0.00000000000000D+00  0.16666666666667D+00  0.33333333333333D+00
            0.16666666666667D+00  0.16666666666667D+00  0.33333333333333D+00
            0.33333333333333D+00  0.16666666666667D+00  0.33333333333333D+00
            0.50000000000000D+00  0.16666666666667D+00  0.33333333333333D+00
           -0.33333333333333D+00  0.16666666666667D+00  0.33333333333333D+00
           -0.16666666666667D+00  0.16666666666667D+00  0.33333333333333D+00
            0.00000000000000D+00  0.33333333333333D+00  0.33333333333333D+00
            0.16666666666667D+00  0.33333333333333D+00  0.33333333333333D+00
            0.33333333333333D+00  0.33333333333333D+00  0.33333333333333D+00
            0.50000000000000D+00  0.33333333333333D+00  0.33333333333333D+00
           -0.33333333333333D+00  0.33333333333333D+00  0.33333333333333D+00
           -0.16666666666667D+00  0.33333333333333D+00  0.33333333333333D+00
            0.00000000000000D+00  0.50000000000000D+00  0.33333333333333D+00
            0.16666666666667D+00  0.50000000000000D+00  0.33333333333333D+00
            0.33333333333333D+00  0.50000000000000D+00  0.33333333333333D+00
            0.50000000000000D+00  0.50000000000000D+00  0.33333333333333D+00
           -0.33333333333333D+00  0.50000000000000D+00  0.33333333333333D+00
           -0.16666666666667D+00  0.50000000000000D+00  0.33333333333333D+00
            0.00000000000000D+00 -0.33333333333333D+00  0.33333333333333D+00
            0.16666666666667D+00 -0.33333333333333D+00  0.33333333333333D+00
            0.33333333333333D+00 -0.33333333333333D+00  0.33333333333333D+00
            0.50000000000000D+00 -0.33333333333333D+00  0.33333333333333D+00
           -0.33333333333333D+00 -0.33333333333333D+00  0.33333333333333D+00
           -0.16666666666667D+00 -0.33333333333333D+00  0.33333333333333D+00
            0.00000000000000D+00 -0.16666666666667D+00  0.33333333333333D+00
            0.16666666666667D+00 -0.16666666666667D+00  0.33333333333333D+00
            0.33333333333333D+00 -0.16666666666667D+00  0.33333333333333D+00
            0.50000000000000D+00 -0.16666666666667D+00  0.33333333333333D+00
           -0.33333333333333D+00 -0.16666666666667D+00  0.33333333333333D+00
           -0.16666666666667D+00 -0.16666666666667D+00  0.33333333333333D+00
            0.00000000000000D+00  0.00000000000000D+00  0.50000000000000D+00
            0.16666666666667D+00  0.00000000000000D+00  0.50000000000000D+00
            0.33333333333333D+00  0.00000000000000D+00  0.50000000000000D+00
            0.50000000000000D+00  0.00000000000000D+00  0.50000000000000D+00
           -0.33333333333333D+00  0.00000000000000D+00  0.50000000000000D+00
           -0.16666666666667D+00  0.00000000000000D+00  0.50000000000000D+00
            0.00000000000000D+00  0.16666666666667D+00  0.50000000000000D+00
            0.16666666666667D+00  0.16666666666667D+00  0.50000000000000D+00
            0.33333333333333D+00  0.16666666666667D+00  0.50000000000000D+00
            0.50000000000000D+00  0.16666666666667D+00  0.50000000000000D+00
           -0.33333333333333D+00  0.16666666666667D+00  0.50000000000000D+00
           -0.16666666666667D+00  0.16666666666667D+00  0.50000000000000D+00
            0.00000000000000D+00  0.33333333333333D+00  0.50000000000000D+00
            0.16666666666667D+00  0.33333333333333D+00  0.50000000000000D+00
            0.33333333333333D+00  0.33333333333333D+00  0.50000000000000D+00
            0.50000000000000D+00  0.33333333333333D+00  0.50000000000000D+00
           -0.33333333333333D+00  0.33333333333333D+00  0.50000000000000D+00
           -0.16666666666667D+00  0.33333333333333D+00  0.50000000000000D+00
            0.00000000000000D+00  0.50000000000000D+00  0.50000000000000D+00
            0.16666666666667D+00  0.50000000000000D+00  0.50000000000000D+00
            0.33333333333333D+00  0.50000000000000D+00  0.50000000000000D+00
            0.50000000000000D+00  0.50000000000000D+00  0.50000000000000D+00
           -0.33333333333333D+00  0.50000000000000D+00  0.50000000000000D+00
           -0.16666666666667D+00  0.50000000000000D+00  0.50000000000000D+00
            0.00000000000000D+00 -0.33333333333333D+00  0.50000000000000D+00
            0.16666666666667D+00 -0.33333333333333D+00  0.50000000000000D+00
            0.33333333333333D+00 -0.33333333333333D+00  0.50000000000000D+00
            0.50000000000000D+00 -0.33333333333333D+00  0.50000000000000D+00
           -0.33333333333333D+00 -0.33333333333333D+00  0.50000000000000D+00
           -0.16666666666667D+00 -0.33333333333333D+00  0.50000000000000D+00
            0.00000000000000D+00 -0.16666666666667D+00  0.50000000000000D+00
            0.16666666666667D+00 -0.16666666666667D+00  0.50000000000000D+00
            0.33333333333333D+00 -0.16666666666667D+00  0.50000000000000D+00
            0.50000000000000D+00 -0.16666666666667D+00  0.50000000000000D+00
           -0.33333333333333D+00 -0.16666666666667D+00  0.50000000000000D+00
           -0.16666666666667D+00 -0.16666666666667D+00  0.50000000000000D+00
            0.00000000000000D+00  0.00000000000000D+00 -0.33333333333333D+00
            0.16666666666667D+00  0.00000000000000D+00 -0.33333333333333D+00
            0.33333333333333D+00  0.00000000000000D+00 -0.33333333333333D+00
            0.50000000000000D+00  0.00000000000000D+00 -0.33333333333333D+00
           -0.33333333333333D+00  0.00000000000000D+00 -0.33333333333333D+00
           -0.16666666666667D+00  0.00000000000000D+00 -0.33333333333333D+00
            0.00000000000000D+00  0.16666666666667D+00 -0.33333333333333D+00
            0.16666666666667D+00  0.16666666666667D+00 -0.33333333333333D+00
            0.33333333333333D+00  0.16666666666667D+00 -0.33333333333333D+00
            0.50000000000000D+00  0.16666666666667D+00 -0.33333333333333D+00
           -0.33333333333333D+00  0.16666666666667D+00 -0.33333333333333D+00
           -0.16666666666667D+00  0.16666666666667D+00 -0.33333333333333D+00
            0.00000000000000D+00  0.33333333333333D+00 -0.33333333333333D+00
            0.16666666666667D+00  0.33333333333333D+00 -0.33333333333333D+00
            0.33333333333333D+00  0.33333333333333D+00 -0.33333333333333D+00
            0.50000000000000D+00  0.33333333333333D+00 -0.33333333333333D+00
           -0.33333333333333D+00  0.33333333333333D+00 -0.33333333333333D+00
           -0.16666666666667D+00  0.33333333333333D+00 -0.33333333333333D+00
            0.00000000000000D+00  0.50000000000000D+00 -0.33333333333333D+00
            0.16666666666667D+00  0.50000000000000D+00 -0.33333333333333D+00
            0.33333333333333D+00  0.50000000000000D+00 -0.33333333333333D+00
            0.50000000000000D+00  0.50000000000000D+00 -0.33333333333333D+00
           -0.33333333333333D+00  0.50000000000000D+00 -0.33333333333333D+00
           -0.16666666666667D+00  0.50000000000000D+00 -0.33333333333333D+00
            0.00000000000000D+00 -0.33333333333333D+00 -0.33333333333333D+00
            0.16666666666667D+00 -0.33333333333333D+00 -0.33333333333333D+00
            0.33333333333333D+00 -0.33333333333333D+00 -0.33333333333333D+00
            0.50000000000000D+00 -0.33333333333333D+00 -0.33333333333333D+00
           -0.33333333333333D+00 -0.33333333333333D+00 -0.33333333333333D+00
           -0.16666666666667D+00 -0.33333333333333D+00 -0.33333333333333D+00
            0.00000000000000D+00 -0.16666666666667D+00 -0.33333333333333D+00
            0.16666666666667D+00 -0.16666666666667D+00 -0.33333333333333D+00
            0.33333333333333D+00 -0.16666666666667D+00 -0.33333333333333D+00
            0.50000000000000D+00 -0.16666666666667D+00 -0.33333333333333D+00
           -0.33333333333333D+00 -0.16666666666667D+00 -0.33333333333333D+00
           -0.16666666666667D+00 -0.16666666666667D+00 -0.33333333333333D+00
            0.00000000000000D+00  0.00000000000000D+00 -0.16666666666667D+00
            0.16666666666667D+00  0.00000000000000D+00 -0.16666666666667D+00
            0.33333333333333D+00  0.00000000000000D+00 -0.16666666666667D+00
            0.50000000000000D+00  0.00000000000000D+00 -0.16666666666667D+00
           -0.33333333333333D+00  0.00000000000000D+00 -0.16666666666667D+00
           -0.16666666666667D+00  0.00000000000000D+00 -0.16666666666667D+00
            0.00000000000000D+00  0.16666666666667D+00 -0.16666666666667D+00
            0.16666666666667D+00  0.16666666666667D+00 -0.16666666666667D+00
            0.33333333333333D+00  0.16666666666667D+00 -0.16666666666667D+00
            0.50000000000000D+00  0.16666666666667D+00 -0.16666666666667D+00
           -0.33333333333333D+00  0.16666666666667D+00 -0.16666666666667D+00
           -0.16666666666667D+00  0.16666666666667D+00 -0.16666666666667D+00
            0.00000000000000D+00  0.33333333333333D+00 -0.16666666666667D+00
            0.16666666666667D+00  0.33333333333333D+00 -0.16666666666667D+00
            0.33333333333333D+00  0.33333333333333D+00 -0.16666666666667D+00
            0.50000000000000D+00  0.33333333333333D+00 -0.16666666666667D+00
           -0.33333333333333D+00  0.33333333333333D+00 -0.16666666666667D+00
           -0.16666666666667D+00  0.33333333333333D+00 -0.16666666666667D+00
            0.00000000000000D+00  0.50000000000000D+00 -0.16666666666667D+00
            0.16666666666667D+00  0.50000000000000D+00 -0.16666666666667D+00
            0.33333333333333D+00  0.50000000000000D+00 -0.16666666666667D+00
            0.50000000000000D+00  0.50000000000000D+00 -0.16666666666667D+00
           -0.33333333333333D+00  0.50000000000000D+00 -0.16666666666667D+00
           -0.16666666666667D+00  0.50000000000000D+00 -0.16666666666667D+00
            0.00000000000000D+00 -0.33333333333333D+00 -0.16666666666667D+00
            0.16666666666667D+00 -0.33333333333333D+00 -0.16666666666667D+00
            0.33333333333333D+00 -0.33333333333333D+00 -0.16666666666667D+00
            0.50000000000000D+00 -0.33333333333333D+00 -0.16666666666667D+00
           -0.33333333333333D+00 -0.33333333333333D+00 -0.16666666666667D+00
           -0.16666666666667D+00 -0.33333333333333D+00 -0.16666666666667D+00
            0.00000000000000D+00 -0.16666666666667D+00 -0.16666666666667D+00
            0.16666666666667D+00 -0.16666666666667D+00 -0.16666666666667D+00
            0.33333333333333D+00 -0.16666666666667D+00 -0.16666666666667D+00
            0.50000000000000D+00 -0.16666666666667D+00 -0.16666666666667D+00
           -0.33333333333333D+00 -0.16666666666667D+00 -0.16666666666667D+00
           -0.16666666666667D+00 -0.16666666666667D+00 -0.16666666666667D+00
    kptnrm  0.10000000000000D+01
     ngfft        10   10   10
    nspden         1
   nspinor         1
       occ  0.20000000000000D+01  0.00000000000000D+00  0.00000000000000D+00
            0.00000000000000D+00  0.00000000000000D+00  0.00000000000000D+00
            0.00000000000000D+00  0.00000000000000D+00  0.00000000000000D+00
            0.00000000000000D+00
     rprim  0.00000000000000D+00  0.50000000000000D+00  0.50000000000000D+00
            0.50000000000000D+00  0.00000000000000D+00  0.50000000000000D+00
            0.50000000000000D+00  0.50000000000000D+00  0.00000000000000D+00
  dfpt_sciss  0.00000000000000D+00
    spinat  0.00000000000000D+00  0.00000000000000D+00  0.00000000000000D+00
    symafm         1    1    1    1    1    1    1    1    1    1    1    1
                   1    1    1    1    1    1    1    1    1    1    1    1
                   1    1    1    1    1    1    1    1    1    1    1    1
                   1    1    1    1    1    1    1    1    1    1    1    1
    symrel         1    0    0    0    1    0    0    0    1
                  -1    0    0    0   -1    0    0    0   -1
                   0   -1    1    0   -1    0    1   -1    0
                   0    1   -1    0    1    0   -1    1    0
                  -1    0    0   -1    0    1   -1    1    0
                   1    0    0    1    0   -1    1   -1    0
                   0    1   -1    1    0   -1    0    0   -1
                   0   -1    1   -1    0    1    0    0    1
                  -1    0    0   -1    1    0   -1    0    1
                   1    0    0    1   -1    0    1    0   -1
                   0   -1    1    1   -1    0    0   -1    0
                   0    1   -1   -1    1    0    0    1    0
                   1    0    0    0    0    1    0    1    0
                  -1    0    0    0    0   -1    0   -1    0
                   0    1   -1    0    0   -1    1    0   -1
                   0   -1    1    0    0    1   -1    0    1
                  -1    0    1   -1    1    0   -1    0    0
                   1    0   -1    1   -1    0    1    0    0
                   0   -1    0    1   -1    0    0   -1    1
                   0    1    0   -1    1    0    0    1   -1
                   1    0   -1    0    0   -1    0    1   -1
                  -1    0    1    0    0    1    0   -1    1
                   0    1    0    0    0    1    1    0    0
                   0   -1    0    0    0   -1   -1    0    0
                   1    0   -1    0    1   -1    0    0   -1
                  -1    0    1    0   -1    1    0    0    1
                   0   -1    0    0   -1    1    1   -1    0
                   0    1    0    0    1   -1   -1    1    0
                  -1    0    1   -1    0    0   -1    1    0
                   1    0   -1    1    0    0    1   -1    0
                   0    1    0    1    0    0    0    0    1
                   0   -1    0   -1    0    0    0    0   -1
                   0    0   -1    0    1   -1    1    0   -1
                   0    0    1    0   -1    1   -1    0    1
                   1   -1    0    0   -1    1    0   -1    0
                  -1    1    0    0    1   -1    0    1    0
                   0    0    1    1    0    0    0    1    0
                   0    0   -1   -1    0    0    0   -1    0
                  -1    1    0   -1    0    0   -1    0    1
                   1   -1    0    1    0    0    1    0   -1
                   0    0    1    0    1    0    1    0    0
                   0    0   -1    0   -1    0   -1    0    0
                   1   -1    0    0   -1    0    0   -1    1
                  -1    1    0    0    1    0    0    1   -1
                   0    0   -1    1    0   -1    0    1   -1
                   0    0    1   -1    0    1    0   -1    1
                  -1    1    0   -1    0    1   -1    0    0
                   1   -1    0    1    0   -1    1    0    0
     tnons  0.00000000000000D+00  0.00000000000000D+00  0.00000000000000D+00
            0.00000000000000D+00  0.00000000000000D+00  0.00000000000000D+00
            0.00000000000000D+00  0.00000000000000D+00  0.00000000000000D+00
            0.00000000000000D+00  0.00000000000000D+00  0.00000000000000D+00
            0.00000000000000D+00  0.00000000000000D+00  0.00000000000000D+00
            0.00000000000000D+00  0.00000000000000D+00  0.00000000000000D+00
            0.00000000000000D+00  0.00000000000000D+00  0.00000000000000D+00
            0.00000000000000D+00  0.00000000000000D+00  0.00000000000000D+00
            0.00000000000000D+00  0.00000000000000D+00  0.00000000000000D+00
            0.00000000000000D+00  0.00000000000000D+00  0.00000000000000D+00
            0.00000000000000D+00  0.00000000000000D+00  0.00000000000000D+00
            0.00000000000000D+00  0.00000000000000D+00  0.00000000000000D+00
            0.00000000000000D+00  0.00000000000000D+00  0.00000000000000D+00
            0.00000000000000D+00  0.00000000000000D+00  0.00000000000000D+00
            0.00000000000000D+00  0.00000000000000D+00  0.00000000000000D+00
            0.00000000000000D+00  0.00000000000000D+00  0.00000000000000D+00
            0.00000000000000D+00  0.00000000000000D+00  0.00000000000000D+00
            0.00000000000000D+00  0.00000000000000D+00  0.00000000000000D+00
            0.00000000000000D+00  0.00000000000000D+00  0.00000000000000D+00
            0.00000000000000D+00  0.00000000000000D+00  0.00000000000000D+00
            0.00000000000000D+00  0.00000000000000D+00  0.00000000000000D+00
            0.00000000000000D+00  0.00000000000000D+00  0.00000000000000D+00
            0.00000000000000D+00  0.00000000000000D+00  0.00000000000000D+00
            0.00000000000000D+00  0.00000000000000D+00  0.00000000000000D+00
            0.00000000000000D+00  0.00000000000000D+00  0.00000000000000D+00
            0.00000000000000D+00  0.00000000000000D+00  0.00000000000000D+00
            0.00000000000000D+00  0.00000000000000D+00  0.00000000000000D+00
            0.00000000000000D+00  0.00000000000000D+00  0.00000000000000D+00
            0.00000000000000D+00  0.00000000000000D+00  0.00000000000000D+00
            0.00000000000000D+00  0.00000000000000D+00  0.00000000000000D+00
            0.00000000000000D+00  0.00000000000000D+00  0.00000000000000D+00
            0.00000000000000D+00  0.00000000000000D+00  0.00000000000000D+00
            0.00000000000000D+00  0.00000000000000D+00  0.00000000000000D+00
            0.00000000000000D+00  0.00000000000000D+00  0.00000000000000D+00
            0.00000000000000D+00  0.00000000000000D+00  0.00000000000000D+00
            0.00000000000000D+00  0.00000000000000D+00  0.00000000000000D+00
            0.00000000000000D+00  0.00000000000000D+00  0.00000000000000D+00
            0.00000000000000D+00  0.00000000000000D+00  0.00000000000000D+00
            0.00000000000000D+00  0.00000000000000D+00  0.00000000000000D+00
            0.00000000000000D+00  0.00000000000000D+00  0.00000000000000D+00
            0.00000000000000D+00  0.00000000000000D+00  0.00000000000000D+00
            0.00000000000000D+00  0.00000000000000D+00  0.00000000000000D+00
            0.00000000000000D+00  0.00000000000000D+00  0.00000000000000D+00
            0.00000000000000D+00  0.00000000000000D+00  0.00000000000000D+00
            0.00000000000000D+00  0.00000000000000D+00  0.00000000000000D+00
            0.00000000000000D+00  0.00000000000000D+00  0.00000000000000D+00
            0.00000000000000D+00  0.00000000000000D+00  0.00000000000000D+00
            0.00000000000000D+00  0.00000000000000D+00  0.00000000000000D+00
    tolwfr  0.10000000000000D+01
   tphysel  0.00000000000000D+00
    tsmear  0.10000000000000D-02
     typat         1
       wtk  0.46296296296296D-02  0.46296296296296D-02  0.46296296296296D-02
            0.46296296296296D-02  0.46296296296296D-02  0.46296296296296D-02
            0.46296296296296D-02  0.46296296296296D-02  0.46296296296296D-02
            0.46296296296296D-02  0.46296296296296D-02  0.46296296296296D-02
            0.46296296296296D-02  0.46296296296296D-02  0.46296296296296D-02
            0.46296296296296D-02  0.46296296296296D-02  0.46296296296296D-02
            0.46296296296296D-02  0.46296296296296D-02  0.46296296296296D-02
            0.46296296296296D-02  0.46296296296296D-02  0.46296296296296D-02
            0.46296296296296D-02  0.46296296296296D-02  0.46296296296296D-02
            0.46296296296296D-02  0.46296296296296D-02  0.46296296296296D-02
            0.46296296296296D-02  0.46296296296296D-02  0.46296296296296D-02
            0.46296296296296D-02  0.46296296296296D-02  0.46296296296296D-02
            0.46296296296296D-02  0.46296296296296D-02  0.46296296296296D-02
            0.46296296296296D-02  0.46296296296296D-02  0.46296296296296D-02
            0.46296296296296D-02  0.46296296296296D-02  0.46296296296296D-02
            0.46296296296296D-02  0.46296296296296D-02  0.46296296296296D-02
            0.46296296296296D-02  0.46296296296296D-02  0.46296296296296D-02
            0.46296296296296D-02  0.46296296296296D-02  0.46296296296296D-02
            0.46296296296296D-02  0.46296296296296D-02  0.46296296296296D-02
            0.46296296296296D-02  0.46296296296296D-02  0.46296296296296D-02
            0.46296296296296D-02  0.46296296296296D-02  0.46296296296296D-02
            0.46296296296296D-02  0.46296296296296D-02  0.46296296296296D-02
            0.46296296296296D-02  0.46296296296296D-02  0.46296296296296D-02
            0.46296296296296D-02  0.46296296296296D-02  0.46296296296296D-02
            0.46296296296296D-02  0.46296296296296D-02  0.46296296296296D-02
            0.46296296296296D-02  0.46296296296296D-02  0.46296296296296D-02
            0.46296296296296D-02  0.46296296296296D-02  0.46296296296296D-02
            0.46296296296296D-02  0.46296296296296D-02  0.46296296296296D-02
            0.46296296296296D-02  0.46296296296296D-02  0.46296296296296D-02
            0.46296296296296D-02  0.46296296296296D-02  0.46296296296296D-02
            0.46296296296296D-02  0.46296296296296D-02  0.46296296296296D-02
            0.46296296296296D-02  0.46296296296296D-02  0.46296296296296D-02
            0.46296296296296D-02  0.46296296296296D-02  0.46296296296296D-02
            0.46296296296296D-02  0.46296296296296D-02  0.46296296296296D-02
            0.46296296296296D-02  0.46296296296296D-02  0.46296296296296D-02
            0.46296296296296D-02  0.46296296296296D-02  0.46296296296296D-02
            0.46296296296296D-02  0.46296296296296D-02  0.46296296296296D-02
            0.46296296296296D-02  0.46296296296296D-02  0.46296296296296D-02
            0.46296296296296D-02  0.46296296296296D-02  0.46296296296296D-02
            0.46296296296296D-02  0.46296296296296D-02  0.46296296296296D-02
            0.46296296296296D-02  0.46296296296296D-02  0.46296296296296D-02
            0.46296296296296D-02  0.46296296296296D-02  0.46296296296296D-02
            0.46296296296296D-02  0.46296296296296D-02  0.46296296296296D-02
            0.46296296296296D-02  0.46296296296296D-02  0.46296296296296D-02
            0.46296296296296D-02  0.46296296296296D-02  0.46296296296296D-02
            0.46296296296296D-02  0.46296296296296D-02  0.46296296296296D-02
            0.46296296296296D-02  0.46296296296296D-02  0.46296296296296D-02
            0.46296296296296D-02  0.46296296296296D-02  0.46296296296296D-02
            0.46296296296296D-02  0.46296296296296D-02  0.46296296296296D-02
            0.46296296296296D-02  0.46296296296296D-02  0.46296296296296D-02
            0.46296296296296D-02  0.46296296296296D-02  0.46296296296296D-02
            0.46296296296296D-02  0.46296296296296D-02  0.46296296296296D-02
            0.46296296296296D-02  0.46296296296296D-02  0.46296296296296D-02
            0.46296296296296D-02  0.46296296296296D-02  0.46296296296296D-02
            0.46296296296296D-02  0.46296296296296D-02  0.46296296296296D-02
            0.46296296296296D-02  0.46296296296296D-02  0.46296296296296D-02
            0.46296296296296D-02  0.46296296296296D-02  0.46296296296296D-02
            0.46296296296296D-02  0.46296296296296D-02  0.46296296296296D-02
            0.46296296296296D-02  0.46296296296296D-02  0.46296296296296D-02
            0.46296296296296D-02  0.46296296296296D-02  0.46296296296296D-02
            0.46296296296296D-02  0.46296296296296D-02  0.46296296296296D-02
            0.46296296296296D-02  0.46296296296296D-02  0.46296296296296D-02
            0.46296296296296D-02  0.46296296296296D-02  0.46296296296296D-02
            0.46296296296296D-02  0.46296296296296D-02  0.46296296296296D-02
            0.46296296296296D-02  0.46296296296296D-02  0.46296296296296D-02
            0.46296296296296D-02  0.46296296296296D-02  0.46296296296296D-02
            0.46296296296296D-02  0.46296296296296D-02  0.46296296296296D-02
            0.46296296296296D-02  0.46296296296296D-02  0.46296296296296D-02
            0.46296296296296D-02  0.46296296296296D-02  0.46296296296296D-02
            0.46296296296296D-02  0.46296296296296D-02  0.46296296296296D-02
            0.46296296296296D-02  0.46296296296296D-02  0.46296296296296D-02
            0.46296296296296D-02  0.46296296296296D-02  0.46296296296296D-02
      xred  0.00000000000000D+00  0.00000000000000D+00  0.00000000000000D+00
     znucl  0.13000000000000D+02
      zion  0.30000000000000D+01
 
  Description of the potentials (KB energies)
  vrsio8 (for pseudopotentials)=100401
  usepaw =  0
  dimekb =  6       lmnmax=  6
  Atom type=    1   pspso=  0   nekb=   6
  iln lpsang iproj  ekb(:)
     1     0     1     5.1266666E+00  0.0000000E+00  0.0000000E+00  0.0000000E+00
                       0.0000000E+00  0.0000000E+00
     2     0     2     0.0000000E+00  7.2829148E-01  0.0000000E+00  0.0000000E+00
                       0.0000000E+00  0.0000000E+00
     3     1     1     0.0000000E+00  0.0000000E+00  7.2875476E+00  0.0000000E+00
                       0.0000000E+00  0.0000000E+00
     4     1     2     0.0000000E+00  0.0000000E+00  0.0000000E+00  8.3243743E-01
                       0.0000000E+00  0.0000000E+00
     5     2     1     0.0000000E+00  0.0000000E+00  0.0000000E+00  0.0000000E+00
                      -2.7704968E+00  0.0000000E+00
     6     2     2     0.0000000E+00  0.0000000E+00  0.0000000E+00  0.0000000E+00
                      -2.7704968E+00  0.0000000E+00
 
 **** Database of total energy derivatives ****
 Number of data blocks=    3
  
 2nd derivatives (non-stat.)  - # elements :      21
 qpt  0.00000000E+00  0.00000000E+00  0.00000000E+00   1.0
   1   1   1   1 -0.10504816224142D-02  0.00000000000000D+00
   2   1   1   1 -0.52524081120708D-03  0.00000000000000D+00
   3   1   1   1 -0.52524081120886D-03  0.00000000000000D+00
   2   3   1   1  0.00000000000000D+00  0.00000000000000D+00
   3   3   1   1  0.00000000000000D+00  0.00000000000000D+00
   1   1   2   1 -0.52524081121064D-03  0.00000000000000D+00
   2   1   2   1 -0.10504816224266D-02  0.00000000000000D+00
   3   1   2   1 -0.52524081120886D-03  0.00000000000000D+00
   1   3   2   1  0.00000000000000D+00  0.00000000000000D+00
   3   3   2   1  0.00000000000000D+00  0.00000000000000D+00
   1   1   3   1 -0.52524081120442D-03  0.00000000000000D+00
   2   1   3   1 -0.52524081119998D-03  0.00000000000000D+00
   3   1   3   1 -0.10504816224284D-02  0.00000000000000D+00
   1   3   3   1  0.00000000000000D+00  0.00000000000000D+00
   2   3   3   1  0.00000000000000D+00  0.00000000000000D+00
   2   1   1   3  0.00000000000000D+00  0.00000000000000D+00
   3   1   1   3  0.00000000000000D+00  0.00000000000000D+00
   1   1   2   3  0.00000000000000D+00  0.00000000000000D+00
   3   1   2   3  0.00000000000000D+00  0.00000000000000D+00
   1   1   3   3  0.00000000000000D+00  0.00000000000000D+00
   2   1   3   3  0.00000000000000D+00  0.00000000000000D+00
  
 2nd derivatives (non-stat.)  - # elements :       9
 qpt  5.00000000E-01  0.00000000E+00  0.00000000E+00   1.0
   1   1   1   1  0.28493157715560D+01 -0.57353549972794D-10
   2   1   1   1  0.34713804667920D+00  0.77166036830073D-13
   3   1   1   1  0.34713804667920D+00  0.77166036830038D-13
   1   1   2   1  0.34713804667920D+00  0.77166036829900D-13
   2   1   2   1  0.69427609335840D+00  0.15433207366001D-12
   3   1   2   1  0.34713804667920D+00  0.77166036830004D-13
   1   1   3   1  0.34713804667920D+00  0.77166036829969D-13
   2   1   3   1  0.34713804667920D+00  0.77166036830004D-13
   3   1   3   1  0.69427609335837D+00  0.15433207366001D-12
  
 2nd derivatives (non-stat.)  - # elements :       9
 qpt  5.00000000E-01  5.00000000E-01  0.00000000E+00   1.0
   1   1   1   1  0.31155782923580D+01  0.71521724478458D-09
   2   1   1   1  0.22186508592091D+01  0.12528995348032D-08
   3   1   1   1  0.89692743314897D+00 -0.53768229001858D-09
   1   1   2   1  0.22186508592091D+01  0.12528995348032D-08
   2   1   2   1  0.31155782923580D+01  0.71521724478458D-09
   3   1   2   1  0.89692743314896D+00 -0.53768229001858D-09
   1   1   3   1  0.89692743314896D+00 -0.53768229001858D-09
   2   1   3   1  0.89692743314896D+00 -0.53768229001858D-09
   3   1   3   1  0.17938548662979D+01 -0.10753645800372D-08
