
.Version 9.3.3 of ABINIT 
.(MPI version, prepared for a x86_64_linux_gnu9.3 computer) 

.Copyright (C) 1998-2020 ABINIT group . 
 ABINIT comes with ABSOLUTELY NO WARRANTY.
 It is free software, and you are welcome to redistribute it
 under certain conditions (GNU General Public License,
 see ~abinit/COPYING or http://www.gnu.org/copyleft/gpl.txt).

 ABINIT is a project of the Universite Catholique de Louvain,
 Corning Inc. and other collaborators, see ~abinit/doc/developers/contributors.txt .
 Please read https://docs.abinit.org/theory/acknowledgments for suggested
 acknowledgments of the ABINIT effort.
 For more information, see https://www.abinit.org .

.Starting date : Tue 22 Dec 2020.
- ( at 10h06 )
  
- input  file    -> tffield_2.abi
- output file    -> tffield_2.abo
- root for input  files -> tffield_2i
- root for output files -> tffield_2o


 DATASET    1 : space group F-4 3 m (#216); Bravais cF (face-center cubic)
================================================================================
 Values of the parameters that define the memory need for DATASET  1.
     intxc =       0    ionmov =       0      iscf =       7    lmnmax =       6
     lnmax =       6     mgfft =      16  mpssoang =       3    mqgrid =    3001
     natom =       2  nloc_mem =       1    nspden =       1   nspinor =       1
    nsppol =       1      nsym =      24    n1xccc =    2501    ntypat =       2
    occopt =       1   xclevel =       1
-    mband =           4        mffmem =           1         mkmem =           7
       mpw =         174          nfft =        4096          nkpt =          28
================================================================================
P This job should need less than                       2.461 Mbytes of memory.
  Rough estimation (10% accuracy) of disk space for files :
_ WF disk file :      0.299 Mbytes ; DEN or POT disk file :      0.033 Mbytes.
================================================================================


 DATASET    2 : space group F-4 3 m (#216); Bravais cF (face-center cubic)
================================================================================
 Values of the parameters that define the memory need for DATASET  2.
     intxc =       0    ionmov =       0      iscf =      -2    lmnmax =       6
     lnmax =       6     mgfft =      16  mpssoang =       3    mqgrid =    3001
     natom =       2  nloc_mem =       1    nspden =       1   nspinor =       1
    nsppol =       1      nsym =      24    n1xccc =    2501    ntypat =       2
    occopt =       1   xclevel =       1
-    mband =           4        mffmem =           1         mkmem =         108
       mpw =         174          nfft =        4096          nkpt =         432
================================================================================
P This job should need less than                       3.481 Mbytes of memory.
  Rough estimation (10% accuracy) of disk space for files :
_ WF disk file :      4.590 Mbytes ; DEN or POT disk file :      0.033 Mbytes.
================================================================================


 DATASET    3 : space group F-4 3 m (#216); Bravais cF (face-center cubic)
================================================================================
 Values of the parameters that define the memory need for DATASET  3 (RF).
     intxc =       0      iscf =       7    lmnmax =       6     lnmax =       6
     mgfft =      16  mpssoang =       3    mqgrid =    3001     natom =       2
  nloc_mem =       1    nspden =       1   nspinor =       1    nsppol =       1
      nsym =      24    n1xccc =    2501    ntypat =       2    occopt =       1
   xclevel =       1
-    mband =           4        mffmem =           1         mkmem =         108
-   mkqmem =         108        mk1mem =         108           mpw =         174
      nfft =        4096          nkpt =         432
================================================================================
P This job should need less than                       6.190 Mbytes of memory.
  Rough estimation (10% accuracy) of disk space for files :
_ WF disk file :      4.590 Mbytes ; DEN or POT disk file :      0.033 Mbytes.
================================================================================

--------------------------------------------------------------------------------
------------- Echo of variables that govern the present computation ------------
--------------------------------------------------------------------------------
-
- outvars: echo of selected default values                                      
-   iomode0 =  3 , fftalg0 =312 , wfoptalg0 =  0
-
- outvars: echo of global parameters not present in the input file              
-  max_nthreads =    0
-
 -outvars: echo values of preprocessed input variables --------
            acell      7.2728565836E+00  7.2728565836E+00  7.2728565836E+00 Bohr
              amu      3.09737620E+01  2.69815390E+01
         berryopt1          0
         berryopt2         -2
         berryopt3          0
          dilatmx      1.05000000E+00
             ecut      5.00000000E+00 Hartree
           ecutsm      5.00000000E-01 Hartree
-          fftalg         312
           getddk1          0
           getddk2          0
           getddk3          2
           getden1          0
           getden2          1
           getden3          0
           getwfk1          0
           getwfk2          1
           getwfk3          2
             iscf1          7
             iscf2         -2
             iscf3          7
              ixc       -1012
           jdtset        1    2    3
              kpt1    -8.33333333E-02 -1.66666667E-01  0.00000000E+00
                      -8.33333333E-02 -3.33333333E-01  0.00000000E+00
                      -1.66666667E-01 -2.50000000E-01  0.00000000E+00
                      -8.33333333E-02 -2.50000000E-01  8.33333333E-02
                      -8.33333333E-02  5.00000000E-01  0.00000000E+00
                      -1.66666667E-01 -4.16666667E-01  0.00000000E+00
                      -8.33333333E-02 -4.16666667E-01  8.33333333E-02
                      -2.50000000E-01 -3.33333333E-01  0.00000000E+00
                      -1.66666667E-01 -3.33333333E-01  8.33333333E-02
                      -8.33333333E-02 -3.33333333E-01  1.66666667E-01
                      -8.33333333E-02  3.33333333E-01  0.00000000E+00
                      -1.66666667E-01  4.16666667E-01  0.00000000E+00
                      -2.50000000E-01  5.00000000E-01  0.00000000E+00
                      -1.66666667E-01  5.00000000E-01  8.33333333E-02
                      -3.33333333E-01 -4.16666667E-01  0.00000000E+00
                      -2.50000000E-01 -4.16666667E-01  8.33333333E-02
                      -1.66666667E-01 -4.16666667E-01  1.66666667E-01
                      -8.33333333E-02 -4.16666667E-01  2.50000000E-01
                      -8.33333333E-02  1.66666667E-01  0.00000000E+00
                      -1.66666667E-01  2.50000000E-01  0.00000000E+00
                      -2.50000000E-01  3.33333333E-01  0.00000000E+00
                      -3.33333333E-01  4.16666667E-01  0.00000000E+00
                      -4.16666667E-01  5.00000000E-01  0.00000000E+00
                      -3.33333333E-01  5.00000000E-01  8.33333333E-02
                      -2.50000000E-01  5.00000000E-01  1.66666667E-01
                      -8.33333333E-02  0.00000000E+00  0.00000000E+00
                      -2.50000000E-01  0.00000000E+00  0.00000000E+00
                      -4.16666667E-01  0.00000000E+00  0.00000000E+00
              kpt2    -8.33333333E-02 -1.66666667E-01  0.00000000E+00
                      -1.66666667E-01 -8.33333333E-02  0.00000000E+00
                      -8.33333333E-02 -8.33333333E-02  8.33333333E-02
                      -8.33333333E-02 -3.33333333E-01  0.00000000E+00
                      -1.66666667E-01 -2.50000000E-01  0.00000000E+00
                      -8.33333333E-02 -2.50000000E-01  8.33333333E-02
                      -2.50000000E-01 -1.66666667E-01  0.00000000E+00
                      -1.66666667E-01 -1.66666667E-01  8.33333333E-02
                      -8.33333333E-02 -1.66666667E-01  1.66666667E-01
                      -3.33333333E-01 -8.33333333E-02  0.00000000E+00
                      -2.50000000E-01 -8.33333333E-02  8.33333333E-02
                      -1.66666667E-01 -8.33333333E-02  1.66666667E-01
                      -8.33333333E-02 -8.33333333E-02  2.50000000E-01
                      -8.33333333E-02  5.00000000E-01  0.00000000E+00
                      -1.66666667E-01 -4.16666667E-01  0.00000000E+00
                      -8.33333333E-02 -4.16666667E-01  8.33333333E-02
                      -2.50000000E-01 -3.33333333E-01  0.00000000E+00
                      -1.66666667E-01 -3.33333333E-01  8.33333333E-02
                      -8.33333333E-02 -3.33333333E-01  1.66666667E-01
                      -3.33333333E-01 -2.50000000E-01  0.00000000E+00
                      -2.50000000E-01 -2.50000000E-01  8.33333333E-02
                      -1.66666667E-01 -2.50000000E-01  1.66666667E-01
                      -8.33333333E-02 -2.50000000E-01  2.50000000E-01
                      -4.16666667E-01 -1.66666667E-01  0.00000000E+00
                      -3.33333333E-01 -1.66666667E-01  8.33333333E-02
                      -2.50000000E-01 -1.66666667E-01  1.66666667E-01
                      -1.66666667E-01 -1.66666667E-01  2.50000000E-01
                      -8.33333333E-02 -1.66666667E-01  3.33333333E-01
                       5.00000000E-01 -8.33333333E-02  0.00000000E+00
                      -4.16666667E-01 -8.33333333E-02  8.33333333E-02
                      -3.33333333E-01 -8.33333333E-02  1.66666667E-01
                      -2.50000000E-01 -8.33333333E-02  2.50000000E-01
                      -1.66666667E-01 -8.33333333E-02  3.33333333E-01
                      -8.33333333E-02 -8.33333333E-02  4.16666667E-01
                      -8.33333333E-02  3.33333333E-01  0.00000000E+00
                      -1.66666667E-01  4.16666667E-01  0.00000000E+00
                      -8.33333333E-02  4.16666667E-01  8.33333333E-02
                      -2.50000000E-01  5.00000000E-01  0.00000000E+00
                      -1.66666667E-01  5.00000000E-01  8.33333333E-02
                      -8.33333333E-02  5.00000000E-01  1.66666667E-01
                      -3.33333333E-01 -4.16666667E-01  0.00000000E+00
                      -2.50000000E-01 -4.16666667E-01  8.33333333E-02
                      -1.66666667E-01 -4.16666667E-01  1.66666667E-01
                      -8.33333333E-02 -4.16666667E-01  2.50000000E-01
                      -4.16666667E-01 -3.33333333E-01  0.00000000E+00
                      -3.33333333E-01 -3.33333333E-01  8.33333333E-02
                      -2.50000000E-01 -3.33333333E-01  1.66666667E-01
                      -1.66666667E-01 -3.33333333E-01  2.50000000E-01
                      -8.33333333E-02 -3.33333333E-01  3.33333333E-01
                       5.00000000E-01 -2.50000000E-01  0.00000000E+00
              kpt3    -8.33333333E-02 -1.66666667E-01  0.00000000E+00
                      -1.66666667E-01 -8.33333333E-02  0.00000000E+00
                      -8.33333333E-02 -8.33333333E-02  8.33333333E-02
                      -8.33333333E-02 -3.33333333E-01  0.00000000E+00
                      -1.66666667E-01 -2.50000000E-01  0.00000000E+00
                      -8.33333333E-02 -2.50000000E-01  8.33333333E-02
                      -2.50000000E-01 -1.66666667E-01  0.00000000E+00
                      -1.66666667E-01 -1.66666667E-01  8.33333333E-02
                      -8.33333333E-02 -1.66666667E-01  1.66666667E-01
                      -3.33333333E-01 -8.33333333E-02  0.00000000E+00
                      -2.50000000E-01 -8.33333333E-02  8.33333333E-02
                      -1.66666667E-01 -8.33333333E-02  1.66666667E-01
                      -8.33333333E-02 -8.33333333E-02  2.50000000E-01
                      -8.33333333E-02  5.00000000E-01  0.00000000E+00
                      -1.66666667E-01 -4.16666667E-01  0.00000000E+00
                      -8.33333333E-02 -4.16666667E-01  8.33333333E-02
                      -2.50000000E-01 -3.33333333E-01  0.00000000E+00
                      -1.66666667E-01 -3.33333333E-01  8.33333333E-02
                      -8.33333333E-02 -3.33333333E-01  1.66666667E-01
                      -3.33333333E-01 -2.50000000E-01  0.00000000E+00
                      -2.50000000E-01 -2.50000000E-01  8.33333333E-02
                      -1.66666667E-01 -2.50000000E-01  1.66666667E-01
                      -8.33333333E-02 -2.50000000E-01  2.50000000E-01
                      -4.16666667E-01 -1.66666667E-01  0.00000000E+00
                      -3.33333333E-01 -1.66666667E-01  8.33333333E-02
                      -2.50000000E-01 -1.66666667E-01  1.66666667E-01
                      -1.66666667E-01 -1.66666667E-01  2.50000000E-01
                      -8.33333333E-02 -1.66666667E-01  3.33333333E-01
                       5.00000000E-01 -8.33333333E-02  0.00000000E+00
                      -4.16666667E-01 -8.33333333E-02  8.33333333E-02
                      -3.33333333E-01 -8.33333333E-02  1.66666667E-01
                      -2.50000000E-01 -8.33333333E-02  2.50000000E-01
                      -1.66666667E-01 -8.33333333E-02  3.33333333E-01
                      -8.33333333E-02 -8.33333333E-02  4.16666667E-01
                      -8.33333333E-02  3.33333333E-01  0.00000000E+00
                      -1.66666667E-01  4.16666667E-01  0.00000000E+00
                      -8.33333333E-02  4.16666667E-01  8.33333333E-02
                      -2.50000000E-01  5.00000000E-01  0.00000000E+00
                      -1.66666667E-01  5.00000000E-01  8.33333333E-02
                      -8.33333333E-02  5.00000000E-01  1.66666667E-01
                      -3.33333333E-01 -4.16666667E-01  0.00000000E+00
                      -2.50000000E-01 -4.16666667E-01  8.33333333E-02
                      -1.66666667E-01 -4.16666667E-01  1.66666667E-01
                      -8.33333333E-02 -4.16666667E-01  2.50000000E-01
                      -4.16666667E-01 -3.33333333E-01  0.00000000E+00
                      -3.33333333E-01 -3.33333333E-01  8.33333333E-02
                      -2.50000000E-01 -3.33333333E-01  1.66666667E-01
                      -1.66666667E-01 -3.33333333E-01  2.50000000E-01
                      -8.33333333E-02 -3.33333333E-01  3.33333333E-01
                       5.00000000E-01 -2.50000000E-01  0.00000000E+00
                       outvar_i_n : Printing only first  50 k-points.
           kptopt1          1
           kptopt2          2
           kptopt3          2
         kptrlatt        6   -6    6     -6    6    6     -6   -6    6
          kptrlen      6.17122345E+01
P           mkmem1          7
P           mkmem2        108
P           mkmem3        108
P          mkqmem1          7
P          mkqmem2        108
P          mkqmem3        108
P          mk1mem1          7
P          mk1mem2        108
P          mk1mem3        108
            natom           2
            nband1          4
            nband2          4
            nband3          4
           nbdbuf1          0
           nbdbuf2          2
           nbdbuf3          0
           ndtset           3
            ngfft          16      16      16
             nkpt1         28
             nkpt2        432
             nkpt3        432
             nsym          24
           ntypat           2
              occ1     2.000000  2.000000  2.000000  2.000000
              occ3     2.000000  2.000000  2.000000  2.000000
        optdriver1          0
        optdriver2          0
        optdriver3          1
          rfatpol1          1       1
          rfatpol2          1       1
          rfatpol3          1       2
            rfdir1          0       0       0
            rfdir2          1       1       1
            rfdir3          1       1       1
           rfelfd1          0
           rfelfd2          0
           rfelfd3          3
           rfphon1          0
           rfphon2          0
           rfphon3          1
           rfstrs1          0
           rfstrs2          0
           rfstrs3          3
            rprim      0.0000000000E+00  7.0710678119E-01  7.0710678119E-01
                       7.0710678119E-01  0.0000000000E+00  7.0710678119E-01
                       7.0710678119E-01  7.0710678119E-01  0.0000000000E+00
           shiftk      5.00000000E-01  5.00000000E-01  5.00000000E-01
          spgroup         216
           symrel      1  0  0   0  1  0   0  0  1       0 -1  1   0 -1  0   1 -1  0
                      -1  0  0  -1  0  1  -1  1  0       0  1 -1   1  0 -1   0  0 -1
                      -1  0  0  -1  1  0  -1  0  1       0 -1  1   1 -1  0   0 -1  0
                       1  0  0   0  0  1   0  1  0       0  1 -1   0  0 -1   1  0 -1
                      -1  0  1  -1  1  0  -1  0  0       0 -1  0   1 -1  0   0 -1  1
                       1  0 -1   0  0 -1   0  1 -1       0  1  0   0  0  1   1  0  0
                       1  0 -1   0  1 -1   0  0 -1       0 -1  0   0 -1  1   1 -1  0
                      -1  0  1  -1  0  0  -1  1  0       0  1  0   1  0  0   0  0  1
                       0  0 -1   0  1 -1   1  0 -1       1 -1  0   0 -1  1   0 -1  0
                       0  0  1   1  0  0   0  1  0      -1  1  0  -1  0  0  -1  0  1
                       0  0  1   0  1  0   1  0  0       1 -1  0   0 -1  0   0 -1  1
                       0  0 -1   1  0 -1   0  1 -1      -1  1  0  -1  0  1  -1  0  0
           toldfe1     1.00000000E-12 Hartree
           toldfe2     0.00000000E+00 Hartree
           toldfe3     0.00000000E+00 Hartree
           tolvrs1     0.00000000E+00
           tolvrs2     0.00000000E+00
           tolvrs3     1.00000000E-10
           tolwfr1     0.00000000E+00
           tolwfr2     1.00000000E-22
           tolwfr3     0.00000000E+00
            typat      1  2
              wtk1       0.02778    0.02778    0.02778    0.05556    0.02778    0.02778
                         0.05556    0.02778    0.05556    0.05556    0.02778    0.02778
                         0.02778    0.05556    0.02778    0.05556    0.05556    0.05556
                         0.02778    0.02778    0.02778    0.02778    0.02778    0.05556
                         0.05556    0.00926    0.00926    0.00926
              wtk2       0.00231    0.00231    0.00231    0.00231    0.00231    0.00231
                         0.00231    0.00231    0.00231    0.00231    0.00231    0.00231
                         0.00231    0.00231    0.00231    0.00231    0.00231    0.00231
                         0.00231    0.00231    0.00231    0.00231    0.00231    0.00231
                         0.00231    0.00231    0.00231    0.00231    0.00231    0.00231
                         0.00231    0.00231    0.00231    0.00231    0.00231    0.00231
                         0.00231    0.00231    0.00231    0.00231    0.00231    0.00231
                         0.00231    0.00231    0.00231    0.00231    0.00231    0.00231
                         0.00231    0.00231
              wtk3       0.00231    0.00231    0.00231    0.00231    0.00231    0.00231
                         0.00231    0.00231    0.00231    0.00231    0.00231    0.00231
                         0.00231    0.00231    0.00231    0.00231    0.00231    0.00231
                         0.00231    0.00231    0.00231    0.00231    0.00231    0.00231
                         0.00231    0.00231    0.00231    0.00231    0.00231    0.00231
                         0.00231    0.00231    0.00231    0.00231    0.00231    0.00231
                         0.00231    0.00231    0.00231    0.00231    0.00231    0.00231
                         0.00231    0.00231    0.00231    0.00231    0.00231    0.00231
                         0.00231    0.00231
                       outvars : Printing only first  50 k-points.
           xangst      1.3606961663E+00  1.3606961663E+00  1.3606961663E+00
                       0.0000000000E+00  0.0000000000E+00  0.0000000000E+00
            xcart      2.5713431044E+00  2.5713431044E+00  2.5713431044E+00
                       0.0000000000E+00  0.0000000000E+00  0.0000000000E+00
             xred      2.5000000000E-01  2.5000000000E-01  2.5000000000E-01
                       0.0000000000E+00  0.0000000000E+00  0.0000000000E+00
            znucl       15.00000   13.00000

================================================================================

 chkinp: Checking input parameters for consistency, jdtset=   1.

 chkinp: Checking input parameters for consistency, jdtset=   2.

 chkinp: Checking input parameters for consistency, jdtset=   3.

================================================================================
== DATASET  1 ==================================================================
-   mpi_nproc: 4, omp_nthreads: -1 (-1 if OMP is not activated)


--- !DatasetInfo
iteration_state: {dtset: 1, }
dimensions: {natom: 2, nkpt: 28, mband: 4, nsppol: 1, nspinor: 1, nspden: 1, mpw: 174, }
cutoff_energies: {ecut:   5.0, pawecutdg:  -1.0, }
electrons: {nelect:   8.00000000E+00, charge:   0.00000000E+00, occopt:   1.00000000E+00, tsmear:   1.00000000E-02, }
meta: {optdriver: 0, ionmov: 0, optcell: 0, iscf: 7, paral_kgb: 0, }
...

 Real(R)+Recip(G) space primitive vectors, cartesian coordinates (Bohr,Bohr^-1):
 R(1)=  0.0000000  5.1426862  5.1426862  G(1)= -0.0972255  0.0972255  0.0972255
 R(2)=  5.1426862  0.0000000  5.1426862  G(2)=  0.0972255 -0.0972255  0.0972255
 R(3)=  5.1426862  5.1426862  0.0000000  G(3)=  0.0972255  0.0972255 -0.0972255
 Unit cell volume ucvol=  2.7201952E+02 bohr^3
 Angles (23,13,12)=  6.00000000E+01  6.00000000E+01  6.00000000E+01 degrees

 getcut: wavevector=  0.0000  0.0000  0.0000  ngfft=  16  16  16
         ecut(hartree)=      5.513   => boxcut(ratio)=   2.08150

--- Pseudopotential description ------------------------------------------------
- pspini: atom type   1  psp file is /home/jzwanzig/abinit/abinit//tests//Psps_for_tests/Pseudodojo_nc_sr_04_pw_standard_psp8/P.psp8
- pspatm: opening atomic psp file    /home/jzwanzig/abinit/abinit//tests//Psps_for_tests/Pseudodojo_nc_sr_04_pw_standard_psp8/P.psp8
- P     ONCVPSP-3.3.0  r_core=   1.46089   1.55067   1.70594
- 15.00000   5.00000    171102                znucl, zion, pspdat
    8   -1012    2    4       600   0.00000   pspcod,pspxc,lmax,lloc,mmax,r2well
    5.99000000000000    5.00000000000000    0.00000000000000   rchrg,fchrg,qchrg
     nproj     2     2     2
     extension_switch     1
  pspatm : epsatm=    7.03163490
         --- l  ekb(1:nproj) -->
             0    6.795192    1.078292
             1    3.452929    0.907117
             2   -3.024864   -0.802189
 pspatm: atomic psp has been read  and splines computed

- pspini: atom type   2  psp file is /home/jzwanzig/abinit/abinit//tests//Psps_for_tests/Pseudodojo_nc_sr_04_pw_standard_psp8/Al.psp8
- pspatm: opening atomic psp file    /home/jzwanzig/abinit/abinit//tests//Psps_for_tests/Pseudodojo_nc_sr_04_pw_standard_psp8/Al.psp8
- Al    ONCVPSP-3.3.0  r_core=   1.76802   1.76802   1.70587
- 13.00000   3.00000    171102                znucl, zion, pspdat
    8   -1012    2    4       600   0.00000   pspcod,pspxc,lmax,lloc,mmax,r2well
    5.99000000000000    5.00000000000000    0.00000000000000   rchrg,fchrg,qchrg
     nproj     2     2     2
     extension_switch     1
  pspatm : epsatm=    0.57439192
         --- l  ekb(1:nproj) -->
             0    5.725870    0.726131
             1    6.190420    0.914022
             2   -4.229503   -0.925599
 pspatm: atomic psp has been read  and splines computed

   6.08482146E+01                                ecore*ucvol(ha*bohr**3)
--------------------------------------------------------------------------------

_setup2: Arith. and geom. avg. npw (full set) are     167.843     167.817

================================================================================

--- !BeginCycle
iteration_state: {dtset: 1, }
solver: {iscf: 7, nstep: 30, nline: 4, wfoptalg: 0, }
tolerances: {toldfe: 1.00E-12, }
...

     iter   Etot(hartree)      deltaE(h)  residm     vres2
 ETOT  1  -9.2741672565630    -9.274E+00 1.231E-02 3.673E+00
 ETOT  2  -9.2840973975341    -9.930E-03 1.956E-05 1.584E-01
 ETOT  3  -9.2844340680046    -3.367E-04 2.699E-06 4.366E-03
 ETOT  4  -9.2844384858110    -4.418E-06 1.995E-08 1.255E-04
 ETOT  5  -9.2844385675779    -8.177E-08 3.534E-10 1.028E-06
 ETOT  6  -9.2844385681275    -5.496E-10 2.392E-12 3.274E-08
 ETOT  7  -9.2844385681497    -2.220E-11 1.120E-13 4.768E-10
 ETOT  8  -9.2844385681503    -6.430E-13 3.472E-15 1.668E-12
 ETOT  9  -9.2844385681502     1.563E-13 1.931E-17 4.988E-15

 At SCF step    9, etot is converged : 
  for the second time, diff in etot=  1.563E-13 < toldfe=  1.000E-12

 Cartesian components of stress tensor (hartree/bohr^3)
  sigma(1 1)= -4.50861185E-11  sigma(3 2)=  0.00000000E+00
  sigma(2 2)= -4.50861188E-11  sigma(3 1)=  0.00000000E+00
  sigma(3 3)= -4.50861184E-11  sigma(2 1)=  0.00000000E+00


--- !ResultsGS
iteration_state: {dtset: 1, }
comment   : Summary of ground state results
lattice_vectors:
- [  0.0000000,   5.1426862,   5.1426862, ]
- [  5.1426862,   0.0000000,   5.1426862, ]
- [  5.1426862,   5.1426862,   0.0000000, ]
lattice_lengths: [   7.27286,    7.27286,    7.27286, ]
lattice_angles: [ 60.000,  60.000,  60.000, ] # degrees, (23, 13, 12)
lattice_volume:   2.7201952E+02
convergence: {deltae:  1.563E-13, res2:  4.988E-15, residm:  1.931E-17, diffor: null, }
etotal    :  -9.28443857E+00
entropy   :   0.00000000E+00
fermie    :   1.47753447E-01
cartesian_stress_tensor: # hartree/bohr^3
- [ -4.50861185E-11,   0.00000000E+00,   0.00000000E+00, ]
- [  0.00000000E+00,  -4.50861188E-11,   0.00000000E+00, ]
- [  0.00000000E+00,   0.00000000E+00,  -4.50861184E-11, ]
pressure_GPa:   1.3265E-06
xred      :
- [  2.5000E-01,   2.5000E-01,   2.5000E-01,  P]
- [  0.0000E+00,   0.0000E+00,   0.0000E+00, Al]
cartesian_forces: # hartree/bohr
- [ -0.00000000E+00,  -0.00000000E+00,  -0.00000000E+00, ]
- [ -0.00000000E+00,  -0.00000000E+00,  -0.00000000E+00, ]
force_length_stats: {min:   0.00000000E+00, max:   0.00000000E+00, mean:   0.00000000E+00, }
...

 Integrated electronic density in atomic spheres:
 ------------------------------------------------
 Atom  Sphere_radius  Integrated_density
    1        2.00000          2.91222130
    2        2.00000          0.97937925
================================================================================

 ----iterations are completed or convergence reached----

 Mean square residual over all n,k,spin=   73.671E-19; max=  19.306E-18
 reduced coordinates (array xred) for    2 atoms
       0.250000000000      0.250000000000      0.250000000000
       0.000000000000      0.000000000000      0.000000000000
 rms dE/dt=  0.0000E+00; max dE/dt=  0.0000E+00; dE/dt below (all hartree)
    1       0.000000000000      0.000000000000      0.000000000000
    2       0.000000000000      0.000000000000      0.000000000000

 cartesian coordinates (angstrom) at end:
    1      1.36069616633626     1.36069616633626     1.36069616633626
    2      0.00000000000000     0.00000000000000     0.00000000000000

 cartesian forces (hartree/bohr) at end:
    1     -0.00000000000000    -0.00000000000000    -0.00000000000000
    2     -0.00000000000000    -0.00000000000000    -0.00000000000000
 frms,max,avg= 0.0000000E+00 0.0000000E+00   0.000E+00  0.000E+00  0.000E+00 h/b

 cartesian forces (eV/Angstrom) at end:
    1     -0.00000000000000    -0.00000000000000    -0.00000000000000
    2     -0.00000000000000    -0.00000000000000    -0.00000000000000
 frms,max,avg= 0.0000000E+00 0.0000000E+00   0.000E+00  0.000E+00  0.000E+00 e/A
 length scales=  7.272856583600  7.272856583600  7.272856583600 bohr
              =  3.848629945385  3.848629945385  3.848629945385 angstroms
 prteigrs : about to open file tffield_2o_DS1_EIG
 Fermi (or HOMO) energy (hartree) =   0.14775   Average Vxc (hartree)=  -0.34161
 Eigenvalues (hartree) for nkpt=  28  k points:
 kpt#   1, nband=  4, wtk=  0.02778, kpt= -0.0833 -0.1667  0.0000 (reduced coord)
  -0.24355    0.09966    0.13340    0.13823
 prteigrs : prtvol=0 or 1, do not print more k-points.


--- !EnergyTerms
iteration_state     : {dtset: 1, }
comment             : Components of total free energy in Hartree
kinetic             :  3.34100509026870E+00
hartree             :  8.79639337258202E-01
xc                  : -3.16747633304796E+00
Ewald energy        : -8.74753884992007E+00
psp_core            :  2.23690616503296E-01
local_psp           : -3.33508376467758E+00
non_local_psp       :  1.52132533546523E+00
total_energy        : -9.28443856815018E+00
total_energy_eV     : -2.52642421802523E+02
band_energy         : -4.47114384866801E-02
...


 Cartesian components of stress tensor (hartree/bohr^3)
  sigma(1 1)= -4.50861185E-11  sigma(3 2)=  0.00000000E+00
  sigma(2 2)= -4.50861188E-11  sigma(3 1)=  0.00000000E+00
  sigma(3 3)= -4.50861184E-11  sigma(2 1)=  0.00000000E+00

-Cartesian components of stress tensor (GPa)         [Pressure=  1.3265E-06 GPa]
- sigma(1 1)= -1.32647918E-06  sigma(3 2)=  0.00000000E+00
- sigma(2 2)= -1.32647919E-06  sigma(3 1)=  0.00000000E+00
- sigma(3 3)= -1.32647918E-06  sigma(2 1)=  0.00000000E+00

================================================================================
== DATASET  2 ==================================================================
-   mpi_nproc: 4, omp_nthreads: -1 (-1 if OMP is not activated)


--- !DatasetInfo
iteration_state: {dtset: 2, }
dimensions: {natom: 2, nkpt: 432, mband: 4, nsppol: 1, nspinor: 1, nspden: 1, mpw: 174, }
cutoff_energies: {ecut:   5.0, pawecutdg:  -1.0, }
electrons: {nelect:   8.00000000E+00, charge:   0.00000000E+00, occopt:   1.00000000E+00, tsmear:   1.00000000E-02, }
meta: {optdriver: 0, ionmov: 0, optcell: 0, iscf: -2, paral_kgb: 0, }
...

 mkfilename : getwfk/=0, take file _WFK from output of DATASET   1.

 mkfilename : getden/=0, take file _DEN from output of DATASET   1.

 Real(R)+Recip(G) space primitive vectors, cartesian coordinates (Bohr,Bohr^-1):
 R(1)=  0.0000000  5.1426862  5.1426862  G(1)= -0.0972255  0.0972255  0.0972255
 R(2)=  5.1426862  0.0000000  5.1426862  G(2)=  0.0972255 -0.0972255  0.0972255
 R(3)=  5.1426862  5.1426862  0.0000000  G(3)=  0.0972255  0.0972255 -0.0972255
 Unit cell volume ucvol=  2.7201952E+02 bohr^3
 Angles (23,13,12)=  6.00000000E+01  6.00000000E+01  6.00000000E+01 degrees

 getcut: wavevector=  0.0000  0.0000  0.0000  ngfft=  16  16  16
         ecut(hartree)=      5.513   => boxcut(ratio)=   2.08150
--------------------------------------------------------------------------------

-inwffil : will read wavefunctions from disk file tffield_2o_DS1_WFK.nc
  initberry: for direction 1, nkstr =   6, nstr =    144
  initberry: for direction 2, nkstr =   6, nstr =    144
  initberry: for direction 3, nkstr =   6, nstr =    144

================================================================================
 prteigrs : about to open file tffield_2o_DS2_EIG
 Non-SCF case, kpt    1 ( -0.08333 -0.16667  0.00000), residuals and eigenvalues=
  9.41E-23  6.52E-23  5.64E-23  3.38E-22
 -2.4355E-01  9.9660E-02  1.3340E-01  1.3823E-01
  prteigrs : nnsclo,ikpt=   30    1 max resid (incl. the buffer)=  3.37580E-22
 prteigrs : prtvol=0 or 1, do not print more k-points.

  prteigrs : nnsclo,ikpt=   30    2 max resid (incl. the buffer)=  3.36728E-22
  prteigrs : nnsclo,ikpt=   30    3 max resid (incl. the buffer)=  3.37565E-22
  prteigrs : nnsclo,ikpt=   30    4 max resid (incl. the buffer)=  3.77547E-22
  prteigrs : nnsclo,ikpt=   30    5 max resid (incl. the buffer)=  4.95462E-22
  prteigrs : nnsclo,ikpt=   30    6 max resid (incl. the buffer)=  3.95707E-22
  prteigrs : nnsclo,ikpt=   30    7 max resid (incl. the buffer)=  4.95491E-22
  prteigrs : nnsclo,ikpt=   30    8 max resid (incl. the buffer)=  4.95969E-22
  prteigrs : nnsclo,ikpt=   30    9 max resid (incl. the buffer)=  3.95331E-22
  prteigrs : nnsclo,ikpt=   30   10 max resid (incl. the buffer)=  3.77860E-22
  prteigrs : nnsclo,ikpt=   30   11 max resid (incl. the buffer)=  3.95186E-22
  prteigrs : nnsclo,ikpt=   30   12 max resid (incl. the buffer)=  3.93767E-22
  prteigrs : nnsclo,ikpt=   30   13 max resid (incl. the buffer)=  3.75834E-22
  prteigrs : nnsclo,ikpt=   30   15 max resid (incl. the buffer)=  1.11083E-22
  prteigrs : nnsclo,ikpt=   30   16 max resid (incl. the buffer)=  2.89399E-22
  prteigrs : nnsclo,ikpt=   30   17 max resid (incl. the buffer)=  1.52514E-22
  prteigrs : nnsclo,ikpt=   30   18 max resid (incl. the buffer)=  2.55176E-22
  prteigrs : nnsclo,ikpt=   30   19 max resid (incl. the buffer)=  1.82436E-22
  prteigrs : nnsclo,ikpt=   30   20 max resid (incl. the buffer)=  1.52470E-22
  prteigrs : nnsclo,ikpt=   30   21 max resid (incl. the buffer)=  1.52690E-22
  prteigrs : nnsclo,ikpt=   30   22 max resid (incl. the buffer)=  2.54860E-22
  prteigrs : nnsclo,ikpt=   30   23 max resid (incl. the buffer)=  1.82512E-22
  prteigrs : nnsclo,ikpt=   30   24 max resid (incl. the buffer)=  1.10978E-22
  prteigrs : nnsclo,ikpt=   30   25 max resid (incl. the buffer)=  2.54984E-22
  prteigrs : nnsclo,ikpt=   30   26 max resid (incl. the buffer)=  2.54681E-22
  prteigrs : nnsclo,ikpt=   30   27 max resid (incl. the buffer)=  1.10808E-22
  prteigrs : nnsclo,ikpt=   30   28 max resid (incl. the buffer)=  2.89631E-22
  prteigrs : nnsclo,ikpt=   30   30 max resid (incl. the buffer)=  2.89743E-22
  prteigrs : nnsclo,ikpt=   30   31 max resid (incl. the buffer)=  1.82257E-22
  prteigrs : nnsclo,ikpt=   30   32 max resid (incl. the buffer)=  1.82159E-22
  prteigrs : nnsclo,ikpt=   30   33 max resid (incl. the buffer)=  2.88394E-22
  prteigrs : nnsclo,ikpt=   30   37 max resid (incl. the buffer)=  2.89327E-22
  prteigrs : nnsclo,ikpt=   30   39 max resid (incl. the buffer)=  1.44344E-22
  prteigrs : nnsclo,ikpt=   30   40 max resid (incl. the buffer)=  1.44036E-22
  prteigrs : nnsclo,ikpt=   30   41 max resid (incl. the buffer)=  1.97689E-22
  prteigrs : nnsclo,ikpt=   30   42 max resid (incl. the buffer)=  1.50526E-22
  prteigrs : nnsclo,ikpt=   30   45 max resid (incl. the buffer)=  1.97625E-22
  prteigrs : nnsclo,ikpt=   30   46 max resid (incl. the buffer)=  1.98029E-22
  prteigrs : nnsclo,ikpt=   30   47 max resid (incl. the buffer)=  1.50444E-22
  prteigrs : nnsclo,ikpt=   30   51 max resid (incl. the buffer)=  1.50358E-22
  prteigrs : nnsclo,ikpt=   30   52 max resid (incl. the buffer)=  1.50214E-22
  prteigrs : nnsclo,ikpt=   30   54 max resid (incl. the buffer)=  1.44437E-22
  prteigrs : nnsclo,ikpt=   30   55 max resid (incl. the buffer)=  1.44324E-22
  prteigrs : nnsclo,ikpt=   30   57 max resid (incl. the buffer)=  1.44102E-22
  prteigrs : nnsclo,ikpt=   30   60 max resid (incl. the buffer)=  1.43948E-22
  prteigrs : nnsclo,ikpt=   30   62 max resid (incl. the buffer)=  2.90037E-22
  prteigrs : nnsclo,ikpt=   30   64 max resid (incl. the buffer)=  2.89723E-22
  prteigrs : nnsclo,ikpt=   30   65 max resid (incl. the buffer)=  1.43947E-22
  prteigrs : nnsclo,ikpt=   30   68 max resid (incl. the buffer)=  1.43990E-22
  prteigrs : nnsclo,ikpt=   30   69 max resid (incl. the buffer)=  2.88833E-22
  prteigrs : nnsclo,ikpt=   30   71 max resid (incl. the buffer)=  2.39951E-22
  prteigrs : nnsclo,ikpt=   30   73 max resid (incl. the buffer)=  3.94964E-22
  prteigrs : nnsclo,ikpt=   30   75 max resid (incl. the buffer)=  1.82333E-22
  prteigrs : nnsclo,ikpt=   30   76 max resid (incl. the buffer)=  2.54689E-22
  prteigrs : nnsclo,ikpt=   30   80 max resid (incl. the buffer)=  1.50273E-22
  prteigrs : nnsclo,ikpt=   30   81 max resid (incl. the buffer)=  1.47065E-22
  prteigrs : nnsclo,ikpt=   30   86 max resid (incl. the buffer)=  1.46939E-22
  prteigrs : nnsclo,ikpt=   30   87 max resid (incl. the buffer)=  1.47122E-22
  prteigrs : nnsclo,ikpt=   30   98 max resid (incl. the buffer)=  1.50364E-22
  prteigrs : nnsclo,ikpt=   30  105 max resid (incl. the buffer)=  1.82666E-22
  prteigrs : nnsclo,ikpt=   30  106 max resid (incl. the buffer)=  2.54694E-22
  prteigrs : nnsclo,ikpt=   30  108 max resid (incl. the buffer)=  1.82204E-22
  prteigrs : nnsclo,ikpt=   30  113 max resid (incl. the buffer)=  1.82364E-22
  prteigrs : nnsclo,ikpt=   30  115 max resid (incl. the buffer)=  3.94216E-22
  prteigrs : nnsclo,ikpt=   30  116 max resid (incl. the buffer)=  2.40357E-22
  prteigrs : nnsclo,ikpt=   30  117 max resid (incl. the buffer)=  3.95097E-22
  prteigrs : nnsclo,ikpt=   30  118 max resid (incl. the buffer)=  2.54748E-22
  prteigrs : nnsclo,ikpt=   30  119 max resid (incl. the buffer)=  1.50232E-22
  prteigrs : nnsclo,ikpt=   30  122 max resid (incl. the buffer)=  1.50264E-22
  prteigrs : nnsclo,ikpt=   30  123 max resid (incl. the buffer)=  2.54752E-22
  prteigrs : nnsclo,ikpt=   30  124 max resid (incl. the buffer)=  3.94193E-22
  prteigrs : nnsclo,ikpt=   30  125 max resid (incl. the buffer)=  2.40474E-22
  prteigrs : nnsclo,ikpt=   30  127 max resid (incl. the buffer)=  3.37926E-22
  prteigrs : nnsclo,ikpt=   30  128 max resid (incl. the buffer)=  3.95218E-22
  prteigrs : nnsclo,ikpt=   30  129 max resid (incl. the buffer)=  4.95848E-22
  prteigrs : nnsclo,ikpt=   30  130 max resid (incl. the buffer)=  1.82254E-22
  prteigrs : nnsclo,ikpt=   30  131 max resid (incl. the buffer)=  2.54992E-22
  prteigrs : nnsclo,ikpt=   30  132 max resid (incl. the buffer)=  1.52592E-22
  prteigrs : nnsclo,ikpt=   30  135 max resid (incl. the buffer)=  1.50353E-22
  prteigrs : nnsclo,ikpt=   30  136 max resid (incl. the buffer)=  1.97612E-22
  prteigrs : nnsclo,ikpt=   30  141 max resid (incl. the buffer)=  1.46890E-22
  prteigrs : nnsclo,ikpt=   30  142 max resid (incl. the buffer)=  1.46994E-22
  prteigrs : nnsclo,ikpt=   30  147 max resid (incl. the buffer)=  1.47018E-22
  prteigrs : nnsclo,ikpt=   30  153 max resid (incl. the buffer)=  1.50446E-22
  prteigrs : nnsclo,ikpt=   30  154 max resid (incl. the buffer)=  1.97680E-22
  prteigrs : nnsclo,ikpt=   30  160 max resid (incl. the buffer)=  1.82587E-22
  prteigrs : nnsclo,ikpt=   30  161 max resid (incl. the buffer)=  2.54989E-22
  prteigrs : nnsclo,ikpt=   30  162 max resid (incl. the buffer)=  1.52623E-22
  prteigrs : nnsclo,ikpt=   30  163 max resid (incl. the buffer)=  1.82029E-22
  prteigrs : nnsclo,ikpt=   30  168 max resid (incl. the buffer)=  1.82539E-22
  prteigrs : nnsclo,ikpt=   30  170 max resid (incl. the buffer)=  3.95067E-22
  prteigrs : nnsclo,ikpt=   30  171 max resid (incl. the buffer)=  4.95829E-22
  prteigrs : nnsclo,ikpt=   30  172 max resid (incl. the buffer)=  3.94412E-22
  prteigrs : nnsclo,ikpt=   30  173 max resid (incl. the buffer)=  2.54755E-22
  prteigrs : nnsclo,ikpt=   30  174 max resid (incl. the buffer)=  1.50168E-22
  prteigrs : nnsclo,ikpt=   30  177 max resid (incl. the buffer)=  1.50324E-22
  prteigrs : nnsclo,ikpt=   30  178 max resid (incl. the buffer)=  2.54747E-22
  prteigrs : nnsclo,ikpt=   30  179 max resid (incl. the buffer)=  3.94328E-22
  prteigrs : nnsclo,ikpt=   30  180 max resid (incl. the buffer)=  2.40885E-22
  prteigrs : nnsclo,ikpt=   30  181 max resid (incl. the buffer)=  3.39079E-22
  prteigrs : nnsclo,ikpt=   30  183 max resid (incl. the buffer)=  3.37736E-22
  prteigrs : nnsclo,ikpt=   30  184 max resid (incl. the buffer)=  4.95910E-22
  prteigrs : nnsclo,ikpt=   30  185 max resid (incl. the buffer)=  1.52641E-22
  prteigrs : nnsclo,ikpt=   30  186 max resid (incl. the buffer)=  1.97825E-22
  prteigrs : nnsclo,ikpt=   30  187 max resid (incl. the buffer)=  1.47006E-22
  prteigrs : nnsclo,ikpt=   30  188 max resid (incl. the buffer)=  1.47007E-22
  prteigrs : nnsclo,ikpt=   30  189 max resid (incl. the buffer)=  1.97823E-22
  prteigrs : nnsclo,ikpt=   30  190 max resid (incl. the buffer)=  1.52636E-22
  prteigrs : nnsclo,ikpt=   30  191 max resid (incl. the buffer)=  4.95915E-22
  prteigrs : nnsclo,ikpt=   30  192 max resid (incl. the buffer)=  3.37730E-22
  prteigrs : nnsclo,ikpt=   30  194 max resid (incl. the buffer)=  6.79068E-22
  prteigrs : nnsclo,ikpt=   30  195 max resid (incl. the buffer)=  2.40777E-22
  prteigrs : nnsclo,ikpt=   30  196 max resid (incl. the buffer)=  2.39965E-22
  prteigrs : nnsclo,ikpt=   30  197 max resid (incl. the buffer)=  3.79084E-22
  prteigrs : nnsclo,ikpt=   30  198 max resid (incl. the buffer)=  3.96088E-22
  prteigrs : nnsclo,ikpt=   30  199 max resid (incl. the buffer)=  3.94596E-22
  prteigrs : nnsclo,ikpt=   30  200 max resid (incl. the buffer)=  2.89056E-22
  prteigrs : nnsclo,ikpt=   30  201 max resid (incl. the buffer)=  1.11167E-22
  prteigrs : nnsclo,ikpt=   30  202 max resid (incl. the buffer)=  2.55163E-22
  prteigrs : nnsclo,ikpt=   30  203 max resid (incl. the buffer)=  2.54862E-22
  prteigrs : nnsclo,ikpt=   30  204 max resid (incl. the buffer)=  1.44051E-22
  prteigrs : nnsclo,ikpt=   30  205 max resid (incl. the buffer)=  1.43937E-22
  prteigrs : nnsclo,ikpt=   30  207 max resid (incl. the buffer)=  1.50582E-22
  prteigrs : nnsclo,ikpt=   30  208 max resid (incl. the buffer)=  1.50439E-22
  prteigrs : nnsclo,ikpt=   30  209 max resid (incl. the buffer)=  1.50432E-22
  prteigrs : nnsclo,ikpt=   30  215 max resid (incl. the buffer)=  1.97968E-22
  prteigrs : nnsclo,ikpt=   30  216 max resid (incl. the buffer)=  1.50351E-22
  prteigrs : nnsclo,ikpt=   30  222 max resid (incl. the buffer)=  1.50296E-22
  prteigrs : nnsclo,ikpt=   30  223 max resid (incl. the buffer)=  1.50277E-22
  prteigrs : nnsclo,ikpt=   30  225 max resid (incl. the buffer)=  1.44149E-22
  prteigrs : nnsclo,ikpt=   30  226 max resid (incl. the buffer)=  1.44231E-22
  prteigrs : nnsclo,ikpt=   30  228 max resid (incl. the buffer)=  1.50519E-22
  prteigrs : nnsclo,ikpt=   30  229 max resid (incl. the buffer)=  1.50500E-22
  prteigrs : nnsclo,ikpt=   30  230 max resid (incl. the buffer)=  1.43850E-22
  prteigrs : nnsclo,ikpt=   30  233 max resid (incl. the buffer)=  1.44197E-22
  prteigrs : nnsclo,ikpt=   30  235 max resid (incl. the buffer)=  2.89792E-22
  prteigrs : nnsclo,ikpt=   30  236 max resid (incl. the buffer)=  1.11276E-22
  prteigrs : nnsclo,ikpt=   30  237 max resid (incl. the buffer)=  2.55175E-22
  prteigrs : nnsclo,ikpt=   30  238 max resid (incl. the buffer)=  2.54862E-22
  prteigrs : nnsclo,ikpt=   30  239 max resid (incl. the buffer)=  2.88091E-22
  prteigrs : nnsclo,ikpt=   30  240 max resid (incl. the buffer)=  1.43695E-22
  prteigrs : nnsclo,ikpt=   30  243 max resid (incl. the buffer)=  1.44239E-22
  prteigrs : nnsclo,ikpt=   30  244 max resid (incl. the buffer)=  2.90434E-22
  prteigrs : nnsclo,ikpt=   30  246 max resid (incl. the buffer)=  3.78777E-22
  prteigrs : nnsclo,ikpt=   30  247 max resid (incl. the buffer)=  3.95382E-22
  prteigrs : nnsclo,ikpt=   30  248 max resid (incl. the buffer)=  3.96178E-22
  prteigrs : nnsclo,ikpt=   30  249 max resid (incl. the buffer)=  7.83219E-22
  prteigrs : nnsclo,ikpt=   30  250 max resid (incl. the buffer)=  3.77452E-22
  prteigrs : nnsclo,ikpt=   30  251 max resid (incl. the buffer)=  1.10988E-22
  prteigrs : nnsclo,ikpt=   30  256 max resid (incl. the buffer)=  1.10988E-22
  prteigrs : nnsclo,ikpt=   30  257 max resid (incl. the buffer)=  3.77455E-22
  prteigrs : nnsclo,ikpt=   30  258 max resid (incl. the buffer)=  7.80683E-22
  prteigrs : nnsclo,ikpt=   30  259 max resid (incl. the buffer)=  2.40375E-22
  prteigrs : nnsclo,ikpt=   30  260 max resid (incl. the buffer)=  2.40373E-22
  prteigrs : nnsclo,ikpt=   30  261 max resid (incl. the buffer)=  2.40793E-22
  prteigrs : nnsclo,ikpt=   30  262 max resid (incl. the buffer)=  3.96847E-22
  prteigrs : nnsclo,ikpt=   30  263 max resid (incl. the buffer)=  2.55113E-22
  prteigrs : nnsclo,ikpt=   30  264 max resid (incl. the buffer)=  1.50626E-22
  prteigrs : nnsclo,ikpt=   30  267 max resid (incl. the buffer)=  1.50472E-22
  prteigrs : nnsclo,ikpt=   30  268 max resid (incl. the buffer)=  2.55114E-22
  prteigrs : nnsclo,ikpt=   30  269 max resid (incl. the buffer)=  3.95604E-22
  prteigrs : nnsclo,ikpt=   30  270 max resid (incl. the buffer)=  2.39863E-22
  prteigrs : nnsclo,ikpt=   30  271 max resid (incl. the buffer)=  3.36666E-22
  prteigrs : nnsclo,ikpt=   30  272 max resid (incl. the buffer)=  2.40388E-22
  prteigrs : nnsclo,ikpt=   30  273 max resid (incl. the buffer)=  3.95251E-22
  prteigrs : nnsclo,ikpt=   30  274 max resid (incl. the buffer)=  2.55115E-22
  prteigrs : nnsclo,ikpt=   30  275 max resid (incl. the buffer)=  1.50566E-22
  prteigrs : nnsclo,ikpt=   30  278 max resid (incl. the buffer)=  1.50533E-22
  prteigrs : nnsclo,ikpt=   30  279 max resid (incl. the buffer)=  2.55106E-22
  prteigrs : nnsclo,ikpt=   30  280 max resid (incl. the buffer)=  3.97741E-22
  prteigrs : nnsclo,ikpt=   30  281 max resid (incl. the buffer)=  2.40263E-22
  prteigrs : nnsclo,ikpt=   30  288 max resid (incl. the buffer)=  2.90317E-22
  prteigrs : nnsclo,ikpt=   30  289 max resid (incl. the buffer)=  1.82606E-22
  prteigrs : nnsclo,ikpt=   30  290 max resid (incl. the buffer)=  1.82509E-22
  prteigrs : nnsclo,ikpt=   30  291 max resid (incl. the buffer)=  2.88946E-22
  prteigrs : nnsclo,ikpt=   30  292 max resid (incl. the buffer)=  2.88652E-22
  prteigrs : nnsclo,ikpt=   30  294 max resid (incl. the buffer)=  1.44428E-22
  prteigrs : nnsclo,ikpt=   30  297 max resid (incl. the buffer)=  1.44275E-22
  prteigrs : nnsclo,ikpt=   30  298 max resid (incl. the buffer)=  2.55179E-22
  prteigrs : nnsclo,ikpt=   30  299 max resid (incl. the buffer)=  1.82104E-22
  prteigrs : nnsclo,ikpt=   30  305 max resid (incl. the buffer)=  1.52650E-22
  prteigrs : nnsclo,ikpt=   30  306 max resid (incl. the buffer)=  2.54859E-22
  prteigrs : nnsclo,ikpt=   30  307 max resid (incl. the buffer)=  1.82182E-22
  prteigrs : nnsclo,ikpt=   30  313 max resid (incl. the buffer)=  2.54995E-22
  prteigrs : nnsclo,ikpt=   30  314 max resid (incl. the buffer)=  2.54679E-22
  prteigrs : nnsclo,ikpt=   30  315 max resid (incl. the buffer)=  1.10703E-22
  prteigrs : nnsclo,ikpt=   30  316 max resid (incl. the buffer)=  2.88913E-22
  prteigrs : nnsclo,ikpt=   30  318 max resid (incl. the buffer)=  1.44181E-22
  prteigrs : nnsclo,ikpt=   30  321 max resid (incl. the buffer)=  1.44520E-22
  prteigrs : nnsclo,ikpt=   30  322 max resid (incl. the buffer)=  2.88150E-22
  prteigrs : nnsclo,ikpt=   30  323 max resid (incl. the buffer)=  1.82083E-22
  prteigrs : nnsclo,ikpt=   30  324 max resid (incl. the buffer)=  1.82337E-22
  prteigrs : nnsclo,ikpt=   30  325 max resid (incl. the buffer)=  2.90011E-22
  prteigrs : nnsclo,ikpt=   30  328 max resid (incl. the buffer)=  2.88708E-22
  prteigrs : nnsclo,ikpt=   30  329 max resid (incl. the buffer)=  1.82433E-22
  prteigrs : nnsclo,ikpt=   30  330 max resid (incl. the buffer)=  1.82685E-22
  prteigrs : nnsclo,ikpt=   30  331 max resid (incl. the buffer)=  2.90578E-22
  prteigrs : nnsclo,ikpt=   30  345 max resid (incl. the buffer)=  2.90587E-22
  prteigrs : nnsclo,ikpt=   30  346 max resid (incl. the buffer)=  1.44673E-22
  prteigrs : nnsclo,ikpt=   30  349 max resid (incl. the buffer)=  1.44140E-22
  prteigrs : nnsclo,ikpt=   30  350 max resid (incl. the buffer)=  2.88250E-22
  prteigrs : nnsclo,ikpt=   30  352 max resid (incl. the buffer)=  3.76153E-22
  prteigrs : nnsclo,ikpt=   30  353 max resid (incl. the buffer)=  3.95341E-22
  prteigrs : nnsclo,ikpt=   30  354 max resid (incl. the buffer)=  3.94487E-22
  prteigrs : nnsclo,ikpt=   30  356 max resid (incl. the buffer)=  1.82731E-22
  prteigrs : nnsclo,ikpt=   30  361 max resid (incl. the buffer)=  1.82231E-22
  prteigrs : nnsclo,ikpt=   30  363 max resid (incl. the buffer)=  3.96293E-22
  prteigrs : nnsclo,ikpt=   30  364 max resid (incl. the buffer)=  4.96007E-22
  prteigrs : nnsclo,ikpt=   30  366 max resid (incl. the buffer)=  1.82560E-22
  prteigrs : nnsclo,ikpt=   30  371 max resid (incl. the buffer)=  1.82403E-22
  prteigrs : nnsclo,ikpt=   30  373 max resid (incl. the buffer)=  3.96077E-22
  prteigrs : nnsclo,ikpt=   30  375 max resid (incl. the buffer)=  2.88994E-22
  prteigrs : nnsclo,ikpt=   30  376 max resid (incl. the buffer)=  1.44429E-22
  prteigrs : nnsclo,ikpt=   30  379 max resid (incl. the buffer)=  1.44387E-22
  prteigrs : nnsclo,ikpt=   30  380 max resid (incl. the buffer)=  2.89875E-22
  prteigrs : nnsclo,ikpt=   30  394 max resid (incl. the buffer)=  3.77767E-22
  prteigrs : nnsclo,ikpt=   30  395 max resid (incl. the buffer)=  1.10880E-22
  prteigrs : nnsclo,ikpt=   30  400 max resid (incl. the buffer)=  1.11095E-22
  prteigrs : nnsclo,ikpt=   30  401 max resid (incl. the buffer)=  3.77142E-22
  prteigrs : nnsclo,ikpt=   30  402 max resid (incl. the buffer)=  3.77376E-22
  prteigrs : nnsclo,ikpt=   30  403 max resid (incl. the buffer)=  1.10894E-22
  prteigrs : nnsclo,ikpt=   30  408 max resid (incl. the buffer)=  1.11003E-22
  prteigrs : nnsclo,ikpt=   30  409 max resid (incl. the buffer)=  3.77063E-22
  prteigrs : nnsclo,ikpt=   30  410 max resid (incl. the buffer)=  3.36872E-22
  prteigrs : nnsclo,ikpt=   30  411 max resid (incl. the buffer)=  4.95942E-22
  prteigrs : nnsclo,ikpt=   30  412 max resid (incl. the buffer)=  1.52602E-22
  prteigrs : nnsclo,ikpt=   30  413 max resid (incl. the buffer)=  1.97758E-22
  prteigrs : nnsclo,ikpt=   30  414 max resid (incl. the buffer)=  1.46879E-22
  prteigrs : nnsclo,ikpt=   30  415 max resid (incl. the buffer)=  1.47133E-22
  prteigrs : nnsclo,ikpt=   30  416 max resid (incl. the buffer)=  1.97892E-22
  prteigrs : nnsclo,ikpt=   30  417 max resid (incl. the buffer)=  1.52673E-22
  prteigrs : nnsclo,ikpt=   30  418 max resid (incl. the buffer)=  4.95890E-22
  prteigrs : nnsclo,ikpt=   30  419 max resid (incl. the buffer)=  3.38928E-22
  prteigrs : nnsclo,ikpt=   30  420 max resid (incl. the buffer)=  3.37905E-22
  prteigrs : nnsclo,ikpt=   30  421 max resid (incl. the buffer)=  4.96364E-22
  prteigrs : nnsclo,ikpt=   30  422 max resid (incl. the buffer)=  1.52761E-22
  prteigrs : nnsclo,ikpt=   30  423 max resid (incl. the buffer)=  1.97964E-22
  prteigrs : nnsclo,ikpt=   30  424 max resid (incl. the buffer)=  1.46946E-22
  prteigrs : nnsclo,ikpt=   30  425 max resid (incl. the buffer)=  1.47076E-22
  prteigrs : nnsclo,ikpt=   30  426 max resid (incl. the buffer)=  1.98031E-22
  prteigrs : nnsclo,ikpt=   30  427 max resid (incl. the buffer)=  1.52803E-22
  prteigrs : nnsclo,ikpt=   30  428 max resid (incl. the buffer)=  4.96342E-22
  prteigrs : nnsclo,ikpt=   30  429 max resid (incl. the buffer)=  3.39109E-22
  prteigrs : nnsclo,ikpt=   30  431 max resid (incl. the buffer)=  7.65089E-22


 Computing the polarization (Berry phase) for reciprocal vector:
  0.16667  0.00000  0.00000 (in reduced coordinates)
 -0.01620  0.01620  0.01620 (in cartesian coordinates - atomic units)
 Number of strings:   144
 Number of k points in string:    6

 Computing the ddk (Berry phase) for reciprocal vector:
  0.16667  0.00000  0.00000 (in reduced coordinates)
 -0.01620  0.01620  0.01620 (in cartesian coordinates - atomic units)
 Mean square residual over all n,k,spin=   00.000E+00; max=  00.000E+00

 Computing the polarization (Berry phase) for reciprocal vector:
  0.00000  0.16667  0.00000 (in reduced coordinates)
  0.01620 -0.01620  0.01620 (in cartesian coordinates - atomic units)
 Number of strings:   144
 Number of k points in string:    6

 Computing the ddk (Berry phase) for reciprocal vector:
  0.00000  0.16667  0.00000 (in reduced coordinates)
  0.01620 -0.01620  0.01620 (in cartesian coordinates - atomic units)
 Mean square residual over all n,k,spin=   00.000E+00; max=  00.000E+00

 Computing the polarization (Berry phase) for reciprocal vector:
  0.00000  0.00000  0.16667 (in reduced coordinates)
  0.01620  0.01620 -0.01620 (in cartesian coordinates - atomic units)
 Number of strings:   144
 Number of k points in string:    6

 Computing the ddk (Berry phase) for reciprocal vector:
  0.00000  0.00000  0.16667 (in reduced coordinates)
  0.01620  0.01620 -0.01620 (in cartesian coordinates - atomic units)
 Mean square residual over all n,k,spin=   00.000E+00; max=  00.000E+00

 Polarization in cartesian coordinates (a.u.):
 (the sum of the electronic and ionic Berry phase has been folded into [-1, 1])
     Electronic berry phase:        0.000000000E+00   0.000000000E+00   0.000000000E+00
     Ionic:                         0.000000000E+00   0.000000000E+00   0.000000000E+00  
     Total:                         0.000000000E+00   0.000000000E+00   0.000000000E+00

 Polarization in cartesian coordinates (C/m^2):
 (the sum of the electronic and ionic Berry phase has been folded into [-1, 1])
     Electronic berry phase:        0.000000000E+00   0.000000000E+00   0.000000000E+00
     Ionic:                         0.000000000E+00   0.000000000E+00   0.000000000E+00  
     Total:                         0.000000000E+00   0.000000000E+00   0.000000000E+00

--- !ResultsGS
iteration_state: {dtset: 2, }
comment   : Summary of ground state results
lattice_vectors:
- [  0.0000000,   5.1426862,   5.1426862, ]
- [  5.1426862,   0.0000000,   5.1426862, ]
- [  5.1426862,   5.1426862,   0.0000000, ]
lattice_lengths: [   7.27286,    7.27286,    7.27286, ]
lattice_angles: [ 60.000,  60.000,  60.000, ] # degrees, (23, 13, 12)
lattice_volume:   2.7201952E+02
convergence: {deltae:  0.000E+00, res2:  0.000E+00, residm:  9.701E-23, diffor:  0.000E+00, }
etotal    :  -9.28443857E+00
entropy   :   0.00000000E+00
fermie    :   1.47753447E-01
cartesian_stress_tensor: null
pressure_GPa: null
xred      :
- [  2.5000E-01,   2.5000E-01,   2.5000E-01,  P]
- [  0.0000E+00,   0.0000E+00,   0.0000E+00, Al]
cartesian_forces: null
force_length_stats: {min: null, max: null, mean: null, }
...

 Integrated electronic density in atomic spheres:
 ------------------------------------------------
 Atom  Sphere_radius  Integrated_density
    1        2.00000          2.91222130
    2        2.00000          0.97937925
================================================================================

 ----iterations are completed or convergence reached----

 Mean square residual over all n,k,spin=   54.264E-24; max=  97.014E-24
 reduced coordinates (array xred) for    2 atoms
       0.250000000000      0.250000000000      0.250000000000
       0.000000000000      0.000000000000      0.000000000000

 cartesian coordinates (angstrom) at end:
    1      1.36069616633626     1.36069616633626     1.36069616633626
    2      0.00000000000000     0.00000000000000     0.00000000000000
 length scales=  7.272856583600  7.272856583600  7.272856583600 bohr
              =  3.848629945385  3.848629945385  3.848629945385 angstroms
 prteigrs : about to open file tffield_2o_DS2_EIG
 Eigenvalues (hartree) for nkpt= 432  k points:
 kpt#   1, nband=  4, wtk=  0.00231, kpt= -0.0833 -0.1667  0.0000 (reduced coord)
  -0.24355    0.09966    0.13340    0.13823
 prteigrs : prtvol=0 or 1, do not print more k-points.


================================================================================
== DATASET  3 ==================================================================
-   mpi_nproc: 4, omp_nthreads: -1 (-1 if OMP is not activated)


--- !DatasetInfo
iteration_state: {dtset: 3, }
dimensions: {natom: 2, nkpt: 432, mband: 4, nsppol: 1, nspinor: 1, nspden: 1, mpw: 174, }
cutoff_energies: {ecut:   5.0, pawecutdg:  -1.0, }
electrons: {nelect:   8.00000000E+00, charge:   0.00000000E+00, occopt:   1.00000000E+00, tsmear:   1.00000000E-02, }
meta: {optdriver: 1, rfelfd: 3, rfphon: 1, rfstrs: 3, }
...

 mkfilename : getwfk/=0, take file _WFK from output of DATASET   2.

 mkfilename : getddk/=0, take file _1WF from output of DATASET   2.

 Real(R)+Recip(G) space primitive vectors, cartesian coordinates (Bohr,Bohr^-1):
 R(1)=  0.0000000  5.1426862  5.1426862  G(1)= -0.0972255  0.0972255  0.0972255
 R(2)=  5.1426862  0.0000000  5.1426862  G(2)=  0.0972255 -0.0972255  0.0972255
 R(3)=  5.1426862  5.1426862  0.0000000  G(3)=  0.0972255  0.0972255 -0.0972255
 Unit cell volume ucvol=  2.7201952E+02 bohr^3
 Angles (23,13,12)=  6.00000000E+01  6.00000000E+01  6.00000000E+01 degrees

 getcut: wavevector=  0.0000  0.0000  0.0000  ngfft=  16  16  16
         ecut(hartree)=      5.513   => boxcut(ratio)=   2.08150
--------------------------------------------------------------------------------

-inwffil : will read wavefunctions from disk file tffield_2o_DS2_WFK.nc
 symkchk : k-point set has full space-group symmetry.

 ==>  initialize data related to q vector <== 

 The list of irreducible perturbations for this q vector is:
    1)    idir= 1    ipert=   1
    2)    idir= 1    ipert=   2
    3)    idir= 1    ipert=   4
    4)    idir= 1    ipert=   5
    5)    idir= 2    ipert=   5
    6)    idir= 3    ipert=   5
    7)    idir= 1    ipert=   6
    8)    idir= 2    ipert=   6
    9)    idir= 3    ipert=   6

================================================================================

 The perturbation idir=   2  ipert=   1 is
 symmetric of a previously calculated perturbation.
 So, its SCF calculation is not needed.


 The perturbation idir=   3  ipert=   1 is
 symmetric of a previously calculated perturbation.
 So, its SCF calculation is not needed.


 The perturbation idir=   2  ipert=   2 is
 symmetric of a previously calculated perturbation.
 So, its SCF calculation is not needed.


 The perturbation idir=   3  ipert=   2 is
 symmetric of a previously calculated perturbation.
 So, its SCF calculation is not needed.


 The perturbation idir=   2  ipert=   4 is
 symmetric of a previously calculated perturbation.
 So, its SCF calculation is not needed.


 The perturbation idir=   3  ipert=   4 is
 symmetric of a previously calculated perturbation.
 So, its SCF calculation is not needed.


--------------------------------------------------------------------------------
 Perturbation wavevector (in red.coord.)   0.000000  0.000000  0.000000
 Perturbation : displacement of atom   1   along direction   1
 Found     2 symmetries that leave the perturbation invariant.
 symkpt : the number of k-points, thanks to the symmetries,
 is reduced to   234 .

--------------------------------------------------------------------------------

-inwffil : will read wavefunctions from disk file tffield_2o_DS2_WFK.nc
--------------------------------------------------------------------------------

 Initialisation of the first-order wave-functions :
  ireadwf=   0

--- !BeginCycle
iteration_state: {dtset: 3, }
solver: {iscf: 7, nstep: 30, nline: 4, wfoptalg: 0, }
tolerances: {tolvrs: 1.00E-10, }
...

     iter   2DEtotal(Ha)        deltaE(Ha) residm    vres2
-ETOT  1   5.9819159881544     -1.562E+02 3.241E-01 9.326E+01
 ETOT  2   5.6097859453057     -3.721E-01 1.253E-03 1.213E+00
 ETOT  3   5.6037800321148     -6.006E-03 2.675E-05 1.095E-01
 ETOT  4   5.6035108520233     -2.692E-04 5.105E-07 2.544E-03
 ETOT  5   5.6035060402845     -4.812E-06 1.054E-08 1.783E-05
 ETOT  6   5.6035060040386     -3.625E-08 1.461E-10 4.093E-07
 ETOT  7   5.6035060034088     -6.298E-10 1.803E-12 1.069E-08
 ETOT  8   5.6035060033862     -2.260E-11 3.892E-14 2.869E-10
 ETOT  9   5.6035060033851     -1.108E-12 2.301E-15 4.333E-12

 At SCF step    9       vres2   =  4.33E-12 < tolvrs=  1.00E-10 =>converged.
-open ddk wf file :tffield_2o_DS2_1WF7.nc
-open ddk wf file :tffield_2o_DS2_1WF8.nc
-open ddk wf file :tffield_2o_DS2_1WF9.nc
================================================================================

 ----iterations are completed or convergence reached----

 Mean square residual over all n,k,spin=   29.017E-17; max=  23.005E-16

 Thirteen components of 2nd-order total energy (hartree) are
 1,2,3: 0th-order hamiltonian combined with 1st-order wavefunctions
     kin0=   1.71679185E+02 eigvalue=  -8.64074819E+00  local=  -1.30494878E+02
 4,5,6: 1st-order hamiltonian combined with 1st and 0th-order wfs
 loc psp =  -1.00729551E+02  Hartree=   4.20402995E+01     xc=  -1.44739674E+01
 note that "loc psp" includes a xc core correction that could be resolved
 7,8,9: eventually, occupation + non-local contributions
    edocc=   0.00000000E+00     enl0=   9.64749395E+01   enl1=  -2.12440109E+02
 1-9 gives the relaxation energy (to be shifted if some occ is /=2.0)
   erelax=  -1.56584830E+02
 10,11,12 Non-relaxation  contributions : frozen-wavefunctions and Ewald
 fr.local=   4.27717810E+01 fr.nonlo=   1.10588061E+02  Ewald=   1.22177108E+01
 13,14 Frozen wf xc core corrections (1) and (2)
 frxc 1  =  -1.72960965E+01  frxc 2 =   1.39068794E+01
 Resulting in :
 2DEtotal=    0.5603506003E+01 Ha. Also 2DEtotal=    0.152479152820E+03 eV
    (2DErelax=   -1.5658482953E+02 Ha. 2DEnonrelax=    1.6218833554E+02 Ha)
    (  non-var. 2DEtotal :    5.6035054216E+00 Ha)


--------------------------------------------------------------------------------
 Perturbation wavevector (in red.coord.)   0.000000  0.000000  0.000000
 Perturbation : displacement of atom   2   along direction   1
 Found     2 symmetries that leave the perturbation invariant.
 symkpt : the number of k-points, thanks to the symmetries,
 is reduced to   234 .

--------------------------------------------------------------------------------

-inwffil : will read wavefunctions from disk file tffield_2o_DS2_WFK.nc
--------------------------------------------------------------------------------

 Initialisation of the first-order wave-functions :
  ireadwf=   0

--- !BeginCycle
iteration_state: {dtset: 3, }
solver: {iscf: 7, nstep: 30, nline: 4, wfoptalg: 0, }
tolerances: {tolvrs: 1.00E-10, }
...

     iter   2DEtotal(Ha)        deltaE(Ha) residm    vres2
-ETOT  1   5.6476199218143     -2.497E+01 3.105E-02 1.153E+01
 ETOT  2   5.6047512169454     -4.287E-02 2.805E-04 1.729E-01
 ETOT  3   5.6042330208050     -5.182E-04 3.424E-06 5.740E-03
 ETOT  4   5.6042196893216     -1.333E-05 5.005E-08 1.588E-04
 ETOT  5   5.6042193584502     -3.309E-07 8.827E-10 1.169E-06
 ETOT  6   5.6042193557495     -2.701E-09 1.521E-11 2.046E-08
 ETOT  7   5.6042193556975     -5.202E-11 1.484E-13 3.569E-10
 ETOT  8   5.6042193556969     -6.182E-13 3.169E-15 9.475E-12

 At SCF step    8       vres2   =  9.48E-12 < tolvrs=  1.00E-10 =>converged.
-open ddk wf file :tffield_2o_DS2_1WF7.nc
-open ddk wf file :tffield_2o_DS2_1WF8.nc
-open ddk wf file :tffield_2o_DS2_1WF9.nc
================================================================================

 ----iterations are completed or convergence reached----

 Mean square residual over all n,k,spin=   45.347E-17; max=  31.686E-16

 Thirteen components of 2nd-order total energy (hartree) are
 1,2,3: 0th-order hamiltonian combined with 1st-order wavefunctions
     kin0=   2.34536658E+01 eigvalue=  -4.05140534E-01  local=  -1.57197516E+01
 4,5,6: 1st-order hamiltonian combined with 1st and 0th-order wfs
 loc psp =   4.43873076E+00  Hartree=   3.38007934E+00     xc=  -1.62178150E+00
 note that "loc psp" includes a xc core correction that could be resolved
 7,8,9: eventually, occupation + non-local contributions
    edocc=   0.00000000E+00     enl0=   1.59240802E+01   enl1=  -5.44610346E+01
 1-9 gives the relaxation energy (to be shifted if some occ is /=2.0)
   erelax=  -2.50111521E+01
 10,11,12 Non-relaxation  contributions : frozen-wavefunctions and Ewald
 fr.local=  -1.52983620E+01 fr.nonlo=   3.49191677E+01  Ewald=   1.22177108E+01
 13,14 Frozen wf xc core corrections (1) and (2)
 frxc 1  =  -5.14901921E+00  frxc 2 =   3.92587416E+00
 Resulting in :
 2DEtotal=    0.5604219356E+01 Ha. Also 2DEtotal=    0.152498564124E+03 eV
    (2DErelax=   -2.5011152109E+01 Ha. 2DEnonrelax=    3.0615371465E+01 Ha)
    (  non-var. 2DEtotal :    5.6042195210E+00 Ha)


--------------------------------------------------------------------------------
 Perturbation wavevector (in red.coord.)   0.000000  0.000000  0.000000
 Perturbation : homogeneous electric field along direction   1
 The set of symmetries contains only one element for this perturbation.
 symkpt : not enough symmetry to change the number of k points.

--------------------------------------------------------------------------------

-inwffil : will read wavefunctions from disk file tffield_2o_DS2_WFK.nc
--------------------------------------------------------------------------------

 Initialisation of the first-order wave-functions :
  ireadwf=   0
- dfpt_looppert: read the DDK wavefunctions from file: tffield_2o_DS2_1WF7.nc

--- !BeginCycle
iteration_state: {dtset: 3, }
solver: {iscf: 7, nstep: 30, nline: 4, wfoptalg: 0, }
tolerances: {tolvrs: 1.00E-10, }
...

     iter   2DEtotal(Ha)        deltaE(Ha) residm    vres2
-ETOT  1  -121.62954072112     -1.216E+02 1.207E+00 2.675E+03
 ETOT  2  -132.23435786502     -1.060E+01 3.173E-02 2.595E+01
 ETOT  3  -132.37737831556     -1.430E-01 6.325E-04 1.339E+00
 ETOT  4  -132.38079791842     -3.420E-03 6.856E-06 2.857E-02
 ETOT  5  -132.38085047158     -5.255E-05 1.168E-07 4.693E-04
 ETOT  6  -132.38085175235     -1.281E-06 3.117E-09 2.046E-05
 ETOT  7  -132.38085180235     -5.000E-08 1.041E-10 3.668E-07
 ETOT  8  -132.38085180299     -6.358E-10 1.079E-12 5.277E-09
 ETOT  9  -132.38085180300     -1.171E-11 2.519E-14 2.324E-11

 At SCF step    9       vres2   =  2.32E-11 < tolvrs=  1.00E-10 =>converged.
-open ddk wf file :tffield_2o_DS2_1WF7.nc
-open ddk wf file :tffield_2o_DS2_1WF8.nc
-open ddk wf file :tffield_2o_DS2_1WF9.nc
================================================================================

 ----iterations are completed or convergence reached----

 Mean square residual over all n,k,spin=   61.480E-16; max=  25.191E-15

 Seven components of 2nd-order total energy (hartree) are
 1,2,3: 0th-order hamiltonian combined with 1st-order wavefunctions
     kin0=   3.43539860E+02 eigvalue=  -5.96888049E+01  local=  -2.57555853E+02
 4,5,6: 1st-order hamiltonian combined with 1st and 0th-order wfs
    dotwf=  -2.64761704E+02  Hartree=   2.05628479E+01     xc=  -1.12136369E+01
 7,8,9: eventually, occupation + non-local contributions
    edocc=   0.00000000E+00     enl0=   9.67364400E+01   enl1=   0.00000000E+00
 1-9 gives the relaxation energy (to be shifted if some occ is /=2.0)
   erelax=  -1.32380852E+02
  No Ewald or frozen-wf contrib.: the relaxation energy is the total one
 2DEtotal=   -0.1323808518E+03 Ha. Also 2DEtotal=   -0.360226617413E+04 eV
    (  non-var. 2DEtotal :   -1.3238085214E+02 Ha)

--------------------------------------------------------------------------------
 Perturbation wavevector (in red.coord.)   0.000000  0.000000  0.000000
 Found     8 symmetries that leave the perturbation invariant.
 symkpt : the number of k-points, thanks to the symmetries,
 is reduced to    63 .

--------------------------------------------------------------------------------

-inwffil : will read wavefunctions from disk file tffield_2o_DS2_WFK.nc
--------------------------------------------------------------------------------

 Initialisation of the first-order wave-functions :
  ireadwf=   0

--- !BeginCycle
iteration_state: {dtset: 3, }
solver: {iscf: 7, nstep: 30, nline: 4, wfoptalg: 0, }
tolerances: {tolvrs: 1.00E-10, }
...

     iter   2DEtotal(Ha)        deltaE(Ha) residm    vres2
-ETOT  1   2.1466729178830     -1.983E+01 9.660E-01 2.132E+02
 ETOT  2   1.3604904273392     -7.862E-01 1.254E-03 1.117E+01
 ETOT  3   1.3244508631554     -3.604E-02 4.657E-05 3.715E-01
 ETOT  4   1.3236183616949     -8.325E-04 1.294E-06 4.865E-03
 ETOT  5   1.3236106464823     -7.715E-06 1.617E-08 7.303E-05
 ETOT  6   1.3236104689033     -1.776E-07 1.766E-10 9.665E-07
 ETOT  7   1.3236104662632     -2.640E-09 4.188E-12 2.919E-08
 ETOT  8   1.3236104662026     -6.060E-11 8.241E-14 5.357E-10
 ETOT  9   1.3236104662019     -7.248E-13 1.612E-15 8.263E-12

 At SCF step    9       vres2   =  8.26E-12 < tolvrs=  1.00E-10 =>converged.
-open ddk wf file :tffield_2o_DS2_1WF7.nc
-open ddk wf file :tffield_2o_DS2_1WF8.nc
-open ddk wf file :tffield_2o_DS2_1WF9.nc
================================================================================

 ----iterations are completed or convergence reached----

 Mean square residual over all n,k,spin=   34.589E-17; max=  16.123E-16

 Seventeen components of 2nd-order total energy (hartree) are
 1,2,3: 0th-order hamiltonian combined with 1st-order wavefunctions
     kin0=   2.23378660E+01 eigvalue=  -2.05283697E-01  local=  -3.55057585E+00
 4,5,6,7: 1st-order hamiltonian combined with 1st and 0th-order wfs
 loc psp =   5.59188268E-01  Hartree=   1.13632177E+00     xc=  -4.89367754E-01
     kin1=  -3.75034819E+01
 8,9,10: eventually, occupation + non-local contributions
    edocc=   0.00000000E+00     enl0=   1.34195657E+00   enl1=  -4.27873341E+00
 1-10 gives the relaxation energy (to be shifted if some occ is /=2.0)
   erelax=  -2.06521100E+01
 11,12,13 Non-relaxation  contributions : frozen-wavefunctions and Ewald
  fr.hart=  -4.64498992E-01   fr.kin=   2.02424020E+01 fr.loc=   3.10467969E+00
 14,15,16 Non-relaxation  contributions : frozen-wavefunctions and Ewald
  fr.nonl=   2.55333687E+00    fr.xc=  -3.37835982E-01  Ewald=  -3.34605377E+00
 17 Non-relaxation  contributions : pseudopotential core energy
  pspcore=   2.23690617E-01
 Resulting in :
 2DEtotal=    0.1323610466E+01 Ha. Also 2DEtotal=    0.360172724769E+02 eV
    (2DErelax=   -2.0652110006E+01 Ha. 2DEnonrelax=    2.1975720472E+01 Ha)
    (  non-var. 2DEtotal :    1.3236105417E+00 Ha)


--------------------------------------------------------------------------------
 Perturbation wavevector (in red.coord.)   0.000000  0.000000  0.000000
 Found     8 symmetries that leave the perturbation invariant.
 symkpt : the number of k-points, thanks to the symmetries,
 is reduced to    63 .

--------------------------------------------------------------------------------

-inwffil : will read wavefunctions from disk file tffield_2o_DS2_WFK.nc
--------------------------------------------------------------------------------

 Initialisation of the first-order wave-functions :
  ireadwf=   0

--- !BeginCycle
iteration_state: {dtset: 3, }
solver: {iscf: 7, nstep: 30, nline: 4, wfoptalg: 0, }
tolerances: {tolvrs: 1.00E-10, }
...

     iter   2DEtotal(Ha)        deltaE(Ha) residm    vres2
-ETOT  1   2.1464987934055     -1.983E+01 9.660E-01 2.132E+02
 ETOT  2   1.3604701330172     -7.860E-01 1.254E-03 1.116E+01
 ETOT  3   1.3244510133605     -3.602E-02 4.656E-05 3.715E-01
 ETOT  4   1.3236183767728     -8.326E-04 1.295E-06 4.864E-03
 ETOT  5   1.3236106621825     -7.715E-06 1.619E-08 7.308E-05
 ETOT  6   1.3236104844921     -1.777E-07 1.765E-10 9.653E-07
 ETOT  7   1.3236104818587     -2.633E-09 4.181E-12 2.914E-08
 ETOT  8   1.3236104817983     -6.047E-11 8.241E-14 5.341E-10
 ETOT  9   1.3236104817975     -7.141E-13 1.606E-15 8.224E-12

 At SCF step    9       vres2   =  8.22E-12 < tolvrs=  1.00E-10 =>converged.
-open ddk wf file :tffield_2o_DS2_1WF7.nc
-open ddk wf file :tffield_2o_DS2_1WF8.nc
-open ddk wf file :tffield_2o_DS2_1WF9.nc
================================================================================

 ----iterations are completed or convergence reached----

 Mean square residual over all n,k,spin=   34.058E-17; max=  16.064E-16

 Seventeen components of 2nd-order total energy (hartree) are
 1,2,3: 0th-order hamiltonian combined with 1st-order wavefunctions
     kin0=   2.23378660E+01 eigvalue=  -2.05283697E-01  local=  -3.55057585E+00
 4,5,6,7: 1st-order hamiltonian combined with 1st and 0th-order wfs
 loc psp =   5.59188267E-01  Hartree=   1.13632177E+00     xc=  -4.89367754E-01
     kin1=  -3.75034819E+01
 8,9,10: eventually, occupation + non-local contributions
    edocc=   0.00000000E+00     enl0=   1.34195657E+00   enl1=  -4.27873341E+00
 1-10 gives the relaxation energy (to be shifted if some occ is /=2.0)
   erelax=  -2.06521100E+01
 11,12,13 Non-relaxation  contributions : frozen-wavefunctions and Ewald
  fr.hart=  -4.64498992E-01   fr.kin=   2.02424020E+01 fr.loc=   3.10467969E+00
 14,15,16 Non-relaxation  contributions : frozen-wavefunctions and Ewald
  fr.nonl=   2.55333687E+00    fr.xc=  -3.37835982E-01  Ewald=  -3.34605377E+00
 17 Non-relaxation  contributions : pseudopotential core energy
  pspcore=   2.23690617E-01
 Resulting in :
 2DEtotal=    0.1323610482E+01 Ha. Also 2DEtotal=    0.360172729013E+02 eV
    (2DErelax=   -2.0652109972E+01 Ha. 2DEnonrelax=    2.1975720454E+01 Ha)
    (  non-var. 2DEtotal :    1.3236105571E+00 Ha)


--------------------------------------------------------------------------------
 Perturbation wavevector (in red.coord.)   0.000000  0.000000  0.000000
 Found     8 symmetries that leave the perturbation invariant.
 symkpt : the number of k-points, thanks to the symmetries,
 is reduced to    63 .

--------------------------------------------------------------------------------

-inwffil : will read wavefunctions from disk file tffield_2o_DS2_WFK.nc
--------------------------------------------------------------------------------

 Initialisation of the first-order wave-functions :
  ireadwf=   0

--- !BeginCycle
iteration_state: {dtset: 3, }
solver: {iscf: 7, nstep: 30, nline: 4, wfoptalg: 0, }
tolerances: {tolvrs: 1.00E-10, }
...

     iter   2DEtotal(Ha)        deltaE(Ha) residm    vres2
-ETOT  1   2.1464887398448     -1.983E+01 9.660E-01 2.132E+02
 ETOT  2   1.3604713029056     -7.860E-01 1.254E-03 1.116E+01
 ETOT  3   1.3244510991271     -3.602E-02 4.656E-05 3.715E-01
 ETOT  4   1.3236183892209     -8.327E-04 1.295E-06 4.864E-03
 ETOT  5   1.3236106739342     -7.715E-06 1.620E-08 7.310E-05
 ETOT  6   1.3236104962411     -1.777E-07 1.765E-10 9.632E-07
 ETOT  7   1.3236104936210     -2.620E-09 4.165E-12 2.909E-08
 ETOT  8   1.3236104935609     -6.013E-11 8.260E-14 5.342E-10
 ETOT  9   1.3236104935602     -6.750E-13 1.597E-15 8.166E-12

 At SCF step    9       vres2   =  8.17E-12 < tolvrs=  1.00E-10 =>converged.
-open ddk wf file :tffield_2o_DS2_1WF7.nc
-open ddk wf file :tffield_2o_DS2_1WF8.nc
-open ddk wf file :tffield_2o_DS2_1WF9.nc
================================================================================

 ----iterations are completed or convergence reached----

 Mean square residual over all n,k,spin=   33.580E-17; max=  15.973E-16

 Seventeen components of 2nd-order total energy (hartree) are
 1,2,3: 0th-order hamiltonian combined with 1st-order wavefunctions
     kin0=   2.23378660E+01 eigvalue=  -2.05283697E-01  local=  -3.55057585E+00
 4,5,6,7: 1st-order hamiltonian combined with 1st and 0th-order wfs
 loc psp =   5.59188268E-01  Hartree=   1.13632177E+00     xc=  -4.89367754E-01
     kin1=  -3.75034818E+01
 8,9,10: eventually, occupation + non-local contributions
    edocc=   0.00000000E+00     enl0=   1.34195657E+00   enl1=  -4.27873341E+00
 1-10 gives the relaxation energy (to be shifted if some occ is /=2.0)
   erelax=  -2.06521099E+01
 11,12,13 Non-relaxation  contributions : frozen-wavefunctions and Ewald
  fr.hart=  -4.64498992E-01   fr.kin=   2.02424020E+01 fr.loc=   3.10467969E+00
 14,15,16 Non-relaxation  contributions : frozen-wavefunctions and Ewald
  fr.nonl=   2.55333687E+00    fr.xc=  -3.37835982E-01  Ewald=  -3.34605377E+00
 17 Non-relaxation  contributions : pseudopotential core energy
  pspcore=   2.23690617E-01
 Resulting in :
 2DEtotal=    0.1323610494E+01 Ha. Also 2DEtotal=    0.360172732214E+02 eV
    (2DErelax=   -2.0652109943E+01 Ha. 2DEnonrelax=    2.1975720436E+01 Ha)
    (  non-var. 2DEtotal :    1.3236105675E+00 Ha)


--------------------------------------------------------------------------------
 Perturbation wavevector (in red.coord.)   0.000000  0.000000  0.000000
 Found     4 symmetries that leave the perturbation invariant.
 symkpt : the number of k-points, thanks to the symmetries,
 is reduced to   126 .

--------------------------------------------------------------------------------

-inwffil : will read wavefunctions from disk file tffield_2o_DS2_WFK.nc
--------------------------------------------------------------------------------

 Initialisation of the first-order wave-functions :
  ireadwf=   0

--- !BeginCycle
iteration_state: {dtset: 3, }
solver: {iscf: 7, nstep: 30, nline: 4, wfoptalg: 0, }
tolerances: {tolvrs: 1.00E-10, }
...

     iter   2DEtotal(Ha)        deltaE(Ha) residm    vres2
-ETOT  1   1.5365103199980     -8.723E+00 3.303E-01 2.069E+02
 ETOT  2  0.91849262028352     -6.180E-01 6.411E-04 4.874E+00
 ETOT  3  0.90684881920248     -1.164E-02 2.524E-05 2.458E-01
 ETOT  4  0.90635112709665     -4.977E-04 5.702E-07 6.164E-03
 ETOT  5  0.90634020719639     -1.092E-05 2.079E-08 4.847E-05
 ETOT  6  0.90634011599546     -9.120E-08 2.929E-10 4.349E-07
 ETOT  7  0.90634011505324     -9.422E-10 2.671E-12 9.383E-09
 ETOT  8  0.90634011502551     -2.773E-11 7.055E-14 8.757E-11

 At SCF step    8       vres2   =  8.76E-11 < tolvrs=  1.00E-10 =>converged.
-open ddk wf file :tffield_2o_DS2_1WF7.nc
-open ddk wf file :tffield_2o_DS2_1WF8.nc
-open ddk wf file :tffield_2o_DS2_1WF9.nc
================================================================================

 ----iterations are completed or convergence reached----

 Mean square residual over all n,k,spin=   14.900E-15; max=  70.551E-15

 Seventeen components of 2nd-order total energy (hartree) are
 1,2,3: 0th-order hamiltonian combined with 1st-order wavefunctions
     kin0=   1.00924100E+01 eigvalue=  -1.77063884E-01  local=  -1.79877068E+00
 4,5,6,7: 1st-order hamiltonian combined with 1st and 0th-order wfs
 loc psp =  -6.42729666E+00  Hartree=   2.99771670E+00     xc=  -4.71092372E-01
     kin1=  -1.41452106E+01
 8,9,10: eventually, occupation + non-local contributions
    edocc=   0.00000000E+00     enl0=   3.56674065E-01   enl1=   2.19018560E-01
 1-10 gives the relaxation energy (to be shifted if some occ is /=2.0)
   erelax=  -9.35361484E+00
 11,12,13 Non-relaxation  contributions : frozen-wavefunctions and Ewald
  fr.hart=   8.56429410E-02   fr.kin=   7.60094689E+00 fr.loc=  -7.60461468E-01
 14,15,16 Non-relaxation  contributions : frozen-wavefunctions and Ewald
  fr.nonl=   2.20409432E-01    fr.xc=  -1.75328754E-02  Ewald=   3.13095003E+00
 17 Non-relaxation  contributions : pseudopotential core energy
  pspcore=   0.00000000E+00
 Resulting in :
 2DEtotal=    0.9063401150E+00 Ha. Also 2DEtotal=    0.246627687777E+02 eV
    (2DErelax=   -9.3536148356E+00 Ha. 2DEnonrelax=    1.0259954951E+01 Ha)
    (  non-var. 2DEtotal :    9.0634055704E-01 Ha)


--------------------------------------------------------------------------------
 Perturbation wavevector (in red.coord.)   0.000000  0.000000  0.000000
 Found     4 symmetries that leave the perturbation invariant.
 symkpt : the number of k-points, thanks to the symmetries,
 is reduced to   126 .

--------------------------------------------------------------------------------

-inwffil : will read wavefunctions from disk file tffield_2o_DS2_WFK.nc
--------------------------------------------------------------------------------

 Initialisation of the first-order wave-functions :
  ireadwf=   0

--- !BeginCycle
iteration_state: {dtset: 3, }
solver: {iscf: 7, nstep: 30, nline: 4, wfoptalg: 0, }
tolerances: {tolvrs: 1.00E-10, }
...

     iter   2DEtotal(Ha)        deltaE(Ha) residm    vres2
-ETOT  1   1.5366098162288     -8.723E+00 3.303E-01 2.069E+02
 ETOT  2  0.91849700880287     -6.181E-01 6.411E-04 4.875E+00
 ETOT  3  0.90684916960825     -1.165E-02 2.499E-05 2.460E-01
 ETOT  4  0.90635112794013     -4.980E-04 5.705E-07 6.167E-03
 ETOT  5  0.90634020525102     -1.092E-05 2.079E-08 4.846E-05
 ETOT  6  0.90634011406739     -9.118E-08 2.929E-10 4.348E-07
 ETOT  7  0.90634011312541     -9.420E-10 2.671E-12 9.385E-09
 ETOT  8  0.90634011309777     -2.764E-11 6.662E-14 8.761E-11

 At SCF step    8       vres2   =  8.76E-11 < tolvrs=  1.00E-10 =>converged.
-open ddk wf file :tffield_2o_DS2_1WF7.nc
-open ddk wf file :tffield_2o_DS2_1WF8.nc
[...]
                      -1.66666667E-01 -8.33333333E-02  0.00000000E+00
                      -8.33333333E-02 -8.33333333E-02  8.33333333E-02
                      -8.33333333E-02 -3.33333333E-01  0.00000000E+00
                      -1.66666667E-01 -2.50000000E-01  0.00000000E+00
                      -8.33333333E-02 -2.50000000E-01  8.33333333E-02
                      -2.50000000E-01 -1.66666667E-01  0.00000000E+00
                      -1.66666667E-01 -1.66666667E-01  8.33333333E-02
                      -8.33333333E-02 -1.66666667E-01  1.66666667E-01
                      -3.33333333E-01 -8.33333333E-02  0.00000000E+00
                      -2.50000000E-01 -8.33333333E-02  8.33333333E-02
                      -1.66666667E-01 -8.33333333E-02  1.66666667E-01
                      -8.33333333E-02 -8.33333333E-02  2.50000000E-01
                      -8.33333333E-02  5.00000000E-01  0.00000000E+00
                      -1.66666667E-01 -4.16666667E-01  0.00000000E+00
                      -8.33333333E-02 -4.16666667E-01  8.33333333E-02
                      -2.50000000E-01 -3.33333333E-01  0.00000000E+00
                      -1.66666667E-01 -3.33333333E-01  8.33333333E-02
                      -8.33333333E-02 -3.33333333E-01  1.66666667E-01
                      -3.33333333E-01 -2.50000000E-01  0.00000000E+00
                      -2.50000000E-01 -2.50000000E-01  8.33333333E-02
                      -1.66666667E-01 -2.50000000E-01  1.66666667E-01
                      -8.33333333E-02 -2.50000000E-01  2.50000000E-01
                      -4.16666667E-01 -1.66666667E-01  0.00000000E+00
                      -3.33333333E-01 -1.66666667E-01  8.33333333E-02
                      -2.50000000E-01 -1.66666667E-01  1.66666667E-01
                      -1.66666667E-01 -1.66666667E-01  2.50000000E-01
                      -8.33333333E-02 -1.66666667E-01  3.33333333E-01
                       5.00000000E-01 -8.33333333E-02  0.00000000E+00
                      -4.16666667E-01 -8.33333333E-02  8.33333333E-02
                      -3.33333333E-01 -8.33333333E-02  1.66666667E-01
                      -2.50000000E-01 -8.33333333E-02  2.50000000E-01
                      -1.66666667E-01 -8.33333333E-02  3.33333333E-01
                      -8.33333333E-02 -8.33333333E-02  4.16666667E-01
                      -8.33333333E-02  3.33333333E-01  0.00000000E+00
                      -1.66666667E-01  4.16666667E-01  0.00000000E+00
                      -8.33333333E-02  4.16666667E-01  8.33333333E-02
                      -2.50000000E-01  5.00000000E-01  0.00000000E+00
                      -1.66666667E-01  5.00000000E-01  8.33333333E-02
                      -8.33333333E-02  5.00000000E-01  1.66666667E-01
                      -3.33333333E-01 -4.16666667E-01  0.00000000E+00
                      -2.50000000E-01 -4.16666667E-01  8.33333333E-02
                      -1.66666667E-01 -4.16666667E-01  1.66666667E-01
                      -8.33333333E-02 -4.16666667E-01  2.50000000E-01
                      -4.16666667E-01 -3.33333333E-01  0.00000000E+00
                      -3.33333333E-01 -3.33333333E-01  8.33333333E-02
                      -2.50000000E-01 -3.33333333E-01  1.66666667E-01
                      -1.66666667E-01 -3.33333333E-01  2.50000000E-01
                      -8.33333333E-02 -3.33333333E-01  3.33333333E-01
                       5.00000000E-01 -2.50000000E-01  0.00000000E+00
              kpt3    -8.33333333E-02 -1.66666667E-01  0.00000000E+00
                      -1.66666667E-01 -8.33333333E-02  0.00000000E+00
                      -8.33333333E-02 -8.33333333E-02  8.33333333E-02
                      -8.33333333E-02 -3.33333333E-01  0.00000000E+00
                      -1.66666667E-01 -2.50000000E-01  0.00000000E+00
                      -8.33333333E-02 -2.50000000E-01  8.33333333E-02
                      -2.50000000E-01 -1.66666667E-01  0.00000000E+00
                      -1.66666667E-01 -1.66666667E-01  8.33333333E-02
                      -8.33333333E-02 -1.66666667E-01  1.66666667E-01
                      -3.33333333E-01 -8.33333333E-02  0.00000000E+00
                      -2.50000000E-01 -8.33333333E-02  8.33333333E-02
                      -1.66666667E-01 -8.33333333E-02  1.66666667E-01
                      -8.33333333E-02 -8.33333333E-02  2.50000000E-01
                      -8.33333333E-02  5.00000000E-01  0.00000000E+00
                      -1.66666667E-01 -4.16666667E-01  0.00000000E+00
                      -8.33333333E-02 -4.16666667E-01  8.33333333E-02
                      -2.50000000E-01 -3.33333333E-01  0.00000000E+00
                      -1.66666667E-01 -3.33333333E-01  8.33333333E-02
                      -8.33333333E-02 -3.33333333E-01  1.66666667E-01
                      -3.33333333E-01 -2.50000000E-01  0.00000000E+00
                      -2.50000000E-01 -2.50000000E-01  8.33333333E-02
                      -1.66666667E-01 -2.50000000E-01  1.66666667E-01
                      -8.33333333E-02 -2.50000000E-01  2.50000000E-01
                      -4.16666667E-01 -1.66666667E-01  0.00000000E+00
                      -3.33333333E-01 -1.66666667E-01  8.33333333E-02
                      -2.50000000E-01 -1.66666667E-01  1.66666667E-01
                      -1.66666667E-01 -1.66666667E-01  2.50000000E-01
                      -8.33333333E-02 -1.66666667E-01  3.33333333E-01
                       5.00000000E-01 -8.33333333E-02  0.00000000E+00
                      -4.16666667E-01 -8.33333333E-02  8.33333333E-02
                      -3.33333333E-01 -8.33333333E-02  1.66666667E-01
                      -2.50000000E-01 -8.33333333E-02  2.50000000E-01
                      -1.66666667E-01 -8.33333333E-02  3.33333333E-01
                      -8.33333333E-02 -8.33333333E-02  4.16666667E-01
                      -8.33333333E-02  3.33333333E-01  0.00000000E+00
                      -1.66666667E-01  4.16666667E-01  0.00000000E+00
                      -8.33333333E-02  4.16666667E-01  8.33333333E-02
                      -2.50000000E-01  5.00000000E-01  0.00000000E+00
                      -1.66666667E-01  5.00000000E-01  8.33333333E-02
                      -8.33333333E-02  5.00000000E-01  1.66666667E-01
                      -3.33333333E-01 -4.16666667E-01  0.00000000E+00
                      -2.50000000E-01 -4.16666667E-01  8.33333333E-02
                      -1.66666667E-01 -4.16666667E-01  1.66666667E-01
                      -8.33333333E-02 -4.16666667E-01  2.50000000E-01
                      -4.16666667E-01 -3.33333333E-01  0.00000000E+00
                      -3.33333333E-01 -3.33333333E-01  8.33333333E-02
                      -2.50000000E-01 -3.33333333E-01  1.66666667E-01
                      -1.66666667E-01 -3.33333333E-01  2.50000000E-01
                      -8.33333333E-02 -3.33333333E-01  3.33333333E-01
                       5.00000000E-01 -2.50000000E-01  0.00000000E+00
                       outvar_i_n : Printing only first  50 k-points.
           kptopt1          1
           kptopt2          2
           kptopt3          2
         kptrlatt        6   -6    6     -6    6    6     -6   -6    6
          kptrlen      6.17122345E+01
P           mkmem1          7
P           mkmem2        108
P           mkmem3        108
P          mkqmem1          7
P          mkqmem2        108
P          mkqmem3        108
P          mk1mem1          7
P          mk1mem2        108
P          mk1mem3        108
            natom           2
            nband1          4
            nband2          4
            nband3          4
           nbdbuf1          0
           nbdbuf2          2
           nbdbuf3          0
           ndtset           3
            ngfft          16      16      16
             nkpt1         28
             nkpt2        432
             nkpt3        432
             nsym          24
           ntypat           2
              occ1     2.000000  2.000000  2.000000  2.000000
              occ3     2.000000  2.000000  2.000000  2.000000
        optdriver1          0
        optdriver2          0
        optdriver3          1
          rfatpol1          1       1
          rfatpol2          1       1
          rfatpol3          1       2
            rfdir1          0       0       0
            rfdir2          1       1       1
            rfdir3          1       1       1
           rfelfd1          0
           rfelfd2          0
           rfelfd3          3
           rfphon1          0
           rfphon2          0
           rfphon3          1
           rfstrs1          0
           rfstrs2          0
           rfstrs3          3
            rprim      0.0000000000E+00  7.0710678119E-01  7.0710678119E-01
                       7.0710678119E-01  0.0000000000E+00  7.0710678119E-01
                       7.0710678119E-01  7.0710678119E-01  0.0000000000E+00
           shiftk      5.00000000E-01  5.00000000E-01  5.00000000E-01
          spgroup         216
           strten1    -4.5086118541E-11 -4.5086118758E-11 -4.5086118432E-11
                       0.0000000000E+00  0.0000000000E+00  0.0000000000E+00
           strten3     0.0000000000E+00  0.0000000000E+00  0.0000000000E+00
                       0.0000000000E+00  0.0000000000E+00  0.0000000000E+00
           symrel      1  0  0   0  1  0   0  0  1       0 -1  1   0 -1  0   1 -1  0
                      -1  0  0  -1  0  1  -1  1  0       0  1 -1   1  0 -1   0  0 -1
                      -1  0  0  -1  1  0  -1  0  1       0 -1  1   1 -1  0   0 -1  0
                       1  0  0   0  0  1   0  1  0       0  1 -1   0  0 -1   1  0 -1
                      -1  0  1  -1  1  0  -1  0  0       0 -1  0   1 -1  0   0 -1  1
                       1  0 -1   0  0 -1   0  1 -1       0  1  0   0  0  1   1  0  0
                       1  0 -1   0  1 -1   0  0 -1       0 -1  0   0 -1  1   1 -1  0
                      -1  0  1  -1  0  0  -1  1  0       0  1  0   1  0  0   0  0  1
                       0  0 -1   0  1 -1   1  0 -1       1 -1  0   0 -1  1   0 -1  0
                       0  0  1   1  0  0   0  1  0      -1  1  0  -1  0  0  -1  0  1
                       0  0  1   0  1  0   1  0  0       1 -1  0   0 -1  0   0 -1  1
                       0  0 -1   1  0 -1   0  1 -1      -1  1  0  -1  0  1  -1  0  0
           toldfe1     1.00000000E-12 Hartree
           toldfe2     0.00000000E+00 Hartree
           toldfe3     0.00000000E+00 Hartree
           tolvrs1     0.00000000E+00
           tolvrs2     0.00000000E+00
           tolvrs3     1.00000000E-10
           tolwfr1     0.00000000E+00
           tolwfr2     1.00000000E-22
           tolwfr3     0.00000000E+00
            typat      1  2
              wtk1       0.02778    0.02778    0.02778    0.05556    0.02778    0.02778
                         0.05556    0.02778    0.05556    0.05556    0.02778    0.02778
                         0.02778    0.05556    0.02778    0.05556    0.05556    0.05556
                         0.02778    0.02778    0.02778    0.02778    0.02778    0.05556
                         0.05556    0.00926    0.00926    0.00926
              wtk2       0.00231    0.00231    0.00231    0.00231    0.00231    0.00231
                         0.00231    0.00231    0.00231    0.00231    0.00231    0.00231
                         0.00231    0.00231    0.00231    0.00231    0.00231    0.00231
                         0.00231    0.00231    0.00231    0.00231    0.00231    0.00231
                         0.00231    0.00231    0.00231    0.00231    0.00231    0.00231
                         0.00231    0.00231    0.00231    0.00231    0.00231    0.00231
                         0.00231    0.00231    0.00231    0.00231    0.00231    0.00231
                         0.00231    0.00231    0.00231    0.00231    0.00231    0.00231
                         0.00231    0.00231
              wtk3       0.00231    0.00231    0.00231    0.00231    0.00231    0.00231
                         0.00231    0.00231    0.00231    0.00231    0.00231    0.00231
                         0.00231    0.00231    0.00231    0.00231    0.00231    0.00231
                         0.00231    0.00231    0.00231    0.00231    0.00231    0.00231
                         0.00231    0.00231    0.00231    0.00231    0.00231    0.00231
                         0.00231    0.00231    0.00231    0.00231    0.00231    0.00231
                         0.00231    0.00231    0.00231    0.00231    0.00231    0.00231
                         0.00231    0.00231    0.00231    0.00231    0.00231    0.00231
                         0.00231    0.00231
                       outvars : Printing only first  50 k-points.
           xangst      1.3606961663E+00  1.3606961663E+00  1.3606961663E+00
                       0.0000000000E+00  0.0000000000E+00  0.0000000000E+00
            xcart      2.5713431044E+00  2.5713431044E+00  2.5713431044E+00
                       0.0000000000E+00  0.0000000000E+00  0.0000000000E+00
             xred      2.5000000000E-01  2.5000000000E-01  2.5000000000E-01
                       0.0000000000E+00  0.0000000000E+00  0.0000000000E+00
            znucl       15.00000   13.00000

================================================================================


- Timing analysis has been suppressed with timopt=0



================================================================================

 Suggested references for the acknowledgment of ABINIT usage.

 The users of ABINIT have little formal obligations with respect to the ABINIT group
 (those specified in the GNU General Public License, http://www.gnu.org/copyleft/gpl.txt).
 However, it is common practice in the scientific literature,
 to acknowledge the efforts of people that have made the research possible.
 In this spirit, please find below suggested citations of work written by ABINIT developers,
 corresponding to implementations inside of ABINIT that you have used in the present run.
 Note also that it will be of great value to readers of publications presenting these results,
 to read papers enabling them to understand the theoretical formalism and details
 of the ABINIT implementation.
 For information on why they are suggested, see also https://docs.abinit.org/theory/acknowledgments.
-
- [1] Specification of an extensible and portable file format for electronic structure and crystallographic data
- X. Gonze, C.-O. Almbladh, A. Cucca, D. Caliste, C. Freysoldt, M. Marques, V. Olevano, Y. Pouillon, M.J. Verstraete,
- Comput. Material Science 43, 1056 (2008).
- Comment: to be cited in case the ETSF_IO file format is used, i.e. iomode=3.
- DOI and bibtex: see https://docs.abinit.org/theory/bibliography/#gonze2008
-
- [2] Metric tensor formulation of strain in density-functional perturbation theory, 
- D. R. Hamann, X. Wu, K. M. Rabe, and D. Vanderbilt, Phys. Rev. B71, 035117 (2005).
- Comment: Non-vanishing rfstrs. Strong suggestion to cite this paper in your publications.
- DOI and bibtex: see https://docs.abinit.org/theory/bibliography/#hamann2005
-
- [3] Libxc: A library of exchange and correlation functionals for density functional theory.
- M.A.L. Marques, M.J.T. Oliveira, T. Burnus, Computer Physics Communications 183, 2227 (2012).
- Comment: to be cited when LibXC is used (negative value of ixc)
- Strong suggestion to cite this paper.
- DOI and bibtex: see https://docs.abinit.org/theory/bibliography/#marques2012
-
- [4] The Abinit project: Impact, environment and recent developments.
- Computer Phys. Comm. 248, 107042 (2020).
- X.Gonze, B. Amadon, G. Antonius, F.Arnardi, L.Baguet, J.-M.Beuken,
- J.Bieder, F.Bottin, J.Bouchet, E.Bousquet, N.Brouwer, F.Bruneval,
- G.Brunin, T.Cavignac, J.-B. Charraud, Wei Chen, M.Cote, S.Cottenier,
- J.Denier, G.Geneste, Ph.Ghosez, M.Giantomassi, Y.Gillet, O.Gingras,
- D.R.Hamann, G.Hautier, Xu He, N.Helbig, N.Holzwarth, Y.Jia, F.Jollet,
- W.Lafargue-Dit-Hauret, K.Lejaeghere, M.A.L.Marques, A.Martin, C.Martins,
- H.P.C. Miranda, F.Naccarato, K. Persson, G.Petretto, V.Planes, Y.Pouillon,
- S.Prokhorenko, F.Ricci, G.-M.Rignanese, A.H.Romero, M.M.Schmitt, M.Torrent,
- M.J.van Setten, B.Van Troeye, M.J.Verstraete, G.Zerah and J.W.Zwanzig
- Comment: the fifth generic paper describing the ABINIT project.
- Note that a version of this paper, that is not formatted for Computer Phys. Comm. 
- is available at https://www.abinit.org/sites/default/files/ABINIT20.pdf .
- The licence allows the authors to put it on the Web.
- DOI and bibtex: see https://docs.abinit.org/theory/bibliography/#gonze2020
-
- [5] First-principles responses of solids to atomic displacements and homogeneous electric fields:,
- implementation of a conjugate-gradient algorithm. X. Gonze, Phys. Rev. B55, 10337 (1997).
- Comment: Non-vanishing rfphon and/or rfelfd, in the norm-conserving case.
- DOI and bibtex: see https://docs.abinit.org/theory/bibliography/#gonze1997
-
- [6] Dynamical matrices, Born effective charges, dielectric permittivity tensors, and ,
- interatomic force constants from density-functional perturbation theory,
- X. Gonze and C. Lee, Phys. Rev. B55, 10355 (1997).
- Comment: Non-vanishing rfphon and/or rfelfd, in the norm-conserving case.
- DOI and bibtex: see https://docs.abinit.org/theory/bibliography/#gonze1997a
-
- [7] Optimized norm-conserving Vanderbilt pseudopotentials.
- D.R. Hamann, Phys. Rev. B 88, 085117 (2013).
- Comment: Some pseudopotential generated using the ONCVPSP code were used.
- DOI and bibtex: see https://docs.abinit.org/theory/bibliography/#hamann2013
-
- [8] ABINIT: Overview, and focus on selected capabilities
- J. Chem. Phys. 152, 124102 (2020).
- A. Romero, D.C. Allan, B. Amadon, G. Antonius, T. Applencourt, L.Baguet,
- J.Bieder, F.Bottin, J.Bouchet, E.Bousquet, F.Bruneval,
- G.Brunin, D.Caliste, M.Cote,
- J.Denier, C. Dreyer, Ph.Ghosez, M.Giantomassi, Y.Gillet, O.Gingras,
- D.R.Hamann, G.Hautier, F.Jollet, G. Jomard,
- A.Martin, 
- H.P.C. Miranda, F.Naccarato, G.Petretto, N.A. Pike, V.Planes,
- S.Prokhorenko, T. Rangel, F.Ricci, G.-M.Rignanese, M.Royo, M.Stengel, M.Torrent,
- M.J.van Setten, B.Van Troeye, M.J.Verstraete, J.Wiktor, J.W.Zwanziger, and X.Gonze.
- Comment: a global overview of ABINIT, with focus on selected capabilities .
- Note that a version of this paper, that is not formatted for J. Chem. Phys 
- is available at https://www.abinit.org/sites/default/files/ABINIT20_JPC.pdf .
- The licence allows the authors to put it on the Web.
- DOI and bibtex: see https://docs.abinit.org/theory/bibliography/#romero2020
-
- [9] Recent developments in the ABINIT software package.
- Computer Phys. Comm. 205, 106 (2016).
- X.Gonze, F.Jollet, F.Abreu Araujo, D.Adams, B.Amadon, T.Applencourt,
- C.Audouze, J.-M.Beuken, J.Bieder, A.Bokhanchuk, E.Bousquet, F.Bruneval
- D.Caliste, M.Cote, F.Dahm, F.Da Pieve, M.Delaveau, M.Di Gennaro,
- B.Dorado, C.Espejo, G.Geneste, L.Genovese, A.Gerossier, M.Giantomassi,
- Y.Gillet, D.R.Hamann, L.He, G.Jomard, J.Laflamme Janssen, S.Le Roux,
- A.Levitt, A.Lherbier, F.Liu, I.Lukacevic, A.Martin, C.Martins,
- M.J.T.Oliveira, S.Ponce, Y.Pouillon, T.Rangel, G.-M.Rignanese,
- A.H.Romero, B.Rousseau, O.Rubel, A.A.Shukri, M.Stankovski, M.Torrent,
- M.J.Van Setten, B.Van Troeye, M.J.Verstraete, D.Waroquier, J.Wiktor,
- B.Xu, A.Zhou, J.W.Zwanziger.
- Comment: the fourth generic paper describing the ABINIT project.
- Note that a version of this paper, that is not formatted for Computer Phys. Comm. 
- is available at https://www.abinit.org/sites/default/files/ABINIT16.pdf .
- The licence allows the authors to put it on the Web.
- DOI and bibtex: see https://docs.abinit.org/theory/bibliography/#gonze2016
-
- Proc.   0 individual time (sec): cpu=         39.2  wall=         50.9

================================================================================

 Calculation completed.
.Delivered   0 WARNINGs and   0 COMMENTs to log file.
+Overall time at end (sec) : cpu=        186.6  wall=        203.2
