
.Version 9.0.0 of ABINIT 
.(MPI version, prepared for a x86_64_linux_gnu9.2 computer) 

.Copyright (C) 1998-2020 ABINIT group . 
 ABINIT comes with ABSOLUTELY NO WARRANTY.
 It is free software, and you are welcome to redistribute it
 under certain conditions (GNU General Public License,
 see ~abinit/COPYING or http://www.gnu.org/copyleft/gpl.txt).

 ABINIT is a project of the Universite Catholique de Louvain,
 Corning Inc. and other collaborators, see ~abinit/doc/developers/contributors.txt .
 Please read https://docs.abinit.org/theory/acknowledgments for suggested
 acknowledgments of the ABINIT effort.
 For more information, see https://www.abinit.org .

.Starting date : Tue 11 Feb 2020.
- ( at 02h33 )
  
- input  file    -> /home/gmatteo/git_repos/abinit/_abiref_gnu9.2_openmpi/tests/Test_suite/tutorespfn_tffield_6/tffield_6.in
- output file    -> tffield_6.out
- root for input  files -> tffield_6i
- root for output files -> tffield_6o


 DATASET   11 : space group F-4 3 m (#216); Bravais cF (face-center cubic)
================================================================================
 Values of the parameters that define the memory need for DATASET 11.
     intxc =       0    ionmov =       0      iscf =       7    lmnmax =       2
     lnmax =       2     mgfft =      12  mpssoang =       3    mqgrid =    3001
     natom =       2  nloc_mem =       1    nspden =       1   nspinor =       1
    nsppol =       1      nsym =      24    n1xccc =    2501    ntypat =       2
    occopt =       1   xclevel =       1
-    mband =           4        mffmem =           1         mkmem =          28
       mpw =          80          nfft =        1728          nkpt =          28
================================================================================
P This job should need less than                       1.474 Mbytes of memory.
  Rough estimation (10% accuracy) of disk space for files :
_ WF disk file :      0.139 Mbytes ; DEN or POT disk file :      0.015 Mbytes.
================================================================================


 DATASET   21 : space group R3 m (#160); Bravais hR (rhombohedral)
================================================================================
 Values of the parameters that define the memory need for DATASET 21.
     intxc =       0    ionmov =       0      iscf =       7    lmnmax =       2
     lnmax =       2     mgfft =      12  mpssoang =       3    mqgrid =    3001
     natom =       2  nloc_mem =       1    nspden =       1   nspinor =       1
    nsppol =       1      nsym =       6    n1xccc =    2501    ntypat =       2
    occopt =       1   xclevel =       1
-    mband =           4        mffmem =           1         mkmem =          91
       mpw =          80          nfft =        1728          nkpt =          91
================================================================================
P This job should need less than                       1.877 Mbytes of memory.
  Rough estimation (10% accuracy) of disk space for files :
_ WF disk file :      0.446 Mbytes ; DEN or POT disk file :      0.015 Mbytes.
================================================================================


 DATASET   31 : space group R3 m (#160); Bravais hR (rhombohedral)
================================================================================
 Values of the parameters that define the memory need for DATASET 31.
     intxc =       0    ionmov =       0      iscf =       7    lmnmax =       2
     lnmax =       2     mgfft =      12  mpssoang =       3    mqgrid =    3001
     natom =       2  nloc_mem =       1    nspden =       1   nspinor =       1
    nsppol =       1      nsym =       6    n1xccc =    2501    ntypat =       2
    occopt =       1   xclevel =       1
-    mband =           4        mffmem =           1         mkmem =          91
       mpw =          80          nfft =        1728          nkpt =          91
================================================================================
P This job should need less than                       1.877 Mbytes of memory.
  Rough estimation (10% accuracy) of disk space for files :
_ WF disk file :      0.446 Mbytes ; DEN or POT disk file :      0.015 Mbytes.
================================================================================

--------------------------------------------------------------------------------
------------- Echo of variables that govern the present computation ------------
--------------------------------------------------------------------------------
-
- outvars: echo of selected default values                                      
-   iomode0 =  0 , fftalg0 =312 , wfoptalg0 =  0
-
- outvars: echo of global parameters not present in the input file              
-  max_nthreads =    0
-
 -outvars: echo values of preprocessed input variables --------
            acell      1.0530000000E+01  1.0530000000E+01  1.0530000000E+01 Bohr
              amu      2.69815390E+01  7.49215900E+01
         berryopt11        -1
         berryopt21         4
         berryopt31         4
          dilatmx      1.05000000E+00
             ecut      2.80000000E+00 Hartree
           ecutsm      5.00000000E-01 Hartree
           efield11    0.00000000E+00  0.00000000E+00  0.00000000E+00
           efield21    1.00000000E-04  1.00000000E-04  1.00000000E-04
           efield31   -1.00000000E-04 -1.00000000E-04 -1.00000000E-04
-          fftalg         312
           getwfk11         0
           getwfk21        11
           getwfk31        11
              ixc           3
           jdtset       11   21   31
              kpt11   -8.33333333E-02 -1.66666667E-01  0.00000000E+00
                      -8.33333333E-02 -3.33333333E-01  0.00000000E+00
                      -1.66666667E-01 -2.50000000E-01  0.00000000E+00
                      -8.33333333E-02 -2.50000000E-01  8.33333333E-02
                      -8.33333333E-02  5.00000000E-01  0.00000000E+00
                      -1.66666667E-01 -4.16666667E-01  0.00000000E+00
                      -8.33333333E-02 -4.16666667E-01  8.33333333E-02
                      -2.50000000E-01 -3.33333333E-01  0.00000000E+00
                      -1.66666667E-01 -3.33333333E-01  8.33333333E-02
                      -8.33333333E-02 -3.33333333E-01  1.66666667E-01
                      -8.33333333E-02  3.33333333E-01  0.00000000E+00
                      -1.66666667E-01  4.16666667E-01  0.00000000E+00
                      -2.50000000E-01  5.00000000E-01  0.00000000E+00
                      -1.66666667E-01  5.00000000E-01  8.33333333E-02
                      -3.33333333E-01 -4.16666667E-01  0.00000000E+00
                      -2.50000000E-01 -4.16666667E-01  8.33333333E-02
                      -1.66666667E-01 -4.16666667E-01  1.66666667E-01
                      -8.33333333E-02 -4.16666667E-01  2.50000000E-01
                      -8.33333333E-02  1.66666667E-01  0.00000000E+00
                      -1.66666667E-01  2.50000000E-01  0.00000000E+00
                      -2.50000000E-01  3.33333333E-01  0.00000000E+00
                      -3.33333333E-01  4.16666667E-01  0.00000000E+00
                      -4.16666667E-01  5.00000000E-01  0.00000000E+00
                      -3.33333333E-01  5.00000000E-01  8.33333333E-02
                      -2.50000000E-01  5.00000000E-01  1.66666667E-01
                      -8.33333333E-02  0.00000000E+00  0.00000000E+00
                      -2.50000000E-01  0.00000000E+00  0.00000000E+00
                      -4.16666667E-01  0.00000000E+00  0.00000000E+00
              kpt21   -8.33333333E-02 -1.66666667E-01  0.00000000E+00
                      -8.33333333E-02 -8.33333333E-02  8.33333333E-02
                      -8.33333333E-02 -3.33333333E-01  0.00000000E+00
                      -1.66666667E-01 -2.50000000E-01  0.00000000E+00
                      -8.33333333E-02 -2.50000000E-01  8.33333333E-02
                      -1.66666667E-01 -1.66666667E-01  8.33333333E-02
                      -8.33333333E-02 -1.66666667E-01  1.66666667E-01
                      -8.33333333E-02 -8.33333333E-02  2.50000000E-01
                      -8.33333333E-02  5.00000000E-01  0.00000000E+00
                      -1.66666667E-01 -4.16666667E-01  0.00000000E+00
                      -8.33333333E-02 -4.16666667E-01  8.33333333E-02
                      -2.50000000E-01 -3.33333333E-01  0.00000000E+00
                      -1.66666667E-01 -3.33333333E-01  8.33333333E-02
                      -8.33333333E-02 -3.33333333E-01  1.66666667E-01
                      -2.50000000E-01 -2.50000000E-01  8.33333333E-02
                      -1.66666667E-01 -2.50000000E-01  1.66666667E-01
                      -8.33333333E-02 -2.50000000E-01  2.50000000E-01
                      -1.66666667E-01 -1.66666667E-01  2.50000000E-01
                      -8.33333333E-02 -1.66666667E-01  3.33333333E-01
                      -8.33333333E-02 -8.33333333E-02  4.16666667E-01
                      -8.33333333E-02  3.33333333E-01  0.00000000E+00
                      -1.66666667E-01  4.16666667E-01  0.00000000E+00
                      -2.50000000E-01  5.00000000E-01  0.00000000E+00
                      -1.66666667E-01  5.00000000E-01  8.33333333E-02
                      -3.33333333E-01 -4.16666667E-01  0.00000000E+00
                      -2.50000000E-01 -4.16666667E-01  8.33333333E-02
                      -1.66666667E-01 -4.16666667E-01  1.66666667E-01
                      -8.33333333E-02 -4.16666667E-01  2.50000000E-01
                      -3.33333333E-01 -3.33333333E-01  8.33333333E-02
                      -2.50000000E-01 -3.33333333E-01  1.66666667E-01
                      -1.66666667E-01 -3.33333333E-01  2.50000000E-01
                      -8.33333333E-02 -3.33333333E-01  3.33333333E-01
                      -2.50000000E-01 -2.50000000E-01  2.50000000E-01
                      -1.66666667E-01 -2.50000000E-01  3.33333333E-01
                      -8.33333333E-02 -2.50000000E-01  4.16666667E-01
                      -1.66666667E-01 -1.66666667E-01  4.16666667E-01
                      -8.33333333E-02 -1.66666667E-01  5.00000000E-01
                      -8.33333333E-02 -8.33333333E-02 -4.16666667E-01
                      -8.33333333E-02  1.66666667E-01  0.00000000E+00
                      -1.66666667E-01  2.50000000E-01  0.00000000E+00
                      -2.50000000E-01  3.33333333E-01  0.00000000E+00
                      -3.33333333E-01  4.16666667E-01  0.00000000E+00
                      -4.16666667E-01  5.00000000E-01  0.00000000E+00
                      -3.33333333E-01  5.00000000E-01  8.33333333E-02
                      -2.50000000E-01  5.00000000E-01  1.66666667E-01
                      -4.16666667E-01 -4.16666667E-01  8.33333333E-02
                      -3.33333333E-01 -4.16666667E-01  1.66666667E-01
                      -2.50000000E-01 -4.16666667E-01  2.50000000E-01
                      -1.66666667E-01 -4.16666667E-01  3.33333333E-01
                      -8.33333333E-02 -4.16666667E-01  4.16666667E-01
              kpt31   -8.33333333E-02 -1.66666667E-01  0.00000000E+00
                      -8.33333333E-02 -8.33333333E-02  8.33333333E-02
                      -8.33333333E-02 -3.33333333E-01  0.00000000E+00
                      -1.66666667E-01 -2.50000000E-01  0.00000000E+00
                      -8.33333333E-02 -2.50000000E-01  8.33333333E-02
                      -1.66666667E-01 -1.66666667E-01  8.33333333E-02
                      -8.33333333E-02 -1.66666667E-01  1.66666667E-01
                      -8.33333333E-02 -8.33333333E-02  2.50000000E-01
                      -8.33333333E-02  5.00000000E-01  0.00000000E+00
                      -1.66666667E-01 -4.16666667E-01  0.00000000E+00
                      -8.33333333E-02 -4.16666667E-01  8.33333333E-02
                      -2.50000000E-01 -3.33333333E-01  0.00000000E+00
                      -1.66666667E-01 -3.33333333E-01  8.33333333E-02
                      -8.33333333E-02 -3.33333333E-01  1.66666667E-01
                      -2.50000000E-01 -2.50000000E-01  8.33333333E-02
                      -1.66666667E-01 -2.50000000E-01  1.66666667E-01
                      -8.33333333E-02 -2.50000000E-01  2.50000000E-01
                      -1.66666667E-01 -1.66666667E-01  2.50000000E-01
                      -8.33333333E-02 -1.66666667E-01  3.33333333E-01
                      -8.33333333E-02 -8.33333333E-02  4.16666667E-01
                      -8.33333333E-02  3.33333333E-01  0.00000000E+00
                      -1.66666667E-01  4.16666667E-01  0.00000000E+00
                      -2.50000000E-01  5.00000000E-01  0.00000000E+00
                      -1.66666667E-01  5.00000000E-01  8.33333333E-02
                      -3.33333333E-01 -4.16666667E-01  0.00000000E+00
                      -2.50000000E-01 -4.16666667E-01  8.33333333E-02
                      -1.66666667E-01 -4.16666667E-01  1.66666667E-01
                      -8.33333333E-02 -4.16666667E-01  2.50000000E-01
                      -3.33333333E-01 -3.33333333E-01  8.33333333E-02
                      -2.50000000E-01 -3.33333333E-01  1.66666667E-01
                      -1.66666667E-01 -3.33333333E-01  2.50000000E-01
                      -8.33333333E-02 -3.33333333E-01  3.33333333E-01
                      -2.50000000E-01 -2.50000000E-01  2.50000000E-01
                      -1.66666667E-01 -2.50000000E-01  3.33333333E-01
                      -8.33333333E-02 -2.50000000E-01  4.16666667E-01
                      -1.66666667E-01 -1.66666667E-01  4.16666667E-01
                      -8.33333333E-02 -1.66666667E-01  5.00000000E-01
                      -8.33333333E-02 -8.33333333E-02 -4.16666667E-01
                      -8.33333333E-02  1.66666667E-01  0.00000000E+00
                      -1.66666667E-01  2.50000000E-01  0.00000000E+00
                      -2.50000000E-01  3.33333333E-01  0.00000000E+00
                      -3.33333333E-01  4.16666667E-01  0.00000000E+00
                      -4.16666667E-01  5.00000000E-01  0.00000000E+00
                      -3.33333333E-01  5.00000000E-01  8.33333333E-02
                      -2.50000000E-01  5.00000000E-01  1.66666667E-01
                      -4.16666667E-01 -4.16666667E-01  8.33333333E-02
                      -3.33333333E-01 -4.16666667E-01  1.66666667E-01
                      -2.50000000E-01 -4.16666667E-01  2.50000000E-01
                      -1.66666667E-01 -4.16666667E-01  3.33333333E-01
                      -8.33333333E-02 -4.16666667E-01  4.16666667E-01
                       outvar_i_n : Printing only first  50 k-points.
         kptrlatt        6   -6    6     -6    6    6     -6   -6    6
          kptrlen      6.31800000E+01
P           mkmem11        28
P           mkmem21        91
P           mkmem31        91
            natom           2
            nband11         4
            nband21         4
            nband31         4
           ndtset           3
            ngfft          12      12      12
             nkpt11        28
             nkpt21        91
             nkpt31        91
            nstep         100
             nsym11        24
             nsym21         6
             nsym31         6
           ntypat           2
              occ11    2.000000  2.000000  2.000000  2.000000
              occ21    2.000000  2.000000  2.000000  2.000000
              occ31    2.000000  2.000000  2.000000  2.000000
            rfdir11         1       1       1
            rfdir21         0       0       0
            rfdir31         0       0       0
            rprim      0.0000000000E+00  5.0000000000E-01  5.0000000000E-01
                       5.0000000000E-01  0.0000000000E+00  5.0000000000E-01
                       5.0000000000E-01  5.0000000000E-01  0.0000000000E+00
           shiftk      5.00000000E-01  5.00000000E-01  5.00000000E-01
          spgroup11       216
          spgroup21       160
          spgroup31       160
           symafm11      1    1    1    1    1    1    1    1    1    1
                         1    1    1    1    1    1    1    1    1    1
                         1    1    1    1
           symafm21      1    1    1    1    1    1
           symafm31      1    1    1    1    1    1
           symrel11    1  0  0   0  1  0   0  0  1       0 -1  1   0 -1  0   1 -1  0
                      -1  0  0  -1  0  1  -1  1  0       0  1 -1   1  0 -1   0  0 -1
                      -1  0  0  -1  1  0  -1  0  1       0 -1  1   1 -1  0   0 -1  0
                       1  0  0   0  0  1   0  1  0       0  1 -1   0  0 -1   1  0 -1
                      -1  0  1  -1  1  0  -1  0  0       0 -1  0   1 -1  0   0 -1  1
                       1  0 -1   0  0 -1   0  1 -1       0  1  0   0  0  1   1  0  0
                       1  0 -1   0  1 -1   0  0 -1       0 -1  0   0 -1  1   1 -1  0
                      -1  0  1  -1  0  0  -1  1  0       0  1  0   1  0  0   0  0  1
                       0  0 -1   0  1 -1   1  0 -1       1 -1  0   0 -1  1   0 -1  0
                       0  0  1   1  0  0   0  1  0      -1  1  0  -1  0  0  -1  0  1
                       0  0  1   0  1  0   1  0  0       1 -1  0   0 -1  0   0 -1  1
                       0  0 -1   1  0 -1   0  1 -1      -1  1  0  -1  0  1  -1  0  0
           symrel21    1  0  0   0  1  0   0  0  1       1  0  0   0  0  1   0  1  0
                       0  1  0   0  0  1   1  0  0       0  1  0   1  0  0   0  0  1
                       0  0  1   1  0  0   0  1  0       0  0  1   0  1  0   1  0  0
           symrel31    1  0  0   0  1  0   0  0  1       1  0  0   0  0  1   0  1  0
                       0  1  0   0  0  1   1  0  0       0  1  0   1  0  0   0  0  1
                       0  0  1   1  0  0   0  1  0       0  0  1   0  1  0   1  0  0
            tnons11    0.0000000  0.0000000  0.0000000     0.0000000  0.0000000  0.0000000
                       0.0000000  0.0000000  0.0000000     0.0000000  0.0000000  0.0000000
                       0.0000000  0.0000000  0.0000000     0.0000000  0.0000000  0.0000000
                       0.0000000  0.0000000  0.0000000     0.0000000  0.0000000  0.0000000
                       0.0000000  0.0000000  0.0000000     0.0000000  0.0000000  0.0000000
                       0.0000000  0.0000000  0.0000000     0.0000000  0.0000000  0.0000000
                       0.0000000  0.0000000  0.0000000     0.0000000  0.0000000  0.0000000
                       0.0000000  0.0000000  0.0000000     0.0000000  0.0000000  0.0000000
                       0.0000000  0.0000000  0.0000000     0.0000000  0.0000000  0.0000000
                       0.0000000  0.0000000  0.0000000     0.0000000  0.0000000  0.0000000
                       0.0000000  0.0000000  0.0000000     0.0000000  0.0000000  0.0000000
                       0.0000000  0.0000000  0.0000000     0.0000000  0.0000000  0.0000000
            tnons21    0.0000000  0.0000000  0.0000000     0.0000000  0.0000000  0.0000000
                       0.0000000  0.0000000  0.0000000     0.0000000  0.0000000  0.0000000
                       0.0000000  0.0000000  0.0000000     0.0000000  0.0000000  0.0000000
            tnons31    0.0000000  0.0000000  0.0000000     0.0000000  0.0000000  0.0000000
                       0.0000000  0.0000000  0.0000000     0.0000000  0.0000000  0.0000000
                       0.0000000  0.0000000  0.0000000     0.0000000  0.0000000  0.0000000
           toldfe      1.00000000E-12 Hartree
            typat      1  2
              wtk11      0.02778    0.02778    0.02778    0.05556    0.02778    0.02778
                         0.05556    0.02778    0.05556    0.05556    0.02778    0.02778
                         0.02778    0.05556    0.02778    0.05556    0.05556    0.05556
                         0.02778    0.02778    0.02778    0.02778    0.02778    0.05556
                         0.05556    0.00926    0.00926    0.00926
              wtk21      0.01389    0.00694    0.01389    0.01389    0.01389    0.00694
                         0.01389    0.00694    0.01389    0.01389    0.01389    0.01389
                         0.01389    0.01389    0.00694    0.01389    0.01389    0.00694
                         0.01389    0.00694    0.01389    0.01389    0.01389    0.01389
                         0.01389    0.01389    0.01389    0.01389    0.00694    0.01389
                         0.01389    0.01389    0.00694    0.01389    0.01389    0.00694
                         0.01389    0.00694    0.01389    0.01389    0.01389    0.01389
                         0.01389    0.01389    0.01389    0.00694    0.01389    0.01389
                         0.01389    0.01389
              wtk31      0.01389    0.00694    0.01389    0.01389    0.01389    0.00694
                         0.01389    0.00694    0.01389    0.01389    0.01389    0.01389
                         0.01389    0.01389    0.00694    0.01389    0.01389    0.00694
                         0.01389    0.00694    0.01389    0.01389    0.01389    0.01389
                         0.01389    0.01389    0.01389    0.01389    0.00694    0.01389
                         0.01389    0.01389    0.00694    0.01389    0.01389    0.00694
                         0.01389    0.00694    0.01389    0.01389    0.01389    0.01389
                         0.01389    0.01389    0.01389    0.00694    0.01389    0.01389
                         0.01389    0.01389
                       outvars : Printing only first  50 k-points.
           xangst      0.0000000000E+00  0.0000000000E+00  0.0000000000E+00
                       1.3930590016E+00  1.3930590016E+00  1.3930590016E+00
            xcart      0.0000000000E+00  0.0000000000E+00  0.0000000000E+00
                       2.6325000000E+00  2.6325000000E+00  2.6325000000E+00
             xred      0.0000000000E+00  0.0000000000E+00  0.0000000000E+00
                       2.5000000000E-01  2.5000000000E-01  2.5000000000E-01
            znucl       13.00000   33.00000

================================================================================

 chkinp: Checking input parameters for consistency, jdtset=  11.

 chkinp: Checking input parameters for consistency, jdtset=  21.

 chkinp: Checking input parameters for consistency, jdtset=  31.

================================================================================
== DATASET 11 ==================================================================
-   nproc =    1

 Exchange-correlation functional for the present dataset will be:
  LDA: old Teter (4/91) fit to Ceperley-Alder data - ixc=3

 Real(R)+Recip(G) space primitive vectors, cartesian coordinates (Bohr,Bohr^-1):
 R(1)=  0.0000000  5.2650000  5.2650000  G(1)= -0.0949668  0.0949668  0.0949668
 R(2)=  5.2650000  0.0000000  5.2650000  G(2)=  0.0949668 -0.0949668  0.0949668
 R(3)=  5.2650000  5.2650000  0.0000000  G(3)=  0.0949668  0.0949668 -0.0949668
 Unit cell volume ucvol=  2.9189397E+02 bohr^3
 Angles (23,13,12)=  6.00000000E+01  6.00000000E+01  6.00000000E+01 degrees

 getcut: wavevector=  0.0000  0.0000  0.0000  ngfft=  12  12  12
         ecut(hartree)=      3.087   => boxcut(ratio)=   2.03767

--- Pseudopotential description ------------------------------------------------
- pspini: atom type   1  psp file is /home/gmatteo/git_repos/abinit/tests/Psps_for_tests/13al.pspnc
- pspatm: opening atomic psp file    /home/gmatteo/git_repos/abinit/tests/Psps_for_tests/13al.pspnc
-  Troullier-Martins psp for element  Al        Thu Oct 27 17:31:05 EDT 1994
- 13.00000   3.00000    940714                znucl, zion, pspdat
    1    1    2    2      2001   0.00000      pspcod,pspxc,lmax,lloc,mmax,r2well
    0   4.657  11.889    1   2.2761078        l,e99.0,e99.9,nproj,rcpsp
   0.00000000   0.00000000   0.00000000   0.00000000     rms, ekb1, ekb2, epsatm
    1   1.829   2.761    1   2.2761078        l,e99.0,e99.9,nproj,rcpsp
   0.00000000   0.00000000   0.00000000   0.00000000     rms, ekb1, ekb2, epsatm
    2   0.000   0.000    0   2.2761078        l,e99.0,e99.9,nproj,rcpsp
   0.00000000   0.00000000   0.00000000   0.00000000     rms, ekb1, ekb2, epsatm
    2.09673076353074    0.12648111154518    1.01742091001718   rchrg,fchrg,qchrg
  pspatm : epsatm=    0.22155260
         --- l  ekb(1:nproj) -->
             0    2.540658
             1    1.353815
 pspatm: atomic psp has been read  and splines computed

- pspini: atom type   2  psp file is /home/gmatteo/git_repos/abinit/tests/Psps_for_tests/33as.pspnc
- pspatm: opening atomic psp file    /home/gmatteo/git_repos/abinit/tests/Psps_for_tests/33as.pspnc
-  Troullier-Martins psp for element  As        Thu Oct 27 17:37:14 EDT 1994
- 33.00000   5.00000    940714                znucl, zion, pspdat
    1    1    1    1      2001   0.00000      pspcod,pspxc,lmax,lloc,mmax,r2well
    0   4.772  10.829    1   2.5306160        l,e99.0,e99.9,nproj,rcpsp
   0.00000000   0.00000000   0.00000000   0.00000000     rms, ekb1, ekb2, epsatm
    1   2.745   5.580    0   2.5306160        l,e99.0,e99.9,nproj,rcpsp
   0.00000000   0.00000000   0.00000000   0.00000000     rms, ekb1, ekb2, epsatm
    2.05731715564010    0.36322996461007    2.76014815959125   rchrg,fchrg,qchrg
  pspatm : epsatm=   27.20579911
         --- l  ekb(1:nproj) -->
             0    0.838751
 pspatm: atomic psp has been read  and splines computed

   2.19418814E+02                                ecore*ucvol(ha*bohr**3)
--------------------------------------------------------------------------------

_setup2: Arith. and geom. avg. npw (full set) are      75.602      75.552
  initberry: for direction 1, nkstr =   6, nstr =    144
  initberry: for direction 2, nkstr =   6, nstr =    144
  initberry: for direction 3, nkstr =   6, nstr =    144

================================================================================

     iter   Etot(hartree)      deltaE(h)  residm     vres2
 ETOT  1  -10.081672575146    -1.008E+01 1.461E-03 9.318E-01
 ETOT  2  -10.085668246841    -3.996E-03 6.019E-10 2.533E-02
 ETOT  3  -10.085763276838    -9.503E-05 1.440E-06 2.000E-03
 ETOT  4  -10.085769132524    -5.856E-06 4.102E-08 7.304E-05
 ETOT  5  -10.085769244479    -1.120E-07 4.351E-10 8.639E-07
 ETOT  6  -10.085769246132    -1.653E-09 9.224E-12 1.346E-08
 ETOT  7  -10.085769246152    -1.927E-11 7.348E-14 3.605E-10
 ETOT  8  -10.085769246152    -5.578E-13 2.964E-15 1.530E-12
 ETOT  9  -10.085769246152    -2.665E-14 1.953E-17 7.734E-15

 At SCF step    9, etot is converged : 
  for the second time, diff in etot=  2.665E-14 < toldfe=  1.000E-12

 Computing the polarization (Berry phase) for reciprocal vector:
  0.16667  0.00000  0.00000 (in reduced coordinates)
 -0.01583  0.01583  0.01583 (in cartesian coordinates - atomic units)
 Number of strings:   144
 Number of k points in string:    6

 Summary of the results
 Electronic Berry phase     2.025856545E-03
            Ionic phase    -7.500000000E-01
            Total phase    -7.479741435E-01
    Remapping in [-1,1]    -7.479741435E-01

           Polarization    -1.557862799E-02 (a.u. of charge)/bohr^2
           Polarization    -8.913274846E-01 C/m^2


 Computing the polarization (Berry phase) for reciprocal vector:
  0.00000  0.16667  0.00000 (in reduced coordinates)
  0.01583 -0.01583  0.01583 (in cartesian coordinates - atomic units)
 Number of strings:   144
 Number of k points in string:    6

 Summary of the results
 Electronic Berry phase     2.025856545E-03
            Ionic phase    -7.500000000E-01
            Total phase    -7.479741435E-01
    Remapping in [-1,1]    -7.479741435E-01

           Polarization    -1.557862799E-02 (a.u. of charge)/bohr^2
           Polarization    -8.913274846E-01 C/m^2


 Computing the polarization (Berry phase) for reciprocal vector:
  0.00000  0.00000  0.16667 (in reduced coordinates)
  0.01583  0.01583 -0.01583 (in cartesian coordinates - atomic units)
 Number of strings:   144
 Number of k points in string:    6

 Summary of the results
 Electronic Berry phase     2.025856545E-03
            Ionic phase    -7.500000000E-01
            Total phase    -7.479741435E-01
    Remapping in [-1,1]    -7.479741435E-01

           Polarization    -1.557862799E-02 (a.u. of charge)/bohr^2
           Polarization    -8.913274846E-01 C/m^2


 Polarization in cartesian coordinates (a.u.):
 (the sum of the electronic and ionic Berry phase has been folded into [-1, 1])
     Electronic berry phase:        0.730822547E-04   0.730822547E-04   0.730822547E-04
     Ionic:                        -0.270560574E-01  -0.270560574E-01  -0.270560574E-01  
     Total:                        -0.269829752E-01  -0.269829752E-01  -0.269829752E-01

 Polarization in cartesian coordinates (C/m^2):
 (the sum of the electronic and ionic Berry phase has been folded into [-1, 1])
     Electronic berry phase:        0.418138377E-02   0.418138377E-02   0.418138377E-02
     Ionic:                        -0.154800587E+01  -0.154800587E+01  -0.154800587E+01  
     Total:                        -0.154382449E+01  -0.154382449E+01  -0.154382449E+01

 Cartesian components of stress tensor (hartree/bohr^3)
  sigma(1 1)= -3.11099209E-06  sigma(3 2)=  0.00000000E+00
  sigma(2 2)= -3.11099209E-06  sigma(3 1)=  0.00000000E+00
  sigma(3 3)= -3.11099209E-06  sigma(2 1)=  0.00000000E+00


--- !ResultsGS
iteration_state: {"dtset": 11, }
comment   : Summary of ground state results
natom     :        2
nsppol    :        1
nspinor   :        1
nspden    :        1
nelect    :  8.000000000000000E+000
charge    :  0.000000000000000E+000
lattice_lengths: [   7.44583,    7.44583,    7.44583, ]
lattice_angles: [ 60.000,  60.000,  60.000, ]
cutoff_energies: {"ecut":   2.8, "pawecutdg":  -1.0, }
convergence: {
    "deltae": -2.66E-14, "res2":  7.73E-15, 
    "residm":  1.95E-17, "diffor": undef, 
}
etotal    : -1.008576924615235E+001
entropy   :  0.000000000000000E+000
fermie    :  9.082489347975611E-002
cartesian_stress_tensor:
- [-3.110992086031994E-006,  0.000000000000000E+000,  0.000000000000000E+000, ]
- [ 0.000000000000000E+000, -3.110992086031994E-006,  0.000000000000000E+000, ]
- [ 0.000000000000000E+000,  0.000000000000000E+000, -3.110992086031994E-006, ]
pressure_GPa:  9.152853177180119E-002
cartesian_forces:
- [-0.000000000000000E+000, -0.000000000000000E+000, -0.000000000000000E+000, ]
- [-0.000000000000000E+000, -0.000000000000000E+000, -0.000000000000000E+000, ]
force_length_stats: {"min":  0.000000000000000E+000, "max":  0.000000000000000E+000, "mean":  0.000000000000000E+000, }
...

 Integrated electronic density in atomic spheres:
 ------------------------------------------------
 Atom  Sphere_radius  Integrated_density
    1        2.00000          0.87677732
    2        2.00000          2.43351333
================================================================================

 ----iterations are completed or convergence reached----

 Mean square residual over all n,k,spin=   76.171E-19; max=  19.532E-18
 reduced coordinates (array xred) for    2 atoms
       0.000000000000      0.000000000000      0.000000000000
       0.250000000000      0.250000000000      0.250000000000
 rms dE/dt=  0.0000E+00; max dE/dt=  0.0000E+00; dE/dt below (all hartree)
    1       0.000000000000      0.000000000000      0.000000000000
    2       0.000000000000      0.000000000000      0.000000000000

 cartesian coordinates (angstrom) at end:
    1      0.00000000000000     0.00000000000000     0.00000000000000
    2      1.39305900161317     1.39305900161317     1.39305900161317

 cartesian forces (hartree/bohr) at end:
    1     -0.00000000000000    -0.00000000000000    -0.00000000000000
    2     -0.00000000000000    -0.00000000000000    -0.00000000000000
 frms,max,avg= 0.0000000E+00 0.0000000E+00   0.000E+00  0.000E+00  0.000E+00 h/b

 cartesian forces (eV/Angstrom) at end:
    1     -0.00000000000000    -0.00000000000000    -0.00000000000000
    2     -0.00000000000000    -0.00000000000000    -0.00000000000000
 frms,max,avg= 0.0000000E+00 0.0000000E+00   0.000E+00  0.000E+00  0.000E+00 e/A
 length scales= 10.530000000000 10.530000000000 10.530000000000 bohr
              =  5.572236006453  5.572236006453  5.572236006453 angstroms
 prteigrs : about to open file tffield_6o_DS11_EIG
 Fermi (or HOMO) energy (hartree) =   0.09082   Average Vxc (hartree)=  -0.34862
 Eigenvalues (hartree) for nkpt=  28  k points:
 kpt#   1, nband=  4, wtk=  0.02778, kpt= -0.0833 -0.1667  0.0000 (reduced coord)
  -0.34039    0.02841    0.07421    0.07855
 prteigrs : prtvol=0 or 1, do not print more k-points.


--- !EnergyTerms
iteration_state     : {"dtset": 11, }
comment             : Components of total free energy in Hartree
kinetic             :  2.91883517315003E+00
hartree             :  7.60836051126481E-01
xc                  : -4.34955594227387E+00
Ewald energy        : -8.54432049481056E+00
psp_core            :  7.51707252549607E-01
local_psp           : -2.29227185797453E+00
non_local_psp       :  6.69000572080490E-01
total_energy        : -1.00857692461523E+01
total_energy_eV     : -2.74447738480434E+02
band_energy         : -6.49063502427824E-01
...


 Cartesian components of stress tensor (hartree/bohr^3)
  sigma(1 1)= -3.11099209E-06  sigma(3 2)=  0.00000000E+00
  sigma(2 2)= -3.11099209E-06  sigma(3 1)=  0.00000000E+00
  sigma(3 3)= -3.11099209E-06  sigma(2 1)=  0.00000000E+00

-Cartesian components of stress tensor (GPa)         [Pressure=  9.1529E-02 GPa]
- sigma(1 1)= -9.15285318E-02  sigma(3 2)=  0.00000000E+00
- sigma(2 2)= -9.15285318E-02  sigma(3 1)=  0.00000000E+00
- sigma(3 3)= -9.15285318E-02  sigma(2 1)=  0.00000000E+00

================================================================================
== DATASET 21 ==================================================================
-   nproc =    1

 mkfilename : getwfk/=0, take file _WFK from output of DATASET  11.

 Exchange-correlation functional for the present dataset will be:
  LDA: old Teter (4/91) fit to Ceperley-Alder data - ixc=3

 Real(R)+Recip(G) space primitive vectors, cartesian coordinates (Bohr,Bohr^-1):
 R(1)=  0.0000000  5.2650000  5.2650000  G(1)= -0.0949668  0.0949668  0.0949668
 R(2)=  5.2650000  0.0000000  5.2650000  G(2)=  0.0949668 -0.0949668  0.0949668
 R(3)=  5.2650000  5.2650000  0.0000000  G(3)=  0.0949668  0.0949668 -0.0949668
 Unit cell volume ucvol=  2.9189397E+02 bohr^3
 Angles (23,13,12)=  6.00000000E+01  6.00000000E+01  6.00000000E+01 degrees

 getcut: wavevector=  0.0000  0.0000  0.0000  ngfft=  12  12  12
         ecut(hartree)=      3.087   => boxcut(ratio)=   2.03767
--------------------------------------------------------------------------------

-inwffil : will read wavefunctions from disk file tffield_6o_DS11_WFK
_setup2: Arith. and geom. avg. npw (full set) are      75.602      75.552
  initberry: for direction 1, nkstr =   6, nstr =    144
  initberry: for direction 2, nkstr =   6, nstr =    144
  initberry: for direction 3, nkstr =   6, nstr =    144

 initberry: COMMENT - 
  As a rough estimate,
  to be below the critical field, the bandgap of your system
  should be larger than    0.17 eV.


================================================================================

     iter   Etot(hartree)      deltaE(h)  residm     vres2
 ETOT  1  -10.083331977194    -1.008E+01 1.103E-01 1.675E-02
 ETOT  2  -10.083406791823    -7.481E-05 5.576E-07 5.634E-04
 ETOT  3  -10.083409149479    -2.358E-06 5.523E-07 2.404E-05
 ETOT  4  -10.083409228708    -7.923E-08 5.499E-07 6.611E-07
 ETOT  5  -10.083409230130    -1.421E-09 5.488E-07 1.063E-08
 ETOT  6  -10.083409230147    -1.696E-11 5.487E-07 1.104E-10
 ETOT  7  -10.083409230147    -1.954E-13 5.487E-07 3.853E-12
 ETOT  8  -10.083409230147    -1.954E-14 5.487E-07 1.208E-13

 At SCF step    8, etot is converged : 
  for the second time, diff in etot=  1.954E-14 < toldfe=  1.000E-12

 Computing the polarization (Berry phase) for reciprocal vector:
  0.16667  0.00000  0.00000 (in reduced coordinates)
 -0.01583  0.01583  0.01583 (in cartesian coordinates - atomic units)
 Number of strings:   144
 Number of k points in string:    6

 Summary of the results
 Electronic Berry phase     3.600021276E-03
            Ionic phase    -7.500000000E-01
            Total phase    -7.463999787E-01
    Remapping in [-1,1]    -7.463999787E-01

           Polarization    -1.554584166E-02 (a.u. of charge)/bohr^2
           Polarization    -8.894516226E-01 C/m^2


 Computing the polarization (Berry phase) for reciprocal vector:
  0.00000  0.16667  0.00000 (in reduced coordinates)
  0.01583 -0.01583  0.01583 (in cartesian coordinates - atomic units)
 Number of strings:   144
 Number of k points in string:    6

 Summary of the results
 Electronic Berry phase     3.600021282E-03
            Ionic phase    -7.500000000E-01
            Total phase    -7.463999787E-01
    Remapping in [-1,1]    -7.463999787E-01

           Polarization    -1.554584166E-02 (a.u. of charge)/bohr^2
           Polarization    -8.894516226E-01 C/m^2


 Computing the polarization (Berry phase) for reciprocal vector:
  0.00000  0.00000  0.16667 (in reduced coordinates)
  0.01583  0.01583 -0.01583 (in cartesian coordinates - atomic units)
 Number of strings:   144
 Number of k points in string:    6

 Summary of the results
 Electronic Berry phase     3.600021294E-03
            Ionic phase    -7.500000000E-01
            Total phase    -7.463999787E-01
    Remapping in [-1,1]    -7.463999787E-01

           Polarization    -1.554584166E-02 (a.u. of charge)/bohr^2
           Polarization    -8.894516226E-01 C/m^2


 Polarization in cartesian coordinates (a.u.):
 (the sum of the electronic and ionic Berry phase has been folded into [-1, 1])
     Electronic berry phase:        0.129869844E-03   0.129869844E-03   0.129869843E-03
     Ionic:                        -0.270560574E-01  -0.270560574E-01  -0.270560574E-01  
     Total:                        -0.269261876E-01  -0.269261876E-01  -0.269261876E-01

 Polarization in cartesian coordinates (C/m^2):
 (the sum of the electronic and ionic Berry phase has been folded into [-1, 1])
     Electronic berry phase:        0.743047213E-02   0.743047212E-02   0.743047211E-02
     Ionic:                        -0.154800587E+01  -0.154800587E+01  -0.154800587E+01  
     Total:                        -0.154057540E+01  -0.154057540E+01  -0.154057540E+01

 Stress tensor under a constant electric field:

 Cartesian components of Maxwell stress tensor (hartree/bohr^3)
 Maxstr(1 1)= -3.16628699E-11 Maxstr(3 2)=  6.33257398E-11
 Maxstr(2 2)= -3.16628699E-11 Maxstr(3 1)=  6.33257398E-11
 Maxstr(3 3)= -3.16628699E-11 Maxstr(2 1)=  6.33257398E-11


 Cartesian components of stress tensor (hartree/bohr^3)
  sigma(1 1)= -3.17813981E-06  sigma(3 2)=  1.13563880E-06
  sigma(2 2)= -3.17813981E-06  sigma(3 1)=  1.13563880E-06
  sigma(3 3)= -3.17813981E-06  sigma(2 1)=  1.13563880E-06


--- !ResultsGS
iteration_state: {"dtset": 21, }
comment   : Summary of ground state results
natom     :        2
nsppol    :        1
nspinor   :        1
nspden    :        1
nelect    :  8.000000000000000E+000
charge    :  0.000000000000000E+000
lattice_lengths: [   7.44583,    7.44583,    7.44583, ]
lattice_angles: [ 60.000,  60.000,  60.000, ]
cutoff_energies: {"ecut":   2.8, "pawecutdg":  -1.0, }
convergence: {
    "deltae": -1.95E-14, "res2":  1.21E-13, 
    "residm":  5.49E-07, "diffor": undef, 
}
etotal    : -1.008340923014698E+001
entropy   :  0.000000000000000E+000
fermie    :  9.084415188903078E-002
cartesian_stress_tensor:
- [-3.178139807174466E-006,  1.135638799941360E-006,  1.135638799941259E-006, ]
- [ 1.135638799941360E-006, -3.178139807174466E-006,  1.135638799941160E-006, ]
- [ 1.135638799941259E-006,  1.135638799941160E-006, -3.178139807174466E-006, ]
pressure_GPa:  9.350408560094377E-002
cartesian_forces:
- [ 2.061477046031611E-004,  2.061477046031611E-004,  2.061477046031612E-004, ]
- [-2.061477046031611E-004, -2.061477046031611E-004, -2.061477046031612E-004, ]
force_length_stats: {"min":  3.570582982363756E-004, "max":  3.570582982363756E-004, "mean":  3.570582982363756E-004, }
...

 Integrated electronic density in atomic spheres:
 ------------------------------------------------
 Atom  Sphere_radius  Integrated_density
    1        2.00000          0.87678958
    2        2.00000          2.43352001
================================================================================

 ----iterations are completed or convergence reached----

 Mean square residual over all n,k,spin=   70.037E-09; max=  54.867E-08
 reduced coordinates (array xred) for    2 atoms
       0.000000000000      0.000000000000      0.000000000000
       0.250000000000      0.250000000000      0.250000000000
 rms dE/dt=  2.1707E-03; max dE/dt=  2.1707E-03; dE/dt below (all hartree)
    1      -0.002170730890     -0.002170730890     -0.002170730890
    2       0.002170739768      0.002170739768      0.002170739768

 cartesian coordinates (angstrom) at end:
    1      0.00000000000000     0.00000000000000     0.00000000000000
    2      1.39305900161317     1.39305900161317     1.39305900161317

 cartesian forces (hartree/bohr) at end:
    1      0.00020614770460     0.00020614770460     0.00020614770460
    2     -0.00020614770460    -0.00020614770460    -0.00020614770460
 frms,max,avg= 2.0614770E-04 2.0614770E-04  -4.216E-10 -4.216E-10 -4.216E-10 h/b

 cartesian forces (eV/Angstrom) at end:
    1      0.01060054029304     0.01060054029304     0.01060054029304
    2     -0.01060054029304    -0.01060054029304    -0.01060054029304
 frms,max,avg= 1.0600540E-02 1.0600540E-02  -2.168E-08 -2.168E-08 -2.168E-08 e/A
 length scales= 10.530000000000 10.530000000000 10.530000000000 bohr
              =  5.572236006453  5.572236006453  5.572236006453 angstroms
 prteigrs : about to open file tffield_6o_DS21_EIG
 Fermi (or HOMO) energy (hartree) =   0.09084   Average Vxc (hartree)=  -0.34862
 Eigenvalues (hartree) for nkpt=  91  k points:
 kpt#   1, nband=  4, wtk=  0.01389, kpt= -0.0833 -0.1667  0.0000 (reduced coord)
  -0.34039    0.02841    0.07422    0.07855
 prteigrs : prtvol=0 or 1, do not print more k-points.


--- !EnergyTerms
iteration_state     : {"dtset": 21, }
comment             : Components of total free energy in Hartree
kinetic             :  2.91883096342566E+00
hartree             :  7.60832002695354E-01
xc                  : -4.34955696563779E+00
Ewald energy        : -8.54432049481056E+00
psp_core            :  7.51707252549607E-01
local_psp           : -2.29229266688880E+00
non_local_psp       :  6.69033149409545E-01
electric            :  2.35752911000412E-03
kohn_sham           : -1.00857667592570E+01
total_energy        : -1.00834092301470E+01
total_energy_eV     : -2.74383519178997E+02
band_energy         : -6.49063530289389E-01
...


Constant unreduced E calculation  - final values:
 (a. u.)
       E:   1.000000000E-04   1.000000000E-04   1.000000000E-04  
       P:  -2.692618760E-02  -2.692618760E-02  -2.692618760E-02

    ebar:   1.053000000E-03   1.053000000E-03   1.053000000E-03  
    pbar:  -3.562977686E+00  -3.562977686E+00  -3.562977686E+00

       e:   2.205905416E-04   2.205905416E-04   2.205905416E-04  
       p:  -7.463999787E-01  -7.463999787E-01  -7.463999787E-01

 (S.I.), that is V/m for E, and C/m^2 for P
-      E:   5.142206319E+07   5.142206319E+07   5.142206319E+07  
       P:  -1.540575401E+00  -1.540575401E+00  -1.540575401E+00  


 Please check: COMMENT - 
  As a rough estimate,
  to be below the critical field, the bandgap of your system
  should be larger than    0.17 eV.

--------------------------------------------------------------------------------

 Cartesian components of stress tensor (hartree/bohr^3)
  sigma(1 1)= -3.17813981E-06  sigma(3 2)=  1.13563880E-06
  sigma(2 2)= -3.17813981E-06  sigma(3 1)=  1.13563880E-06
  sigma(3 3)= -3.17813981E-06  sigma(2 1)=  1.13563880E-06

-Cartesian components of stress tensor (GPa)         [Pressure=  9.3504E-02 GPa]
- sigma(1 1)= -9.35040856E-02  sigma(3 2)=  3.34116414E-02
- sigma(2 2)= -9.35040856E-02  sigma(3 1)=  3.34116414E-02
- sigma(3 3)= -9.35040856E-02  sigma(2 1)=  3.34116414E-02

================================================================================
== DATASET 31 ==================================================================
-   nproc =    1

 mkfilename : getwfk/=0, take file _WFK from output of DATASET  11.

 Exchange-correlation functional for the present dataset will be:
  LDA: old Teter (4/91) fit to Ceperley-Alder data - ixc=3

 Real(R)+Recip(G) space primitive vectors, cartesian coordinates (Bohr,Bohr^-1):
 R(1)=  0.0000000  5.2650000  5.2650000  G(1)= -0.0949668  0.0949668  0.0949668
 R(2)=  5.2650000  0.0000000  5.2650000  G(2)=  0.0949668 -0.0949668  0.0949668
 R(3)=  5.2650000  5.2650000  0.0000000  G(3)=  0.0949668  0.0949668 -0.0949668
 Unit cell volume ucvol=  2.9189397E+02 bohr^3
 Angles (23,13,12)=  6.00000000E+01  6.00000000E+01  6.00000000E+01 degrees

 getcut: wavevector=  0.0000  0.0000  0.0000  ngfft=  12  12  12
         ecut(hartree)=      3.087   => boxcut(ratio)=   2.03767
--------------------------------------------------------------------------------

-inwffil : will read wavefunctions from disk file tffield_6o_DS11_WFK
_setup2: Arith. and geom. avg. npw (full set) are      75.602      75.552
  initberry: for direction 1, nkstr =   6, nstr =    144
  initberry: for direction 2, nkstr =   6, nstr =    144
  initberry: for direction 3, nkstr =   6, nstr =    144

 initberry: COMMENT - 
  As a rough estimate,
  to be below the critical field, the bandgap of your system
  should be larger than    0.17 eV.


================================================================================

     iter   Etot(hartree)      deltaE(h)  residm     vres2
 ETOT  1  -10.088058659161    -1.009E+01 1.100E-01 1.646E-02
 ETOT  2  -10.088132541163    -7.388E-05 5.569E-07 5.511E-04
 ETOT  3  -10.088134850747    -2.310E-06 5.532E-07 2.343E-05
 ETOT  4  -10.088134927708    -7.696E-08 5.485E-07 6.313E-07
 ETOT  5  -10.088134928939    -1.231E-09 5.482E-07 9.945E-09
 ETOT  6  -10.088134928955    -1.582E-11 5.483E-07 1.035E-10
 ETOT  7  -10.088134928955    -1.847E-13 5.483E-07 2.863E-12
 ETOT  8  -10.088134928955     0.000E+00 5.483E-07 1.186E-13

 At SCF step    8, etot is converged : 
  for the second time, diff in etot=  0.000E+00 < toldfe=  1.000E-12

 Computing the polarization (Berry phase) for reciprocal vector:
  0.16667  0.00000  0.00000 (in reduced coordinates)
 -0.01583  0.01583  0.01583 (in cartesian coordinates - atomic units)
 Number of strings:   144
 Number of k points in string:    6

 Summary of the results
 Electronic Berry phase     4.534337416E-04
            Ionic phase    -7.500000000E-01
            Total phase    -7.495465663E-01
    Remapping in [-1,1]    -7.495465663E-01

           Polarization    -1.561137804E-02 (a.u. of charge)/bohr^2
           Polarization    -8.932012709E-01 C/m^2


 Computing the polarization (Berry phase) for reciprocal vector:
  0.00000  0.16667  0.00000 (in reduced coordinates)
  0.01583 -0.01583  0.01583 (in cartesian coordinates - atomic units)
 Number of strings:   144
 Number of k points in string:    6

 Summary of the results
 Electronic Berry phase     4.534337407E-04
            Ionic phase    -7.500000000E-01
            Total phase    -7.495465663E-01
    Remapping in [-1,1]    -7.495465663E-01

           Polarization    -1.561137804E-02 (a.u. of charge)/bohr^2
           Polarization    -8.932012709E-01 C/m^2


 Computing the polarization (Berry phase) for reciprocal vector:
  0.00000  0.00000  0.16667 (in reduced coordinates)
  0.01583  0.01583 -0.01583 (in cartesian coordinates - atomic units)
 Number of strings:   144
 Number of k points in string:    6

 Summary of the results
 Electronic Berry phase     4.534337439E-04
            Ionic phase    -7.500000000E-01
            Total phase    -7.495465663E-01
    Remapping in [-1,1]    -7.495465663E-01

           Polarization    -1.561137804E-02 (a.u. of charge)/bohr^2
           Polarization    -8.932012709E-01 C/m^2


 Polarization in cartesian coordinates (a.u.):
 (the sum of the electronic and ionic Berry phase has been folded into [-1, 1])
     Electronic berry phase:        0.163575058E-04   0.163575059E-04   0.163575058E-04
     Ionic:                        -0.270560574E-01  -0.270560574E-01  -0.270560574E-01  
     Total:                        -0.270396999E-01  -0.270396999E-01  -0.270396999E-01

 Polarization in cartesian coordinates (C/m^2):
 (the sum of the electronic and ionic Berry phase has been folded into [-1, 1])
     Electronic berry phase:        0.935890795E-03   0.935890796E-03   0.935890793E-03
     Ionic:                        -0.154800587E+01  -0.154800587E+01  -0.154800587E+01  
     Total:                        -0.154706998E+01  -0.154706998E+01  -0.154706998E+01

 Stress tensor under a constant electric field:

 Cartesian components of Maxwell stress tensor (hartree/bohr^3)
 Maxstr(1 1)= -3.16628699E-11 Maxstr(3 2)=  6.33257398E-11
 Maxstr(2 2)= -3.16628699E-11 Maxstr(3 1)=  6.33257398E-11
 Maxstr(3 3)= -3.16628699E-11 Maxstr(2 1)=  6.33257398E-11


 Cartesian components of stress tensor (hartree/bohr^3)
  sigma(1 1)= -3.05698930E-06  sigma(3 2)= -1.13228229E-06
  sigma(2 2)= -3.05698930E-06  sigma(3 1)= -1.13228229E-06
  sigma(3 3)= -3.05698930E-06  sigma(2 1)= -1.13228229E-06


--- !ResultsGS
iteration_state: {"dtset": 31, }
comment   : Summary of ground state results
natom     :        2
nsppol    :        1
nspinor   :        1
nspden    :        1
nelect    :  8.000000000000000E+000
charge    :  0.000000000000000E+000
lattice_lengths: [   7.44583,    7.44583,    7.44583, ]
lattice_angles: [ 60.000,  60.000,  60.000, ]
cutoff_energies: {"ecut":   2.8, "pawecutdg":  -1.0, }
convergence: {
    "deltae":  0.00E+00, "res2":  1.19E-13, 
    "residm":  5.48E-07, "diffor": undef, 
}
etotal    : -1.008813492895520E+001
entropy   :  0.000000000000000E+000
fermie    :  9.083479900822491E-002
cartesian_stress_tensor:
- [-3.056989296632874E-006, -1.132282293362736E-006, -1.132282293362773E-006, ]
- [-1.132282293362736E-006, -3.056989296632874E-006, -1.132282293362849E-006, ]
- [-1.132282293362773E-006, -1.132282293362849E-006, -3.056989296632874E-006, ]
pressure_GPa:  8.993971512148702E-002
cartesian_forces:
- [-2.065123436431629E-004, -2.065123436431630E-004, -2.065123436431629E-004, ]
- [ 2.065123436431629E-004,  2.065123436431630E-004,  2.065123436431629E-004, ]
force_length_stats: {"min":  3.576898715800818E-004, "max":  3.576898715800818E-004, "mean":  3.576898715800818E-004, }
...

 Integrated electronic density in atomic spheres:
 ------------------------------------------------
 Atom  Sphere_radius  Integrated_density
    1        2.00000          0.87676827
    2        2.00000          2.43350122
================================================================================

 ----iterations are completed or convergence reached----

 Mean square residual over all n,k,spin=   69.974E-09; max=  54.826E-08
 reduced coordinates (array xred) for    2 atoms
       0.000000000000      0.000000000000      0.000000000000
       0.250000000000      0.250000000000      0.250000000000
 rms dE/dt=  2.1746E-03; max dE/dt=  2.1746E-03; dE/dt below (all hartree)
    1       0.002174572874      0.002174572874      0.002174572874
    2      -0.002174577083     -0.002174577083     -0.002174577083

 cartesian coordinates (angstrom) at end:
    1      0.00000000000000     0.00000000000000     0.00000000000000
    2      1.39305900161317     1.39305900161317     1.39305900161317

 cartesian forces (hartree/bohr) at end:
    1     -0.00020651234364    -0.00020651234364    -0.00020651234364
    2      0.00020651234364     0.00020651234364     0.00020651234364
 frms,max,avg= 2.0651234E-04 2.0651234E-04   1.998E-10  1.998E-10  1.998E-10 h/b

 cartesian forces (eV/Angstrom) at end:
    1     -0.01061929078479    -0.01061929078479    -0.01061929078479
    2      0.01061929078479     0.01061929078479     0.01061929078479
 frms,max,avg= 1.0619291E-02 1.0619291E-02   1.028E-08  1.028E-08  1.028E-08 e/A
 length scales= 10.530000000000 10.530000000000 10.530000000000 bohr
              =  5.572236006453  5.572236006453  5.572236006453 angstroms
 prteigrs : about to open file tffield_6o_DS31_EIG
 Fermi (or HOMO) energy (hartree) =   0.09083   Average Vxc (hartree)=  -0.34862
 Eigenvalues (hartree) for nkpt=  91  k points:
 kpt#   1, nband=  4, wtk=  0.01389, kpt= -0.0833 -0.1667  0.0000 (reduced coord)
  -0.34039    0.02842    0.07420    0.07856
 prteigrs : prtvol=0 or 1, do not print more k-points.


--- !EnergyTerms
iteration_state     : {"dtset": 31, }
comment             : Components of total free energy in Hartree
kinetic             :  2.91883429673359E+00
hartree             :  7.60833051707619E-01
xc                  : -4.34955249616654E+00
Ewald energy        : -8.54432049481056E+00
psp_core            :  7.51707252549607E-01
local_psp           : -2.29224281076428E+00
non_local_psp       :  6.68974437820934E-01
electric            : -2.36816602556935E-03
kohn_sham           : -1.00857667629296E+01
total_energy        : -1.00881349289552E+01
total_energy_eV     : -2.74512111983274E+02
band_energy         : -6.49064734665745E-01
...


Constant unreduced E calculation  - final values:
 (a. u.)
       E:  -1.000000000E-04  -1.000000000E-04  -1.000000000E-04  
       P:  -2.703969994E-02  -2.703969994E-02  -2.703969994E-02

    ebar:  -1.053000000E-03  -1.053000000E-03  -1.053000000E-03  
    pbar:  -3.577998080E+00  -3.577998080E+00  -3.577998080E+00

       e:  -2.205905416E-04  -2.205905416E-04  -2.205905416E-04  
       p:  -7.495465663E-01  -7.495465663E-01  -7.495465663E-01

 (S.I.), that is V/m for E, and C/m^2 for P
-      E:  -5.142206319E+07  -5.142206319E+07  -5.142206319E+07  
       P:  -1.547069983E+00  -1.547069983E+00  -1.547069983E+00  


 Please check: COMMENT - 
  As a rough estimate,
  to be below the critical field, the bandgap of your system
  should be larger than    0.17 eV.

--------------------------------------------------------------------------------

 Cartesian components of stress tensor (hartree/bohr^3)
  sigma(1 1)= -3.05698930E-06  sigma(3 2)= -1.13228229E-06
  sigma(2 2)= -3.05698930E-06  sigma(3 1)= -1.13228229E-06
  sigma(3 3)= -3.05698930E-06  sigma(2 1)= -1.13228229E-06

-Cartesian components of stress tensor (GPa)         [Pressure=  8.9940E-02 GPa]
- sigma(1 1)= -8.99397151E-02  sigma(3 2)= -3.33128896E-02
- sigma(2 2)= -8.99397151E-02  sigma(3 1)= -3.33128896E-02
- sigma(3 3)= -8.99397151E-02  sigma(2 1)= -3.33128896E-02

== END DATASET(S) ==============================================================
================================================================================
  
 -outvars: echo values of variables after computation  --------
            acell      1.0530000000E+01  1.0530000000E+01  1.0530000000E+01 Bohr
              amu      2.69815390E+01  7.49215900E+01
         berryopt11        -1
         berryopt21         4
         berryopt31         4
          dilatmx      1.05000000E+00
             ecut      2.80000000E+00 Hartree
           ecutsm      5.00000000E-01 Hartree
           efield11    0.00000000E+00  0.00000000E+00  0.00000000E+00
           efield21    1.00000000E-04  1.00000000E-04  1.00000000E-04
           efield31   -1.00000000E-04 -1.00000000E-04 -1.00000000E-04
           etotal11   -1.0085769246E+01
           etotal21   -1.0083409230E+01
           etotal31   -1.0088134929E+01
            fcart11   -0.0000000000E+00 -0.0000000000E+00 -0.0000000000E+00
                      -0.0000000000E+00 -0.0000000000E+00 -0.0000000000E+00
            fcart21    2.0614770460E-04  2.0614770460E-04  2.0614770460E-04
                      -2.0614770460E-04 -2.0614770460E-04 -2.0614770460E-04
            fcart31   -2.0651234364E-04 -2.0651234364E-04 -2.0651234364E-04
                       2.0651234364E-04  2.0651234364E-04  2.0651234364E-04
-          fftalg         312
           getwfk11         0
           getwfk21        11
           getwfk31        11
              ixc           3
           jdtset       11   21   31
              kpt11   -8.33333333E-02 -1.66666667E-01  0.00000000E+00
                      -8.33333333E-02 -3.33333333E-01  0.00000000E+00
                      -1.66666667E-01 -2.50000000E-01  0.00000000E+00
                      -8.33333333E-02 -2.50000000E-01  8.33333333E-02
                      -8.33333333E-02  5.00000000E-01  0.00000000E+00
                      -1.66666667E-01 -4.16666667E-01  0.00000000E+00
                      -8.33333333E-02 -4.16666667E-01  8.33333333E-02
                      -2.50000000E-01 -3.33333333E-01  0.00000000E+00
                      -1.66666667E-01 -3.33333333E-01  8.33333333E-02
                      -8.33333333E-02 -3.33333333E-01  1.66666667E-01
                      -8.33333333E-02  3.33333333E-01  0.00000000E+00
                      -1.66666667E-01  4.16666667E-01  0.00000000E+00
                      -2.50000000E-01  5.00000000E-01  0.00000000E+00
                      -1.66666667E-01  5.00000000E-01  8.33333333E-02
                      -3.33333333E-01 -4.16666667E-01  0.00000000E+00
                      -2.50000000E-01 -4.16666667E-01  8.33333333E-02
                      -1.66666667E-01 -4.16666667E-01  1.66666667E-01
                      -8.33333333E-02 -4.16666667E-01  2.50000000E-01
                      -8.33333333E-02  1.66666667E-01  0.00000000E+00
                      -1.66666667E-01  2.50000000E-01  0.00000000E+00
                      -2.50000000E-01  3.33333333E-01  0.00000000E+00
                      -3.33333333E-01  4.16666667E-01  0.00000000E+00
                      -4.16666667E-01  5.00000000E-01  0.00000000E+00
                      -3.33333333E-01  5.00000000E-01  8.33333333E-02
                      -2.50000000E-01  5.00000000E-01  1.66666667E-01
                      -8.33333333E-02  0.00000000E+00  0.00000000E+00
                      -2.50000000E-01  0.00000000E+00  0.00000000E+00
                      -4.16666667E-01  0.00000000E+00  0.00000000E+00
              kpt21   -8.33333333E-02 -1.66666667E-01  0.00000000E+00
                      -8.33333333E-02 -8.33333333E-02  8.33333333E-02
                      -8.33333333E-02 -3.33333333E-01  0.00000000E+00
                      -1.66666667E-01 -2.50000000E-01  0.00000000E+00
                      -8.33333333E-02 -2.50000000E-01  8.33333333E-02
                      -1.66666667E-01 -1.66666667E-01  8.33333333E-02
                      -8.33333333E-02 -1.66666667E-01  1.66666667E-01
                      -8.33333333E-02 -8.33333333E-02  2.50000000E-01
                      -8.33333333E-02  5.00000000E-01  0.00000000E+00
                      -1.66666667E-01 -4.16666667E-01  0.00000000E+00
                      -8.33333333E-02 -4.16666667E-01  8.33333333E-02
                      -2.50000000E-01 -3.33333333E-01  0.00000000E+00
                      -1.66666667E-01 -3.33333333E-01  8.33333333E-02
                      -8.33333333E-02 -3.33333333E-01  1.66666667E-01
                      -2.50000000E-01 -2.50000000E-01  8.33333333E-02
                      -1.66666667E-01 -2.50000000E-01  1.66666667E-01
                      -8.33333333E-02 -2.50000000E-01  2.50000000E-01
                      -1.66666667E-01 -1.66666667E-01  2.50000000E-01
                      -8.33333333E-02 -1.66666667E-01  3.33333333E-01
                      -8.33333333E-02 -8.33333333E-02  4.16666667E-01
                      -8.33333333E-02  3.33333333E-01  0.00000000E+00
                      -1.66666667E-01  4.16666667E-01  0.00000000E+00
                      -2.50000000E-01  5.00000000E-01  0.00000000E+00
                      -1.66666667E-01  5.00000000E-01  8.33333333E-02
                      -3.33333333E-01 -4.16666667E-01  0.00000000E+00
                      -2.50000000E-01 -4.16666667E-01  8.33333333E-02
                      -1.66666667E-01 -4.16666667E-01  1.66666667E-01
                      -8.33333333E-02 -4.16666667E-01  2.50000000E-01
                      -3.33333333E-01 -3.33333333E-01  8.33333333E-02
                      -2.50000000E-01 -3.33333333E-01  1.66666667E-01
                      -1.66666667E-01 -3.33333333E-01  2.50000000E-01
                      -8.33333333E-02 -3.33333333E-01  3.33333333E-01
                      -2.50000000E-01 -2.50000000E-01  2.50000000E-01
                      -1.66666667E-01 -2.50000000E-01  3.33333333E-01
                      -8.33333333E-02 -2.50000000E-01  4.16666667E-01
                      -1.66666667E-01 -1.66666667E-01  4.16666667E-01
                      -8.33333333E-02 -1.66666667E-01  5.00000000E-01
                      -8.33333333E-02 -8.33333333E-02 -4.16666667E-01
                      -8.33333333E-02  1.66666667E-01  0.00000000E+00
                      -1.66666667E-01  2.50000000E-01  0.00000000E+00
                      -2.50000000E-01  3.33333333E-01  0.00000000E+00
                      -3.33333333E-01  4.16666667E-01  0.00000000E+00
                      -4.16666667E-01  5.00000000E-01  0.00000000E+00
                      -3.33333333E-01  5.00000000E-01  8.33333333E-02
                      -2.50000000E-01  5.00000000E-01  1.66666667E-01
                      -4.16666667E-01 -4.16666667E-01  8.33333333E-02
                      -3.33333333E-01 -4.16666667E-01  1.66666667E-01
                      -2.50000000E-01 -4.16666667E-01  2.50000000E-01
                      -1.66666667E-01 -4.16666667E-01  3.33333333E-01
                      -8.33333333E-02 -4.16666667E-01  4.16666667E-01
              kpt31   -8.33333333E-02 -1.66666667E-01  0.00000000E+00
                      -8.33333333E-02 -8.33333333E-02  8.33333333E-02
                      -8.33333333E-02 -3.33333333E-01  0.00000000E+00
                      -1.66666667E-01 -2.50000000E-01  0.00000000E+00
                      -8.33333333E-02 -2.50000000E-01  8.33333333E-02
                      -1.66666667E-01 -1.66666667E-01  8.33333333E-02
                      -8.33333333E-02 -1.66666667E-01  1.66666667E-01
                      -8.33333333E-02 -8.33333333E-02  2.50000000E-01
                      -8.33333333E-02  5.00000000E-01  0.00000000E+00
                      -1.66666667E-01 -4.16666667E-01  0.00000000E+00
                      -8.33333333E-02 -4.16666667E-01  8.33333333E-02
                      -2.50000000E-01 -3.33333333E-01  0.00000000E+00
                      -1.66666667E-01 -3.33333333E-01  8.33333333E-02
                      -8.33333333E-02 -3.33333333E-01  1.66666667E-01
                      -2.50000000E-01 -2.50000000E-01  8.33333333E-02
                      -1.66666667E-01 -2.50000000E-01  1.66666667E-01
                      -8.33333333E-02 -2.50000000E-01  2.50000000E-01
                      -1.66666667E-01 -1.66666667E-01  2.50000000E-01
                      -8.33333333E-02 -1.66666667E-01  3.33333333E-01
                      -8.33333333E-02 -8.33333333E-02  4.16666667E-01
                      -8.33333333E-02  3.33333333E-01  0.00000000E+00
                      -1.66666667E-01  4.16666667E-01  0.00000000E+00
                      -2.50000000E-01  5.00000000E-01  0.00000000E+00
                      -1.66666667E-01  5.00000000E-01  8.33333333E-02
                      -3.33333333E-01 -4.16666667E-01  0.00000000E+00
                      -2.50000000E-01 -4.16666667E-01  8.33333333E-02
                      -1.66666667E-01 -4.16666667E-01  1.66666667E-01
                      -8.33333333E-02 -4.16666667E-01  2.50000000E-01
                      -3.33333333E-01 -3.33333333E-01  8.33333333E-02
                      -2.50000000E-01 -3.33333333E-01  1.66666667E-01
                      -1.66666667E-01 -3.33333333E-01  2.50000000E-01
                      -8.33333333E-02 -3.33333333E-01  3.33333333E-01
                      -2.50000000E-01 -2.50000000E-01  2.50000000E-01
                      -1.66666667E-01 -2.50000000E-01  3.33333333E-01
                      -8.33333333E-02 -2.50000000E-01  4.16666667E-01
                      -1.66666667E-01 -1.66666667E-01  4.16666667E-01
                      -8.33333333E-02 -1.66666667E-01  5.00000000E-01
                      -8.33333333E-02 -8.33333333E-02 -4.16666667E-01
                      -8.33333333E-02  1.66666667E-01  0.00000000E+00
                      -1.66666667E-01  2.50000000E-01  0.00000000E+00
                      -2.50000000E-01  3.33333333E-01  0.00000000E+00
                      -3.33333333E-01  4.16666667E-01  0.00000000E+00
                      -4.16666667E-01  5.00000000E-01  0.00000000E+00
                      -3.33333333E-01  5.00000000E-01  8.33333333E-02
                      -2.50000000E-01  5.00000000E-01  1.66666667E-01
                      -4.16666667E-01 -4.16666667E-01  8.33333333E-02
                      -3.33333333E-01 -4.16666667E-01  1.66666667E-01
                      -2.50000000E-01 -4.16666667E-01  2.50000000E-01
                      -1.66666667E-01 -4.16666667E-01  3.33333333E-01
                      -8.33333333E-02 -4.16666667E-01  4.16666667E-01
                       outvar_i_n : Printing only first  50 k-points.
         kptrlatt        6   -6    6     -6    6    6     -6   -6    6
          kptrlen      6.31800000E+01
P           mkmem11        28
P           mkmem21        91
P           mkmem31        91
            natom           2
            nband11         4
            nband21         4
            nband31         4
           ndtset           3
            ngfft          12      12      12
             nkpt11        28
             nkpt21        91
             nkpt31        91
            nstep         100
             nsym11        24
             nsym21         6
             nsym31         6
           ntypat           2
              occ11    2.000000  2.000000  2.000000  2.000000
              occ21    2.000000  2.000000  2.000000  2.000000
              occ31    2.000000  2.000000  2.000000  2.000000
            rfdir11         1       1       1
            rfdir21         0       0       0
            rfdir31         0       0       0
            rprim      0.0000000000E+00  5.0000000000E-01  5.0000000000E-01
                       5.0000000000E-01  0.0000000000E+00  5.0000000000E-01
                       5.0000000000E-01  5.0000000000E-01  0.0000000000E+00
           shiftk      5.00000000E-01  5.00000000E-01  5.00000000E-01
          spgroup11       216
          spgroup21       160
          spgroup31       160
           strten11   -3.1109920860E-06 -3.1109920860E-06 -3.1109920860E-06
                       0.0000000000E+00  0.0000000000E+00  0.0000000000E+00
           strten21   -3.1781398072E-06 -3.1781398072E-06 -3.1781398072E-06
                       1.1356387999E-06  1.1356387999E-06  1.1356387999E-06
           strten31   -3.0569892966E-06 -3.0569892966E-06 -3.0569892966E-06
                      -1.1322822934E-06 -1.1322822934E-06 -1.1322822934E-06
           symafm11      1    1    1    1    1    1    1    1    1    1
                         1    1    1    1    1    1    1    1    1    1
                         1    1    1    1
           symafm21      1    1    1    1    1    1
           symafm31      1    1    1    1    1    1
           symrel11    1  0  0   0  1  0   0  0  1       0 -1  1   0 -1  0   1 -1  0
                      -1  0  0  -1  0  1  -1  1  0       0  1 -1   1  0 -1   0  0 -1
                      -1  0  0  -1  1  0  -1  0  1       0 -1  1   1 -1  0   0 -1  0
                       1  0  0   0  0  1   0  1  0       0  1 -1   0  0 -1   1  0 -1
                      -1  0  1  -1  1  0  -1  0  0       0 -1  0   1 -1  0   0 -1  1
                       1  0 -1   0  0 -1   0  1 -1       0  1  0   0  0  1   1  0  0
                       1  0 -1   0  1 -1   0  0 -1       0 -1  0   0 -1  1   1 -1  0
                      -1  0  1  -1  0  0  -1  1  0       0  1  0   1  0  0   0  0  1
                       0  0 -1   0  1 -1   1  0 -1       1 -1  0   0 -1  1   0 -1  0
                       0  0  1   1  0  0   0  1  0      -1  1  0  -1  0  0  -1  0  1
                       0  0  1   0  1  0   1  0  0       1 -1  0   0 -1  0   0 -1  1
                       0  0 -1   1  0 -1   0  1 -1      -1  1  0  -1  0  1  -1  0  0
           symrel21    1  0  0   0  1  0   0  0  1       1  0  0   0  0  1   0  1  0
                       0  1  0   0  0  1   1  0  0       0  1  0   1  0  0   0  0  1
                       0  0  1   1  0  0   0  1  0       0  0  1   0  1  0   1  0  0
           symrel31    1  0  0   0  1  0   0  0  1       1  0  0   0  0  1   0  1  0
                       0  1  0   0  0  1   1  0  0       0  1  0   1  0  0   0  0  1
                       0  0  1   1  0  0   0  1  0       0  0  1   0  1  0   1  0  0
            tnons11    0.0000000  0.0000000  0.0000000     0.0000000  0.0000000  0.0000000
                       0.0000000  0.0000000  0.0000000     0.0000000  0.0000000  0.0000000
                       0.0000000  0.0000000  0.0000000     0.0000000  0.0000000  0.0000000
                       0.0000000  0.0000000  0.0000000     0.0000000  0.0000000  0.0000000
                       0.0000000  0.0000000  0.0000000     0.0000000  0.0000000  0.0000000
                       0.0000000  0.0000000  0.0000000     0.0000000  0.0000000  0.0000000
                       0.0000000  0.0000000  0.0000000     0.0000000  0.0000000  0.0000000
                       0.0000000  0.0000000  0.0000000     0.0000000  0.0000000  0.0000000
                       0.0000000  0.0000000  0.0000000     0.0000000  0.0000000  0.0000000
                       0.0000000  0.0000000  0.0000000     0.0000000  0.0000000  0.0000000
                       0.0000000  0.0000000  0.0000000     0.0000000  0.0000000  0.0000000
                       0.0000000  0.0000000  0.0000000     0.0000000  0.0000000  0.0000000
            tnons21    0.0000000  0.0000000  0.0000000     0.0000000  0.0000000  0.0000000
                       0.0000000  0.0000000  0.0000000     0.0000000  0.0000000  0.0000000
                       0.0000000  0.0000000  0.0000000     0.0000000  0.0000000  0.0000000
            tnons31    0.0000000  0.0000000  0.0000000     0.0000000  0.0000000  0.0000000
                       0.0000000  0.0000000  0.0000000     0.0000000  0.0000000  0.0000000
                       0.0000000  0.0000000  0.0000000     0.0000000  0.0000000  0.0000000
           toldfe      1.00000000E-12 Hartree
            typat      1  2
              wtk11      0.02778    0.02778    0.02778    0.05556    0.02778    0.02778
                         0.05556    0.02778    0.05556    0.05556    0.02778    0.02778
                         0.02778    0.05556    0.02778    0.05556    0.05556    0.05556
                         0.02778    0.02778    0.02778    0.02778    0.02778    0.05556
                         0.05556    0.00926    0.00926    0.00926
              wtk21      0.01389    0.00694    0.01389    0.01389    0.01389    0.00694
                         0.01389    0.00694    0.01389    0.01389    0.01389    0.01389
                         0.01389    0.01389    0.00694    0.01389    0.01389    0.00694
                         0.01389    0.00694    0.01389    0.01389    0.01389    0.01389
                         0.01389    0.01389    0.01389    0.01389    0.00694    0.01389
                         0.01389    0.01389    0.00694    0.01389    0.01389    0.00694
                         0.01389    0.00694    0.01389    0.01389    0.01389    0.01389
                         0.01389    0.01389    0.01389    0.00694    0.01389    0.01389
                         0.01389    0.01389
              wtk31      0.01389    0.00694    0.01389    0.01389    0.01389    0.00694
                         0.01389    0.00694    0.01389    0.01389    0.01389    0.01389
                         0.01389    0.01389    0.00694    0.01389    0.01389    0.00694
                         0.01389    0.00694    0.01389    0.01389    0.01389    0.01389
                         0.01389    0.01389    0.01389    0.01389    0.00694    0.01389
                         0.01389    0.01389    0.00694    0.01389    0.01389    0.00694
                         0.01389    0.00694    0.01389    0.01389    0.01389    0.01389
                         0.01389    0.01389    0.01389    0.00694    0.01389    0.01389
                         0.01389    0.01389
                       outvars : Printing only first  50 k-points.
           xangst      0.0000000000E+00  0.0000000000E+00  0.0000000000E+00
                       1.3930590016E+00  1.3930590016E+00  1.3930590016E+00
            xcart      0.0000000000E+00  0.0000000000E+00  0.0000000000E+00
                       2.6325000000E+00  2.6325000000E+00  2.6325000000E+00
             xred      0.0000000000E+00  0.0000000000E+00  0.0000000000E+00
                       2.5000000000E-01  2.5000000000E-01  2.5000000000E-01
            znucl       13.00000   33.00000

================================================================================


- Timing analysis has been suppressed with timopt=0



================================================================================

 Suggested references for the acknowledgment of ABINIT usage.

 The users of ABINIT have little formal obligations with respect to the ABINIT group
 (those specified in the GNU General Public License, http://www.gnu.org/copyleft/gpl.txt).
 However, it is common practice in the scientific literature,
 to acknowledge the efforts of people that have made the research possible.
 In this spirit, please find below suggested citations of work written by ABINIT developers,
 corresponding to implementations inside of ABINIT that you have used in the present run.
 Note also that it will be of great value to readers of publications presenting these results,
 to read papers enabling them to understand the theoretical formalism and details
 of the ABINIT implementation.
 For information on why they are suggested, see also https://docs.abinit.org/theory/acknowledgments.
-
- [1] The Abinit project: Impact, environment and recent developments.
- Computer Phys. Comm. 248, 107042 (2020).
- X.Gonze, B. Amadon, G. Antonius, F.Arnardi, L.Baguet, J.-M.Beuken,
- J.Bieder, F.Bottin, J.Bouchet, E.Bousquet, N.Brouwer, F.Bruneval,
- G.Brunin, T.Cavignac, J.-B. Charraud, Wei Chen, M.Cote, S.Cottenier,
- J.Denier, G.Geneste, Ph.Ghosez, M.Giantomassi, Y.Gillet, O.Gingras,
- D.R.Hamann, G.Hautier, Xu He, N.Helbig, N.Holzwarth, Y.Jia, F.Jollet,
- W.Lafargue-Dit-Hauret, K.Lejaeghere, M.A.L.Marques, A.Martin, C.Martins,
- H.P.C. Miranda, F.Naccarato, K. Persson, G.Petretto, V.Planes, Y.Pouillon,
- S.Prokhorenko, F.Ricci, G.-M.Rignanese, A.H.Romero, M.M.Schmitt, M.Torrent,
- M.J.van Setten, B.Van Troeye, M.J.Verstraete, G.Zerah and J.W.Zwanzig
- Comment: the fifth generic paper describing the ABINIT project.
- Note that a version of this paper, that is not formatted for Computer Phys. Comm. 
- is available at https://www.abinit.org/sites/default/files/ABINIT20.pdf .
- The licence allows the authors to put it on the Web.
- DOI and bibtex: see https://docs.abinit.org/theory/bibliography/#gonze2020
-
- [2] Recent developments in the ABINIT software package.
- Computer Phys. Comm. 205, 106 (2016).
- X.Gonze, F.Jollet, F.Abreu Araujo, D.Adams, B.Amadon, T.Applencourt,
- C.Audouze, J.-M.Beuken, J.Bieder, A.Bokhanchuk, E.Bousquet, F.Bruneval
- D.Caliste, M.Cote, F.Dahm, F.Da Pieve, M.Delaveau, M.Di Gennaro,
- B.Dorado, C.Espejo, G.Geneste, L.Genovese, A.Gerossier, M.Giantomassi,
- Y.Gillet, D.R.Hamann, L.He, G.Jomard, J.Laflamme Janssen, S.Le Roux,
- A.Levitt, A.Lherbier, F.Liu, I.Lukacevic, A.Martin, C.Martins,
- M.J.T.Oliveira, S.Ponce, Y.Pouillon, T.Rangel, G.-M.Rignanese,
- A.H.Romero, B.Rousseau, O.Rubel, A.A.Shukri, M.Stankovski, M.Torrent,
- M.J.Van Setten, B.Van Troeye, M.J.Verstraete, D.Waroquier, J.Wiktor,
- B.Xu, A.Zhou, J.W.Zwanziger.
- Comment: the fourth generic paper describing the ABINIT project.
- Note that a version of this paper, that is not formatted for Computer Phys. Comm. 
- is available at https://www.abinit.org/sites/default/files/ABINIT16.pdf .
- The licence allows the authors to put it on the Web.
- DOI and bibtex: see https://docs.abinit.org/theory/bibliography/#gonze2016
-
- [3] ABINIT: First-principles approach of materials and nanosystem properties.
- Computer Phys. Comm. 180, 2582-2615 (2009).
- X. Gonze, B. Amadon, P.-M. Anglade, J.-M. Beuken, F. Bottin, P. Boulanger, F. Bruneval,
- D. Caliste, R. Caracas, M. Cote, T. Deutsch, L. Genovese, Ph. Ghosez, M. Giantomassi
- S. Goedecker, D.R. Hamann, P. Hermet, F. Jollet, G. Jomard, S. Leroux, M. Mancini, S. Mazevet,
- M.J.T. Oliveira, G. Onida, Y. Pouillon, T. Rangel, G.-M. Rignanese, D. Sangalli, R. Shaltaf,
- M. Torrent, M.J. Verstraete, G. Zerah, J.W. Zwanziger
- Comment: the third generic paper describing the ABINIT project.
- Note that a version of this paper, that is not formatted for Computer Phys. Comm. 
- is available at https://www.abinit.org/sites/default/files/ABINIT_CPC_v10.pdf .
- The licence allows the authors to put it on the Web.
- DOI and bibtex: see https://docs.abinit.org/theory/bibliography/#gonze2009
-
- And optionally:
-
- [4] A brief introduction to the ABINIT software package.
- Z. Kristallogr. 220, 558-562 (2005).
- X. Gonze, G.-M. Rignanese, M. Verstraete, J.-M. Beuken, Y. Pouillon, R. Caracas, F. Jollet,
- M. Torrent, G. Zerah, M. Mikami, Ph. Ghosez, M. Veithen, J.-Y. Raty, V. Olevano, F. Bruneval,
- L. Reining, R. Godby, G. Onida, D.R. Hamann, and D.C. Allan.
- Comment: the second generic paper describing the ABINIT project. Note that this paper
- should be cited especially if you are using the GW part of ABINIT, as several authors
- of this part are not in the list of authors of the first or third paper.
- The .pdf of the latter paper is available at https://www.abinit.org/sites/default/files/zfk_0505-06_558-562.pdf.
- Note that it should not redistributed (Copyright by Oldenburg Wissenschaftverlag,
- the licence allows the authors to put it on the Web).
- DOI and bibtex: see https://docs.abinit.org/theory/bibliography/#gonze2005
-
- Proc.   0 individual time (sec): cpu=         12.0  wall=         12.2

================================================================================

 Calculation completed.
.Delivered  12 WARNINGs and  13 COMMENTs to log file.
+Overall time at end (sec) : cpu=         12.0  wall=         12.2
