
.Version 9.3.3 of ABINIT 
.(MPI version, prepared for a x86_64_linux_gnu9.3 computer) 

.Copyright (C) 1998-2020 ABINIT group . 
 ABINIT comes with ABSOLUTELY NO WARRANTY.
 It is free software, and you are welcome to redistribute it
 under certain conditions (GNU General Public License,
 see ~abinit/COPYING or http://www.gnu.org/copyleft/gpl.txt).

 ABINIT is a project of the Universite Catholique de Louvain,
 Corning Inc. and other collaborators, see ~abinit/doc/developers/contributors.txt .
 Please read https://docs.abinit.org/theory/acknowledgments for suggested
 acknowledgments of the ABINIT effort.
 For more information, see https://www.abinit.org .

.Starting date : Sat 26 Dec 2020.
- ( at 16h41 )
  
- input  file    -> /home/jzwanzig/abinit/abinit/tmp-build/gcc/fast/tests/Test_suite/tutorespfn_tffield_5/tffield_5.abi
- output file    -> tffield_5.abo
- root for input  files -> tffield_5i
- root for output files -> tffield_5o


 DATASET    1 : space group F-4 3 m (#216); Bravais cF (face-center cubic)
================================================================================
 Values of the parameters that define the memory need for DATASET  1.
     intxc =       0    ionmov =       2      iscf =       7    lmnmax =       6
     lnmax =       6     mgfft =      16  mpssoang =       3    mqgrid =    3001
     natom =       2  nloc_mem =       1    nspden =       1   nspinor =       1
    nsppol =       1      nsym =      24    n1xccc =    2501    ntypat =       2
    occopt =       1   xclevel =       1
-    mband =           4        mffmem =           1         mkmem =          28
       mpw =         174          nfft =        4096          nkpt =          28
================================================================================
P This job should need less than                       2.726 Mbytes of memory.
  Rough estimation (10% accuracy) of disk space for files :
_ WF disk file :      0.299 Mbytes ; DEN or POT disk file :      0.033 Mbytes.
================================================================================


 DATASET    2 : space group Im m 2 (# 44); Bravais oI (body-center ortho.)
================================================================================
 Values of the parameters that define the memory need for DATASET  2.
     intxc =       0    ionmov =       2      iscf =       7    lmnmax =       6
     lnmax =       6     mgfft =      16  mpssoang =       3    mqgrid =    3001
     natom =       2  nloc_mem =       1    nspden =       1   nspinor =       1
    nsppol =       1      nsym =       4    n1xccc =    2501    ntypat =       2
    occopt =       1   xclevel =       1
-    mband =           4        mffmem =           1         mkmem =         126
       mpw =         175          nfft =        4096          nkpt =         126
================================================================================
P This job should need less than                       4.031 Mbytes of memory.
  Rough estimation (10% accuracy) of disk space for files :
_ WF disk file :      1.348 Mbytes ; DEN or POT disk file :      0.033 Mbytes.
================================================================================


 DATASET    3 : space group Im m 2 (# 44); Bravais oI (body-center ortho.)
================================================================================
 Values of the parameters that define the memory need for DATASET  3.
     intxc =       0    ionmov =       2      iscf =       7    lmnmax =       6
     lnmax =       6     mgfft =      16  mpssoang =       3    mqgrid =    3001
     natom =       2  nloc_mem =       1    nspden =       1   nspinor =       1
    nsppol =       1      nsym =       4    n1xccc =    2501    ntypat =       2
    occopt =       1   xclevel =       1
-    mband =           4        mffmem =           1         mkmem =         126
       mpw =         175          nfft =        4096          nkpt =         126
================================================================================
P This job should need less than                       4.031 Mbytes of memory.
  Rough estimation (10% accuracy) of disk space for files :
_ WF disk file :      1.348 Mbytes ; DEN or POT disk file :      0.033 Mbytes.
================================================================================

--------------------------------------------------------------------------------
------------- Echo of variables that govern the present computation ------------
--------------------------------------------------------------------------------
-
- outvars: echo of selected default values                                      
-   iomode0 =  3 , fftalg0 =312 , wfoptalg0 =  0
-
- outvars: echo of global parameters not present in the input file              
-  max_nthreads =    0
-
 -outvars: echo values of preprocessed input variables --------
            acell      7.2728565836E+00  7.2728565836E+00  7.2728565836E+00 Bohr
              amu      3.09737620E+01  2.69815390E+01
         berryopt          -1
          dilatmx      1.05000000E+00
             ecut      5.00000000E+00 Hartree
           ecutsm      5.00000000E-01 Hartree
-          fftalg         312
           ionmov           2
              ixc       -1012
           jdtset        1    2    3
              kpt1    -8.33333333E-02 -1.66666667E-01  0.00000000E+00
                      -8.33333333E-02 -3.33333333E-01  0.00000000E+00
                      -1.66666667E-01 -2.50000000E-01  0.00000000E+00
                      -8.33333333E-02 -2.50000000E-01  8.33333333E-02
                      -8.33333333E-02  5.00000000E-01  0.00000000E+00
                      -1.66666667E-01 -4.16666667E-01  0.00000000E+00
                      -8.33333333E-02 -4.16666667E-01  8.33333333E-02
                      -2.50000000E-01 -3.33333333E-01  0.00000000E+00
                      -1.66666667E-01 -3.33333333E-01  8.33333333E-02
                      -8.33333333E-02 -3.33333333E-01  1.66666667E-01
                      -8.33333333E-02  3.33333333E-01  0.00000000E+00
                      -1.66666667E-01  4.16666667E-01  0.00000000E+00
                      -2.50000000E-01  5.00000000E-01  0.00000000E+00
                      -1.66666667E-01  5.00000000E-01  8.33333333E-02
                      -3.33333333E-01 -4.16666667E-01  0.00000000E+00
                      -2.50000000E-01 -4.16666667E-01  8.33333333E-02
                      -1.66666667E-01 -4.16666667E-01  1.66666667E-01
                      -8.33333333E-02 -4.16666667E-01  2.50000000E-01
                      -8.33333333E-02  1.66666667E-01  0.00000000E+00
                      -1.66666667E-01  2.50000000E-01  0.00000000E+00
                      -2.50000000E-01  3.33333333E-01  0.00000000E+00
                      -3.33333333E-01  4.16666667E-01  0.00000000E+00
                      -4.16666667E-01  5.00000000E-01  0.00000000E+00
                      -3.33333333E-01  5.00000000E-01  8.33333333E-02
                      -2.50000000E-01  5.00000000E-01  1.66666667E-01
                      -8.33333333E-02  0.00000000E+00  0.00000000E+00
                      -2.50000000E-01  0.00000000E+00  0.00000000E+00
                      -4.16666667E-01  0.00000000E+00  0.00000000E+00
              kpt2    -8.33333333E-02  0.00000000E+00  0.00000000E+00
                      -2.50000000E-01  0.00000000E+00  0.00000000E+00
                      -1.66666667E-01  0.00000000E+00  8.33333333E-02
                      -8.33333333E-02  0.00000000E+00  1.66666667E-01
                      -8.33333333E-02  8.33333333E-02  8.33333333E-02
                      -4.16666667E-01  0.00000000E+00  0.00000000E+00
                      -3.33333333E-01  0.00000000E+00  8.33333333E-02
                      -2.50000000E-01  0.00000000E+00  1.66666667E-01
                      -1.66666667E-01  0.00000000E+00  2.50000000E-01
                      -8.33333333E-02  0.00000000E+00  3.33333333E-01
                      -2.50000000E-01  8.33333333E-02  8.33333333E-02
                      -1.66666667E-01  8.33333333E-02  1.66666667E-01
                      -8.33333333E-02  8.33333333E-02  2.50000000E-01
                      -8.33333333E-02  1.66666667E-01  1.66666667E-01
                       5.00000000E-01  0.00000000E+00  8.33333333E-02
                      -4.16666667E-01  0.00000000E+00  1.66666667E-01
                      -3.33333333E-01  0.00000000E+00  2.50000000E-01
                      -2.50000000E-01  0.00000000E+00  3.33333333E-01
                      -1.66666667E-01  0.00000000E+00  4.16666667E-01
                      -8.33333333E-02  0.00000000E+00  5.00000000E-01
                      -4.16666667E-01  8.33333333E-02  8.33333333E-02
                      -3.33333333E-01  8.33333333E-02  1.66666667E-01
                      -2.50000000E-01  8.33333333E-02  2.50000000E-01
                      -1.66666667E-01  8.33333333E-02  3.33333333E-01
                      -8.33333333E-02  8.33333333E-02  4.16666667E-01
                      -2.50000000E-01  1.66666667E-01  1.66666667E-01
                      -1.66666667E-01  1.66666667E-01  2.50000000E-01
                      -8.33333333E-02  1.66666667E-01  3.33333333E-01
                      -8.33333333E-02  2.50000000E-01  2.50000000E-01
                       3.33333333E-01  0.00000000E+00  8.33333333E-02
                       4.16666667E-01  0.00000000E+00  1.66666667E-01
                       5.00000000E-01  0.00000000E+00  2.50000000E-01
                      -4.16666667E-01  0.00000000E+00  3.33333333E-01
                      -3.33333333E-01  0.00000000E+00  4.16666667E-01
                      -2.50000000E-01  0.00000000E+00  5.00000000E-01
                      -1.66666667E-01  0.00000000E+00 -4.16666667E-01
                      -8.33333333E-02  0.00000000E+00 -3.33333333E-01
                       4.16666667E-01  8.33333333E-02  8.33333333E-02
                       5.00000000E-01  8.33333333E-02  1.66666667E-01
                      -4.16666667E-01  8.33333333E-02  2.50000000E-01
                      -3.33333333E-01  8.33333333E-02  3.33333333E-01
                      -2.50000000E-01  8.33333333E-02  4.16666667E-01
                      -1.66666667E-01  8.33333333E-02  5.00000000E-01
                      -8.33333333E-02  8.33333333E-02 -4.16666667E-01
                      -4.16666667E-01  1.66666667E-01  1.66666667E-01
                      -3.33333333E-01  1.66666667E-01  2.50000000E-01
                      -2.50000000E-01  1.66666667E-01  3.33333333E-01
                      -1.66666667E-01  1.66666667E-01  4.16666667E-01
                      -8.33333333E-02  1.66666667E-01  5.00000000E-01
                      -2.50000000E-01  2.50000000E-01  2.50000000E-01
              kpt3    -8.33333333E-02  0.00000000E+00  0.00000000E+00
                      -2.50000000E-01  0.00000000E+00  0.00000000E+00
                      -1.66666667E-01  0.00000000E+00  8.33333333E-02
                      -8.33333333E-02  0.00000000E+00  1.66666667E-01
                      -8.33333333E-02  8.33333333E-02  8.33333333E-02
                      -4.16666667E-01  0.00000000E+00  0.00000000E+00
                      -3.33333333E-01  0.00000000E+00  8.33333333E-02
                      -2.50000000E-01  0.00000000E+00  1.66666667E-01
                      -1.66666667E-01  0.00000000E+00  2.50000000E-01
                      -8.33333333E-02  0.00000000E+00  3.33333333E-01
                      -2.50000000E-01  8.33333333E-02  8.33333333E-02
                      -1.66666667E-01  8.33333333E-02  1.66666667E-01
                      -8.33333333E-02  8.33333333E-02  2.50000000E-01
                      -8.33333333E-02  1.66666667E-01  1.66666667E-01
                       5.00000000E-01  0.00000000E+00  8.33333333E-02
                      -4.16666667E-01  0.00000000E+00  1.66666667E-01
                      -3.33333333E-01  0.00000000E+00  2.50000000E-01
                      -2.50000000E-01  0.00000000E+00  3.33333333E-01
                      -1.66666667E-01  0.00000000E+00  4.16666667E-01
                      -8.33333333E-02  0.00000000E+00  5.00000000E-01
                      -4.16666667E-01  8.33333333E-02  8.33333333E-02
                      -3.33333333E-01  8.33333333E-02  1.66666667E-01
                      -2.50000000E-01  8.33333333E-02  2.50000000E-01
                      -1.66666667E-01  8.33333333E-02  3.33333333E-01
                      -8.33333333E-02  8.33333333E-02  4.16666667E-01
                      -2.50000000E-01  1.66666667E-01  1.66666667E-01
                      -1.66666667E-01  1.66666667E-01  2.50000000E-01
                      -8.33333333E-02  1.66666667E-01  3.33333333E-01
                      -8.33333333E-02  2.50000000E-01  2.50000000E-01
                       3.33333333E-01  0.00000000E+00  8.33333333E-02
                       4.16666667E-01  0.00000000E+00  1.66666667E-01
                       5.00000000E-01  0.00000000E+00  2.50000000E-01
                      -4.16666667E-01  0.00000000E+00  3.33333333E-01
                      -3.33333333E-01  0.00000000E+00  4.16666667E-01
                      -2.50000000E-01  0.00000000E+00  5.00000000E-01
                      -1.66666667E-01  0.00000000E+00 -4.16666667E-01
                      -8.33333333E-02  0.00000000E+00 -3.33333333E-01
                       4.16666667E-01  8.33333333E-02  8.33333333E-02
                       5.00000000E-01  8.33333333E-02  1.66666667E-01
                      -4.16666667E-01  8.33333333E-02  2.50000000E-01
                      -3.33333333E-01  8.33333333E-02  3.33333333E-01
                      -2.50000000E-01  8.33333333E-02  4.16666667E-01
                      -1.66666667E-01  8.33333333E-02  5.00000000E-01
                      -8.33333333E-02  8.33333333E-02 -4.16666667E-01
                      -4.16666667E-01  1.66666667E-01  1.66666667E-01
                      -3.33333333E-01  1.66666667E-01  2.50000000E-01
                      -2.50000000E-01  1.66666667E-01  3.33333333E-01
                      -1.66666667E-01  1.66666667E-01  4.16666667E-01
                      -8.33333333E-02  1.66666667E-01  5.00000000E-01
                      -2.50000000E-01  2.50000000E-01  2.50000000E-01
                       outvar_i_n : Printing only first  50 k-points.
         kptrlatt1       6   -6    6     -6    6    6     -6   -6    6
         kptrlatt2       6   -6    6      6    6   -6     -6    6    6
         kptrlatt3       6   -6    6      6    6   -6     -6    6    6
          kptrlen      6.17122345E+01
P           mkmem1         28
P           mkmem2        126
P           mkmem3        126
            natom           2
            nband1          4
            nband2          4
            nband3          4
           ndtset           3
            ngfft          16      16      16
             nkpt1         28
             nkpt2        126
             nkpt3        126
            nstep           5
             nsym1         24
             nsym2          4
             nsym3          4
            ntime          13
           ntypat           2
              occ1     2.000000  2.000000  2.000000  2.000000
              occ2     2.000000  2.000000  2.000000  2.000000
              occ3     2.000000  2.000000  2.000000  2.000000
           prtden           0
           prteig           0
            prtwf           0
            rfdir           1       1       1
            rprim1     0.0000000000E+00  7.0710678119E-01  7.0710678119E-01
                       7.0710678119E-01  0.0000000000E+00  7.0710678119E-01
                       7.0710678119E-01  7.0710678119E-01  0.0000000000E+00
            rprim2     0.0000000000E+00  7.1064231509E-01  7.1064231509E-01
                       7.0710678119E-01  3.5355339060E-03  7.0710678119E-01
                       7.0710678119E-01  7.0710678119E-01  3.5355339060E-03
            rprim3     0.0000000000E+00  7.0357124728E-01  7.0357124728E-01
                       7.0710678119E-01 -3.5355339060E-03  7.0710678119E-01
                       7.0710678119E-01  7.0710678119E-01 -3.5355339060E-03
           shiftk1     5.00000000E-01  5.00000000E-01  5.00000000E-01
           shiftk2     5.00000000E-01 -5.00000000E-01  5.00000000E-01
           shiftk3     5.00000000E-01 -5.00000000E-01  5.00000000E-01
          spgroup1        216
          spgroup2         44
          spgroup3         44
           symafm1       1    1    1    1    1    1    1    1    1    1
                         1    1    1    1    1    1    1    1    1    1
                         1    1    1    1
           symafm2       1    1    1    1
           symafm3       1    1    1    1
           symrel1     1  0  0   0  1  0   0  0  1       0 -1  1   0 -1  0   1 -1  0
                      -1  0  0  -1  0  1  -1  1  0       0  1 -1   1  0 -1   0  0 -1
                      -1  0  0  -1  1  0  -1  0  1       0 -1  1   1 -1  0   0 -1  0
                       1  0  0   0  0  1   0  1  0       0  1 -1   0  0 -1   1  0 -1
                      -1  0  1  -1  1  0  -1  0  0       0 -1  0   1 -1  0   0 -1  1
                       1  0 -1   0  0 -1   0  1 -1       0  1  0   0  0  1   1  0  0
                       1  0 -1   0  1 -1   0  0 -1       0 -1  0   0 -1  1   1 -1  0
                      -1  0  1  -1  0  0  -1  1  0       0  1  0   1  0  0   0  0  1
                       0  0 -1   0  1 -1   1  0 -1       1 -1  0   0 -1  1   0 -1  0
                       0  0  1   1  0  0   0  1  0      -1  1  0  -1  0  0  -1  0  1
                       0  0  1   0  1  0   1  0  0       1 -1  0   0 -1  0   0 -1  1
                       0  0 -1   1  0 -1   0  1 -1      -1  1  0  -1  0  1  -1  0  0
           symrel2     1  0  0   0  1  0   0  0  1      -1  0  0  -1  0  1  -1  1  0
                       1  0  0   0  0  1   0  1  0      -1  0  0  -1  1  0  -1  0  1
           symrel3     1  0  0   0  1  0   0  0  1      -1  0  0  -1  0  1  -1  1  0
                       1  0  0   0  0  1   0  1  0      -1  0  0  -1  1  0  -1  0  1
            tnons1     0.0000000  0.0000000  0.0000000     0.0000000  0.0000000  0.0000000
                       0.0000000  0.0000000  0.0000000     0.0000000  0.0000000  0.0000000
                       0.0000000  0.0000000  0.0000000     0.0000000  0.0000000  0.0000000
                       0.0000000  0.0000000  0.0000000     0.0000000  0.0000000  0.0000000
                       0.0000000  0.0000000  0.0000000     0.0000000  0.0000000  0.0000000
                       0.0000000  0.0000000  0.0000000     0.0000000  0.0000000  0.0000000
                       0.0000000  0.0000000  0.0000000     0.0000000  0.0000000  0.0000000
                       0.0000000  0.0000000  0.0000000     0.0000000  0.0000000  0.0000000
                       0.0000000  0.0000000  0.0000000     0.0000000  0.0000000  0.0000000
                       0.0000000  0.0000000  0.0000000     0.0000000  0.0000000  0.0000000
                       0.0000000  0.0000000  0.0000000     0.0000000  0.0000000  0.0000000
                       0.0000000  0.0000000  0.0000000     0.0000000  0.0000000  0.0000000
            tnons2     0.0000000  0.0000000  0.0000000    -0.0000000 -0.0000000  0.0000000
                       0.0000000 -0.0000000  0.0000000    -0.0000000  0.0000000  0.0000000
            tnons3     0.0000000  0.0000000  0.0000000     0.0000000  0.0000000  0.0000000
                       0.0000000  0.0000000  0.0000000     0.0000000  0.0000000  0.0000000
           toldfe      1.00000000E-15 Hartree
           tolmxf      1.00000000E-05
           tolsym      1.00000000E-08
            typat      1  2
              wtk1       0.02778    0.02778    0.02778    0.05556    0.02778    0.02778
                         0.05556    0.02778    0.05556    0.05556    0.02778    0.02778
                         0.02778    0.05556    0.02778    0.05556    0.05556    0.05556
                         0.02778    0.02778    0.02778    0.02778    0.02778    0.05556
                         0.05556    0.00926    0.00926    0.00926
              wtk2       0.00463    0.00463    0.00926    0.00926    0.00463    0.00463
                         0.00926    0.00926    0.00926    0.00926    0.00463    0.00926
                         0.00926    0.00463    0.00926    0.00926    0.00926    0.00926
                         0.00926    0.00926    0.00463    0.00926    0.00926    0.00926
                         0.00926    0.00463    0.00926    0.00926    0.00463    0.00926
                         0.00926    0.00926    0.00926    0.00926    0.00926    0.00926
                         0.00926    0.00463    0.00926    0.00926    0.00926    0.00926
                         0.00926    0.00926    0.00463    0.00926    0.00926    0.00926
                         0.00926    0.00463
              wtk3       0.00463    0.00463    0.00926    0.00926    0.00463    0.00463
                         0.00926    0.00926    0.00926    0.00926    0.00463    0.00926
                         0.00926    0.00463    0.00926    0.00926    0.00926    0.00926
                         0.00926    0.00926    0.00463    0.00926    0.00926    0.00926
                         0.00926    0.00463    0.00926    0.00926    0.00463    0.00926
                         0.00926    0.00926    0.00926    0.00926    0.00926    0.00926
                         0.00926    0.00463    0.00926    0.00926    0.00926    0.00926
                         0.00926    0.00926    0.00463    0.00926    0.00926    0.00926
                         0.00926    0.00463
                       outvars : Printing only first  50 k-points.
           xangst1     1.3606961663E+00  1.3606961663E+00  1.3606961663E+00
                       0.0000000000E+00  0.0000000000E+00  0.0000000000E+00
           xangst2     1.3606961663E+00  1.3674996472E+00  1.3674996472E+00
                       0.0000000000E+00  0.0000000000E+00  0.0000000000E+00
           xangst3     1.3606961663E+00  1.3538926855E+00  1.3538926855E+00
                       0.0000000000E+00  0.0000000000E+00  0.0000000000E+00
            xcart1     2.5713431044E+00  2.5713431044E+00  2.5713431044E+00
                       0.0000000000E+00  0.0000000000E+00  0.0000000000E+00
            xcart2     2.5713431044E+00  2.5841998200E+00  2.5841998200E+00
                       0.0000000000E+00  0.0000000000E+00  0.0000000000E+00
            xcart3     2.5713431044E+00  2.5584863889E+00  2.5584863889E+00
                       0.0000000000E+00  0.0000000000E+00  0.0000000000E+00
             xred      2.5000000000E-01  2.5000000000E-01  2.5000000000E-01
                       0.0000000000E+00  0.0000000000E+00  0.0000000000E+00
            znucl       15.00000   13.00000

================================================================================

 chkinp: Checking input parameters for consistency, jdtset=   1.

 chkinp: Checking input parameters for consistency, jdtset=   2.

 chkinp: Checking input parameters for consistency, jdtset=   3.

================================================================================
== DATASET  1 ==================================================================
-   mpi_nproc: 1, omp_nthreads: -1 (-1 if OMP is not activated)


--- !DatasetInfo
iteration_state: {dtset: 1, }
dimensions: {natom: 2, nkpt: 28, mband: 4, nsppol: 1, nspinor: 1, nspden: 1, mpw: 174, }
cutoff_energies: {ecut:   5.0, pawecutdg:  -1.0, }
electrons: {nelect:   8.00000000E+00, charge:   0.00000000E+00, occopt:   1.00000000E+00, tsmear:   1.00000000E-02, }
meta: {optdriver: 0, ionmov: 2, optcell: 0, iscf: 7, paral_kgb: 0, }
...

 Real(R)+Recip(G) space primitive vectors, cartesian coordinates (Bohr,Bohr^-1):
 R(1)=  0.0000000  5.1426862  5.1426862  G(1)= -0.0972255  0.0972255  0.0972255
 R(2)=  5.1426862  0.0000000  5.1426862  G(2)=  0.0972255 -0.0972255  0.0972255
 R(3)=  5.1426862  5.1426862  0.0000000  G(3)=  0.0972255  0.0972255 -0.0972255
 Unit cell volume ucvol=  2.7201952E+02 bohr^3
 Angles (23,13,12)=  6.00000000E+01  6.00000000E+01  6.00000000E+01 degrees

 getcut: wavevector=  0.0000  0.0000  0.0000  ngfft=  16  16  16
         ecut(hartree)=      5.513   => boxcut(ratio)=   2.08150

--- Pseudopotential description ------------------------------------------------
- pspini: atom type   1  psp file is /home/jzwanzig/abinit/abinit/tests/Psps_for_tests/Pseudodojo_nc_sr_04_pw_standard_psp8/P.psp8
- pspatm: opening atomic psp file    /home/jzwanzig/abinit/abinit/tests/Psps_for_tests/Pseudodojo_nc_sr_04_pw_standard_psp8/P.psp8
- P     ONCVPSP-3.3.0  r_core=   1.46089   1.55067   1.70594
- 15.00000   5.00000    171102                znucl, zion, pspdat
    8   -1012    2    4       600   0.00000   pspcod,pspxc,lmax,lloc,mmax,r2well
    5.99000000000000    5.00000000000000    0.00000000000000   rchrg,fchrg,qchrg
     nproj     2     2     2
     extension_switch     1
  pspatm : epsatm=    7.03163490
         --- l  ekb(1:nproj) -->
             0    6.795192    1.078292
             1    3.452929    0.907117
             2   -3.024864   -0.802189
 pspatm: atomic psp has been read  and splines computed

- pspini: atom type   2  psp file is /home/jzwanzig/abinit/abinit/tests/Psps_for_tests/Pseudodojo_nc_sr_04_pw_standard_psp8/Al.psp8
- pspatm: opening atomic psp file    /home/jzwanzig/abinit/abinit/tests/Psps_for_tests/Pseudodojo_nc_sr_04_pw_standard_psp8/Al.psp8
- Al    ONCVPSP-3.3.0  r_core=   1.76802   1.76802   1.70587
- 13.00000   3.00000    171102                znucl, zion, pspdat
    8   -1012    2    4       600   0.00000   pspcod,pspxc,lmax,lloc,mmax,r2well
    5.99000000000000    5.00000000000000    0.00000000000000   rchrg,fchrg,qchrg
     nproj     2     2     2
     extension_switch     1
  pspatm : epsatm=    0.57439192
         --- l  ekb(1:nproj) -->
             0    5.725870    0.726131
             1    6.190420    0.914022
             2   -4.229503   -0.925599
 pspatm: atomic psp has been read  and splines computed

   6.08482146E+01                                ecore*ucvol(ha*bohr**3)
--------------------------------------------------------------------------------

_setup2: Arith. and geom. avg. npw (full set) are     167.843     167.817
  initberry: for direction 1, nkstr =   6, nstr =    144
  initberry: for direction 2, nkstr =   6, nstr =    144
  initberry: for direction 3, nkstr =   6, nstr =    144

================================================================================

=== [ionmov= 2] Broyden-Fletcher-Goldfard-Shanno method (forces)            
================================================================================

--- Iteration: ( 1/13) Internal Cycle: (1/1)
--------------------------------------------------------------------------------

---SELF-CONSISTENT-FIELD CONVERGENCE--------------------------------------------

--- !BeginCycle
iteration_state: {dtset: 1, itime: 1, icycle: 1, }
solver: {iscf: 7, nstep: 5, nline: 4, wfoptalg: 0, }
tolerances: {toldfe: 1.00E-15, }
...

     iter   Etot(hartree)      deltaE(h)  residm     vres2
 ETOT  1  -9.2741672565630    -9.274E+00 1.231E-02 3.673E+00
 ETOT  2  -9.2840973975341    -9.930E-03 1.956E-05 1.584E-01
 ETOT  3  -9.2844340680046    -3.367E-04 2.699E-06 4.366E-03
 ETOT  4  -9.2844384858110    -4.418E-06 1.995E-08 1.255E-04
 ETOT  5  -9.2844385675779    -8.177E-08 3.534E-10 1.028E-06

 Computing the polarization (Berry phase) for reciprocal vector:
  0.16667  0.00000  0.00000 (in reduced coordinates)
 -0.01620  0.01620  0.01620 (in cartesian coordinates - atomic units)
 Number of strings:   144
 Number of k points in string:    6

 Summary of the results
 Electronic Berry phase     2.206686324E-03
            Ionic phase    -7.500000000E-01
            Total phase    -7.477933137E-01
    Remapping in [-1,1]    -7.477933137E-01

           Polarization    -1.632453798E-02 (a.u. of charge)/bohr^2
           Polarization    -9.340045469E-01 C/m^2


 Computing the polarization (Berry phase) for reciprocal vector:
  0.00000  0.16667  0.00000 (in reduced coordinates)
  0.01620 -0.01620  0.01620 (in cartesian coordinates - atomic units)
 Number of strings:   144
 Number of k points in string:    6

 Summary of the results
 Electronic Berry phase     2.206686324E-03
            Ionic phase    -7.500000000E-01
            Total phase    -7.477933137E-01
    Remapping in [-1,1]    -7.477933137E-01

           Polarization    -1.632453798E-02 (a.u. of charge)/bohr^2
           Polarization    -9.340045469E-01 C/m^2


 Computing the polarization (Berry phase) for reciprocal vector:
  0.00000  0.00000  0.16667 (in reduced coordinates)
  0.01620  0.01620 -0.01620 (in cartesian coordinates - atomic units)
 Number of strings:   144
 Number of k points in string:    6

 Summary of the results
 Electronic Berry phase     2.206686324E-03
            Ionic phase    -7.500000000E-01
            Total phase    -7.477933137E-01
    Remapping in [-1,1]    -7.477933137E-01

           Polarization    -1.632453798E-02 (a.u. of charge)/bohr^2
           Polarization    -9.340045469E-01 C/m^2


 Polarization in cartesian coordinates (a.u.):
 (the sum of the electronic and ionic Berry phase has been folded into [-1, 1])
     Electronic berry phase:        0.834373595E-04   0.834373595E-04   0.834373595E-04
     Ionic:                        -0.283583666E-01  -0.283583666E-01  -0.283583666E-01  
     Total:                        -0.282749292E-01  -0.282749292E-01  -0.282749292E-01

 Polarization in cartesian coordinates (C/m^2):
 (the sum of the electronic and ionic Berry phase has been folded into [-1, 1])
     Electronic berry phase:        0.477384862E-02   0.477384862E-02   0.477384862E-02
     Ionic:                        -0.162251718E+01  -0.162251718E+01  -0.162251718E+01  
     Total:                        -0.161774333E+01  -0.161774333E+01  -0.161774333E+01

 Cartesian components of stress tensor (hartree/bohr^3)
  sigma(1 1)= -2.89669683E-08  sigma(3 2)=  0.00000000E+00
  sigma(2 2)= -2.89669683E-08  sigma(3 1)=  0.00000000E+00
  sigma(3 3)= -2.89669683E-08  sigma(2 1)=  0.00000000E+00


 scprqt:  WARNING -
  nstep=    5 was not enough SCF cycles to converge;
  maximum energy difference=  8.177E-08 exceeds toldfe=  1.000E-15


--- !ResultsGS
iteration_state: {dtset: 1, itime: 1, icycle: 1, }
comment   : Summary of ground state results
lattice_vectors:
- [  0.0000000,   5.1426862,   5.1426862, ]
- [  5.1426862,   0.0000000,   5.1426862, ]
- [  5.1426862,   5.1426862,   0.0000000, ]
lattice_lengths: [   7.27286,    7.27286,    7.27286, ]
lattice_angles: [ 60.000,  60.000,  60.000, ] # degrees, (23, 13, 12)
lattice_volume:   2.7201952E+02
convergence: {deltae: -8.177E-08, res2:  1.028E-06, residm:  3.534E-10, diffor: null, }
etotal    :  -9.28443857E+00
entropy   :   0.00000000E+00
fermie    :   1.47764479E-01
cartesian_stress_tensor: # hartree/bohr^3
- [ -2.89669683E-08,   0.00000000E+00,   0.00000000E+00, ]
- [  0.00000000E+00,  -2.89669683E-08,   0.00000000E+00, ]
- [  0.00000000E+00,   0.00000000E+00,  -2.89669683E-08, ]
pressure_GPa:   8.5224E-04
xred      :
- [  2.5000E-01,   2.5000E-01,   2.5000E-01,  P]
- [  0.0000E+00,   0.0000E+00,   0.0000E+00, Al]
cartesian_forces: # hartree/bohr
- [ -0.00000000E+00,  -0.00000000E+00,  -0.00000000E+00, ]
- [ -0.00000000E+00,  -0.00000000E+00,  -0.00000000E+00, ]
force_length_stats: {min:   0.00000000E+00, max:   0.00000000E+00, mean:   0.00000000E+00, }
...

 Integrated electronic density in atomic spheres:
 ------------------------------------------------
 Atom  Sphere_radius  Integrated_density
    1        2.00000          2.91221476
    2        2.00000          0.97939238

---OUTPUT-----------------------------------------------------------------------

 Cartesian coordinates (xcart) [bohr]
  2.57134310444295E+00  2.57134310444295E+00  2.57134310444295E+00
  0.00000000000000E+00  0.00000000000000E+00  0.00000000000000E+00
 Reduced coordinates (xred)
  2.50000000000000E-01  2.50000000000000E-01  2.50000000000000E-01
  0.00000000000000E+00  0.00000000000000E+00  0.00000000000000E+00
 Cartesian forces (fcart) [Ha/bohr]; max,rms= 0.00000E+00 0.00000E+00 (free atoms)
 -0.00000000000000E+00 -0.00000000000000E+00 -0.00000000000000E+00
 -0.00000000000000E+00 -0.00000000000000E+00 -0.00000000000000E+00
 Reduced forces (fred)
  0.00000000000000E+00  0.00000000000000E+00  0.00000000000000E+00
  0.00000000000000E+00  0.00000000000000E+00  0.00000000000000E+00
 Total energy (etotal) [Ha]= -9.28443856757789E+00

 At Broyd/MD step   1, gradients are converged : 
  max grad (force/stress) = 0.0000E+00 < tolmxf= 1.0000E-05 ha/bohr (free atoms)

================================================================================

 ----iterations are completed or convergence reached----

 Mean square residual over all n,k,spin=   13.251E-11; max=  35.341E-11
 reduced coordinates (array xred) for    2 atoms
       0.250000000000      0.250000000000      0.250000000000
       0.000000000000      0.000000000000      0.000000000000
 rms dE/dt=  0.0000E+00; max dE/dt=  0.0000E+00; dE/dt below (all hartree)
    1       0.000000000000      0.000000000000      0.000000000000
    2       0.000000000000      0.000000000000      0.000000000000

 cartesian coordinates (angstrom) at end:
    1      1.36069616633626     1.36069616633626     1.36069616633626
    2      0.00000000000000     0.00000000000000     0.00000000000000

 cartesian forces (hartree/bohr) at end:
    1     -0.00000000000000    -0.00000000000000    -0.00000000000000
    2     -0.00000000000000    -0.00000000000000    -0.00000000000000
 frms,max,avg= 0.0000000E+00 0.0000000E+00   0.000E+00  0.000E+00  0.000E+00 h/b

 cartesian forces (eV/Angstrom) at end:
    1     -0.00000000000000    -0.00000000000000    -0.00000000000000
    2     -0.00000000000000    -0.00000000000000    -0.00000000000000
 frms,max,avg= 0.0000000E+00 0.0000000E+00   0.000E+00  0.000E+00  0.000E+00 e/A
 length scales=  7.272856583600  7.272856583600  7.272856583600 bohr
              =  3.848629945385  3.848629945385  3.848629945385 angstroms
 Fermi (or HOMO) energy (hartree) =   0.14776   Average Vxc (hartree)=  -0.34161
 Eigenvalues (hartree) for nkpt=  28  k points:
 kpt#   1, nband=  4, wtk=  0.02778, kpt= -0.0833 -0.1667  0.0000 (reduced coord)
  -0.24354    0.09967    0.13341    0.13824
 prteigrs : prtvol=0 or 1, do not print more k-points.


--- !EnergyTerms
iteration_state     : {dtset: 1, itime: 1, icycle: 1, }
comment             : Components of total free energy in Hartree
kinetic             :  3.34100303833316E+00
hartree             :  8.79636748775878E-01
xc                  : -3.16747612945764E+00
Ewald energy        : -8.74753884992007E+00
psp_core            :  2.23690616503296E-01
local_psp           : -3.33508879926922E+00
non_local_psp       :  1.52133480745672E+00
total_energy        : -9.28443856757789E+00
total_energy_eV     : -2.52642421786951E+02
band_energy         : -4.46300944624854E-02
...


 Cartesian components of stress tensor (hartree/bohr^3)
  sigma(1 1)= -2.89669683E-08  sigma(3 2)=  0.00000000E+00
  sigma(2 2)= -2.89669683E-08  sigma(3 1)=  0.00000000E+00
  sigma(3 3)= -2.89669683E-08  sigma(2 1)=  0.00000000E+00

-Cartesian components of stress tensor (GPa)         [Pressure=  8.5224E-04 GPa]
- sigma(1 1)= -8.52237487E-04  sigma(3 2)=  0.00000000E+00
- sigma(2 2)= -8.52237487E-04  sigma(3 1)=  0.00000000E+00
- sigma(3 3)= -8.52237487E-04  sigma(2 1)=  0.00000000E+00

================================================================================
== DATASET  2 ==================================================================
-   mpi_nproc: 1, omp_nthreads: -1 (-1 if OMP is not activated)


--- !DatasetInfo
iteration_state: {dtset: 2, }
dimensions: {natom: 2, nkpt: 126, mband: 4, nsppol: 1, nspinor: 1, nspden: 1, mpw: 175, }
cutoff_energies: {ecut:   5.0, pawecutdg:  -1.0, }
electrons: {nelect:   8.00000000E+00, charge:   0.00000000E+00, occopt:   1.00000000E+00, tsmear:   1.00000000E-02, }
meta: {optdriver: 0, ionmov: 2, optcell: 0, iscf: 7, paral_kgb: 0, }
...

 Real(R)+Recip(G) space primitive vectors, cartesian coordinates (Bohr,Bohr^-1):
 R(1)=  0.0000000  5.1683996  5.1683996  G(1)= -0.0972255  0.0967417  0.0967417
 R(2)=  5.1426862  0.0257134  5.1426862  G(2)=  0.0972255 -0.0977140  0.0977140
 R(3)=  5.1426862  5.1426862  0.0257134  G(3)=  0.0972255  0.0977140 -0.0977140
 Unit cell volume ucvol=  2.7201272E+02 bohr^3
 Angles (23,13,12)=  5.96690667E+01  5.98346712E+01  5.98346712E+01 degrees

 getcut: wavevector=  0.0000  0.0000  0.0000  ngfft=  16  16  16
         ecut(hartree)=      5.513   => boxcut(ratio)=   2.07114
--------------------------------------------------------------------------------

_setup2: Arith. and geom. avg. npw (full set) are     168.120     168.096
  initberry: for direction 1, nkstr =   6, nstr =    144
  initberry: for direction 2, nkstr =   6, nstr =    144
  initberry: for direction 3, nkstr =   6, nstr =    144

================================================================================

=== [ionmov= 2] Broyden-Fletcher-Goldfard-Shanno method (forces)            
================================================================================

--- Iteration: ( 1/13) Internal Cycle: (1/1)
--------------------------------------------------------------------------------

---SELF-CONSISTENT-FIELD CONVERGENCE--------------------------------------------

--- !BeginCycle
iteration_state: {dtset: 2, itime: 1, icycle: 1, }
solver: {iscf: 7, nstep: 5, nline: 4, wfoptalg: 0, }
tolerances: {toldfe: 1.00E-15, }
...

     iter   Etot(hartree)      deltaE(h)  residm     vres2
 ETOT  1  -9.2750532872660    -9.275E+00 5.297E-02 3.681E+00
 ETOT  2  -9.2840507714032    -8.997E-03 1.755E-05 1.593E-01
 ETOT  3  -9.2843894481662    -3.387E-04 2.754E-06 4.396E-03
 ETOT  4  -9.2843938957419    -4.448E-06 2.285E-08 1.263E-04
 ETOT  5  -9.2843939784272    -8.269E-08 3.960E-10 1.083E-06

 Computing the polarization (Berry phase) for reciprocal vector:
  0.16667  0.00000  0.00000 (in reduced coordinates)
 -0.01620  0.01612  0.01612 (in cartesian coordinates - atomic units)
 Number of strings:   144
 Number of k points in string:    6

 Summary of the results
 Electronic Berry phase     5.175847877E-03
            Ionic phase    -7.500000000E-01
            Total phase    -7.448241521E-01
    Remapping in [-1,1]    -7.448241521E-01

           Polarization    -1.631419193E-02 (a.u. of charge)/bohr^2
           Polarization    -9.334125998E-01 C/m^2


 Computing the polarization (Berry phase) for reciprocal vector:
  0.00000  0.16667  0.00000 (in reduced coordinates)
  0.01620 -0.01629  0.01629 (in cartesian coordinates - atomic units)
 Number of strings:   144
 Number of k points in string:    6

 Summary of the results
 Electronic Berry phase    -7.610092940E-04
            Ionic phase    -7.500000000E-01
            Total phase    -7.507610093E-01
    Remapping in [-1,1]    -7.507610093E-01

           Polarization    -1.633496418E-02 (a.u. of charge)/bohr^2
           Polarization    -9.346010791E-01 C/m^2


 Computing the polarization (Berry phase) for reciprocal vector:
  0.00000  0.00000  0.16667 (in reduced coordinates)
  0.01620  0.01629 -0.01629 (in cartesian coordinates - atomic units)
 Number of strings:   144
 Number of k points in string:    6

 Summary of the results
 Electronic Berry phase    -7.610092940E-04
            Ionic phase    -7.500000000E-01
            Total phase    -7.507610093E-01
    Remapping in [-1,1]    -7.507610093E-01

           Polarization    -1.633496418E-02 (a.u. of charge)/bohr^2
           Polarization    -9.346010791E-01 C/m^2


 Polarization in cartesian coordinates (a.u.):
 (the sum of the electronic and ionic Berry phase has been folded into [-1, 1])
     Electronic berry phase:       -0.287753601E-04   0.838844964E-04   0.838844964E-04
     Ionic:                        -0.283590755E-01  -0.285008709E-01  -0.285008709E-01  
     Total:                        -0.283878509E-01  -0.284169864E-01  -0.284169864E-01

 Polarization in cartesian coordinates (C/m^2):
 (the sum of the electronic and ionic Berry phase has been folded into [-1, 1])
     Electronic berry phase:       -0.164637536E-02   0.479943145E-02   0.479943145E-02
     Ionic:                        -0.162255774E+01  -0.163067053E+01  -0.163067053E+01  
     Total:                        -0.162420412E+01  -0.162587110E+01  -0.162587110E+01

 Cartesian components of stress tensor (hartree/bohr^3)
  sigma(1 1)= -4.28778298E-07  sigma(3 2)=  3.27333572E-05
  sigma(2 2)= -2.15817851E-07  sigma(3 1)= -3.62700863E-15
  sigma(3 3)= -2.15817851E-07  sigma(2 1)= -3.62714416E-15


 scprqt:  WARNING -
  nstep=    5 was not enough SCF cycles to converge;
  maximum energy difference=  8.269E-08 exceeds toldfe=  1.000E-15


--- !ResultsGS
iteration_state: {dtset: 2, itime: 1, icycle: 1, }
comment   : Summary of ground state results
lattice_vectors:
- [  0.0000000,   5.1683996,   5.1683996, ]
- [  5.1426862,   0.0257134,   5.1426862, ]
- [  5.1426862,   5.1426862,   0.0257134, ]
lattice_lengths: [   7.30922,    7.27290,    7.27290, ]
lattice_angles: [ 59.669,  59.835,  59.835, ] # degrees, (23, 13, 12)
lattice_volume:   2.7201272E+02
convergence: {deltae: -8.269E-08, res2:  1.083E-06, residm:  3.960E-10, diffor: null, }
etotal    :  -9.28439398E+00
entropy   :   0.00000000E+00
fermie    :   1.48510344E-01
cartesian_stress_tensor: # hartree/bohr^3
- [ -4.28778298E-07,  -3.62714416E-15,  -3.62700863E-15, ]
- [ -3.62714416E-15,  -2.15817851E-07,   3.27333572E-05, ]
- [ -3.62700863E-15,   3.27333572E-05,  -2.15817851E-07, ]
pressure_GPa:   8.4381E-03
xred      :
- [  2.5000E-01,   2.5000E-01,   2.5000E-01,  P]
- [  0.0000E+00,   0.0000E+00,   0.0000E+00, Al]
cartesian_forces: # hartree/bohr
- [ -1.73164788E-03,   1.08420217E-19,  -1.08420217E-19, ]
- [  1.73164788E-03,  -1.08420217E-19,   1.08420217E-19, ]
force_length_stats: {min:   1.73164788E-03, max:   1.73164788E-03, mean:   1.73164788E-03, }
...

 Integrated electronic density in atomic spheres:
 ------------------------------------------------
 Atom  Sphere_radius  Integrated_density
    1        2.00000          2.91214945
    2        2.00000          0.97939058

---OUTPUT-----------------------------------------------------------------------

 Cartesian coordinates (xcart) [bohr]
  2.57134310444295E+00  2.58419981995443E+00  2.58419981995443E+00
  0.00000000000000E+00  0.00000000000000E+00  0.00000000000000E+00
 Reduced coordinates (xred)
  2.50000000000000E-01  2.50000000000000E-01  2.50000000000000E-01
  0.00000000000000E+00  0.00000000000000E+00  0.00000000000000E+00
 Cartesian forces (fcart) [Ha/bohr]; max,rms= 1.73165E-03 9.99767E-04 (free atoms)
 -1.73164788249055E-03  1.08420217248550E-19 -1.08420217248550E-19
  1.73164788249055E-03 -1.08420217248550E-19  1.08420217248550E-19
 Reduced forces (fred)
 -0.00000000000000E+00  8.90532168393063E-03  8.90532168393063E-03
 -0.00000000000000E+00 -8.90532168393063E-03 -8.90532168393063E-03
 Total energy (etotal) [Ha]= -9.28439397842724E+00

--- Iteration: ( 2/13) Internal Cycle: (1/1)
--------------------------------------------------------------------------------

---SELF-CONSISTENT-FIELD CONVERGENCE--------------------------------------------

--- !BeginCycle
iteration_state: {dtset: 2, itime: 2, icycle: 1, }
solver: {iscf: 7, nstep: 5, nline: 4, wfoptalg: 0, }
tolerances: {toldfe: 1.00E-15, }
...

     iter   Etot(hartree)      deltaE(h)  residm     vres2
 ETOT  1  -9.2843989243753    -9.284E+00 3.336E-11 2.101E-04
 ETOT  2  -9.2843993233349    -3.990E-07 1.211E-11 4.502E-06
 ETOT  3  -9.2843993331214    -9.787E-09 2.829E-10 2.660E-07
 ETOT  4  -9.2843993335089    -3.875E-10 9.919E-12 1.535E-08
 ETOT  5  -9.2843993335323    -2.342E-11 1.431E-12 9.595E-10

 Computing the polarization (Berry phase) for reciprocal vector:
  0.16667  0.00000  0.00000 (in reduced coordinates)
 -0.01620  0.01612  0.01612 (in cartesian coordinates - atomic units)
 Number of strings:   144
 Number of k points in string:    6

 Summary of the results
 Electronic Berry phase     4.082973197E-03
            Ionic phase    -7.496632795E-01
            Total phase    -7.455803063E-01
    Remapping in [-1,1]    -7.455803063E-01

           Polarization    -1.633075429E-02 (a.u. of charge)/bohr^2
           Polarization    -9.343602112E-01 C/m^2


 Computing the polarization (Berry phase) for reciprocal vector:
  0.00000  0.16667  0.00000 (in reduced coordinates)
  0.01620 -0.01629  0.01629 (in cartesian coordinates - atomic units)
 Number of strings:   144
 Number of k points in string:    6

 Summary of the results
 Electronic Berry phase     3.320693606E-04
            Ionic phase    -7.503367205E-01
            Total phase    -7.500046511E-01
    Remapping in [-1,1]    -7.500046511E-01

           Polarization    -1.631850743E-02 (a.u. of charge)/bohr^2
           Polarization    -9.336595103E-01 C/m^2


 Computing the polarization (Berry phase) for reciprocal vector:
  0.00000  0.00000  0.16667 (in reduced coordinates)
  0.01620  0.01629 -0.01629 (in cartesian coordinates - atomic units)
 Number of strings:   144
 Number of k points in string:    6

 Summary of the results
 Electronic Berry phase     3.320693606E-04
            Ionic phase    -7.503367205E-01
            Total phase    -7.500046511E-01
    Remapping in [-1,1]    -7.500046511E-01

           Polarization    -1.631850743E-02 (a.u. of charge)/bohr^2
           Polarization    -9.336595103E-01 C/m^2


 Polarization in cartesian coordinates (a.u.):
 (the sum of the electronic and ionic Berry phase has been folded into [-1, 1])
     Electronic berry phase:        0.125562401E-04   0.838883720E-04   0.838883720E-04
     Ionic:                        -0.283718076E-01  -0.285008709E-01  -0.285008709E-01  
     Total:                        -0.283592514E-01  -0.284169825E-01  -0.284169825E-01

 Polarization in cartesian coordinates (C/m^2):
 (the sum of the electronic and ionic Berry phase has been folded into [-1, 1])
     Electronic berry phase:        0.718402283E-03   0.479965319E-02   0.479965319E-02
     Ionic:                        -0.162328621E+01  -0.163067053E+01  -0.163067053E+01  
     Total:                        -0.162256780E+01  -0.162587088E+01  -0.162587088E+01

 Cartesian components of stress tensor (hartree/bohr^3)
  sigma(1 1)= -3.21746170E-07  sigma(3 2)=  3.05214048E-05
  sigma(2 2)= -9.90415396E-08  sigma(3 1)= -3.61811140E-15
  sigma(3 3)= -9.90415396E-08  sigma(2 1)= -3.61825370E-15


 scprqt:  WARNING -
  nstep=    5 was not enough SCF cycles to converge;
  maximum energy difference=  2.342E-11 exceeds toldfe=  1.000E-15


--- !ResultsGS
iteration_state: {dtset: 2, itime: 2, icycle: 1, }
comment   : Summary of ground state results
lattice_vectors:
- [  0.0000000,   5.1683996,   5.1683996, ]
- [  5.1426862,   0.0257134,   5.1426862, ]
- [  5.1426862,   5.1426862,   0.0257134, ]
lattice_lengths: [   7.30922,    7.27290,    7.27290, ]
lattice_angles: [ 59.669,  59.835,  59.835, ] # degrees, (23, 13, 12)
lattice_volume:   2.7201272E+02
convergence: {deltae: -2.342E-11, res2:  9.595E-10, residm:  1.431E-12, diffor: null, }
etotal    :  -9.28439933E+00
entropy   :   0.00000000E+00
fermie    :   1.48683635E-01
cartesian_stress_tensor: # hartree/bohr^3
- [ -3.21746170E-07,  -3.61825370E-15,  -3.61811140E-15, ]
- [ -3.61825370E-15,  -9.90415396E-08,   3.05214048E-05, ]
- [ -3.61811140E-15,   3.05214048E-05,  -9.90415396E-08, ]
pressure_GPa:   5.0980E-03
xred      :
- [  2.5017E-01,   2.4983E-01,   2.4983E-01,  P]
- [ -1.6836E-04,   1.6836E-04,   1.6836E-04, Al]
cartesian_forces: # hartree/bohr
- [ -1.36249744E-03,   5.42101086E-20,  -5.42101086E-20, ]
- [  1.36249744E-03,  -5.42101086E-20,   5.42101086E-20, ]
force_length_stats: {min:   1.36249744E-03, max:   1.36249744E-03, mean:   1.36249744E-03, }
...

 Integrated electronic density in atomic spheres:
 ------------------------------------------------
 Atom  Sphere_radius  Integrated_density
    1        2.00000          2.91214722
    2        2.00000          0.97937413

---OUTPUT-----------------------------------------------------------------------

 Cartesian coordinates (xcart) [bohr]
  2.56961145656046E+00  2.58419981995443E+00  2.58419981995443E+00
  1.73164788249055E-03  6.62816156127288E-15  6.34416666065157E-15
 Reduced coordinates (xred)
  2.50168360251059E-01  2.49831639748941E-01  2.49831639748941E-01
 -1.68360251059087E-04  1.68360251058892E-04  1.68360251058948E-04
 Cartesian forces (fcart) [Ha/bohr]; max,rms= 1.36250E-03 7.86638E-04 (free atoms)
 -1.36249743674875E-03  5.42101086242752E-20 -5.42101086242752E-20
  1.36249743674875E-03 -5.42101086242752E-20  5.42101086242752E-20
 Reduced forces (fred)
 -0.00000000000000E+00  7.00689677761021E-03  7.00689677761021E-03
 -0.00000000000000E+00 -7.00689677761021E-03 -7.00689677761021E-03
 Total energy (etotal) [Ha]= -9.28439933353231E+00

 Difference of energy with previous step (new-old):
           Absolute (Ha)=-5.35511E-06
           Relative     =-5.76785E-07

--- Iteration: ( 3/13) Internal Cycle: (1/1)
--------------------------------------------------------------------------------

---SELF-CONSISTENT-FIELD CONVERGENCE--------------------------------------------

--- !BeginCycle
iteration_state: {dtset: 2, itime: 3, icycle: 1, }
solver: {iscf: 7, nstep: 5, nline: 4, wfoptalg: 0, }
tolerances: {toldfe: 1.00E-15, }
...

     iter   Etot(hartree)      deltaE(h)  residm     vres2
 ETOT  1  -9.2844024637533    -9.284E+00 4.480E-10 2.887E-03
 ETOT  2  -9.2844079510962    -5.487E-06 1.710E-10 6.130E-05
 ETOT  3  -9.2844080845349    -1.334E-07 3.934E-09 3.615E-06
 ETOT  4  -9.2844080897886    -5.254E-09 1.329E-10 2.067E-07
 ETOT  5  -9.2844080901044    -3.158E-10 1.902E-11 1.303E-08

 Computing the polarization (Berry phase) for reciprocal vector:
  0.16667  0.00000  0.00000 (in reduced coordinates)
 -0.01620  0.01612  0.01612 (in cartesian coordinates - atomic units)
 Number of strings:   144
 Number of k points in string:    6

 Summary of the results
 Electronic Berry phase     3.918182442E-05
            Ionic phase    -7.484204777E-01
            Total phase    -7.483812959E-01
    Remapping in [-1,1]    -7.483812959E-01

           Polarization    -1.639210552E-02 (a.u. of charge)/bohr^2
           Polarization    -9.378704075E-01 C/m^2


 Computing the polarization (Berry phase) for reciprocal vector:
  0.00000  0.16667  0.00000 (in reduced coordinates)
  0.01620 -0.01629  0.01629 (in cartesian coordinates - atomic units)
 Number of strings:   144
 Number of k points in string:    6

 Summary of the results
 Electronic Berry phase     4.375129317E-03
            Ionic phase    -7.515795223E-01
            Total phase    -7.472043929E-01
    Remapping in [-1,1]    -7.472043929E-01

           Polarization    -1.625757976E-02 (a.u. of charge)/bohr^2
           Polarization    -9.301735483E-01 C/m^2


 Computing the polarization (Berry phase) for reciprocal vector:
  0.00000  0.00000  0.16667 (in reduced coordinates)
  0.01620  0.01629 -0.01629 (in cartesian coordinates - atomic units)
 Number of strings:   144
 Number of k points in string:    6

 Summary of the results
 Electronic Berry phase     4.375129317E-03
            Ionic phase    -7.515795223E-01
            Total phase    -7.472043929E-01
    Remapping in [-1,1]    -7.472043929E-01

           Polarization    -1.625757976E-02 (a.u. of charge)/bohr^2
           Polarization    -9.301735483E-01 C/m^2


 Polarization in cartesian coordinates (a.u.):
 (the sum of the electronic and ionic Berry phase has been folded into [-1, 1])
     Electronic berry phase:        0.165432830E-03   0.838744747E-04   0.838744747E-04
     Ionic:                        -0.284188006E-01  -0.285008709E-01  -0.285008709E-01  
     Total:                        -0.282533678E-01  -0.284169964E-01  -0.284169964E-01

 Polarization in cartesian coordinates (C/m^2):
 (the sum of the electronic and ionic Berry phase has been folded into [-1, 1])
     Electronic berry phase:        0.946519993E-02   0.479885806E-02   0.479885806E-02
     Ionic:                        -0.162597490E+01  -0.163067053E+01  -0.163067053E+01  
     Total:                        -0.161650970E+01  -0.162587167E+01  -0.162587167E+01

 Cartesian components of stress tensor (hartree/bohr^3)
  sigma(1 1)= -1.93874874E-08  sigma(3 2)=  2.23930982E-05
  sigma(2 2)=  1.23479913E-07  sigma(3 1)= -3.58455873E-15
  sigma(3 3)=  1.23479913E-07  sigma(2 1)= -3.58453501E-15


 scprqt:  WARNING -
  nstep=    5 was not enough SCF cycles to converge;
  maximum energy difference=  3.158E-10 exceeds toldfe=  1.000E-15


--- !ResultsGS
iteration_state: {dtset: 2, itime: 3, icycle: 1, }
comment   : Summary of ground state results
lattice_vectors:
- [  0.0000000,   5.1683996,   5.1683996, ]
- [  5.1426862,   0.0257134,   5.1426862, ]
- [  5.1426862,   5.1426862,   0.0257134, ]
lattice_lengths: [   7.30922,    7.27290,    7.27290, ]
lattice_angles: [ 59.669,  59.835,  59.835, ] # degrees, (23, 13, 12)
lattice_volume:   2.7201272E+02
convergence: {deltae: -3.158E-10, res2:  1.303E-08, residm:  1.902E-11, diffor: null, }
etotal    :  -9.28440809E+00
entropy   :   0.00000000E+00
fermie    :   1.49360528E-01
cartesian_stress_tensor: # hartree/bohr^3
- [ -1.93874874E-08,  -3.58453501E-15,  -3.58455873E-15, ]
- [ -3.58453501E-15,   1.23479913E-07,   2.23930982E-05, ]
- [ -3.58455873E-15,   2.23930982E-05,   1.23479913E-07, ]
pressure_GPa:  -2.2318E-03
xred      :
- [  2.5079E-01,   2.4921E-01,   2.4921E-01,  P]
- [ -7.8976E-04,   7.8976E-04,   7.8976E-04, Al]
cartesian_forces: # hartree/bohr
- [ -8.07150684E-06,  -0.00000000E+00,  -0.00000000E+00, ]
- [  8.07150684E-06,  -0.00000000E+00,  -0.00000000E+00, ]
force_length_stats: {min:   8.07150684E-06, max:   8.07150684E-06, mean:   8.07150684E-06, }
...

 Integrated electronic density in atomic spheres:
 ------------------------------------------------
 Atom  Sphere_radius  Integrated_density
    1        2.00000          2.91208698
    2        2.00000          0.97935604

---OUTPUT-----------------------------------------------------------------------

 Cartesian coordinates (xcart) [bohr]
  2.56322011712565E+00  2.58419981995440E+00  2.58419981995440E+00
  8.12298731729391E-03  3.10923162216703E-14  2.97600926378334E-14
 Reduced coordinates (xred)
  2.50789761127488E-01  2.49210238872512E-01  2.49210238872512E-01
 -7.89761127488828E-04  7.89761127487917E-04  7.89761127488177E-04
 Cartesian forces (fcart) [Ha/bohr]; max,rms= 8.07151E-06 4.66009E-06 (free atoms)
 -8.07150684135256E-06 -0.00000000000000E+00 -0.00000000000000E+00
  8.07150684135256E-06 -0.00000000000000E+00 -0.00000000000000E+00
 Reduced forces (fred)
  0.00000000000000E+00  4.15092269179520E-05  4.15092269179520E-05
 -0.00000000000000E+00 -4.15092269179520E-05 -4.15092269179520E-05
 Total energy (etotal) [Ha]= -9.28440809010436E+00

 Difference of energy with previous step (new-old):
           Absolute (Ha)=-8.75657E-06
           Relative     =-9.43149E-07

 At Broyd/MD step   3, gradients are converged : 
  max grad (force/stress) = 8.0715E-06 < tolmxf= 1.0000E-05 ha/bohr (free atoms)

================================================================================

 ----iterations are completed or convergence reached----

 Mean square residual over all n,k,spin=   67.264E-13; max=  19.019E-12
 reduced coordinates (array xred) for    2 atoms
       0.250789761127      0.249210238873      0.249210238873
      -0.000789761127      0.000789761127      0.000789761127
 rms dE/dt=  3.3910E-05; max dE/dt=  4.2865E-05; dE/dt below (all hartree)
    1       0.000000000000      0.000042864855      0.000042864855
    2       0.000000000000     -0.000040153598     -0.000040153598

 cartesian coordinates (angstrom) at end:
    1      1.35639766658229     1.36749964716225     1.36749964716225
    2      0.00429849975398     0.00000000000002     0.00000000000002

 cartesian forces (hartree/bohr) at end:
    1     -0.00000807150684    -0.00000000000000    -0.00000000000000
    2      0.00000807150684    -0.00000000000000    -0.00000000000000
 frms,max,avg= 4.6600866E-06 8.0715068E-06  -2.636E-07  0.000E+00  0.000E+00 h/b

 cartesian forces (eV/Angstrom) at end:
    1     -0.00041505353485    -0.00000000000000    -0.00000000000000
    2      0.00041505353485    -0.00000000000000    -0.00000000000000
 frms,max,avg= 2.3963127E-04 4.1505353E-04  -1.356E-05  0.000E+00  0.000E+00 e/A
 length scales=  7.272856583600  7.272856583600  7.272856583600 bohr
              =  3.848629945385  3.848629945385  3.848629945385 angstroms
 Fermi (or HOMO) energy (hartree) =   0.14936   Average Vxc (hartree)=  -0.34161
 Eigenvalues (hartree) for nkpt= 126  k points:
 kpt#   1, nband=  4, wtk=  0.00463, kpt= -0.0833  0.0000  0.0000 (reduced coord)
  -0.25171    0.12887    0.14733    0.14936
 prteigrs : prtvol=0 or 1, do not print more k-points.


--- !EnergyTerms
iteration_state     : {dtset: 2, itime: 3, icycle: 1, }
comment             : Components of total free energy in Hartree
kinetic             :  3.34101453185660E+00
hartree             :  8.79638401214148E-01
xc                  : -3.16747295376252E+00
Ewald energy        : -8.74765639395693E+00
psp_core            :  2.23696208910408E-01
local_psp           : -3.33494704576681E+00
non_local_psp       :  1.52131916140074E+00
total_energy        : -9.28440809010436E+00
total_energy_eV     : -2.52641592452719E+02
band_energy         : -4.45723651199359E-02
...

 rms coord change=  7.8976E-04   atom, delta coord (reduced):
     1        0.000789761127     -0.000789761127     -0.000789761127
     2       -0.000789761127      0.000789761127      0.000789761127

 Cartesian components of stress tensor (hartree/bohr^3)
  sigma(1 1)= -1.93874874E-08  sigma(3 2)=  2.23930982E-05
  sigma(2 2)=  1.23479913E-07  sigma(3 1)= -3.58455873E-15
  sigma(3 3)=  1.23479913E-07  sigma(2 1)= -3.58453501E-15

-Cartesian components of stress tensor (GPa)         [Pressure= -2.2318E-03 GPa]
- sigma(1 1)= -5.70399477E-04  sigma(3 2)=  6.58827584E-01
- sigma(2 2)=  3.63290386E-03  sigma(3 1)= -1.05461341E-10
- sigma(3 3)=  3.63290386E-03  sigma(2 1)= -1.05460643E-10

================================================================================
== DATASET  3 ==================================================================
-   mpi_nproc: 1, omp_nthreads: -1 (-1 if OMP is not activated)


--- !DatasetInfo
iteration_state: {dtset: 3, }
dimensions: {natom: 2, nkpt: 126, mband: 4, nsppol: 1, nspinor: 1, nspden: 1, mpw: 175, }
cutoff_energies: {ecut:   5.0, pawecutdg:  -1.0, }
electrons: {nelect:   8.00000000E+00, charge:   0.00000000E+00, occopt:   1.00000000E+00, tsmear:   1.00000000E-02, }
meta: {optdriver: 0, ionmov: 2, optcell: 0, iscf: 7, paral_kgb: 0, }
...

 Real(R)+Recip(G) space primitive vectors, cartesian coordinates (Bohr,Bohr^-1):
 R(1)=  0.0000000  5.1169728  5.1169728  G(1)= -0.0972255  0.0977140  0.0977140
 R(2)=  5.1426862 -0.0257134  5.1426862  G(2)=  0.0972255 -0.0967417  0.0967417
 R(3)=  5.1426862  5.1426862 -0.0257134  G(3)=  0.0972255  0.0967417 -0.0967417
 Unit cell volume ucvol=  2.7201272E+02 bohr^3
 Angles (23,13,12)=  6.03306577E+01  6.01654667E+01  6.01654667E+01 degrees

 getcut: wavevector=  0.0000  0.0000  0.0000  ngfft=  16  16  16
         ecut(hartree)=      5.513   => boxcut(ratio)=   2.08153
--------------------------------------------------------------------------------

_setup2: Arith. and geom. avg. npw (full set) are     168.120     168.096
  initberry: for direction 1, nkstr =   6, nstr =    144
  initberry: for direction 2, nkstr =   6, nstr =    144
  initberry: for direction 3, nkstr =   6, nstr =    144

================================================================================

=== [ionmov= 2] Broyden-Fletcher-Goldfard-Shanno method (forces)            
================================================================================

--- Iteration: ( 1/13) Internal Cycle: (1/1)
--------------------------------------------------------------------------------

---SELF-CONSISTENT-FIELD CONVERGENCE--------------------------------------------

--- !BeginCycle
iteration_state: {dtset: 3, itime: 1, icycle: 1, }
solver: {iscf: 7, nstep: 5, nline: 4, wfoptalg: 0, }
tolerances: {toldfe: 1.00E-15, }
...

     iter   Etot(hartree)      deltaE(h)  residm     vres2
 ETOT  1  -9.2745201100551    -9.275E+00 1.258E-02 3.647E+00
 ETOT  2  -9.2840652814167    -9.545E-03 3.141E-03 1.515E-01
 ETOT  3  -9.2843892961628    -3.240E-04 4.637E-06 4.452E-03
 ETOT  4  -9.2843939021379    -4.606E-06 2.292E-08 1.214E-04
 ETOT  5  -9.2843939784330    -7.630E-08 3.820E-10 1.094E-06

 Computing the polarization (Berry phase) for reciprocal vector:
  0.16667  0.00000  0.00000 (in reduced coordinates)
 -0.01620  0.01629  0.01629 (in cartesian coordinates - atomic units)
 Number of strings:   144
 Number of k points in string:    6

 Summary of the results
 Electronic Berry phase    -7.618667507E-04
            Ionic phase    -7.500000000E-01
            Total phase    -7.507618668E-01
    Remapping in [-1,1]    -7.507618668E-01

           Polarization    -1.633498283E-02 (a.u. of charge)/bohr^2
           Polarization    -9.346021465E-01 C/m^2


 Computing the polarization (Berry phase) for reciprocal vector:
  0.00000  0.16667  0.00000 (in reduced coordinates)
  0.01620 -0.01612  0.01612 (in cartesian coordinates - atomic units)
 Number of strings:   144
 Number of k points in string:    6

 Summary of the results
 Electronic Berry phase     5.176681307E-03
            Ionic phase    -7.500000000E-01
            Total phase    -7.448233187E-01
    Remapping in [-1,1]    -7.448233187E-01

           Polarization    -1.631417367E-02 (a.u. of charge)/bohr^2
           Polarization    -9.334115554E-01 C/m^2


 Computing the polarization (Berry phase) for reciprocal vector:
  0.00000  0.00000  0.16667 (in reduced coordinates)
  0.01620  0.01612 -0.01612 (in cartesian coordinates - atomic units)
 Number of strings:   144
 Number of k points in string:    6

 Summary of the results
 Electronic Berry phase     5.176681307E-03
            Ionic phase    -7.500000000E-01
            Total phase    -7.448233187E-01
    Remapping in [-1,1]    -7.448233187E-01

           Polarization    -1.631417367E-02 (a.u. of charge)/bohr^2
           Polarization    -9.334115554E-01 C/m^2


 Polarization in cartesian coordinates (a.u.):
 (the sum of the electronic and ionic Berry phase has been folded into [-1, 1])
     Electronic berry phase:        0.195741195E-03   0.830493728E-04   0.830493728E-04
     Ionic:                        -0.283590755E-01  -0.282172802E-01  -0.282172802E-01  
     Total:                        -0.281633343E-01  -0.281342308E-01  -0.281342308E-01

 Polarization in cartesian coordinates (C/m^2):
 (the sum of the electronic and ionic Berry phase has been folded into [-1, 1])
     Electronic berry phase:        0.111992858E-01   0.475165005E-02   0.475165005E-02
     Ionic:                        -0.162255774E+01  -0.161444495E+01  -0.161444495E+01  
     Total:                        -0.161135846E+01  -0.160969330E+01  -0.160969330E+01

 Cartesian components of stress tensor (hartree/bohr^3)
  sigma(1 1)= -4.59412486E-07  sigma(3 2)= -3.27425268E-05
  sigma(2 2)= -2.44525665E-07  sigma(3 1)= -2.23263655E-15
  sigma(3 3)= -2.44525665E-07  sigma(2 1)= -2.23269753E-15


 scprqt:  WARNING -
  nstep=    5 was not enough SCF cycles to converge;
  maximum energy difference=  7.630E-08 exceeds toldfe=  1.000E-15


--- !ResultsGS
iteration_state: {dtset: 3, itime: 1, icycle: 1, }
comment   : Summary of ground state results
lattice_vectors:
- [  0.0000000,   5.1169728,   5.1169728, ]
- [  5.1426862,  -0.0257134,   5.1426862, ]
- [  5.1426862,   5.1426862,  -0.0257134, ]
lattice_lengths: [   7.23649,    7.27290,    7.27290, ]
lattice_angles: [ 60.331,  60.165,  60.165, ] # degrees, (23, 13, 12)
lattice_volume:   2.7201272E+02
convergence: {deltae: -7.630E-08, res2:  1.094E-06, residm:  3.820E-10, diffor: null, }
etotal    :  -9.28439398E+00
entropy   :   0.00000000E+00
fermie    :   1.48508837E-01
cartesian_stress_tensor: # hartree/bohr^3
- [ -4.59412486E-07,  -2.23269753E-15,  -2.23263655E-15, ]
- [ -2.23269753E-15,  -2.44525665E-07,  -3.27425268E-05, ]
- [ -2.23263655E-15,  -3.27425268E-05,  -2.44525665E-07, ]
pressure_GPa:   9.3016E-03
xred      :
- [  2.5000E-01,   2.5000E-01,   2.5000E-01,  P]
- [  0.0000E+00,   0.0000E+00,   0.0000E+00, Al]
cartesian_forces: # hartree/bohr
- [  1.73142223E-03,   5.42101086E-20,  -5.42101086E-20, ]
- [ -1.73142223E-03,  -5.42101086E-20,   5.42101086E-20, ]
force_length_stats: {min:   1.73142223E-03, max:   1.73142223E-03, mean:   1.73142223E-03, }
...

 Integrated electronic density in atomic spheres:
 ------------------------------------------------
 Atom  Sphere_radius  Integrated_density
    1        2.00000          2.91216213
    2        2.00000          0.97938587

---OUTPUT-----------------------------------------------------------------------

 Cartesian coordinates (xcart) [bohr]
  2.57134310444295E+00  2.55848638891328E+00  2.55848638891328E+00
  0.00000000000000E+00  0.00000000000000E+00  0.00000000000000E+00
 Reduced coordinates (xred)
  2.50000000000000E-01  2.50000000000000E-01  2.50000000000000E-01
  0.00000000000000E+00  0.00000000000000E+00  0.00000000000000E+00
 Cartesian forces (fcart) [Ha/bohr]; max,rms= 1.73142E-03 9.99637E-04 (free atoms)
  1.73142223059919E-03  5.42101086242752E-20 -5.42101086242752E-20
 -1.73142223059919E-03 -5.42101086242752E-20  5.42101086242752E-20
 Reduced forces (fred)
 -0.00000000000000E+00 -8.90416122706092E-03 -8.90416122706092E-03
 -0.00000000000000E+00  8.90416122706092E-03  8.90416122706092E-03
 Total energy (etotal) [Ha]= -9.28439397843301E+00

--- Iteration: ( 2/13) Internal Cycle: (1/1)
--------------------------------------------------------------------------------

---SELF-CONSISTENT-FIELD CONVERGENCE--------------------------------------------

--- !BeginCycle
iteration_state: {dtset: 3, itime: 2, icycle: 1, }
solver: {iscf: 7, nstep: 5, nline: 4, wfoptalg: 0, }
tolerances: {toldfe: 1.00E-15, }
...

     iter   Etot(hartree)      deltaE(h)  residm     vres2
 ETOT  1  -9.2843988807549    -9.284E+00 3.657E-11 2.382E-04
 ETOT  2  -9.2843993223464    -4.416E-07 1.306E-11 4.617E-06
 ETOT  3  -9.2843993324785    -1.013E-08 2.505E-10 2.965E-07
 ETOT  4  -9.2843993328945    -4.160E-10 1.059E-11 1.532E-08
 ETOT  5  -9.2843993329169    -2.236E-11 1.235E-12 9.123E-10

 Computing the polarization (Berry phase) for reciprocal vector:
  0.16667  0.00000  0.00000 (in reduced coordinates)
 -0.01620  0.01629  0.01629 (in cartesian coordinates - atomic units)
 Number of strings:   144
 Number of k points in string:    6

 Summary of the results
 Electronic Berry phase     3.320453688E-04
            Ionic phase    -7.503366766E-01
            Total phase    -7.500046313E-01
    Remapping in [-1,1]    -7.500046313E-01

           Polarization    -1.631850700E-02 (a.u. of charge)/bohr^2
           Polarization    -9.336594856E-01 C/m^2


 Computing the polarization (Berry phase) for reciprocal vector:
  0.00000  0.16667  0.00000 (in reduced coordinates)
  0.01620 -0.01612  0.01612 (in cartesian coordinates - atomic units)
 Number of strings:   144
 Number of k points in string:    6

 Summary of the results
 Electronic Berry phase     4.082997593E-03
            Ionic phase    -7.496633234E-01
            Total phase    -7.455803258E-01
    Remapping in [-1,1]    -7.455803258E-01

           Polarization    -1.633075471E-02 (a.u. of charge)/bohr^2
           Polarization    -9.343602356E-01 C/m^2


 Computing the polarization (Berry phase) for reciprocal vector:
  0.00000  0.00000  0.16667 (in reduced coordinates)
  0.01620  0.01612 -0.01612 (in cartesian coordinates - atomic units)
 Number of strings:   144
 Number of k points in string:    6

 Summary of the results
 Electronic Berry phase     4.082997593E-03
            Ionic phase    -7.496633234E-01
            Total phase    -7.455803258E-01
    Remapping in [-1,1]    -7.455803258E-01

           Polarization    -1.633075471E-02 (a.u. of charge)/bohr^2
           Polarization    -9.343602356E-01 C/m^2


 Polarization in cartesian coordinates (a.u.):
 (the sum of the electronic and ionic Berry phase has been folded into [-1, 1])
     Electronic berry phase:        0.154386716E-03   0.830536694E-04   0.830536694E-04
     Ionic:                        -0.283463451E-01  -0.282172802E-01  -0.282172802E-01  
     Total:                        -0.281919584E-01  -0.281342265E-01  -0.281342265E-01

 Polarization in cartesian coordinates (C/m^2):
 (the sum of the electronic and ionic Berry phase has been folded into [-1, 1])
     Electronic berry phase:        0.883319914E-02   0.475189589E-02   0.475189589E-02
     Ionic:                        -0.162182937E+01  -0.161444495E+01  -0.161444495E+01  
     Total:                        -0.161299617E+01  -0.160969306E+01  -0.160969306E+01

 Cartesian components of stress tensor (hartree/bohr^3)
  sigma(1 1)= -3.21969627E-07  sigma(3 2)= -3.05219734E-05
  sigma(2 2)= -9.93290579E-08  sigma(3 1)= -2.23942975E-15
  sigma(3 3)= -9.93290579E-08  sigma(2 1)= -2.23947380E-15


 scprqt:  WARNING -
  nstep=    5 was not enough SCF cycles to converge;
  maximum energy difference=  2.236E-11 exceeds toldfe=  1.000E-15


--- !ResultsGS
iteration_state: {dtset: 3, itime: 2, icycle: 1, }
comment   : Summary of ground state results
lattice_vectors:
- [  0.0000000,   5.1169728,   5.1169728, ]
- [  5.1426862,  -0.0257134,   5.1426862, ]
- [  5.1426862,   5.1426862,  -0.0257134, ]
lattice_lengths: [   7.23649,    7.27290,    7.27290, ]
lattice_angles: [ 60.331,  60.165,  60.165, ] # degrees, (23, 13, 12)
lattice_volume:   2.7201272E+02
convergence: {deltae: -2.236E-11, res2:  9.123E-10, residm:  1.235E-12, diffor: null, }
etotal    :  -9.28439933E+00
entropy   :   0.00000000E+00
fermie    :   1.48683618E-01
cartesian_stress_tensor: # hartree/bohr^3
- [ -3.21969627E-07,  -2.23947380E-15,  -2.23942975E-15, ]
- [ -2.23947380E-15,  -9.93290579E-08,  -3.05219734E-05, ]
- [ -2.23942975E-15,  -3.05219734E-05,  -9.93290579E-08, ]
pressure_GPa:   5.1058E-03
xred      :
- [  2.4983E-01,   2.5017E-01,   2.5017E-01,  P]
- [  1.6834E-04,  -1.6834E-04,  -1.6834E-04, Al]
cartesian_forces: # hartree/bohr
- [  1.36209065E-03,  -5.42101086E-20,   5.42101086E-20, ]
- [ -1.36209065E-03,   5.42101086E-20,  -5.42101086E-20, ]
force_length_stats: {min:   1.36209065E-03, max:   1.36209065E-03, mean:   1.36209065E-03, }
...

 Integrated electronic density in atomic spheres:
 ------------------------------------------------
 Atom  Sphere_radius  Integrated_density
    1        2.00000          2.91214733
    2        2.00000          0.97937410

---OUTPUT-----------------------------------------------------------------------

 Cartesian coordinates (xcart) [bohr]
  2.57307452667355E+00  2.55848638891328E+00  2.55848638891328E+00
 -1.73142223059919E-03  1.08420217248550E-19  9.57147230397359E-20
 Reduced coordinates (xred)
  2.49831661688048E-01  2.50168338311951E-01  2.50168338311951E-01
  1.68338311952357E-04 -1.68338311951400E-04 -1.68338311951400E-04
 Cartesian forces (fcart) [Ha/bohr]; max,rms= 1.36209E-03 7.86403E-04 (free atoms)
  1.36209064974428E-03 -5.42101086242752E-20  5.42101086242752E-20
 -1.36209064974428E-03  5.42101086242752E-20 -5.42101086242752E-20
 Reduced forces (fred)
 -0.00000000000000E+00 -7.00480479969236E-03 -7.00480479969236E-03
 -0.00000000000000E+00  7.00480479969236E-03  7.00480479969236E-03
 Total energy (etotal) [Ha]= -9.28439933291690E+00

 Difference of energy with previous step (new-old):
           Absolute (Ha)=-5.35448E-06
           Relative     =-5.76719E-07

--- Iteration: ( 3/13) Internal Cycle: (1/1)
--------------------------------------------------------------------------------

---SELF-CONSISTENT-FIELD CONVERGENCE--------------------------------------------

--- !BeginCycle
iteration_state: {dtset: 3, itime: 3, icycle: 1, }
solver: {iscf: 7, nstep: 5, nline: 4, wfoptalg: 0, }
tolerances: {toldfe: 1.00E-15, }
...

     iter   Etot(hartree)      deltaE(h)  residm     vres2
 ETOT  1  -9.2844018394783    -9.284E+00 4.957E-10 3.287E-03
 ETOT  2  -9.2844079429238    -6.103E-06 1.841E-10 6.429E-05
 ETOT  3  -9.2844080840170    -1.411E-07 3.480E-09 4.056E-06
 ETOT  4  -9.2844080896977    -5.681E-09 1.431E-10 2.091E-07
 ETOT  5  -9.2844080900016    -3.039E-10 1.654E-11 1.242E-08

 Computing the polarization (Berry phase) for reciprocal vector:
  0.16667  0.00000  0.00000 (in reduced coordinates)
 -0.01620  0.01629  0.01629 (in cartesian coordinates - atomic units)
 Number of strings:   144
 Number of k points in string:    6

 Summary of the results
 Electronic Berry phase     4.371699401E-03
            Ionic phase    -7.515783362E-01
            Total phase    -7.472066368E-01
    Remapping in [-1,1]    -7.472066368E-01

           Polarization    -1.625762858E-02 (a.u. of charge)/bohr^2
           Polarization    -9.301763416E-01 C/m^2


 Computing the polarization (Berry phase) for reciprocal vector:
  0.00000  0.16667  0.00000 (in reduced coordinates)
  0.01620 -0.01612  0.01612 (in cartesian coordinates - atomic units)
 Number of strings:   144
 Number of k points in string:    6

 Summary of the results
 Electronic Berry phase     4.261331237E-05
            Ionic phase    -7.484216638E-01
            Total phase    -7.483790505E-01
    Remapping in [-1,1]    -7.483790505E-01

           Polarization    -1.639205634E-02 (a.u. of charge)/bohr^2
           Polarization    -9.378675936E-01 C/m^2


 Computing the polarization (Berry phase) for reciprocal vector:
  0.00000  0.00000  0.16667 (in reduced coordinates)
  0.01620  0.01612 -0.01612 (in cartesian coordinates - atomic units)
 Number of strings:   144
 Number of k points in string:    6

 Summary of the results
 Electronic Berry phase     4.261331237E-05
            Ionic phase    -7.484216638E-01
            Total phase    -7.483790505E-01
    Remapping in [-1,1]    -7.483790505E-01

           Polarization    -1.639205634E-02 (a.u. of charge)/bohr^2
           Polarization    -9.378675936E-01 C/m^2


 Polarization in cartesian coordinates (a.u.):
 (the sum of the electronic and ionic Berry phase has been folded into [-1, 1])
     Electronic berry phase:        0.161129886E-05   0.830399323E-04   0.830399323E-04
     Ionic:                        -0.282993953E-01  -0.282172802E-01  -0.282172802E-01  
     Total:                        -0.282977840E-01  -0.281342402E-01  -0.281342402E-01

 Polarization in cartesian coordinates (C/m^2):
 (the sum of the electronic and ionic Berry phase has been folded into [-1, 1])
     Electronic berry phase:        0.921900799E-04   0.475110992E-02   0.475110992E-02
     Ionic:                        -0.161914315E+01  -0.161444495E+01  -0.161444495E+01  
     Total:                        -0.161905096E+01  -0.160969384E+01  -0.160969384E+01

 Cartesian components of stress tensor (hartree/bohr^3)
  sigma(1 1)= -2.03777914E-08  sigma(3 2)= -2.24018860E-05
  sigma(2 2)=  1.22371063E-07  sigma(3 1)= -2.26301623E-15
  sigma(3 3)=  1.22371063E-07  sigma(2 1)= -2.26305519E-15


 scprqt:  WARNING -
  nstep=    5 was not enough SCF cycles to converge;
  maximum energy difference=  3.039E-10 exceeds toldfe=  1.000E-15


--- !ResultsGS
iteration_state: {dtset: 3, itime: 3, icycle: 1, }
comment   : Summary of ground state results
lattice_vectors:
- [  0.0000000,   5.1169728,   5.1169728, ]
- [  5.1426862,  -0.0257134,   5.1426862, ]
- [  5.1426862,   5.1426862,  -0.0257134, ]
lattice_lengths: [   7.23649,    7.27290,    7.27290, ]
lattice_angles: [ 60.331,  60.165,  60.165, ] # degrees, (23, 13, 12)
lattice_volume:   2.7201272E+02
convergence: {deltae: -3.039E-10, res2:  1.242E-08, residm:  1.654E-11, diffor: null, }
etotal    :  -9.28440809E+00
entropy   :   0.00000000E+00
fermie    :   1.49359918E-01
cartesian_stress_tensor: # hartree/bohr^3
- [ -2.03777914E-08,  -2.26305519E-15,  -2.26301623E-15, ]
- [ -2.26305519E-15,   1.22371063E-07,  -2.24018860E-05, ]
- [ -2.26301623E-15,  -2.24018860E-05,   1.22371063E-07, ]
pressure_GPa:  -2.2003E-03
xred      :
- [  2.4921E-01,   2.5079E-01,   2.5079E-01,  P]
- [  7.8917E-04,  -7.8917E-04,  -7.8917E-04, Al]
cartesian_forces: # hartree/bohr
- [  7.67971102E-06,  -4.23516474E-22,   4.23516474E-22, ]
- [ -7.67971102E-06,   4.23516474E-22,  -4.23516474E-22, ]
force_length_stats: {min:   7.67971102E-06, max:   7.67971102E-06, mean:   7.67971102E-06, }
...

 Integrated electronic density in atomic spheres:
 ------------------------------------------------
 Atom  Sphere_radius  Integrated_density
    1        2.00000          2.91208742
    2        2.00000          0.97935596

---OUTPUT-----------------------------------------------------------------------

 Cartesian coordinates (xcart) [bohr]
  2.57945999207458E+00  2.55848638891330E+00  2.55848638891330E+00
 -8.11688763163415E-03 -2.29581978428151E-14 -2.29584316239085E-14
 Reduced coordinates (xred)
  2.49210831917218E-01  2.50789168082782E-01  2.50789168082782E-01
  7.89168082782225E-04 -7.89168082782225E-04 -7.89168082782225E-04
 Cartesian forces (fcart) [Ha/bohr]; max,rms= 7.67971E-06 4.43388E-06 (free atoms)
  7.67971102143634E-06 -4.23516473627150E-22  4.23516473627150E-22
 -7.67971102143634E-06  4.23516473627150E-22 -4.23516473627150E-22
 Reduced forces (fred)
 -0.00000000000000E+00 -3.94943439581697E-05 -3.94943439581697E-05
 -0.00000000000000E+00  3.94943439581697E-05  3.94943439581697E-05
 Total energy (etotal) [Ha]= -9.28440809000164E+00

 Difference of energy with previous step (new-old):
           Absolute (Ha)=-8.75708E-06
           Relative     =-9.43204E-07

 At Broyd/MD step   3, gradients are converged : 
  max grad (force/stress) = 7.6797E-06 < tolmxf= 1.0000E-05 ha/bohr (free atoms)

================================================================================

 ----iterations are completed or convergence reached----

 Mean square residual over all n,k,spin=   74.212E-13; max=  16.543E-12
 reduced coordinates (array xred) for    2 atoms
       0.249210831917      0.250789168083      0.250789168083
       0.000789168083     -0.000789168083     -0.000789168083
 rms dE/dt=  3.2247E-05; max dE/dt=  3.9476E-05; dE/dt below (all hartree)
    1       0.000000000000     -0.000039512709     -0.000039512709
    2       0.000000000000      0.000039475979      0.000039475979

 cartesian coordinates (angstrom) at end:
    1      1.36499143827561     1.35389268550065     1.35389268550065
    2     -0.00429527193935    -0.00000000000001    -0.00000000000001

 cartesian forces (hartree/bohr) at end:
    1      0.00000767971102    -0.00000000000000     0.00000000000000
    2     -0.00000767971102     0.00000000000000    -0.00000000000000
 frms,max,avg= 4.4338832E-06 7.6797110E-06   3.571E-09  0.000E+00  0.000E+00 h/b

 cartesian forces (eV/Angstrom) at end:
    1      0.00039490658544    -0.00000000000000     0.00000000000000
    2     -0.00039490658544     0.00000000000000    -0.00000000000000
 frms,max,avg= 2.2799942E-04 3.9490659E-04   1.836E-07  0.000E+00  0.000E+00 e/A
 length scales=  7.272856583600  7.272856583600  7.272856583600 bohr
              =  3.848629945385  3.848629945385  3.848629945385 angstroms
 Fermi (or HOMO) energy (hartree) =   0.14936   Average Vxc (hartree)=  -0.34161
 Eigenvalues (hartree) for nkpt= 126  k points:
 kpt#   1, nband=  4, wtk=  0.00463, kpt= -0.0833  0.0000  0.0000 (reduced coord)
  -0.25145    0.13119    0.14621    0.14823
 prteigrs : prtvol=0 or 1, do not print more k-points.


--- !EnergyTerms
iteration_state     : {dtset: 3, itime: 3, icycle: 1, }
comment             : Components of total free energy in Hartree
[...]
                       3.33333333E-01  0.00000000E+00  8.33333333E-02
                       4.16666667E-01  0.00000000E+00  1.66666667E-01
                       5.00000000E-01  0.00000000E+00  2.50000000E-01
                      -4.16666667E-01  0.00000000E+00  3.33333333E-01
                      -3.33333333E-01  0.00000000E+00  4.16666667E-01
                      -2.50000000E-01  0.00000000E+00  5.00000000E-01
                      -1.66666667E-01  0.00000000E+00 -4.16666667E-01
                      -8.33333333E-02  0.00000000E+00 -3.33333333E-01
                       4.16666667E-01  8.33333333E-02  8.33333333E-02
                       5.00000000E-01  8.33333333E-02  1.66666667E-01
                      -4.16666667E-01  8.33333333E-02  2.50000000E-01
                      -3.33333333E-01  8.33333333E-02  3.33333333E-01
                      -2.50000000E-01  8.33333333E-02  4.16666667E-01
                      -1.66666667E-01  8.33333333E-02  5.00000000E-01
                      -8.33333333E-02  8.33333333E-02 -4.16666667E-01
                      -4.16666667E-01  1.66666667E-01  1.66666667E-01
                      -3.33333333E-01  1.66666667E-01  2.50000000E-01
                      -2.50000000E-01  1.66666667E-01  3.33333333E-01
                      -1.66666667E-01  1.66666667E-01  4.16666667E-01
                      -8.33333333E-02  1.66666667E-01  5.00000000E-01
                      -2.50000000E-01  2.50000000E-01  2.50000000E-01
              kpt3    -8.33333333E-02  0.00000000E+00  0.00000000E+00
                      -2.50000000E-01  0.00000000E+00  0.00000000E+00
                      -1.66666667E-01  0.00000000E+00  8.33333333E-02
                      -8.33333333E-02  0.00000000E+00  1.66666667E-01
                      -8.33333333E-02  8.33333333E-02  8.33333333E-02
                      -4.16666667E-01  0.00000000E+00  0.00000000E+00
                      -3.33333333E-01  0.00000000E+00  8.33333333E-02
                      -2.50000000E-01  0.00000000E+00  1.66666667E-01
                      -1.66666667E-01  0.00000000E+00  2.50000000E-01
                      -8.33333333E-02  0.00000000E+00  3.33333333E-01
                      -2.50000000E-01  8.33333333E-02  8.33333333E-02
                      -1.66666667E-01  8.33333333E-02  1.66666667E-01
                      -8.33333333E-02  8.33333333E-02  2.50000000E-01
                      -8.33333333E-02  1.66666667E-01  1.66666667E-01
                       5.00000000E-01  0.00000000E+00  8.33333333E-02
                      -4.16666667E-01  0.00000000E+00  1.66666667E-01
                      -3.33333333E-01  0.00000000E+00  2.50000000E-01
                      -2.50000000E-01  0.00000000E+00  3.33333333E-01
                      -1.66666667E-01  0.00000000E+00  4.16666667E-01
                      -8.33333333E-02  0.00000000E+00  5.00000000E-01
                      -4.16666667E-01  8.33333333E-02  8.33333333E-02
                      -3.33333333E-01  8.33333333E-02  1.66666667E-01
                      -2.50000000E-01  8.33333333E-02  2.50000000E-01
                      -1.66666667E-01  8.33333333E-02  3.33333333E-01
                      -8.33333333E-02  8.33333333E-02  4.16666667E-01
                      -2.50000000E-01  1.66666667E-01  1.66666667E-01
                      -1.66666667E-01  1.66666667E-01  2.50000000E-01
                      -8.33333333E-02  1.66666667E-01  3.33333333E-01
                      -8.33333333E-02  2.50000000E-01  2.50000000E-01
                       3.33333333E-01  0.00000000E+00  8.33333333E-02
                       4.16666667E-01  0.00000000E+00  1.66666667E-01
                       5.00000000E-01  0.00000000E+00  2.50000000E-01
                      -4.16666667E-01  0.00000000E+00  3.33333333E-01
                      -3.33333333E-01  0.00000000E+00  4.16666667E-01
                      -2.50000000E-01  0.00000000E+00  5.00000000E-01
                      -1.66666667E-01  0.00000000E+00 -4.16666667E-01
                      -8.33333333E-02  0.00000000E+00 -3.33333333E-01
                       4.16666667E-01  8.33333333E-02  8.33333333E-02
                       5.00000000E-01  8.33333333E-02  1.66666667E-01
                      -4.16666667E-01  8.33333333E-02  2.50000000E-01
                      -3.33333333E-01  8.33333333E-02  3.33333333E-01
                      -2.50000000E-01  8.33333333E-02  4.16666667E-01
                      -1.66666667E-01  8.33333333E-02  5.00000000E-01
                      -8.33333333E-02  8.33333333E-02 -4.16666667E-01
                      -4.16666667E-01  1.66666667E-01  1.66666667E-01
                      -3.33333333E-01  1.66666667E-01  2.50000000E-01
                      -2.50000000E-01  1.66666667E-01  3.33333333E-01
                      -1.66666667E-01  1.66666667E-01  4.16666667E-01
                      -8.33333333E-02  1.66666667E-01  5.00000000E-01
                      -2.50000000E-01  2.50000000E-01  2.50000000E-01
                       outvar_i_n : Printing only first  50 k-points.
         kptrlatt1       6   -6    6     -6    6    6     -6   -6    6
         kptrlatt2       6   -6    6      6    6   -6     -6    6    6
         kptrlatt3       6   -6    6      6    6   -6     -6    6    6
          kptrlen      6.17122345E+01
P           mkmem1         28
P           mkmem2        126
P           mkmem3        126
            natom           2
            nband1          4
            nband2          4
            nband3          4
           ndtset           3
            ngfft          16      16      16
             nkpt1         28
             nkpt2        126
             nkpt3        126
            nstep           5
             nsym1         24
             nsym2          4
             nsym3          4
            ntime          13
           ntypat           2
              occ1     2.000000  2.000000  2.000000  2.000000
              occ2     2.000000  2.000000  2.000000  2.000000
              occ3     2.000000  2.000000  2.000000  2.000000
           prtden           0
           prteig           0
            prtwf           0
            rfdir           1       1       1
            rprim1     0.0000000000E+00  7.0710678119E-01  7.0710678119E-01
                       7.0710678119E-01  0.0000000000E+00  7.0710678119E-01
                       7.0710678119E-01  7.0710678119E-01  0.0000000000E+00
            rprim2     0.0000000000E+00  7.1064231509E-01  7.1064231509E-01
                       7.0710678119E-01  3.5355339060E-03  7.0710678119E-01
                       7.0710678119E-01  7.0710678119E-01  3.5355339060E-03
            rprim3     0.0000000000E+00  7.0357124728E-01  7.0357124728E-01
                       7.0710678119E-01 -3.5355339060E-03  7.0710678119E-01
                       7.0710678119E-01  7.0710678119E-01 -3.5355339060E-03
           shiftk1     5.00000000E-01  5.00000000E-01  5.00000000E-01
           shiftk2     5.00000000E-01 -5.00000000E-01  5.00000000E-01
           shiftk3     5.00000000E-01 -5.00000000E-01  5.00000000E-01
          spgroup1        216
          spgroup2         44
          spgroup3         44
           strten1    -2.8966968300E-08 -2.8966968300E-08 -2.8966968300E-08
                       0.0000000000E+00  0.0000000000E+00  0.0000000000E+00
           strten2    -1.9387487424E-08  1.2347991325E-07  1.2347991325E-07
                       2.2393098199E-05 -3.5845587295E-15 -3.5845350126E-15
           strten3    -2.0377791352E-08  1.2237106311E-07  1.2237106311E-07
                      -2.2401886029E-05 -2.2630162311E-15 -2.2630551946E-15
           symafm1       1    1    1    1    1    1    1    1    1    1
                         1    1    1    1    1    1    1    1    1    1
                         1    1    1    1
           symafm2       1    1    1    1
           symafm3       1    1    1    1
           symrel1     1  0  0   0  1  0   0  0  1       0 -1  1   0 -1  0   1 -1  0
                      -1  0  0  -1  0  1  -1  1  0       0  1 -1   1  0 -1   0  0 -1
                      -1  0  0  -1  1  0  -1  0  1       0 -1  1   1 -1  0   0 -1  0
                       1  0  0   0  0  1   0  1  0       0  1 -1   0  0 -1   1  0 -1
                      -1  0  1  -1  1  0  -1  0  0       0 -1  0   1 -1  0   0 -1  1
                       1  0 -1   0  0 -1   0  1 -1       0  1  0   0  0  1   1  0  0
                       1  0 -1   0  1 -1   0  0 -1       0 -1  0   0 -1  1   1 -1  0
                      -1  0  1  -1  0  0  -1  1  0       0  1  0   1  0  0   0  0  1
                       0  0 -1   0  1 -1   1  0 -1       1 -1  0   0 -1  1   0 -1  0
                       0  0  1   1  0  0   0  1  0      -1  1  0  -1  0  0  -1  0  1
                       0  0  1   0  1  0   1  0  0       1 -1  0   0 -1  0   0 -1  1
                       0  0 -1   1  0 -1   0  1 -1      -1  1  0  -1  0  1  -1  0  0
           symrel2     1  0  0   0  1  0   0  0  1      -1  0  0  -1  0  1  -1  1  0
                       1  0  0   0  0  1   0  1  0      -1  0  0  -1  1  0  -1  0  1
           symrel3     1  0  0   0  1  0   0  0  1      -1  0  0  -1  0  1  -1  1  0
                       1  0  0   0  0  1   0  1  0      -1  0  0  -1  1  0  -1  0  1
            tnons1     0.0000000  0.0000000  0.0000000     0.0000000  0.0000000  0.0000000
                       0.0000000  0.0000000  0.0000000     0.0000000  0.0000000  0.0000000
                       0.0000000  0.0000000  0.0000000     0.0000000  0.0000000  0.0000000
                       0.0000000  0.0000000  0.0000000     0.0000000  0.0000000  0.0000000
                       0.0000000  0.0000000  0.0000000     0.0000000  0.0000000  0.0000000
                       0.0000000  0.0000000  0.0000000     0.0000000  0.0000000  0.0000000
                       0.0000000  0.0000000  0.0000000     0.0000000  0.0000000  0.0000000
                       0.0000000  0.0000000  0.0000000     0.0000000  0.0000000  0.0000000
                       0.0000000  0.0000000  0.0000000     0.0000000  0.0000000  0.0000000
                       0.0000000  0.0000000  0.0000000     0.0000000  0.0000000  0.0000000
                       0.0000000  0.0000000  0.0000000     0.0000000  0.0000000  0.0000000
                       0.0000000  0.0000000  0.0000000     0.0000000  0.0000000  0.0000000
            tnons2     0.0000000  0.0000000  0.0000000    -0.0000000 -0.0000000  0.0000000
                       0.0000000 -0.0000000  0.0000000    -0.0000000  0.0000000  0.0000000
            tnons3     0.0000000  0.0000000  0.0000000     0.0000000  0.0000000  0.0000000
                       0.0000000  0.0000000  0.0000000     0.0000000  0.0000000  0.0000000
           toldfe      1.00000000E-15 Hartree
           tolmxf      1.00000000E-05
           tolsym      1.00000000E-08
            typat      1  2
              wtk1       0.02778    0.02778    0.02778    0.05556    0.02778    0.02778
                         0.05556    0.02778    0.05556    0.05556    0.02778    0.02778
                         0.02778    0.05556    0.02778    0.05556    0.05556    0.05556
                         0.02778    0.02778    0.02778    0.02778    0.02778    0.05556
                         0.05556    0.00926    0.00926    0.00926
              wtk2       0.00463    0.00463    0.00926    0.00926    0.00463    0.00463
                         0.00926    0.00926    0.00926    0.00926    0.00463    0.00926
                         0.00926    0.00463    0.00926    0.00926    0.00926    0.00926
                         0.00926    0.00926    0.00463    0.00926    0.00926    0.00926
                         0.00926    0.00463    0.00926    0.00926    0.00463    0.00926
                         0.00926    0.00926    0.00926    0.00926    0.00926    0.00926
                         0.00926    0.00463    0.00926    0.00926    0.00926    0.00926
                         0.00926    0.00926    0.00463    0.00926    0.00926    0.00926
                         0.00926    0.00463
              wtk3       0.00463    0.00463    0.00926    0.00926    0.00463    0.00463
                         0.00926    0.00926    0.00926    0.00926    0.00463    0.00926
                         0.00926    0.00463    0.00926    0.00926    0.00926    0.00926
                         0.00926    0.00926    0.00463    0.00926    0.00926    0.00926
                         0.00926    0.00463    0.00926    0.00926    0.00463    0.00926
                         0.00926    0.00926    0.00926    0.00926    0.00926    0.00926
                         0.00926    0.00463    0.00926    0.00926    0.00926    0.00926
                         0.00926    0.00926    0.00463    0.00926    0.00926    0.00926
                         0.00926    0.00463
                       outvars : Printing only first  50 k-points.
           xangst1     1.3606961663E+00  1.3606961663E+00  1.3606961663E+00
                       0.0000000000E+00  0.0000000000E+00  0.0000000000E+00
           xangst2     1.3563976666E+00  1.3674996472E+00  1.3674996472E+00
                       4.2984997540E-03  1.6453345107E-14  1.5748362749E-14
           xangst3     1.3649914383E+00  1.3538926855E+00  1.3538926855E+00
                      -4.2952719393E-03 -1.2148955049E-14 -1.2149078760E-14
            xcart1     2.5713431044E+00  2.5713431044E+00  2.5713431044E+00
                       0.0000000000E+00  0.0000000000E+00  0.0000000000E+00
            xcart2     2.5632201171E+00  2.5841998200E+00  2.5841998200E+00
                       8.1229873173E-03  3.1092316222E-14  2.9760092638E-14
            xcart3     2.5794599921E+00  2.5584863889E+00  2.5584863889E+00
                      -8.1168876316E-03 -2.2958197843E-14 -2.2958431624E-14
             xred1     2.5000000000E-01  2.5000000000E-01  2.5000000000E-01
                       0.0000000000E+00  0.0000000000E+00  0.0000000000E+00
             xred2     2.5078976113E-01  2.4921023887E-01  2.4921023887E-01
                      -7.8976112749E-04  7.8976112749E-04  7.8976112749E-04
             xred3     2.4921083192E-01  2.5078916808E-01  2.5078916808E-01
                       7.8916808278E-04 -7.8916808278E-04 -7.8916808278E-04
            znucl       15.00000   13.00000

================================================================================


- Timing analysis has been suppressed with timopt=0



================================================================================

 Suggested references for the acknowledgment of ABINIT usage.

 The users of ABINIT have little formal obligations with respect to the ABINIT group
 (those specified in the GNU General Public License, http://www.gnu.org/copyleft/gpl.txt).
 However, it is common practice in the scientific literature,
 to acknowledge the efforts of people that have made the research possible.
 In this spirit, please find below suggested citations of work written by ABINIT developers,
 corresponding to implementations inside of ABINIT that you have used in the present run.
 Note also that it will be of great value to readers of publications presenting these results,
 to read papers enabling them to understand the theoretical formalism and details
 of the ABINIT implementation.
 For information on why they are suggested, see also https://docs.abinit.org/theory/acknowledgments.
-
- [1] Specification of an extensible and portable file format for electronic structure and crystallographic data
- X. Gonze, C.-O. Almbladh, A. Cucca, D. Caliste, C. Freysoldt, M. Marques, V. Olevano, Y. Pouillon, M.J. Verstraete,
- Comput. Material Science 43, 1056 (2008).
- Comment: to be cited in case the ETSF_IO file format is used, i.e. iomode=3.
- DOI and bibtex: see https://docs.abinit.org/theory/bibliography/#gonze2008
-
- [2] Libxc: A library of exchange and correlation functionals for density functional theory.
- M.A.L. Marques, M.J.T. Oliveira, T. Burnus, Computer Physics Communications 183, 2227 (2012).
- Comment: to be cited when LibXC is used (negative value of ixc)
- Strong suggestion to cite this paper.
- DOI and bibtex: see https://docs.abinit.org/theory/bibliography/#marques2012
-
- [3] The Abinit project: Impact, environment and recent developments.
- Computer Phys. Comm. 248, 107042 (2020).
- X.Gonze, B. Amadon, G. Antonius, F.Arnardi, L.Baguet, J.-M.Beuken,
- J.Bieder, F.Bottin, J.Bouchet, E.Bousquet, N.Brouwer, F.Bruneval,
- G.Brunin, T.Cavignac, J.-B. Charraud, Wei Chen, M.Cote, S.Cottenier,
- J.Denier, G.Geneste, Ph.Ghosez, M.Giantomassi, Y.Gillet, O.Gingras,
- D.R.Hamann, G.Hautier, Xu He, N.Helbig, N.Holzwarth, Y.Jia, F.Jollet,
- W.Lafargue-Dit-Hauret, K.Lejaeghere, M.A.L.Marques, A.Martin, C.Martins,
- H.P.C. Miranda, F.Naccarato, K. Persson, G.Petretto, V.Planes, Y.Pouillon,
- S.Prokhorenko, F.Ricci, G.-M.Rignanese, A.H.Romero, M.M.Schmitt, M.Torrent,
- M.J.van Setten, B.Van Troeye, M.J.Verstraete, G.Zerah and J.W.Zwanzig
- Comment: the fifth generic paper describing the ABINIT project.
- Note that a version of this paper, that is not formatted for Computer Phys. Comm. 
- is available at https://www.abinit.org/sites/default/files/ABINIT20.pdf .
- The licence allows the authors to put it on the Web.
- DOI and bibtex: see https://docs.abinit.org/theory/bibliography/#gonze2020
-
- [4] Optimized norm-conserving Vanderbilt pseudopotentials.
- D.R. Hamann, Phys. Rev. B 88, 085117 (2013).
- Comment: Some pseudopotential generated using the ONCVPSP code were used.
- DOI and bibtex: see https://docs.abinit.org/theory/bibliography/#hamann2013
-
- [5] ABINIT: Overview, and focus on selected capabilities
- J. Chem. Phys. 152, 124102 (2020).
- A. Romero, D.C. Allan, B. Amadon, G. Antonius, T. Applencourt, L.Baguet,
- J.Bieder, F.Bottin, J.Bouchet, E.Bousquet, F.Bruneval,
- G.Brunin, D.Caliste, M.Cote,
- J.Denier, C. Dreyer, Ph.Ghosez, M.Giantomassi, Y.Gillet, O.Gingras,
- D.R.Hamann, G.Hautier, F.Jollet, G. Jomard,
- A.Martin, 
- H.P.C. Miranda, F.Naccarato, G.Petretto, N.A. Pike, V.Planes,
- S.Prokhorenko, T. Rangel, F.Ricci, G.-M.Rignanese, M.Royo, M.Stengel, M.Torrent,
- M.J.van Setten, B.Van Troeye, M.J.Verstraete, J.Wiktor, J.W.Zwanziger, and X.Gonze.
- Comment: a global overview of ABINIT, with focus on selected capabilities .
- Note that a version of this paper, that is not formatted for J. Chem. Phys 
- is available at https://www.abinit.org/sites/default/files/ABINIT20_JPC.pdf .
- The licence allows the authors to put it on the Web.
- DOI and bibtex: see https://docs.abinit.org/theory/bibliography/#romero2020
-
- [6] Recent developments in the ABINIT software package.
- Computer Phys. Comm. 205, 106 (2016).
- X.Gonze, F.Jollet, F.Abreu Araujo, D.Adams, B.Amadon, T.Applencourt,
- C.Audouze, J.-M.Beuken, J.Bieder, A.Bokhanchuk, E.Bousquet, F.Bruneval
- D.Caliste, M.Cote, F.Dahm, F.Da Pieve, M.Delaveau, M.Di Gennaro,
- B.Dorado, C.Espejo, G.Geneste, L.Genovese, A.Gerossier, M.Giantomassi,
- Y.Gillet, D.R.Hamann, L.He, G.Jomard, J.Laflamme Janssen, S.Le Roux,
- A.Levitt, A.Lherbier, F.Liu, I.Lukacevic, A.Martin, C.Martins,
- M.J.T.Oliveira, S.Ponce, Y.Pouillon, T.Rangel, G.-M.Rignanese,
- A.H.Romero, B.Rousseau, O.Rubel, A.A.Shukri, M.Stankovski, M.Torrent,
- M.J.Van Setten, B.Van Troeye, M.J.Verstraete, D.Waroquier, J.Wiktor,
- B.Xu, A.Zhou, J.W.Zwanziger.
- Comment: the fourth generic paper describing the ABINIT project.
- Note that a version of this paper, that is not formatted for Computer Phys. Comm. 
- is available at https://www.abinit.org/sites/default/files/ABINIT16.pdf .
- The licence allows the authors to put it on the Web.
- DOI and bibtex: see https://docs.abinit.org/theory/bibliography/#gonze2016
-
- Proc.   0 individual time (sec): cpu=         46.1  wall=         48.5

================================================================================

 Calculation completed.
.Delivered  12 WARNINGs and   3 COMMENTs to log file.
+Overall time at end (sec) : cpu=         46.1  wall=         48.5
