
 **** DERIVATIVE DATABASE ****    
+DDB, Version number    100401

 Total DDB for complete Silicon FxE tensor

    usepaw         0
     natom         2
      nkpt       128
    nsppol         1
      nsym        48
    ntypat         1
    occopt         1
     nband         4
     acell  0.10102000000000D+02  0.10102000000000D+02  0.10102000000000D+02
       amu  0.28085500000000D+02
   dilatmx  0.10000000000000D+01
      ecut  0.40000000000000D+01
    ecutsm  0.00000000000000D+00
     intxc         0
      iscf         7
       ixc         7
       kpt -0.12500000000000D+00 -0.25000000000000D+00  0.00000000000000D+00
           -0.25000000000000D+00 -0.12500000000000D+00  0.00000000000000D+00
           -0.12500000000000D+00 -0.12500000000000D+00  0.12500000000000D+00
           -0.12500000000000D+00  0.50000000000000D+00  0.00000000000000D+00
           -0.25000000000000D+00 -0.37500000000000D+00  0.00000000000000D+00
           -0.12500000000000D+00 -0.37500000000000D+00  0.12500000000000D+00
           -0.37500000000000D+00 -0.25000000000000D+00  0.00000000000000D+00
           -0.25000000000000D+00 -0.25000000000000D+00  0.12500000000000D+00
           -0.12500000000000D+00 -0.25000000000000D+00  0.25000000000000D+00
            0.50000000000000D+00 -0.12500000000000D+00  0.00000000000000D+00
           -0.37500000000000D+00 -0.12500000000000D+00  0.12500000000000D+00
           -0.25000000000000D+00 -0.12500000000000D+00  0.25000000000000D+00
           -0.12500000000000D+00 -0.12500000000000D+00  0.37500000000000D+00
           -0.12500000000000D+00  0.25000000000000D+00  0.00000000000000D+00
           -0.25000000000000D+00  0.37500000000000D+00  0.00000000000000D+00
           -0.12500000000000D+00  0.37500000000000D+00  0.12500000000000D+00
           -0.37500000000000D+00  0.50000000000000D+00  0.00000000000000D+00
           -0.25000000000000D+00  0.50000000000000D+00  0.12500000000000D+00
           -0.12500000000000D+00  0.50000000000000D+00  0.25000000000000D+00
            0.50000000000000D+00 -0.37500000000000D+00  0.00000000000000D+00
           -0.37500000000000D+00 -0.37500000000000D+00  0.12500000000000D+00
           -0.25000000000000D+00 -0.37500000000000D+00  0.25000000000000D+00
           -0.12500000000000D+00 -0.37500000000000D+00  0.37500000000000D+00
            0.37500000000000D+00 -0.25000000000000D+00  0.00000000000000D+00
            0.50000000000000D+00 -0.25000000000000D+00  0.12500000000000D+00
           -0.37500000000000D+00 -0.25000000000000D+00  0.25000000000000D+00
           -0.25000000000000D+00 -0.25000000000000D+00  0.37500000000000D+00
           -0.12500000000000D+00 -0.25000000000000D+00  0.50000000000000D+00
            0.25000000000000D+00 -0.12500000000000D+00  0.00000000000000D+00
            0.37500000000000D+00 -0.12500000000000D+00  0.12500000000000D+00
            0.50000000000000D+00 -0.12500000000000D+00  0.25000000000000D+00
           -0.37500000000000D+00 -0.12500000000000D+00  0.37500000000000D+00
           -0.25000000000000D+00 -0.12500000000000D+00  0.50000000000000D+00
           -0.12500000000000D+00 -0.12500000000000D+00 -0.37500000000000D+00
           -0.12500000000000D+00  0.00000000000000D+00  0.00000000000000D+00
           -0.12500000000000D+00  0.12500000000000D+00  0.12500000000000D+00
           -0.25000000000000D+00  0.25000000000000D+00  0.12500000000000D+00
           -0.12500000000000D+00  0.25000000000000D+00  0.25000000000000D+00
           -0.37500000000000D+00  0.37500000000000D+00  0.12500000000000D+00
           -0.25000000000000D+00  0.37500000000000D+00  0.25000000000000D+00
           -0.12500000000000D+00  0.37500000000000D+00  0.37500000000000D+00
            0.50000000000000D+00  0.50000000000000D+00  0.12500000000000D+00
           -0.37500000000000D+00  0.50000000000000D+00  0.25000000000000D+00
           -0.25000000000000D+00  0.50000000000000D+00  0.37500000000000D+00
           -0.12500000000000D+00  0.50000000000000D+00  0.50000000000000D+00
            0.37500000000000D+00 -0.37500000000000D+00  0.12500000000000D+00
            0.50000000000000D+00 -0.37500000000000D+00  0.25000000000000D+00
           -0.37500000000000D+00 -0.37500000000000D+00  0.37500000000000D+00
           -0.25000000000000D+00 -0.37500000000000D+00  0.50000000000000D+00
           -0.12500000000000D+00 -0.37500000000000D+00 -0.37500000000000D+00
            0.25000000000000D+00 -0.25000000000000D+00  0.12500000000000D+00
            0.37500000000000D+00 -0.25000000000000D+00  0.25000000000000D+00
            0.50000000000000D+00 -0.25000000000000D+00  0.37500000000000D+00
           -0.37500000000000D+00 -0.25000000000000D+00  0.50000000000000D+00
           -0.25000000000000D+00 -0.25000000000000D+00 -0.37500000000000D+00
           -0.12500000000000D+00 -0.25000000000000D+00 -0.25000000000000D+00
            0.00000000000000D+00 -0.12500000000000D+00  0.00000000000000D+00
            0.12500000000000D+00 -0.12500000000000D+00  0.12500000000000D+00
            0.25000000000000D+00 -0.12500000000000D+00  0.25000000000000D+00
            0.37500000000000D+00 -0.12500000000000D+00  0.37500000000000D+00
            0.50000000000000D+00 -0.12500000000000D+00  0.50000000000000D+00
           -0.37500000000000D+00 -0.12500000000000D+00 -0.37500000000000D+00
           -0.25000000000000D+00 -0.12500000000000D+00 -0.25000000000000D+00
           -0.12500000000000D+00 -0.12500000000000D+00 -0.12500000000000D+00
           -0.37500000000000D+00  0.00000000000000D+00  0.00000000000000D+00
           -0.25000000000000D+00  0.00000000000000D+00  0.12500000000000D+00
           -0.12500000000000D+00  0.00000000000000D+00  0.25000000000000D+00
           -0.37500000000000D+00  0.12500000000000D+00  0.12500000000000D+00
           -0.25000000000000D+00  0.12500000000000D+00  0.25000000000000D+00
           -0.12500000000000D+00  0.12500000000000D+00  0.37500000000000D+00
            0.50000000000000D+00  0.25000000000000D+00  0.12500000000000D+00
           -0.37500000000000D+00  0.25000000000000D+00  0.25000000000000D+00
           -0.25000000000000D+00  0.25000000000000D+00  0.37500000000000D+00
           -0.12500000000000D+00  0.25000000000000D+00  0.50000000000000D+00
            0.37500000000000D+00  0.37500000000000D+00  0.12500000000000D+00
            0.50000000000000D+00  0.37500000000000D+00  0.25000000000000D+00
           -0.37500000000000D+00  0.37500000000000D+00  0.37500000000000D+00
           -0.25000000000000D+00  0.37500000000000D+00  0.50000000000000D+00
           -0.12500000000000D+00  0.37500000000000D+00 -0.37500000000000D+00
            0.25000000000000D+00  0.50000000000000D+00  0.12500000000000D+00
            0.37500000000000D+00  0.50000000000000D+00  0.25000000000000D+00
            0.50000000000000D+00  0.50000000000000D+00  0.37500000000000D+00
           -0.37500000000000D+00  0.50000000000000D+00  0.50000000000000D+00
           -0.25000000000000D+00  0.50000000000000D+00 -0.37500000000000D+00
           -0.12500000000000D+00  0.50000000000000D+00 -0.25000000000000D+00
            0.00000000000000D+00 -0.37500000000000D+00  0.00000000000000D+00
            0.12500000000000D+00 -0.37500000000000D+00  0.12500000000000D+00
            0.25000000000000D+00 -0.37500000000000D+00  0.25000000000000D+00
            0.37500000000000D+00 -0.37500000000000D+00  0.37500000000000D+00
            0.50000000000000D+00 -0.37500000000000D+00  0.50000000000000D+00
           -0.37500000000000D+00 -0.37500000000000D+00 -0.37500000000000D+00
           -0.25000000000000D+00 -0.37500000000000D+00 -0.25000000000000D+00
           -0.12500000000000D+00 -0.37500000000000D+00 -0.12500000000000D+00
            0.00000000000000D+00 -0.25000000000000D+00  0.12500000000000D+00
            0.12500000000000D+00 -0.25000000000000D+00  0.25000000000000D+00
            0.25000000000000D+00 -0.25000000000000D+00  0.37500000000000D+00
            0.37500000000000D+00 -0.25000000000000D+00  0.50000000000000D+00
            0.50000000000000D+00 -0.25000000000000D+00 -0.37500000000000D+00
           -0.37500000000000D+00 -0.25000000000000D+00 -0.25000000000000D+00
           -0.25000000000000D+00 -0.25000000000000D+00 -0.12500000000000D+00
            0.00000000000000D+00 -0.12500000000000D+00  0.25000000000000D+00
            0.12500000000000D+00 -0.12500000000000D+00  0.37500000000000D+00
            0.25000000000000D+00 -0.12500000000000D+00  0.50000000000000D+00
            0.37500000000000D+00 -0.12500000000000D+00 -0.37500000000000D+00
            0.50000000000000D+00 -0.12500000000000D+00 -0.25000000000000D+00
           -0.37500000000000D+00 -0.12500000000000D+00 -0.12500000000000D+00
            0.50000000000000D+00  0.00000000000000D+00  0.12500000000000D+00
           -0.37500000000000D+00  0.00000000000000D+00  0.25000000000000D+00
           -0.25000000000000D+00  0.00000000000000D+00  0.37500000000000D+00
           -0.12500000000000D+00  0.00000000000000D+00  0.50000000000000D+00
            0.00000000000000D+00  0.50000000000000D+00  0.12500000000000D+00
            0.00000000000000D+00 -0.37500000000000D+00  0.25000000000000D+00
            0.00000000000000D+00 -0.25000000000000D+00  0.37500000000000D+00
            0.00000000000000D+00 -0.12500000000000D+00  0.50000000000000D+00
            0.25000000000000D+00  0.00000000000000D+00  0.12500000000000D+00
            0.37500000000000D+00  0.00000000000000D+00  0.25000000000000D+00
            0.50000000000000D+00  0.00000000000000D+00  0.37500000000000D+00
           -0.37500000000000D+00  0.00000000000000D+00  0.50000000000000D+00
           -0.25000000000000D+00  0.00000000000000D+00 -0.37500000000000D+00
           -0.12500000000000D+00  0.00000000000000D+00 -0.25000000000000D+00
            0.00000000000000D+00  0.25000000000000D+00  0.12500000000000D+00
            0.00000000000000D+00  0.37500000000000D+00  0.25000000000000D+00
            0.00000000000000D+00  0.50000000000000D+00  0.37500000000000D+00
            0.00000000000000D+00 -0.37500000000000D+00  0.50000000000000D+00
            0.00000000000000D+00 -0.25000000000000D+00 -0.37500000000000D+00
            0.00000000000000D+00 -0.12500000000000D+00 -0.25000000000000D+00
            0.00000000000000D+00  0.00000000000000D+00  0.12500000000000D+00
            0.00000000000000D+00  0.00000000000000D+00  0.37500000000000D+00
    kptnrm  0.10000000000000D+01
     ngfft        15   15   15
    nspden         1
   nspinor         1
       occ  0.20000000000000D+01  0.20000000000000D+01  0.20000000000000D+01
            0.20000000000000D+01
     rprim  0.00000000000000D+00  0.50000000000000D+00  0.50000000000000D+00
            0.50000000000000D+00  0.00000000000000D+00  0.50000000000000D+00
            0.50000000000000D+00  0.50000000000000D+00  0.00000000000000D+00
  dfpt_sciss  0.00000000000000D+00
    spinat  0.00000000000000D+00  0.00000000000000D+00  0.00000000000000D+00
            0.00000000000000D+00  0.00000000000000D+00  0.00000000000000D+00
    symafm         1    1    1    1    1    1    1    1    1    1    1    1
                   1    1    1    1    1    1    1    1    1    1    1    1
                   1    1    1    1    1    1    1    1    1    1    1    1
                   1    1    1    1    1    1    1    1    1    1    1    1
    symrel         1    0    0    0    1    0    0    0    1
                  -1    0    0    0   -1    0    0    0   -1
                   0   -1    1    0   -1    0    1   -1    0
                   0    1   -1    0    1    0   -1    1    0
                  -1    0    0   -1    0    1   -1    1    0
                   1    0    0    1    0   -1    1   -1    0
                   0    1   -1    1    0   -1    0    0   -1
                   0   -1    1   -1    0    1    0    0    1
                  -1    0    0   -1    1    0   -1    0    1
                   1    0    0    1   -1    0    1    0   -1
                   0   -1    1    1   -1    0    0   -1    0
                   0    1   -1   -1    1    0    0    1    0
                   1    0    0    0    0    1    0    1    0
                  -1    0    0    0    0   -1    0   -1    0
                   0    1   -1    0    0   -1    1    0   -1
                   0   -1    1    0    0    1   -1    0    1
                  -1    0    1   -1    1    0   -1    0    0
                   1    0   -1    1   -1    0    1    0    0
                   0   -1    0    1   -1    0    0   -1    1
                   0    1    0   -1    1    0    0    1   -1
                   1    0   -1    0    0   -1    0    1   -1
                  -1    0    1    0    0    1    0   -1    1
                   0    1    0    0    0    1    1    0    0
                   0   -1    0    0    0   -1   -1    0    0
                   1    0   -1    0    1   -1    0    0   -1
                  -1    0    1    0   -1    1    0    0    1
                   0   -1    0    0   -1    1    1   -1    0
                   0    1    0    0    1   -1   -1    1    0
                  -1    0    1   -1    0    0   -1    1    0
                   1    0   -1    1    0    0    1   -1    0
                   0    1    0    1    0    0    0    0    1
                   0   -1    0   -1    0    0    0    0   -1
                   0    0   -1    0    1   -1    1    0   -1
                   0    0    1    0   -1    1   -1    0    1
                   1   -1    0    0   -1    1    0   -1    0
                  -1    1    0    0    1   -1    0    1    0
                   0    0    1    1    0    0    0    1    0
                   0    0   -1   -1    0    0    0   -1    0
                  -1    1    0   -1    0    0   -1    0    1
                   1   -1    0    1    0    0    1    0   -1
                   0    0    1    0    1    0    1    0    0
                   0    0   -1    0   -1    0   -1    0    0
                   1   -1    0    0   -1    0    0   -1    1
                  -1    1    0    0    1    0    0    1   -1
                   0    0   -1    1    0   -1    0    1   -1
                   0    0    1   -1    0    1    0   -1    1
                  -1    1    0   -1    0    1   -1    0    0
                   1   -1    0    1    0   -1    1    0    0
     tnons  0.00000000000000D+00  0.00000000000000D+00  0.00000000000000D+00
            0.25000000000000D+00  0.25000000000000D+00  0.25000000000000D+00
            0.00000000000000D+00  0.00000000000000D+00  0.00000000000000D+00
            0.25000000000000D+00  0.25000000000000D+00  0.25000000000000D+00
            0.00000000000000D+00  0.00000000000000D+00  0.00000000000000D+00
            0.25000000000000D+00  0.25000000000000D+00  0.25000000000000D+00
            0.00000000000000D+00  0.00000000000000D+00  0.00000000000000D+00
            0.25000000000000D+00  0.25000000000000D+00  0.25000000000000D+00
            0.00000000000000D+00  0.00000000000000D+00  0.00000000000000D+00
            0.25000000000000D+00  0.25000000000000D+00  0.25000000000000D+00
            0.00000000000000D+00  0.00000000000000D+00  0.00000000000000D+00
            0.25000000000000D+00  0.25000000000000D+00  0.25000000000000D+00
            0.00000000000000D+00  0.00000000000000D+00  0.00000000000000D+00
            0.25000000000000D+00  0.25000000000000D+00  0.25000000000000D+00
            0.00000000000000D+00  0.00000000000000D+00  0.00000000000000D+00
            0.25000000000000D+00  0.25000000000000D+00  0.25000000000000D+00
            0.00000000000000D+00  0.00000000000000D+00  0.00000000000000D+00
            0.25000000000000D+00  0.25000000000000D+00  0.25000000000000D+00
            0.00000000000000D+00  0.00000000000000D+00  0.00000000000000D+00
            0.25000000000000D+00  0.25000000000000D+00  0.25000000000000D+00
            0.00000000000000D+00  0.00000000000000D+00  0.00000000000000D+00
            0.25000000000000D+00  0.25000000000000D+00  0.25000000000000D+00
            0.00000000000000D+00  0.00000000000000D+00  0.00000000000000D+00
            0.25000000000000D+00  0.25000000000000D+00  0.25000000000000D+00
            0.00000000000000D+00  0.00000000000000D+00  0.00000000000000D+00
            0.25000000000000D+00  0.25000000000000D+00  0.25000000000000D+00
            0.00000000000000D+00  0.00000000000000D+00  0.00000000000000D+00
            0.25000000000000D+00  0.25000000000000D+00  0.25000000000000D+00
            0.00000000000000D+00  0.00000000000000D+00  0.00000000000000D+00
            0.25000000000000D+00  0.25000000000000D+00  0.25000000000000D+00
            0.00000000000000D+00  0.00000000000000D+00  0.00000000000000D+00
            0.25000000000000D+00  0.25000000000000D+00  0.25000000000000D+00
            0.00000000000000D+00  0.00000000000000D+00  0.00000000000000D+00
            0.25000000000000D+00  0.25000000000000D+00  0.25000000000000D+00
            0.00000000000000D+00  0.00000000000000D+00  0.00000000000000D+00
            0.25000000000000D+00  0.25000000000000D+00  0.25000000000000D+00
            0.00000000000000D+00  0.00000000000000D+00  0.00000000000000D+00
            0.25000000000000D+00  0.25000000000000D+00  0.25000000000000D+00
            0.00000000000000D+00  0.00000000000000D+00  0.00000000000000D+00
            0.25000000000000D+00  0.25000000000000D+00  0.25000000000000D+00
            0.00000000000000D+00  0.00000000000000D+00  0.00000000000000D+00
            0.25000000000000D+00  0.25000000000000D+00  0.25000000000000D+00
            0.00000000000000D+00  0.00000000000000D+00  0.00000000000000D+00
            0.25000000000000D+00  0.25000000000000D+00  0.25000000000000D+00
            0.00000000000000D+00  0.00000000000000D+00  0.00000000000000D+00
            0.25000000000000D+00  0.25000000000000D+00  0.25000000000000D+00
            0.00000000000000D+00  0.00000000000000D+00  0.00000000000000D+00
            0.25000000000000D+00  0.25000000000000D+00  0.25000000000000D+00
    tolwfr  0.10000000000000D+01
   tphysel  0.00000000000000D+00
    tsmear  0.10000000000000D-01
     typat         1    1
       wtk  0.78125000000000D-02  0.78125000000000D-02  0.78125000000000D-02
            0.78125000000000D-02  0.78125000000000D-02  0.78125000000000D-02
            0.78125000000000D-02  0.78125000000000D-02  0.78125000000000D-02
            0.78125000000000D-02  0.78125000000000D-02  0.78125000000000D-02
            0.78125000000000D-02  0.78125000000000D-02  0.78125000000000D-02
            0.78125000000000D-02  0.78125000000000D-02  0.78125000000000D-02
            0.78125000000000D-02  0.78125000000000D-02  0.78125000000000D-02
            0.78125000000000D-02  0.78125000000000D-02  0.78125000000000D-02
            0.78125000000000D-02  0.78125000000000D-02  0.78125000000000D-02
            0.78125000000000D-02  0.78125000000000D-02  0.78125000000000D-02
            0.78125000000000D-02  0.78125000000000D-02  0.78125000000000D-02
            0.78125000000000D-02  0.78125000000000D-02  0.78125000000000D-02
            0.78125000000000D-02  0.78125000000000D-02  0.78125000000000D-02
            0.78125000000000D-02  0.78125000000000D-02  0.78125000000000D-02
            0.78125000000000D-02  0.78125000000000D-02  0.78125000000000D-02
            0.78125000000000D-02  0.78125000000000D-02  0.78125000000000D-02
            0.78125000000000D-02  0.78125000000000D-02  0.78125000000000D-02
            0.78125000000000D-02  0.78125000000000D-02  0.78125000000000D-02
            0.78125000000000D-02  0.78125000000000D-02  0.78125000000000D-02
            0.78125000000000D-02  0.78125000000000D-02  0.78125000000000D-02
            0.78125000000000D-02  0.78125000000000D-02  0.78125000000000D-02
            0.78125000000000D-02  0.78125000000000D-02  0.78125000000000D-02
            0.78125000000000D-02  0.78125000000000D-02  0.78125000000000D-02
            0.78125000000000D-02  0.78125000000000D-02  0.78125000000000D-02
            0.78125000000000D-02  0.78125000000000D-02  0.78125000000000D-02
            0.78125000000000D-02  0.78125000000000D-02  0.78125000000000D-02
            0.78125000000000D-02  0.78125000000000D-02  0.78125000000000D-02
            0.78125000000000D-02  0.78125000000000D-02  0.78125000000000D-02
            0.78125000000000D-02  0.78125000000000D-02  0.78125000000000D-02
            0.78125000000000D-02  0.78125000000000D-02  0.78125000000000D-02
            0.78125000000000D-02  0.78125000000000D-02  0.78125000000000D-02
            0.78125000000000D-02  0.78125000000000D-02  0.78125000000000D-02
            0.78125000000000D-02  0.78125000000000D-02  0.78125000000000D-02
            0.78125000000000D-02  0.78125000000000D-02  0.78125000000000D-02
            0.78125000000000D-02  0.78125000000000D-02  0.78125000000000D-02
            0.78125000000000D-02  0.78125000000000D-02  0.78125000000000D-02
            0.78125000000000D-02  0.78125000000000D-02  0.78125000000000D-02
            0.78125000000000D-02  0.78125000000000D-02  0.78125000000000D-02
            0.78125000000000D-02  0.78125000000000D-02  0.78125000000000D-02
            0.78125000000000D-02  0.78125000000000D-02  0.78125000000000D-02
            0.78125000000000D-02  0.78125000000000D-02  0.78125000000000D-02
            0.78125000000000D-02  0.78125000000000D-02  0.78125000000000D-02
            0.78125000000000D-02  0.78125000000000D-02
      xred  0.00000000000000D+00  0.00000000000000D+00  0.00000000000000D+00
            0.25000000000000D+00  0.25000000000000D+00  0.25000000000000D+00
     znucl  0.14000000000000D+02
      zion  0.40000000000000D+01
 
  Description of the potentials (KB energies)
  vrsio8 (for pseudopotentials)=100401
  usepaw =  0
  dimekb =  3       lmnmax=  9
  Atom type=    1   pspso=  0   nekb=   2
  iln lpsang iproj  ekb(:)
     1     0     1     3.2751939E+00  0.0000000E+00
     2     1     1     0.0000000E+00  1.8262411E+00
 
 **** Database of total energy derivatives ****
 Number of data blocks=    4
  
 Total energy                 - # elements :       1
 -0.79021310905848D+01  0.00000000000000D+00
  
 1st derivatives              - # elements :      12
   1   1  0.00000000000000D+00  0.00000000000000D+00
   2   1  0.00000000000000D+00  0.00000000000000D+00
   3   1  0.00000000000000D+00  0.00000000000000D+00
   1   2  0.00000000000000D+00  0.00000000000000D+00
   2   2  0.00000000000000D+00  0.00000000000000D+00
   3   2  0.00000000000000D+00  0.00000000000000D+00
   1   5  0.13665610618240D-03  0.00000000000000D+00
   2   5  0.13665610618240D-03  0.00000000000000D+00
   3   5  0.13665610618240D-03  0.00000000000000D+00
   1   6  0.00000000000000D+00  0.00000000000000D+00
   2   6  0.00000000000000D+00  0.00000000000000D+00
   3   6  0.00000000000000D+00  0.00000000000000D+00
  
 2nd derivatives (non-stat.)  - # elements :     171
 qpt  0.00000000E+00  0.00000000E+00  0.00000000E+00   1.0
   1   1   1   1  0.70211571802350D+01  0.00000000000000D+00
   2   1   1   1  0.35105785901175D+01  0.00000000000000D+00
   3   1   1   1  0.35105785901175D+01  0.00000000000000D+00
   1   2   1   1 -0.70210784713157D+01  0.15596751794374D-16
   2   2   1   1 -0.35105392356579D+01 -0.18742484062906D-16
   3   2   1   1 -0.35105392356579D+01  0.21435104092041D-16
   1   4   1   1 -0.25375015848446D+02  0.00000000000000D+00
   2   4   1   1  0.21568282280252D-17  0.00000000000000D+00
   3   4   1   1 -0.22551405187698D-16  0.00000000000000D+00
   1   1   2   1  0.35105785901175D+01  0.00000000000000D+00
   2   1   2   1  0.70211571802350D+01  0.00000000000000D+00
   3   1   2   1  0.35105785901175D+01  0.00000000000000D+00
   1   2   2   1 -0.35105392356579D+01 -0.18742484062906D-16
   2   2   2   1 -0.70210784713157D+01 -0.51977520080360D-17
   3   2   2   1 -0.35105392356579D+01  0.11037379891190D-16
   1   4   2   1  0.74014868308344D-16  0.00000000000000D+00
   2   4   2   1 -0.25375015848446D+02  0.00000000000000D+00
   3   4   2   1 -0.61008959747570D-16  0.00000000000000D+00
   1   1   3   1  0.35105785901175D+01  0.00000000000000D+00
   2   1   3   1  0.35105785901175D+01  0.00000000000000D+00
   3   1   3   1  0.70211571802350D+01  0.00000000000000D+00
   1   2   3   1 -0.35105392356579D+01  0.21435104092041D-16
   2   2   3   1 -0.35105392356579D+01  0.11037379891190D-16
   3   2   3   1 -0.70210784713157D+01  0.93423074357436D-17
   1   4   3   1  0.00000000000000D+00  0.00000000000000D+00
   2   4   3   1 -0.60220936762307D-16  0.00000000000000D+00
   3   4   3   1 -0.25375015848446D+02  0.00000000000000D+00
   1   1   1   2 -0.70210784713157D+01 -0.15596751794374D-16
   2   1   1   2 -0.35105392356579D+01  0.18742484062906D-16
   3   1   1   2 -0.35105392356579D+01 -0.21435104092041D-16
   1   2   1   2  0.70211571802350D+01  0.00000000000000D+00
   2   2   1   2  0.35105785901175D+01  0.00000000000000D+00
   3   2   1   2  0.35105785901175D+01  0.00000000000000D+00
   1   4   1   2 -0.25375015848446D+02  0.00000000000000D+00
   2   4   1   2  0.21568282280252D-17  0.00000000000000D+00
   3   4   1   2 -0.22551405187698D-16  0.00000000000000D+00
   1   1   2   2 -0.35105392356579D+01  0.18742484062906D-16
   2   1   2   2 -0.70210784713157D+01  0.51977520080360D-17
   3   1   2   2 -0.35105392356579D+01 -0.11037379891190D-16
   1   2   2   2  0.35105785901175D+01  0.00000000000000D+00
   2   2   2   2  0.70211571802350D+01  0.00000000000000D+00
   3   2   2   2  0.35105785901175D+01  0.00000000000000D+00
   1   4   2   2  0.74014868308344D-16  0.00000000000000D+00
   2   4   2   2 -0.25375015848446D+02  0.00000000000000D+00
   3   4   2   2 -0.61008959747570D-16  0.00000000000000D+00
   1   1   3   2 -0.35105392356579D+01 -0.21435104092041D-16
   2   1   3   2 -0.35105392356579D+01 -0.11037379891190D-16
   3   1   3   2 -0.70210784713157D+01 -0.93423074357436D-17
   1   2   3   2  0.35105785901175D+01  0.00000000000000D+00
   2   2   3   2  0.35105785901175D+01  0.00000000000000D+00
   3   2   3   2  0.70211571802350D+01  0.00000000000000D+00
   1   4   3   2  0.00000000000000D+00  0.00000000000000D+00
   2   4   3   2 -0.60220936762307D-16  0.00000000000000D+00
   3   4   3   2 -0.25375015848446D+02  0.00000000000000D+00
   1   1   1   4 -0.25375023944272D+02  0.00000000000000D+00
   2   1   1   4  0.00000000000000D+00  0.00000000000000D+00
   3   1   1   4 -0.74014868308344D-16  0.00000000000000D+00
   1   2   1   4 -0.25375023944272D+02  0.00000000000000D+00
   2   2   1   4  0.74014868308344D-16  0.00000000000000D+00
   3   2   1   4 -0.74014868308344D-16  0.00000000000000D+00
   1   4   1   4 -0.28082142487998D+03  0.00000000000000D+00
   2   4   1   4  0.93607141626658D+02  0.00000000000000D+00
   3   4   1   4  0.93607141626658D+02  0.00000000000000D+00
   1   1   2   4 -0.60341369847865D-16  0.00000000000000D+00
   2   1   2   4 -0.25375023944272D+02  0.00000000000000D+00
   3   1   2   4  0.70706810911344D-16  0.00000000000000D+00
   1   2   2   4 -0.69189696596380D-16  0.00000000000000D+00
   2   2   2   4 -0.25375023944272D+02  0.00000000000000D+00
   3   2   2   4  0.70706810911344D-16  0.00000000000000D+00
   1   4   2   4  0.93607141626658D+02  0.00000000000000D+00
   2   4   2   4 -0.28082142487998D+03  0.00000000000000D+00
   3   4   2   4  0.93607141626658D+02  0.00000000000000D+00
   1   1   3   4  0.20155022697009D-16  0.00000000000000D+00
   2   1   3   4  0.20179087586843D-16  0.00000000000000D+00
   3   1   3   4 -0.25375023944272D+02  0.00000000000000D+00
   1   2   3   4  0.29003348342617D-16  0.00000000000000D+00
   2   2   3   4 -0.53835780721500D-16  0.00000000000000D+00
   3   2   3   4 -0.25375023944272D+02  0.00000000000000D+00
   1   4   3   4  0.93607141626658D+02  0.00000000000000D+00
   2   4   3   4  0.93607141626658D+02  0.00000000000000D+00
   3   4   3   4 -0.28082142487998D+03  0.00000000000000D+00
   1   1   1   5  0.18625142605860D-07  0.00000000000000D+00
   2   1   1   5  0.14448967107007D-07  0.00000000000000D+00
   3   1   1   5 -0.35157186672864D-08  0.00000000000000D+00
   1   2   1   5  0.18610528632767D-07  0.00000000000000D+00
   2   2   1   5  0.14439490272533D-07  0.00000000000000D+00
   3   2   1   5 -0.35105993349997D-08  0.00000000000000D+00
   1   4   1   5 -0.16673103523266D-07  0.00000000000000D+00
   2   4   1   5  0.37882817568858D-07  0.00000000000000D+00
   3   4   1   5 -0.45846642518851D-07  0.00000000000000D+00
   1   5   1   5  0.16797151669611D+01  0.00000000000000D+00
   2   5   1   5  0.61430339689361D+00  0.00000000000000D+00
   3   5   1   5  0.61430340105637D+00  0.00000000000000D+00
   1   6   1   5 -0.33855489601463D-11  0.00000000000000D+00
   2   6   1   5  0.20936657755251D-14  0.00000000000000D+00
   3   6   1   5 -0.10653510685216D-10  0.00000000000000D+00
   1   1   2   5  0.14459767351024D-07  0.00000000000000D+00
   2   1   2   5  0.18625703767227D-07  0.00000000000000D+00
   3   1   2   5 -0.35203287158469D-08  0.00000000000000D+00
   1   2   2   5  0.14445148499852D-07  0.00000000000000D+00
   2   2   2   5  0.18625590836942D-07  0.00000000000000D+00
   3   2   2   5 -0.35058430241886D-08  0.00000000000000D+00
   1   4   2   5  0.37891038594053D-07  0.00000000000000D+00
   2   4   2   5 -0.16669030167102D-07  0.00000000000000D+00
   3   4   2   5 -0.45852604850165D-07  0.00000000000000D+00
   1   5   2   5  0.61430337803147D+00  0.00000000000000D+00
   2   5   2   5  0.16797151444730D+01  0.00000000000000D+00
   3   5   2   5  0.61430337624416D+00  0.00000000000000D+00
   1   6   2   5  0.10658992725623D-10  0.00000000000000D+00
   2   6   2   5  0.15468061560565D-14  0.00000000000000D+00
   3   6   2   5 -0.10651292531123D-10  0.00000000000000D+00
   1   1   3   5  0.11157174238076D-07  0.00000000000000D+00
   2   1   3   5  0.11150297650901D-07  0.00000000000000D+00
   3   1   3   5  0.15174597095897D-07  0.00000000000000D+00
   1   2   3   5  0.11151946657317D-07  0.00000000000000D+00
   2   2   3   5  0.11159581870154D-07  0.00000000000000D+00
   3   2   3   5  0.15189112559323D-07  0.00000000000000D+00
   1   4   3   5 -0.14633395729954D-07  0.00000000000000D+00
   2   4   3   5 -0.14634728504554D-07  0.00000000000000D+00
   3   4   3   5  0.78996372599054D-07  0.00000000000000D+00
   1   5   3   5  0.61430339935307D+00  0.00000000000000D+00
   2   5   3   5  0.61430339798483D+00  0.00000000000000D+00
   3   5   3   5  0.16797151684132D+01  0.00000000000000D+00
   1   6   3   5  0.10657512337882D-10  0.00000000000000D+00
   2   6   3   5  0.11901857547537D-14  0.00000000000000D+00
   3   6   3   5  0.33870353818745D-11  0.00000000000000D+00
   1   1   1   6  0.14705759355969D-07  0.00000000000000D+00
   2   1   1   6 -0.10025444317766D+01  0.00000000000000D+00
   3   1   1   6 -0.10025444210960D+01  0.00000000000000D+00
   1   2   1   6  0.14685471177042D-07  0.00000000000000D+00
   2   2   1   6  0.10025459965469D+01  0.00000000000000D+00
   3   2   1   6  0.10025460072073D+01  0.00000000000000D+00
   1   4   1   6 -0.13857230187588D-05  0.00000000000000D+00
   2   4   1   6  0.13877791881799D-05  0.00000000000000D+00
   3   4   1   6  0.15649332497227D-05  0.00000000000000D+00
   1   5   1   6 -0.33856476680893D-11  0.00000000000000D+00
   2   5   1   6  0.10658924231904D-10  0.00000000000000D+00
   3   5   1   6  0.10657687133018D-10  0.00000000000000D+00
   1   6   1   6  0.10692020783394D+01  0.00000000000000D+00
   2   6   1   6 -0.64958005899872D-11  0.00000000000000D+00
   3   6   1   6  0.23585444100709D-15  0.00000000000000D+00
   1   1   2   6 -0.10025444698628D+01  0.00000000000000D+00
   2   1   2   6  0.14675861740169D-07  0.00000000000000D+00
   3   1   2   6 -0.10025444591923D+01  0.00000000000000D+00
   1   2   2   6  0.10025460346362D+01  0.00000000000000D+00
   2   2   2   6  0.14675704549946D-07  0.00000000000000D+00
   3   2   2   6  0.10025460452664D+01  0.00000000000000D+00
   1   4   2   6  0.13877999128821D-05  0.00000000000000D+00
   2   4   2   6 -0.13857437883204D-05  0.00000000000000D+00
   3   4   2   6  0.15649192875419D-05  0.00000000000000D+00
   1   5   2   6  0.19681250695075D-14  0.00000000000000D+00
   2   5   2   6  0.14871501504018D-14  0.00000000000000D+00
   3   5   2   6  0.11530716475334D-14  0.00000000000000D+00
   1   6   2   6 -0.64959779063835D-11  0.00000000000000D+00
   2   6   2   6  0.10692020829169D+01  0.00000000000000D+00
   3   6   2   6  0.64873787831538D-11  0.00000000000000D+00
   1   1   3   6 -0.10025446881481D+01  0.00000000000000D+00
   2   1   3   6 -0.10025446881377D+01  0.00000000000000D+00
   3   1   3   6  0.85296618954566D-08  0.00000000000000D+00
   1   2   3   6  0.10025462381901D+01  0.00000000000000D+00
   2   2   3   6  0.10025462381804D+01  0.00000000000000D+00
   3   2   3   6  0.85497618069697D-08  0.00000000000000D+00
   1   4   3   6  0.14513829022665D-05  0.00000000000000D+00
   2   4   3   6  0.14513843067416D-05  0.00000000000000D+00
   3   4   3   6 -0.14278993804296D-05  0.00000000000000D+00
   1   5   3   6 -0.10653591248220D-10  0.00000000000000D+00
   2   5   3   6 -0.10651644313799D-10  0.00000000000000D+00
   3   5   3   6  0.33865524086771D-11  0.00000000000000D+00
   1   6   3   6  0.25565555420965D-15  0.00000000000000D+00
   2   6   3   6  0.64874513975026D-11  0.00000000000000D+00
   3   6   3   6  0.10692021696017D+01  0.00000000000000D+00
  
 3rd derivatives (long wave)  - # elements :     324
 qpt  0.00000000E+00  0.00000000E+00  0.00000000E+00   1.0
      0.00000000E+00  0.00000000E+00  0.00000000E+00   1.0
      0.00000000E+00  0.00000000E+00  0.00000000E+00   1.0
   1   1   1   1   1  10  0.00000000000000D+00 -0.49799488016554D-15
   2   1   1   1   1  10  0.00000000000000D+00 -0.16434959749625D-06
   3   1   1   1   1  10  0.00000000000000D+00 -0.15387211418089D-06
   1   2   1   1   1  10  0.00000000000000D+00 -0.30710437224821D+01
   2   2   1   1   1  10  0.00000000000000D+00  0.15355215638444D+01
   3   2   1   1   1  10  0.00000000000000D+00  0.15355217951390D+01
   1   4   1   1   1  10  0.00000000000000D+00  0.26327187629765D+02
   2   4   1   1   1  10  0.00000000000000D+00 -0.13163595519293D+02
   3   4   1   1   1  10  0.00000000000000D+00 -0.13163594100963D+02
   1   1   2   1   1  10  0.00000000000000D+00  0.16434959823519D-06
   2   1   2   1   1  10  0.00000000000000D+00  0.14883643508236D-15
   3   1   2   1   1  10  0.00000000000000D+00 -0.63904173590097D-07
   1   2   2   1   1  10  0.00000000000000D+00  0.15355218246198D+01
   2   2   2   1   1  10  0.00000000000000D+00  0.30710437579657D+01
   3   2   2   1   1  10  0.00000000000000D+00  0.15355219188030D+01
   1   4   2   1   1  10  0.00000000000000D+00  0.47712009422650D-06
   2   4   2   1   1  10  0.00000000000000D+00 -0.13163594760550D+02
   3   4   2   1   1  10  0.00000000000000D+00  0.29706064742269D-06
   1   1   3   1   1  10  0.00000000000000D+00  0.15387211658346D-06
   2   1   3   1   1  10  0.00000000000000D+00  0.63904173920104D-07
   3   1   3   1   1  10  0.00000000000000D+00  0.11829034176081D-15
   1   2   3   1   1  10  0.00000000000000D+00  0.15355217613978D+01
   2   2   3   1   1  10  0.00000000000000D+00  0.15355217076197D+01
   3   2   3   1   1  10  0.00000000000000D+00  0.30710437713628D+01
   1   4   3   1   1  10  0.00000000000000D+00  0.33061022831593D-08
   2   4   3   1   1  10  0.00000000000000D+00 -0.27685498469063D-06
   3   4   3   1   1  10  0.00000000000000D+00 -0.13163593453818D+02
   1   1   1   2   1  10  0.00000000000000D+00  0.30710437224821D+01
   2   1   1   2   1  10  0.00000000000000D+00 -0.15355218246198D+01
   3   1   1   2   1  10  0.00000000000000D+00 -0.15355217613978D+01
   1   2   1   2   1  10  0.00000000000000D+00  0.31704336708816D-16
   2   2   1   2   1  10  0.00000000000000D+00  0.23109953726497D-06
   3   2   1   2   1  10  0.00000000000000D+00  0.98087066069599D-07
   1   4   1   2   1  10  0.00000000000000D+00 -0.26327273606562D+02
   2   4   1   2   1  10  0.00000000000000D+00  0.13163637109785D+02
   3   4   1   2   1  10  0.00000000000000D+00  0.13163638515928D+02
   1   1   2   2   1  10  0.00000000000000D+00 -0.15355215638444D+01
   2   1   2   2   1  10  0.00000000000000D+00 -0.30710437579657D+01
   3   1   2   2   1  10  0.00000000000000D+00 -0.15355217076197D+01
   1   2   2   2   1  10  0.00000000000000D+00 -0.23109953644665D-06
   2   2   2   2   1  10  0.00000000000000D+00 -0.21226458148836D-15
   3   2   2   2   1  10  0.00000000000000D+00 -0.45762767459858D-07
   1   4   2   2   1  10  0.00000000000000D+00  0.76451760782470D-06
   2   4   2   2   1  10  0.00000000000000D+00  0.13163636652334D+02
   3   4   2   2   1  10  0.00000000000000D+00  0.32893362289814D-06
   1   1   3   2   1  10  0.00000000000000D+00 -0.15355217951390D+01
   2   1   3   2   1  10  0.00000000000000D+00 -0.15355219188030D+01
   3   1   3   2   1  10  0.00000000000000D+00 -0.30710437713628D+01
   1   2   3   2   1  10  0.00000000000000D+00 -0.98087065269166D-07
   2   2   3   2   1  10  0.00000000000000D+00  0.45762767724565D-07
   3   2   3   2   1  10  0.00000000000000D+00 -0.33203712424124D-15
   1   4   3   2   1  10  0.00000000000000D+00  0.29347817677972D-06
   2   4   3   2   1  10  0.00000000000000D+00 -0.32006037451344D-06
   3   4   3   2   1  10  0.00000000000000D+00  0.13163637876244D+02
   1   1   1   5   1  10 -0.95157121035557D+00  0.00000000000000D+00
   2   1   1   5   1  10  0.89213192138731D+00  0.00000000000000D+00
   3   1   1   5   1  10  0.89213196455935D+00  0.00000000000000D+00
   1   2   1   5   1  10 -0.95156073480154D+00  0.00000000000000D+00
   2   2   1   5   1  10  0.89213160186546D+00  0.00000000000000D+00
   3   2   1   5   1  10  0.89213152778273D+00  0.00000000000000D+00
   1   4   1   5   1  10  0.00000000000000D+00  0.56959471667317D+02
   2   4   1   5   1  10  0.00000000000000D+00 -0.23667743248522D+02
   3   4   1   5   1  10  0.00000000000000D+00 -0.23667742913295D+02
   1   1   2   5   1  10 -0.18437031008557D+01  0.00000000000000D+00
   2   1   2   5   1  10 -0.47319171247159D-07  0.00000000000000D+00
   3   1   2   5   1  10 -0.89213193443863D+00  0.00000000000000D+00
   1   2   2   5   1  10 -0.18436921727789D+01  0.00000000000000D+00
   2   2   2   5   1  10  0.10849789583307D-06  0.00000000000000D+00
   3   2   2   5   1  10 -0.89213147205586D+00  0.00000000000000D+00
   1   4   2   5   1  10  0.00000000000000D+00  0.56959470903872D+02
   2   4   2   5   1  10  0.00000000000000D+00 -0.23667742739880D+02
   3   4   2   5   1  10  0.00000000000000D+00 -0.96239852483320D+01
   1   1   3   5   1  10 -0.18437031622879D+01  0.00000000000000D+00
   2   1   3   5   1  10 -0.89213187851623D+00  0.00000000000000D+00
   3   1   3   5   1  10 -0.33386209487694D-08  0.00000000000000D+00
   1   2   3   5   1  10 -0.18436921828967D+01  0.00000000000000D+00
   2   2   3   5   1  10 -0.89213142075353D+00  0.00000000000000D+00
   3   2   3   5   1  10  0.28477121848681D-07  0.00000000000000D+00
   1   4   3   5   1  10  0.00000000000000D+00  0.56959471723656D+02
   2   4   3   5   1  10  0.00000000000000D+00 -0.96239856972387D+01
   3   4   3   5   1  10  0.00000000000000D+00 -0.23667742949804D+02
   1   1   1   6   1  10 -0.17396446768452D+01  0.00000000000000D+00
   2   1   1   6   1  10 -0.86982233138706D+00  0.00000000000000D+00
   3   1   1   6   1  10 -0.86982234195850D+00  0.00000000000000D+00
   1   2   1   6   1  10 -0.17396414135078D+01  0.00000000000000D+00
   2   2   1   6   1  10 -0.86982072310964D+00  0.00000000000000D+00
   3   2   1   6   1  10 -0.86982071858156D+00  0.00000000000000D+00
   1   4   1   6   1  10  0.00000000000000D+00  0.75525574426790D+01
   2   4   1   6   1  10  0.00000000000000D+00  0.79296341068988D-07
   3   4   1   6   1  10  0.00000000000000D+00  0.71577314920854D-07
   1   1   2   6   1  10  0.86982234050574D+00  0.00000000000000D+00
   2   1   2   6   1  10  0.69750650585017D-08  0.00000000000000D+00
   3   1   2   6   1  10 -0.86982235416887D+00  0.00000000000000D+00
   1   2   2   6   1  10  0.86982071363175D+00  0.00000000000000D+00
   2   2   2   6   1  10  0.13413617711155D-07  0.00000000000000D+00
   3   2   2   6   1  10 -0.86982070873754D+00  0.00000000000000D+00
   1   4   2   6   1  10  0.00000000000000D+00 -0.75525574425156D+01
   2   4   2   6   1  10  0.00000000000000D+00 -0.64159994177371D-07
   3   4   2   6   1  10  0.00000000000000D+00  0.75525572931734D+01
   1   1   3   6   1  10  0.86982233944857D+00  0.00000000000000D+00
   2   1   3   6   1  10 -0.86982239149343D+00  0.00000000000000D+00
   3   1   3   6   1  10  0.25727723782912D-07  0.00000000000000D+00
   1   2   3   6   1  10  0.86982084099661D+00  0.00000000000000D+00
   2   2   3   6   1  10 -0.86982077932896D+00  0.00000000000000D+00
   3   2   3   6   1  10 -0.17014281769999D-08  0.00000000000000D+00
   1   4   3   6   1  10  0.00000000000000D+00 -0.75525572619753D+01
   2   4   3   6   1  10  0.00000000000000D+00  0.75525571121525D+01
   3   4   3   6   1  10  0.00000000000000D+00 -0.10047365114557D-06
   1   1   1   1   2  10  0.00000000000000D+00  0.14073602100327D-15
   2   1   1   1   2  10  0.00000000000000D+00  0.63508292272120D-07
   3   1   1   1   2  10  0.00000000000000D+00 -0.39718071503717D-07
   1   2   1   1   2  10  0.00000000000000D+00  0.30710437224345D+01
   2   2   1   1   2  10  0.00000000000000D+00  0.15355220240730D+01
   3   2   1   1   2  10  0.00000000000000D+00  0.15355219911938D+01
   1   4   1   1   2  10  0.00000000000000D+00 -0.13163594791464D+02
   2   4   1   1   2  10  0.00000000000000D+00  0.57719522396047D-06
   3   4   1   1   2  10  0.00000000000000D+00  0.26311994037897D-06
   1   1   2   1   2  10  0.00000000000000D+00 -0.63508291818601D-07
   2   1   2   1   2  10  0.00000000000000D+00  0.17924464373207D-14
   3   1   2   1   2  10  0.00000000000000D+00  0.15452211105133D-06
   1   2   2   1   2  10  0.00000000000000D+00  0.15355217632947D+01
   2   2   2   1   2  10  0.00000000000000D+00 -0.30710437578783D+01
   3   2   2   1   2  10  0.00000000000000D+00  0.15355218993179D+01
   1   4   2   1   2  10  0.00000000000000D+00 -0.13163595562075D+02
   2   4   2   1   2  10  0.00000000000000D+00  0.26327187742307D+02
   3   4   2   1   2  10  0.00000000000000D+00 -0.13163594278600D+02
   1   1   3   1   2  10  0.00000000000000D+00  0.39718071529487D-07
   2   1   3   1   2  10  0.00000000000000D+00 -0.15452211066787D-06
   3   1   3   1   2  10  0.00000000000000D+00  0.48486059478407D-15
   1   2   3   1   2  10  0.00000000000000D+00  0.15355217799014D+01
   2   2   3   1   2  10  0.00000000000000D+00  0.15355218651941D+01
   3   2   3   1   2  10  0.00000000000000D+00  0.30710437713235D+01
   1   4   3   1   2  10  0.00000000000000D+00 -0.31997531091789D-06
   2   4   3   1   2  10  0.00000000000000D+00  0.29353111329475D-06
   3   4   3   1   2  10  0.00000000000000D+00 -0.13163593486167D+02
   1   1   1   2   2  10  0.00000000000000D+00 -0.30710437224346D+01
   2   1   1   2   2  10  0.00000000000000D+00 -0.15355217632947D+01
   3   1   1   2   2  10  0.00000000000000D+00 -0.15355217799014D+01
   1   2   1   2   2  10  0.00000000000000D+00 -0.30331273825343D-15
   2   2   1   2   2  10  0.00000000000000D+00 -0.13027107698489D-06
   3   2   1   2   2  10  0.00000000000000D+00 -0.69470402645395D-07
   1   4   1   2   2  10  0.00000000000000D+00  0.13163636683201D+02
   2   4   1   2   2  10  0.00000000000000D+00  0.66452626007645D-06
   3   4   1   2   2  10  0.00000000000000D+00  0.36285141231397D-06
   1   1   2   2   2  10  0.00000000000000D+00 -0.15355220240730D+01
   2   1   2   2   2  10  0.00000000000000D+00  0.30710437578783D+01
   3   1   2   2   2  10  0.00000000000000D+00 -0.15355218651941D+01
   1   2   2   2   2  10  0.00000000000000D+00  0.13027107755030D-06
   2   2   2   2   2  10  0.00000000000000D+00  0.44519758354034D-15
   3   2   2   2   2  10  0.00000000000000D+00 -0.21063267433947D-06
   1   4   2   2   2  10  0.00000000000000D+00  0.13163637152617D+02
   2   4   2   2   2  10  0.00000000000000D+00 -0.26327273719166D+02
   3   4   2   2   2  10  0.00000000000000D+00  0.13163638693567D+02
   1   1   3   2   2  10  0.00000000000000D+00 -0.15355219911938D+01
   2   1   3   2   2  10  0.00000000000000D+00 -0.15355218993179D+01
   3   1   3   2   2  10  0.00000000000000D+00 -0.30710437713235D+01
   1   2   3   2   2  10  0.00000000000000D+00  0.69470402513441D-07
   2   2   3   2   2  10  0.00000000000000D+00  0.21063267661265D-06
   3   2   3   2   2  10  0.00000000000000D+00  0.29026817457796D-15
   1   4   3   2   2  10  0.00000000000000D+00 -0.27654443534041D-06
   2   4   3   2   2  10  0.00000000000000D+00  0.18944433724176D-08
   3   4   3   2   2  10  0.00000000000000D+00  0.13163637909076D+02
   1   1   1   5   2  10 -0.73531618469236D-07  0.00000000000000D+00
   2   1   1   5   2  10 -0.18437031650354D+01  0.00000000000000D+00
   3   1   1   5   2  10 -0.89213197755884D+00  0.00000000000000D+00
   1   2   1   5   2  10  0.82271163230750D-07  0.00000000000000D+00
   2   2   1   5   2  10 -0.18436922374479D+01  0.00000000000000D+00
   3   2   1   5   2  10 -0.89213151472865D+00  0.00000000000000D+00
   1   4   1   5   2  10  0.00000000000000D+00 -0.23667743248522D+02
   2   4   1   5   2  10  0.00000000000000D+00  0.56959471667781D+02
   3   4   1   5   2  10  0.00000000000000D+00 -0.96239855059630D+01
   1   1   2   5   2  10  0.89213187793868D+00  0.00000000000000D+00
   2   1   2   5   2  10 -0.95157116875970D+00  0.00000000000000D+00
   3   1   2   5   2  10  0.89213192144999D+00  0.00000000000000D+00
   1   2   2   5   2  10  0.89213155845807D+00  0.00000000000000D+00
   2   2   2   5   2  10 -0.95156069269640D+00  0.00000000000000D+00
   3   2   2   5   2  10  0.89213148512036D+00  0.00000000000000D+00
   1   4   2   5   2  10  0.00000000000000D+00 -0.23667742739889D+02
   2   4   2   5   2  10  0.00000000000000D+00  0.56959470904835D+02
   3   4   2   5   2  10  0.00000000000000D+00 -0.23667742916622D+02
   1   1   3   5   2  10 -0.89213192409102D+00  0.00000000000000D+00
   2   1   3   5   2  10 -0.18437031353793D+01  0.00000000000000D+00
   3   1   3   5   2  10 -0.28531083981466D-07  0.00000000000000D+00
   1   2   3   5   2  10 -0.89213146633875D+00  0.00000000000000D+00
   2   2   3   5   2  10 -0.18436921560110D+01  0.00000000000000D+00
   3   2   3   5   2  10  0.34832215881899D-08  0.00000000000000D+00
   1   4   3   5   2  10  0.00000000000000D+00 -0.96239856972301D+01
   2   4   3   5   2  10  0.00000000000000D+00  0.56959471724619D+02
   3   4   3   5   2  10  0.00000000000000D+00 -0.23667743077575D+02
   1   1   1   6   2  10 -0.21004056303816D-08  0.00000000000000D+00
   2   1   1   6   2  10  0.86982234067555D+00  0.00000000000000D+00
   3   1   1   6   2  10 -0.86982235291290D+00  0.00000000000000D+00
   1   2   1   6   2  10  0.43557873034581D-08  0.00000000000000D+00
   2   2   1   6   2  10  0.86982071384213D+00  0.00000000000000D+00
   3   2   1   6   2  10 -0.86982070764606D+00  0.00000000000000D+00
   1   4   1   6   2  10  0.00000000000000D+00 -0.79220125970040D-07
   2   4   1   6   2  10  0.00000000000000D+00 -0.75525574429973D+01
   3   4   1   6   2  10  0.00000000000000D+00  0.75525572920350D+01
   1   1   2   6   2  10 -0.86982233120449D+00  0.00000000000000D+00
   2   1   2   6   2  10 -0.17396446860769D+01  0.00000000000000D+00
   3   1   2   6   2  10 -0.86982234322036D+00  0.00000000000000D+00
   1   2   2   6   2  10 -0.86982072292720D+00  0.00000000000000D+00
   2   2   2   6   2  10 -0.17396414227161D+01  0.00000000000000D+00
   3   2   2   6   2  10 -0.86982071967962D+00  0.00000000000000D+00
   1   4   2   6   2  10  0.00000000000000D+00  0.64096191100392D-07
   2   4   2   6   2  10  0.00000000000000D+00  0.75525574425793D+01
   3   4   2   6   2  10  0.00000000000000D+00  0.85158768554011D-07
   1   1   3   6   2  10 -0.86982239631199D+00  0.00000000000000D+00
   2   1   3   6   2  10  0.86982233462522D+00  0.00000000000000D+00
   3   1   3   6   2  10  0.18861359816382D-08  0.00000000000000D+00
   1   2   3   6   2  10 -0.86982078412853D+00  0.00000000000000D+00
   2   2   3   6   2  10  0.86982083619398D+00  0.00000000000000D+00
   3   2   3   6   2  10 -0.25920401106929D-07  0.00000000000000D+00
   1   4   3   6   2  10  0.00000000000000D+00  0.75525571121546D+01
   2   4   3   6   2  10  0.00000000000000D+00 -0.75525572620390D+01
   3   4   3   6   2  10  0.00000000000000D+00 -0.49470389775488D-07
   1   1   1   1   3  10  0.00000000000000D+00 -0.35510693795536D-15
   2   1   1   1   3  10  0.00000000000000D+00  0.45711990545195D-07
   3   1   1   1   3  10  0.00000000000000D+00 -0.12561136977416D-07
   1   2   1   1   3  10  0.00000000000000D+00  0.30710437223970D+01
   2   2   1   1   3  10  0.00000000000000D+00  0.15355219270803D+01
   3   2   1   1   3  10  0.00000000000000D+00  0.15355220932683D+01
   1   4   1   1   3  10  0.00000000000000D+00 -0.13163593656829D+02
   2   4   1   1   3  10  0.00000000000000D+00  0.29996078887995D-06
   3   4   1   1   3  10  0.00000000000000D+00  0.15512150297219D-05
   1   1   2   1   3  10  0.00000000000000D+00 -0.45711990714203D-07
   2   1   2   1   3  10  0.00000000000000D+00  0.30473466625131D-15
   3   1   2   1   3  10  0.00000000000000D+00 -0.25624308056416D-06
   1   2   2   1   3  10  0.00000000000000D+00  0.15355219270902D+01
   2   2   2   1   3  10  0.00000000000000D+00  0.30710437578889D+01
   3   2   2   1   3  10  0.00000000000000D+00  0.15355221948836D+01
   1   4   2   1   3  10  0.00000000000000D+00  0.26593289393149D-06
   2   4   2   1   3  10  0.00000000000000D+00 -0.13163593601151D+02
   3   4   2   1   3  10  0.00000000000000D+00  0.16519646330296D-05
   1   1   3   1   3  10  0.00000000000000D+00  0.12561139217991D-07
   2   1   3   1   3  10  0.00000000000000D+00  0.25624308069676D-06
   3   1   3   1   3  10  0.00000000000000D+00 -0.27427434506022D-14
   1   2   3   1   3  10  0.00000000000000D+00  0.15355217225921D+01
   2   2   3   1   3  10  0.00000000000000D+00  0.15355218243208D+01
   3   2   3   1   3  10  0.00000000000000D+00 -0.30710437711879D+01
   1   4   3   1   3  10  0.00000000000000D+00 -0.13163594283776D+02
   2   4   3   1   3  10  0.00000000000000D+00 -0.13163594450893D+02
   3   4   3   1   3  10  0.00000000000000D+00  0.26327186624609D+02
   1   1   1   2   3  10  0.00000000000000D+00 -0.30710437223970D+01
   2   1   1   2   3  10  0.00000000000000D+00 -0.15355219270902D+01
   3   1   1   2   3  10  0.00000000000000D+00 -0.15355217225921D+01
   1   2   1   2   3  10  0.00000000000000D+00 -0.47144725623458D-15
   2   2   1   2   3  10  0.00000000000000D+00 -0.45699564172862D-07
   3   2   1   2   3  10  0.00000000000000D+00  0.10032977513358D-06
   1   4   1   2   3  10  0.00000000000000D+00  0.13163637757148D+02
   2   4   1   2   3  10  0.00000000000000D+00  0.20000199878765D-06
   3   4   1   2   3  10  0.00000000000000D+00  0.14653274429508D-05
   1   1   2   2   3  10  0.00000000000000D+00 -0.15355219270803D+01
   2   1   2   2   3  10  0.00000000000000D+00 -0.30710437578889D+01
   3   1   2   2   3  10  0.00000000000000D+00 -0.15355218243208D+01
   1   2   2   2   3  10  0.00000000000000D+00  0.45699562073193D-07
   2   2   2   2   3  10  0.00000000000000D+00 -0.10583293356748D-14
   3   2   2   2   3  10  0.00000000000000D+00  0.34439321193003D-06
   1   4   2   2   3  10  0.00000000000000D+00  0.23405448319918D-06
   2   4   2   2   3  10  0.00000000000000D+00  0.13163637701469D+02
   3   4   2   2   3  10  0.00000000000000D+00  0.13645406613602D-05
   1   1   3   2   3  10  0.00000000000000D+00 -0.15355220932683D+01
   2   1   3   2   3  10  0.00000000000000D+00 -0.15355221948836D+01
   3   1   3   2   3  10  0.00000000000000D+00  0.30710437711879D+01
   1   2   3   2   3  10  0.00000000000000D+00 -0.10032977491175D-06
   2   2   3   2   3  10  0.00000000000000D+00 -0.34439321313203D-06
   3   2   3   2   3  10  0.00000000000000D+00  0.14281758084350D-15
   1   4   3   2   3  10  0.00000000000000D+00  0.13163638255593D+02
   2   4   3   2   3  10  0.00000000000000D+00  0.13163638423589D+02
   3   4   3   2   3  10  0.00000000000000D+00 -0.26327274828805D+02
   1   1   1   5   3  10 -0.14928917495224D-06  0.00000000000000D+00
   2   1   1   5   3  10 -0.89213207751959D+00  0.00000000000000D+00
   3   1   1   5   3  10 -0.18437034679664D+01  0.00000000000000D+00
   1   2   1   5   3  10  0.14045993089974D-06  0.00000000000000D+00
   2   2   1   5   3  10 -0.89213144575362D+00  0.00000000000000D+00
   3   2   1   5   3  10 -0.18436919731343D+01  0.00000000000000D+00
   1   4   1   5   3  10  0.00000000000000D+00 -0.23667742913304D+02
   2   4   1   5   3  10  0.00000000000000D+00 -0.96239855059542D+01
   3   4   1   5   3  10  0.00000000000000D+00  0.56959471668742D+02
   1   1   2   5   3  10 -0.89213203410581D+00  0.00000000000000D+00
   2   1   2   5   3  10 -0.17546573360977D-06  0.00000000000000D+00
   3   1   2   5   3  10 -0.18437033931202D+01  0.00000000000000D+00
   1   2   2   5   3  10 -0.89213140236605D+00  0.00000000000000D+00
   2   2   2   5   3  10  0.11428773070971D-06  0.00000000000000D+00
   3   2   2   5   3  10 -0.18436918981159D+01  0.00000000000000D+00
   1   4   2   5   3  10  0.00000000000000D+00 -0.96239852483146D+01
   2   4   2   5   3  10  0.00000000000000D+00 -0.23667742916631D+02
   3   4   2   5   3  10  0.00000000000000D+00  0.56959470905796D+02
   1   1   3   5   3  10  0.89213188569441D+00  0.00000000000000D+00
   2   1   3   5   3  10  0.89213184015650D+00  0.00000000000000D+00
   3   1   3   5   3  10 -0.95157130819631D+00  0.00000000000000D+00
   1   2   3   5   3  10  0.89213150468092D+00  0.00000000000000D+00
   2   2   3   5   3  10  0.89213145913475D+00  0.00000000000000D+00
   3   2   3   5   3  10 -0.95156070851343D+00  0.00000000000000D+00
   1   4   3   5   3  10  0.00000000000000D+00 -0.23667742949813D+02
   2   4   3   5   3  10  0.00000000000000D+00 -0.23667743077575D+02
   3   4   3   5   3  10  0.00000000000000D+00  0.56959471725081D+02
   1   1   1   6   3  10 -0.46187813222009D-08  0.00000000000000D+00
   2   1   1   6   3  10 -0.86982235731352D+00  0.00000000000000D+00
   3   1   1   6   3  10  0.86982235052156D+00  0.00000000000000D+00
   1   2   1   6   3  10  0.23715259769172D-08  0.00000000000000D+00
   2   2   1   6   3  10 -0.86982069719551D+00  0.00000000000000D+00
   3   2   1   6   3  10  0.86982071003800D+00  0.00000000000000D+00
   1   4   1   6   3  10  0.00000000000000D+00 -0.71437272475764D-07
   2   4   1   6   3  10  0.00000000000000D+00  0.75525572920369D+01
   3   4   1   6   3  10  0.00000000000000D+00 -0.75525574430610D+01
   1   1   2   6   3  10 -0.86982235712232D+00  0.00000000000000D+00
   2   1   2   6   3  10 -0.13679442727187D-07  0.00000000000000D+00
   3   1   2   6   3  10  0.86982235177531D+00  0.00000000000000D+00
   1   2   2   6   3  10 -0.86982069700269D+00  0.00000000000000D+00
   2   2   2   6   3  10 -0.67089548745201D-08  0.00000000000000D+00
   3   2   2   6   3  10  0.86982071112767D+00  0.00000000000000D+00
   1   4   2   6   3  10  0.00000000000000D+00  0.75525572931774D+01
   2   4   2   6   3  10  0.00000000000000D+00 -0.85095026149938D-07
   3   4   2   6   3  10  0.00000000000000D+00 -0.75525574426430D+01
   1   1   3   6   3  10 -0.86982244987469D+00  0.00000000000000D+00
   2   1   3   6   3  10 -0.86982244507239D+00  0.00000000000000D+00
   3   1   3   6   3  10 -0.17396449853813D+01  0.00000000000000D+00
   1   2   3   6   3  10 -0.86982073058480D+00  0.00000000000000D+00
   2   2   3   6   3  10 -0.86982072576243D+00  0.00000000000000D+00
   3   2   3   6   3  10 -0.17396413914952D+01  0.00000000000000D+00
   1   4   3   6   3  10  0.00000000000000D+00  0.10033384301282D-06
   2   4   3   6   3  10  0.00000000000000D+00  0.49394296694569D-07
   3   4   3   6   3  10  0.00000000000000D+00  0.75525572623578D+01

 List of bloks and their characteristics 
  
 Total energy                 - # elements :       1
  
 1st derivatives              - # elements :      12
  
 2nd derivatives (non-stat.)  - # elements :     171
 qpt  0.00000000E+00  0.00000000E+00  0.00000000E+00   1.0
  
 3rd derivatives (long wave)  - # elements :     324
 qpt  0.00000000E+00  0.00000000E+00  0.00000000E+00   1.0
      0.00000000E+00  0.00000000E+00  0.00000000E+00   1.0
      0.00000000E+00  0.00000000E+00  0.00000000E+00   1.0
