
 **** DERIVATIVE DATABASE ****    
+DDB, Version number    100401

 Total DDB for complete Silicon FxE tensor

    usepaw         0
     natom         2
      nkpt       128
    nsppol         1
      nsym         2
    ntypat         1
    occopt         1
     nband         4
     acell  0.10102000000000D+02  0.10600000000000D+02  0.94000000000000D+01
       amu  0.28085500000000D+02
   dilatmx  0.10000000000000D+01
      ecut  0.40000000000000D+01
    ecutsm  0.00000000000000D+00
     intxc         0
      iscf         7
       ixc         7
       kpt  0.00000000000000D+00 -0.12500000000000D+00  0.00000000000000D+00
            0.00000000000000D+00 -0.37500000000000D+00  0.00000000000000D+00
            0.12500000000000D+00 -0.25000000000000D+00  0.00000000000000D+00
            0.25000000000000D+00 -0.12500000000000D+00  0.00000000000000D+00
            0.00000000000000D+00 -0.25000000000000D+00  0.12500000000000D+00
            0.12500000000000D+00 -0.12500000000000D+00  0.12500000000000D+00
            0.00000000000000D+00 -0.12500000000000D+00  0.25000000000000D+00
            0.12500000000000D+00  0.50000000000000D+00  0.00000000000000D+00
            0.25000000000000D+00 -0.37500000000000D+00  0.00000000000000D+00
            0.37500000000000D+00 -0.25000000000000D+00  0.00000000000000D+00
            0.50000000000000D+00 -0.12500000000000D+00  0.00000000000000D+00
            0.00000000000000D+00  0.50000000000000D+00  0.12500000000000D+00
            0.12500000000000D+00 -0.37500000000000D+00  0.12500000000000D+00
            0.25000000000000D+00 -0.25000000000000D+00  0.12500000000000D+00
            0.37500000000000D+00 -0.12500000000000D+00  0.12500000000000D+00
            0.00000000000000D+00 -0.37500000000000D+00  0.25000000000000D+00
            0.12500000000000D+00 -0.25000000000000D+00  0.25000000000000D+00
            0.25000000000000D+00 -0.12500000000000D+00  0.25000000000000D+00
            0.00000000000000D+00 -0.25000000000000D+00  0.37500000000000D+00
            0.12500000000000D+00 -0.12500000000000D+00  0.37500000000000D+00
            0.00000000000000D+00 -0.12500000000000D+00  0.50000000000000D+00
            0.12500000000000D+00  0.25000000000000D+00  0.00000000000000D+00
            0.25000000000000D+00  0.37500000000000D+00  0.00000000000000D+00
            0.37500000000000D+00  0.50000000000000D+00  0.00000000000000D+00
            0.50000000000000D+00 -0.37500000000000D+00  0.00000000000000D+00
           -0.37500000000000D+00 -0.25000000000000D+00  0.00000000000000D+00
           -0.25000000000000D+00 -0.12500000000000D+00  0.00000000000000D+00
            0.00000000000000D+00  0.25000000000000D+00  0.12500000000000D+00
            0.12500000000000D+00  0.37500000000000D+00  0.12500000000000D+00
            0.25000000000000D+00  0.50000000000000D+00  0.12500000000000D+00
            0.37500000000000D+00 -0.37500000000000D+00  0.12500000000000D+00
            0.50000000000000D+00 -0.25000000000000D+00  0.12500000000000D+00
           -0.37500000000000D+00 -0.12500000000000D+00  0.12500000000000D+00
            0.00000000000000D+00  0.37500000000000D+00  0.25000000000000D+00
            0.12500000000000D+00  0.50000000000000D+00  0.25000000000000D+00
            0.25000000000000D+00 -0.37500000000000D+00  0.25000000000000D+00
            0.37500000000000D+00 -0.25000000000000D+00  0.25000000000000D+00
            0.50000000000000D+00 -0.12500000000000D+00  0.25000000000000D+00
            0.00000000000000D+00  0.50000000000000D+00  0.37500000000000D+00
            0.12500000000000D+00 -0.37500000000000D+00  0.37500000000000D+00
            0.25000000000000D+00 -0.25000000000000D+00  0.37500000000000D+00
            0.37500000000000D+00 -0.12500000000000D+00  0.37500000000000D+00
            0.00000000000000D+00 -0.37500000000000D+00  0.50000000000000D+00
            0.12500000000000D+00 -0.25000000000000D+00  0.50000000000000D+00
            0.25000000000000D+00 -0.12500000000000D+00  0.50000000000000D+00
            0.00000000000000D+00 -0.25000000000000D+00 -0.37500000000000D+00
            0.12500000000000D+00 -0.12500000000000D+00 -0.37500000000000D+00
            0.00000000000000D+00 -0.12500000000000D+00 -0.25000000000000D+00
            0.12500000000000D+00  0.00000000000000D+00  0.00000000000000D+00
            0.00000000000000D+00  0.00000000000000D+00  0.12500000000000D+00
            0.12500000000000D+00  0.12500000000000D+00  0.12500000000000D+00
            0.25000000000000D+00  0.25000000000000D+00  0.12500000000000D+00
            0.37500000000000D+00  0.37500000000000D+00  0.12500000000000D+00
            0.50000000000000D+00  0.50000000000000D+00  0.12500000000000D+00
           -0.37500000000000D+00 -0.37500000000000D+00  0.12500000000000D+00
           -0.25000000000000D+00 -0.25000000000000D+00  0.12500000000000D+00
           -0.12500000000000D+00 -0.12500000000000D+00  0.12500000000000D+00
            0.12500000000000D+00  0.25000000000000D+00  0.25000000000000D+00
            0.25000000000000D+00  0.37500000000000D+00  0.25000000000000D+00
            0.37500000000000D+00  0.50000000000000D+00  0.25000000000000D+00
            0.50000000000000D+00 -0.37500000000000D+00  0.25000000000000D+00
           -0.37500000000000D+00 -0.25000000000000D+00  0.25000000000000D+00
           -0.25000000000000D+00 -0.12500000000000D+00  0.25000000000000D+00
            0.12500000000000D+00  0.37500000000000D+00  0.37500000000000D+00
            0.25000000000000D+00  0.50000000000000D+00  0.37500000000000D+00
            0.37500000000000D+00 -0.37500000000000D+00  0.37500000000000D+00
            0.50000000000000D+00 -0.25000000000000D+00  0.37500000000000D+00
           -0.37500000000000D+00 -0.12500000000000D+00  0.37500000000000D+00
            0.12500000000000D+00  0.50000000000000D+00  0.50000000000000D+00
            0.25000000000000D+00 -0.37500000000000D+00  0.50000000000000D+00
            0.37500000000000D+00 -0.25000000000000D+00  0.50000000000000D+00
            0.50000000000000D+00 -0.12500000000000D+00  0.50000000000000D+00
            0.12500000000000D+00 -0.37500000000000D+00 -0.37500000000000D+00
            0.25000000000000D+00 -0.25000000000000D+00 -0.37500000000000D+00
            0.37500000000000D+00 -0.12500000000000D+00 -0.37500000000000D+00
            0.12500000000000D+00 -0.25000000000000D+00 -0.25000000000000D+00
            0.25000000000000D+00 -0.12500000000000D+00 -0.25000000000000D+00
            0.12500000000000D+00 -0.12500000000000D+00 -0.12500000000000D+00
            0.37500000000000D+00  0.00000000000000D+00  0.00000000000000D+00
            0.25000000000000D+00  0.00000000000000D+00  0.12500000000000D+00
            0.37500000000000D+00  0.12500000000000D+00  0.12500000000000D+00
            0.50000000000000D+00  0.25000000000000D+00  0.12500000000000D+00
           -0.37500000000000D+00  0.37500000000000D+00  0.12500000000000D+00
           -0.25000000000000D+00  0.50000000000000D+00  0.12500000000000D+00
           -0.12500000000000D+00 -0.37500000000000D+00  0.12500000000000D+00
            0.12500000000000D+00  0.00000000000000D+00  0.25000000000000D+00
            0.25000000000000D+00  0.12500000000000D+00  0.25000000000000D+00
            0.37500000000000D+00  0.25000000000000D+00  0.25000000000000D+00
            0.50000000000000D+00  0.37500000000000D+00  0.25000000000000D+00
           -0.37500000000000D+00  0.50000000000000D+00  0.25000000000000D+00
           -0.25000000000000D+00 -0.37500000000000D+00  0.25000000000000D+00
           -0.12500000000000D+00 -0.25000000000000D+00  0.25000000000000D+00
            0.00000000000000D+00  0.00000000000000D+00  0.37500000000000D+00
            0.12500000000000D+00  0.12500000000000D+00  0.37500000000000D+00
            0.25000000000000D+00  0.25000000000000D+00  0.37500000000000D+00
            0.37500000000000D+00  0.37500000000000D+00  0.37500000000000D+00
            0.50000000000000D+00  0.50000000000000D+00  0.37500000000000D+00
           -0.37500000000000D+00 -0.37500000000000D+00  0.37500000000000D+00
           -0.25000000000000D+00 -0.25000000000000D+00  0.37500000000000D+00
           -0.12500000000000D+00 -0.12500000000000D+00  0.37500000000000D+00
            0.12500000000000D+00  0.25000000000000D+00  0.50000000000000D+00
            0.25000000000000D+00  0.37500000000000D+00  0.50000000000000D+00
            0.37500000000000D+00  0.50000000000000D+00  0.50000000000000D+00
            0.50000000000000D+00 -0.37500000000000D+00  0.50000000000000D+00
           -0.37500000000000D+00 -0.25000000000000D+00  0.50000000000000D+00
           -0.25000000000000D+00 -0.12500000000000D+00  0.50000000000000D+00
            0.12500000000000D+00  0.37500000000000D+00 -0.37500000000000D+00
            0.25000000000000D+00  0.50000000000000D+00 -0.37500000000000D+00
            0.37500000000000D+00 -0.37500000000000D+00 -0.37500000000000D+00
            0.50000000000000D+00 -0.25000000000000D+00 -0.37500000000000D+00
           -0.37500000000000D+00 -0.12500000000000D+00 -0.37500000000000D+00
            0.12500000000000D+00  0.50000000000000D+00 -0.25000000000000D+00
            0.25000000000000D+00 -0.37500000000000D+00 -0.25000000000000D+00
            0.37500000000000D+00 -0.25000000000000D+00 -0.25000000000000D+00
            0.50000000000000D+00 -0.12500000000000D+00 -0.25000000000000D+00
            0.12500000000000D+00 -0.37500000000000D+00 -0.12500000000000D+00
            0.25000000000000D+00 -0.25000000000000D+00 -0.12500000000000D+00
            0.37500000000000D+00 -0.12500000000000D+00 -0.12500000000000D+00
            0.50000000000000D+00  0.00000000000000D+00  0.12500000000000D+00
            0.37500000000000D+00  0.00000000000000D+00  0.25000000000000D+00
            0.25000000000000D+00  0.00000000000000D+00  0.37500000000000D+00
            0.12500000000000D+00  0.00000000000000D+00  0.50000000000000D+00
           -0.25000000000000D+00  0.00000000000000D+00  0.12500000000000D+00
           -0.37500000000000D+00  0.00000000000000D+00  0.25000000000000D+00
            0.50000000000000D+00  0.00000000000000D+00  0.37500000000000D+00
            0.37500000000000D+00  0.00000000000000D+00  0.50000000000000D+00
            0.25000000000000D+00  0.00000000000000D+00 -0.37500000000000D+00
            0.12500000000000D+00  0.00000000000000D+00 -0.25000000000000D+00
    kptnrm  0.10000000000000D+01
     ngfft        15   15   12
    nspden         1
   nspinor         1
       occ  0.20000000000000D+01  0.20000000000000D+01  0.20000000000000D+01
            0.20000000000000D+01
     rprim  0.00000000000000D+00  0.50000000000000D+00  0.50000000000000D+00
            0.50000000000000D+00  0.00000000000000D+00  0.50000000000000D+00
            0.50000000000000D+00  0.50000000000000D+00  0.00000000000000D+00
  dfpt_sciss  0.00000000000000D+00
    spinat  0.00000000000000D+00  0.00000000000000D+00  0.00000000000000D+00
            0.00000000000000D+00  0.00000000000000D+00  0.00000000000000D+00
    symafm         1    1
    symrel         1    0    0    0    1    0    0    0    1
                  -1    0    0    0   -1    0    0    0   -1
     tnons  0.00000000000000D+00  0.00000000000000D+00  0.00000000000000D+00
            0.25000000000000D+00  0.25000000000000D+00  0.20000000000000D+00
    tolwfr  0.10000000000000D+01
   tphysel  0.00000000000000D+00
    tsmear  0.10000000000000D-01
     typat         1    1
       wtk  0.78125000000000D-02  0.78125000000000D-02  0.78125000000000D-02
            0.78125000000000D-02  0.78125000000000D-02  0.78125000000000D-02
            0.78125000000000D-02  0.78125000000000D-02  0.78125000000000D-02
            0.78125000000000D-02  0.78125000000000D-02  0.78125000000000D-02
            0.78125000000000D-02  0.78125000000000D-02  0.78125000000000D-02
            0.78125000000000D-02  0.78125000000000D-02  0.78125000000000D-02
            0.78125000000000D-02  0.78125000000000D-02  0.78125000000000D-02
            0.78125000000000D-02  0.78125000000000D-02  0.78125000000000D-02
            0.78125000000000D-02  0.78125000000000D-02  0.78125000000000D-02
            0.78125000000000D-02  0.78125000000000D-02  0.78125000000000D-02
            0.78125000000000D-02  0.78125000000000D-02  0.78125000000000D-02
            0.78125000000000D-02  0.78125000000000D-02  0.78125000000000D-02
            0.78125000000000D-02  0.78125000000000D-02  0.78125000000000D-02
            0.78125000000000D-02  0.78125000000000D-02  0.78125000000000D-02
            0.78125000000000D-02  0.78125000000000D-02  0.78125000000000D-02
            0.78125000000000D-02  0.78125000000000D-02  0.78125000000000D-02
            0.78125000000000D-02  0.78125000000000D-02  0.78125000000000D-02
            0.78125000000000D-02  0.78125000000000D-02  0.78125000000000D-02
            0.78125000000000D-02  0.78125000000000D-02  0.78125000000000D-02
            0.78125000000000D-02  0.78125000000000D-02  0.78125000000000D-02
            0.78125000000000D-02  0.78125000000000D-02  0.78125000000000D-02
            0.78125000000000D-02  0.78125000000000D-02  0.78125000000000D-02
            0.78125000000000D-02  0.78125000000000D-02  0.78125000000000D-02
            0.78125000000000D-02  0.78125000000000D-02  0.78125000000000D-02
            0.78125000000000D-02  0.78125000000000D-02  0.78125000000000D-02
            0.78125000000000D-02  0.78125000000000D-02  0.78125000000000D-02
            0.78125000000000D-02  0.78125000000000D-02  0.78125000000000D-02
            0.78125000000000D-02  0.78125000000000D-02  0.78125000000000D-02
            0.78125000000000D-02  0.78125000000000D-02  0.78125000000000D-02
            0.78125000000000D-02  0.78125000000000D-02  0.78125000000000D-02
            0.78125000000000D-02  0.78125000000000D-02  0.78125000000000D-02
            0.78125000000000D-02  0.78125000000000D-02  0.78125000000000D-02
            0.78125000000000D-02  0.78125000000000D-02  0.78125000000000D-02
            0.78125000000000D-02  0.78125000000000D-02  0.78125000000000D-02
            0.78125000000000D-02  0.78125000000000D-02  0.78125000000000D-02
            0.78125000000000D-02  0.78125000000000D-02  0.78125000000000D-02
            0.78125000000000D-02  0.78125000000000D-02  0.78125000000000D-02
            0.78125000000000D-02  0.78125000000000D-02  0.78125000000000D-02
            0.78125000000000D-02  0.78125000000000D-02  0.78125000000000D-02
            0.78125000000000D-02  0.78125000000000D-02  0.78125000000000D-02
            0.78125000000000D-02  0.78125000000000D-02  0.78125000000000D-02
            0.78125000000000D-02  0.78125000000000D-02  0.78125000000000D-02
            0.78125000000000D-02  0.78125000000000D-02
      xred  0.50000000000000D-01 -0.50000000000000D-01 -0.29160849267211D-17
            0.20000000000000D+00  0.30000000000000D+00  0.20000000000000D+00
     znucl  0.14000000000000D+02
      zion  0.40000000000000D+01
 
  Description of the potentials (KB energies)
  vrsio8 (for pseudopotentials)=100401
  usepaw =  0
  dimekb =  3       lmnmax=  9
  Atom type=    1   pspso=  0   nekb=   2
  iln lpsang iproj  ekb(:)
     1     0     1     3.2751939E+00  0.0000000E+00
     2     1     1     0.0000000E+00  1.8262411E+00
 
 **** Database of total energy derivatives ****
 Number of data blocks=    4
  
 Total energy                 - # elements :       1
 -0.78670666680133D+01  0.00000000000000D+00
  
 1st derivatives              - # elements :      12
   1   1  0.25797726210017D+00  0.00000000000000D+00
   2   1 -0.23564074198274D+00  0.00000000000000D+00
   3   1  0.16847957508258D+00  0.00000000000000D+00
   1   2 -0.25797726210017D+00  0.00000000000000D+00
   2   2  0.23564074198274D+00  0.00000000000000D+00
   3   2 -0.16847957508258D+00  0.00000000000000D+00
   1   5 -0.12107759183714D-03  0.00000000000000D+00
   2   5  0.11277133435596D-03  0.00000000000000D+00
   3   5  0.33535110074420D-04  0.00000000000000D+00
   1   6  0.10059215036011D-03  0.00000000000000D+00
   2   6 -0.22328544940725D-03  0.00000000000000D+00
   3   6 -0.25068817418347D-03  0.00000000000000D+00
  
 2nd derivatives (non-stat.)  - # elements :     171
 qpt  0.00000000E+00  0.00000000E+00  0.00000000E+00   1.0
   1   1   1   1  0.38775558536669D+01  0.00000000000000D+00
   2   1   1   1  0.62546573649280D+01  0.00000000000000D+00
   3   1   1   1  0.40814397664226D+01  0.00000000000000D+00
   1   2   1   1 -0.38775034740960D+01  0.59965072403114D-17
   2   2   1   1 -0.62545931366264D+01 -0.14679249355647D-16
   3   2   1   1 -0.40813953385253D+01 -0.94147562226549D-17
   1   4   1   1 -0.25344721804167D+02  0.00000000000000D+00
   2   4   1   1  0.20585728153691D+00  0.00000000000000D+00
   3   4   1   1 -0.47143954847846D+00  0.00000000000000D+00
   1   1   2   1  0.62546634954855D+01  0.00000000000000D+00
   2   1   2   1  0.14449222772664D+02  0.00000000000000D+00
   3   1   2   1  0.56096804002808D+01  0.00000000000000D+00
   1   2   2   1 -0.62545985724440D+01 -0.14679249355647D-16
   2   2   2   1 -0.14449147521320D+02  0.22045726678297D-16
   3   2   2   1 -0.56096189044232D+01 -0.12028649761355D-16
   1   4   2   1 -0.55687161955623D-01  0.00000000000000D+00
   2   4   2   1 -0.25126826187499D+02  0.00000000000000D+00
   3   4   2   1 -0.14288768344861D+00  0.00000000000000D+00
   1   1   3   1  0.40814416683352D+01  0.00000000000000D+00
   2   1   3   1  0.56096792986273D+01  0.00000000000000D+00
   3   1   3   1  0.58779053753974D+01  0.00000000000000D+00
   1   2   3   1 -0.40813968631684D+01 -0.94147562226549D-17
   2   2   3   1 -0.56096197059166D+01 -0.12028649761355D-16
   3   2   3   1 -0.58778916770232D+01  0.44242558756140D-17
   1   4   3   1 -0.28813810363509D+00  0.00000000000000D+00
   2   4   3   1  0.23008075969909D+00  0.00000000000000D+00
   3   4   3   1 -0.25641797521051D+02  0.00000000000000D+00
   1   1   1   2 -0.38775034740960D+01 -0.59965072403114D-17
   2   1   1   2 -0.62545931366264D+01  0.14679249355647D-16
   3   1   1   2 -0.40813953385253D+01  0.94147562226549D-17
   1   2   1   2  0.38775558536669D+01  0.00000000000000D+00
   2   2   1   2  0.62546573649280D+01  0.00000000000000D+00
   3   2   1   2  0.40814397664226D+01  0.00000000000000D+00
   1   4   1   2 -0.25344721804167D+02  0.00000000000000D+00
   2   4   1   2  0.20585728153691D+00  0.00000000000000D+00
   3   4   1   2 -0.47143954847846D+00  0.00000000000000D+00
   1   1   2   2 -0.62545985724440D+01  0.14679249355647D-16
   2   1   2   2 -0.14449147521320D+02 -0.22045726678297D-16
   3   1   2   2 -0.56096189044232D+01  0.12028649761355D-16
   1   2   2   2  0.62546634954856D+01  0.00000000000000D+00
   2   2   2   2  0.14449222772664D+02  0.00000000000000D+00
   3   2   2   2  0.56096804002808D+01  0.00000000000000D+00
   1   4   2   2 -0.55687161955623D-01  0.00000000000000D+00
   2   4   2   2 -0.25126826187499D+02  0.00000000000000D+00
   3   4   2   2 -0.14288768344861D+00  0.00000000000000D+00
   1   1   3   2 -0.40813968631684D+01  0.94147562226549D-17
   2   1   3   2 -0.56096197059166D+01  0.12028649761355D-16
   3   1   3   2 -0.58778916770232D+01 -0.44242558756140D-17
   1   2   3   2  0.40814416683352D+01  0.00000000000000D+00
   2   2   3   2  0.56096792986273D+01  0.00000000000000D+00
   3   2   3   2  0.58779053753974D+01  0.00000000000000D+00
   1   4   3   2 -0.28813810363509D+00  0.00000000000000D+00
   2   4   3   2  0.23008075969909D+00  0.00000000000000D+00
   3   4   3   2 -0.25641797521051D+02  0.00000000000000D+00
   1   1   1   4 -0.25344740168411D+02  0.00000000000000D+00
   2   1   1   4 -0.55692463361927D-01  0.00000000000000D+00
   3   1   1   4 -0.28816153602159D+00  0.00000000000000D+00
   1   2   1   4 -0.25344740168411D+02  0.00000000000000D+00
   2   2   1   4 -0.55692463361927D-01  0.00000000000000D+00
   3   2   1   4 -0.28816153602159D+00  0.00000000000000D+00
   1   4   1   4 -0.80728149630062D+03  0.00000000000000D+00
   2   4   1   4  0.30872548353652D+03  0.00000000000000D+00
   3   4   1   4  0.15425843253084D+03  0.00000000000000D+00
   1   1   2   4  0.20587067409445D+00  0.00000000000000D+00
   2   1   2   4 -0.25126828857934D+02  0.00000000000000D+00
   3   1   2   4  0.23009334054376D+00  0.00000000000000D+00
   1   2   2   4  0.20587067409445D+00  0.00000000000000D+00
   2   2   2   4 -0.25126828857934D+02  0.00000000000000D+00
   3   2   2   4  0.23009334054376D+00  0.00000000000000D+00
   1   4   2   4  0.30872544981637D+03  0.00000000000000D+00
   2   4   2   4 -0.42619216822549D+03  0.00000000000000D+00
   3   4   2   4  0.13523727884069D+03  0.00000000000000D+00
   1   1   3   4 -0.47144594234862D+00  0.00000000000000D+00
   2   1   3   4 -0.14288999403179D+00  0.00000000000000D+00
   3   1   3   4 -0.25641799481157D+02  0.00000000000000D+00
   1   2   3   4 -0.47144594234862D+00  0.00000000000000D+00
   2   2   3   4 -0.14288999403179D+00  0.00000000000000D+00
   3   2   3   4 -0.25641799481157D+02  0.00000000000000D+00
   1   4   3   4  0.15425842216583D+03  0.00000000000000D+00
   2   4   3   4  0.13523725052610D+03  0.00000000000000D+00
   3   4   3   4 -0.44474971855707D+03  0.00000000000000D+00
   1   1   1   5 -0.58155122580584D+00  0.00000000000000D+00
   2   1   1   5  0.71914308689206D-01  0.00000000000000D+00
   3   1   1   5 -0.61023265405691D+00  0.00000000000000D+00
   1   2   1   5  0.58155328054252D+00  0.00000000000000D+00
   2   2   1   5 -0.71915935041902D-01  0.00000000000000D+00
   3   2   1   5  0.61023591571787D+00  0.00000000000000D+00
   1   4   1   5 -0.50187487177416D-06  0.00000000000000D+00
   2   4   1   5 -0.32091163634434D-05  0.00000000000000D+00
   3   4   1   5  0.72847352733190D-05  0.00000000000000D+00
   1   5   1   5  0.16824649759057D+01  0.00000000000000D+00
   2   5   1   5  0.67735426268956D+00  0.00000000000000D+00
   3   5   1   5  0.80892987887845D+00  0.00000000000000D+00
   1   6   1   5 -0.18590092389123D+00  0.00000000000000D+00
   2   6   1   5  0.47054561190115D+00  0.00000000000000D+00
   3   6   1   5  0.13033812509761D+00  0.00000000000000D+00
   1   1   2   5  0.30154021904727D+00  0.00000000000000D+00
   2   1   2   5  0.16340804399366D+00  0.00000000000000D+00
   3   1   2   5  0.82040479450759D+00  0.00000000000000D+00
   1   2   2   5 -0.30154291138234D+00  0.00000000000000D+00
   2   2   2   5 -0.16340784957476D+00  0.00000000000000D+00
   3   2   2   5 -0.82039782993783D+00  0.00000000000000D+00
   1   4   2   5 -0.46534377482163D-05  0.00000000000000D+00
   2   4   2   5 -0.14262345014735D-06  0.00000000000000D+00
   3   4   2   5  0.50695392316011D-05  0.00000000000000D+00
   1   5   2   5  0.67735425473480D+00  0.00000000000000D+00
   2   5   2   5  0.12726099227701D+01  0.00000000000000D+00
   3   5   2   5  0.61332716479161D+00  0.00000000000000D+00
   1   6   2   5 -0.22178981625903D+00  0.00000000000000D+00
   2   6   2   5  0.36332841761400D+00  0.00000000000000D+00
   3   6   2   5  0.25559345591806D+00  0.00000000000000D+00
   1   1   3   5 -0.50678190688501D+00  0.00000000000000D+00
   2   1   3   5  0.37266397729464D+00  0.00000000000000D+00
   3   1   3   5 -0.18825050998430D+00  0.00000000000000D+00
   1   2   3   5  0.50678598901801D+00  0.00000000000000D+00
   2   2   3   5 -0.37266051524099D+00  0.00000000000000D+00
   3   2   3   5  0.18825885189728D+00  0.00000000000000D+00
   1   4   3   5  0.89239608024244D-06  0.00000000000000D+00
   2   4   3   5 -0.17949134631586D-05  0.00000000000000D+00
   3   4   3   5  0.22365567195418D-05  0.00000000000000D+00
   1   5   3   5  0.80893007317436D+00  0.00000000000000D+00
   2   5   3   5  0.61332699486207D+00  0.00000000000000D+00
   3   5   3   5  0.19240052138146D+01  0.00000000000000D+00
   1   6   3   5 -0.22613238528155D+00  0.00000000000000D+00
   2   6   3   5  0.45272050280568D+00  0.00000000000000D+00
   3   6   3   5 -0.10938280371551D+00  0.00000000000000D+00
   1   1   1   6 -0.74343275682855D+00  0.00000000000000D+00
   2   1   1   6 -0.13955627327369D+01  0.00000000000000D+00
   3   1   1   6 -0.12206523062932D+01  0.00000000000000D+00
   1   2   1   6  0.74343063628312D+00  0.00000000000000D+00
   2   2   1   6  0.13955597041414D+01  0.00000000000000D+00
   3   2   1   6  0.12206514338932D+01  0.00000000000000D+00
   1   4   1   6 -0.78255654820410D-05  0.00000000000000D+00
   2   4   1   6 -0.26727400044179D-05  0.00000000000000D+00
   3   4   1   6  0.18824683372913D-04  0.00000000000000D+00
   1   5   1   6 -0.18590059476041D+00  0.00000000000000D+00
   2   5   1   6 -0.22178903605616D+00  0.00000000000000D+00
   3   5   1   6 -0.22613175247975D+00  0.00000000000000D+00
   1   6   1   6  0.92483004471719D+00  0.00000000000000D+00
   2   6   1   6 -0.16920038852461D-01  0.00000000000000D+00
   3   6   1   6  0.29749600840390D+00  0.00000000000000D+00
   1   1   2   6 -0.69671528364829D+00  0.00000000000000D+00
   2   1   2   6  0.24877687553617D+00  0.00000000000000D+00
   3   1   2   6 -0.11247429322884D+01  0.00000000000000D+00
   1   2   2   6  0.69671418013016D+00  0.00000000000000D+00
   2   2   2   6 -0.24877704826405D+00  0.00000000000000D+00
   3   2   2   6  0.11247482462539D+01  0.00000000000000D+00
   1   4   2   6 -0.67925890783711D-05  0.00000000000000D+00
   2   4   2   6 -0.81471824240350D-05  0.00000000000000D+00
   3   4   2   6  0.20598519724093D-04  0.00000000000000D+00
   1   5   2   6  0.47054607433884D+00  0.00000000000000D+00
   2   5   2   6  0.36332724067249D+00  0.00000000000000D+00
   3   5   2   6  0.45271995719911D+00  0.00000000000000D+00
   1   6   2   6 -0.16919491112335D-01  0.00000000000000D+00
   2   6   2   6  0.11942948584660D+01  0.00000000000000D+00
   3   6   2   6 -0.20728738466899D+00  0.00000000000000D+00
   1   1   3   6 -0.63919168288827D+00  0.00000000000000D+00
   2   1   3   6 -0.14808564204550D+01  0.00000000000000D+00
   3   1   3   6 -0.15404688720484D+00  0.00000000000000D+00
   1   2   3   6  0.63919003450315D+00  0.00000000000000D+00
   2   2   3   6  0.14808533342980D+01  0.00000000000000D+00
   3   2   3   6  0.15404242441459D+00  0.00000000000000D+00
   1   4   3   6  0.66706172917909D-05  0.00000000000000D+00
   2   4   3   6  0.83588051021061D-05  0.00000000000000D+00
   3   4   3   6 -0.16450334105854D-04  0.00000000000000D+00
   1   5   3   6  0.13033707176534D+00  0.00000000000000D+00
   2   5   3   6  0.25559336650671D+00  0.00000000000000D+00
   3   5   3   6 -0.10938348711859D+00  0.00000000000000D+00
   1   6   3   6  0.29749505786900D+00  0.00000000000000D+00
   2   6   3   6 -0.20728693555371D+00  0.00000000000000D+00
   3   6   3   6  0.93791603297723D+00  0.00000000000000D+00
  
 3rd derivatives (long wave)  - # elements :     324
 qpt  0.00000000E+00  0.00000000E+00  0.00000000E+00   1.0
      0.00000000E+00  0.00000000E+00  0.00000000E+00   1.0
      0.00000000E+00  0.00000000E+00  0.00000000E+00   1.0
   1   1   1   1   1  10  0.00000000000000D+00 -0.15837817881617D-14
   2   1   1   1   1  10  0.00000000000000D+00 -0.87523894592142D-01
   3   1   1   1   1  10  0.00000000000000D+00  0.25700935298667D+00
   1   2   1   1   1  10  0.00000000000000D+00  0.15067926537903D+01
   2   2   1   1   1  10  0.00000000000000D+00  0.12876555785402D+01
   3   2   1   1   1  10  0.00000000000000D+00  0.12157740626642D+01
   1   4   1   1   1  10  0.00000000000000D+00  0.47195642340560D+02
   2   4   1   1   1  10  0.00000000000000D+00 -0.36307907268247D+02
   3   4   1   1   1  10  0.00000000000000D+00  0.99975351930427D+01
   1   1   2   1   1  10  0.00000000000000D+00  0.87523894592142D-01
   2   1   2   1   1  10  0.00000000000000D+00 -0.19607075523257D-15
   3   1   2   1   1  10  0.00000000000000D+00 -0.19941641226420D-01
   1   2   2   1   1  10  0.00000000000000D+00  0.12876561001672D+01
   2   2   2   1   1  10  0.00000000000000D+00  0.39919183170995D+01
   3   2   2   1   1  10  0.00000000000000D+00  0.14500945846736D+01
   1   4   2   1   1  10  0.00000000000000D+00 -0.43325705739809D+01
   2   4   2   1   1  10  0.00000000000000D+00 -0.17665351207838D+02
   3   4   2   1   1  10  0.00000000000000D+00  0.49182720224175D+00
   1   1   3   1   1  10  0.00000000000000D+00 -0.25700935298667D+00
   2   1   3   1   1  10  0.00000000000000D+00  0.19941641226419D-01
   3   1   3   1   1  10  0.00000000000000D+00 -0.98214565624698D-16
   1   2   3   1   1  10  0.00000000000000D+00  0.12157698922591D+01
   2   2   3   1   1  10  0.00000000000000D+00  0.14500916864791D+01
   3   2   3   1   1  10  0.00000000000000D+00  0.12966505598594D+01
   1   4   3   1   1  10  0.00000000000000D+00  0.18637500699073D+02
   2   4   3   1   1  10  0.00000000000000D+00 -0.11823568327556D+02
   3   4   3   1   1  10  0.00000000000000D+00 -0.74476076305491D+01
   1   1   1   2   1  10  0.00000000000000D+00 -0.15067926537903D+01
   2   1   1   2   1  10  0.00000000000000D+00 -0.12876561001672D+01
   3   1   1   2   1  10  0.00000000000000D+00 -0.12157698922591D+01
   1   2   1   2   1  10  0.00000000000000D+00 -0.11842695024696D-14
   2   2   1   2   1  10  0.00000000000000D+00  0.87526176616047D-01
   3   2   1   2   1  10  0.00000000000000D+00 -0.25700348298143D+00
   1   4   1   2   1  10  0.00000000000000D+00 -0.47195954168317D+02
   2   4   1   2   1  10  0.00000000000000D+00  0.36307979358275D+02
   3   4   1   2   1  10  0.00000000000000D+00 -0.99974269969250D+01
   1   1   2   2   1  10  0.00000000000000D+00 -0.12876555785402D+01
   2   1   2   2   1  10  0.00000000000000D+00 -0.39919183170995D+01
   3   1   2   2   1  10  0.00000000000000D+00 -0.14500916864791D+01
   1   2   2   2   1  10  0.00000000000000D+00 -0.87526176616044D-01
   2   2   2   2   1  10  0.00000000000000D+00  0.26801982370662D-15
   3   2   2   2   1  10  0.00000000000000D+00  0.19940303802849D-01
   1   4   2   2   1  10  0.00000000000000D+00  0.43325690200394D+01
   2   4   2   2   1  10  0.00000000000000D+00  0.17665305060933D+02
   3   4   2   2   1  10  0.00000000000000D+00 -0.49183082370571D+00
   1   1   3   2   1  10  0.00000000000000D+00 -0.12157740626642D+01
   2   1   3   2   1  10  0.00000000000000D+00 -0.14500945846736D+01
   3   1   3   2   1  10  0.00000000000000D+00 -0.12966505598594D+01
   1   2   3   2   1  10  0.00000000000000D+00  0.25700348298143D+00
   2   2   3   2   1  10  0.00000000000000D+00 -0.19940303802848D-01
   3   2   3   2   1  10  0.00000000000000D+00  0.17499114896039D-14
   1   4   3   2   1  10  0.00000000000000D+00 -0.18637582069442D+02
   2   4   3   2   1  10  0.00000000000000D+00  0.11823636204705D+02
   3   4   3   2   1  10  0.00000000000000D+00  0.74475641491103D+01
   1   1   1   5   1  10 -0.33994555566007D+00 -0.00000000000000D+00
   2   1   1   5   1  10  0.10576897792562D+01 -0.00000000000000D+00
   3   1   1   5   1  10  0.71029723853239D+00 -0.00000000000000D+00
   1   2   1   5   1  10 -0.33992705472713D+00 -0.00000000000000D+00
   2   2   1   5   1  10  0.10576937232541D+01 -0.00000000000000D+00
   3   2   1   5   1  10  0.71032884151117D+00 -0.00000000000000D+00
   1   4   1   5   1  10  0.00000000000000D+00  0.16233801383752D+03
   2   4   1   5   1  10  0.00000000000000D+00 -0.69106572848164D+02
   3   4   1   5   1  10  0.00000000000000D+00 -0.40410292687402D+02
   1   1   2   5   1  10 -0.74344189760224D+00 -0.00000000000000D+00
   2   1   2   5   1  10 -0.23028265557015D-01 -0.00000000000000D+00
   3   1   2   5   1  10 -0.75980009771439D+00 -0.00000000000000D+00
   1   2   2   5   1  10 -0.74343254885123D+00 -0.00000000000000D+00
   2   2   2   5   1  10 -0.23027974949176D-01 -0.00000000000000D+00
   3   2   2   5   1  10 -0.75979352642073D+00 -0.00000000000000D+00
   1   4   2   5   1  10  0.00000000000000D+00  0.16696012307677D+03
   2   4   2   5   1  10  0.00000000000000D+00 -0.67408417306491D+02
   3   4   2   5   1  10  0.00000000000000D+00 -0.20006656541700D+02
   1   1   3   5   1  10 -0.15121964608986D+01 -0.00000000000000D+00
   2   1   3   5   1  10 -0.93093229651257D+00 -0.00000000000000D+00
   3   1   3   5   1  10 -0.13662738512100D+00 -0.00000000000000D+00
   1   2   3   5   1  10 -0.15121829692010D+01 -0.00000000000000D+00
   2   2   3   5   1  10 -0.93093975048983D+00 -0.00000000000000D+00
   3   2   3   5   1  10 -0.13659935611978D+00 -0.00000000000000D+00
   1   4   3   5   1  10  0.00000000000000D+00  0.16318019320881D+03
   2   4   3   5   1  10  0.00000000000000D+00 -0.49501263250354D+02
   3   4   3   5   1  10  0.00000000000000D+00 -0.37882977334683D+02
   1   1   1   6   1  10 -0.10114349238047D+01 -0.00000000000000D+00
   2   1   1   6   1  10 -0.11661711020171D+01 -0.00000000000000D+00
   3   1   1   6   1  10 -0.71783478647206D+00 -0.00000000000000D+00
   1   2   1   6   1  10 -0.10114337957693D+01 -0.00000000000000D+00
   2   2   1   6   1  10 -0.11661749198068D+01 -0.00000000000000D+00
   3   2   1   6   1  10 -0.71782861038616D+00 -0.00000000000000D+00
   1   4   1   6   1  10  0.00000000000000D+00  0.48707035898172D+02
   2   4   1   6   1  10  0.00000000000000D+00 -0.87358039401730D+01
   3   4   1   6   1  10  0.00000000000000D+00 -0.12178174855021D+02
   1   1   2   6   1  10  0.15459361188592D-01 -0.00000000000000D+00
   2   1   2   6   1  10  0.19978834953227D+00 -0.00000000000000D+00
   3   1   2   6   1  10 -0.87984795155998D+00 -0.00000000000000D+00
   1   2   2   6   1  10  0.15452963240267D-01 -0.00000000000000D+00
   2   2   2   6   1  10  0.19979150547653D+00 -0.00000000000000D+00
   3   2   2   6   1  10 -0.87986661047474D+00 -0.00000000000000D+00
   1   4   2   6   1  10  0.00000000000000D+00 -0.21732442291428D+02
   2   4   2   6   1  10  0.00000000000000D+00  0.12771418948513D+00
   3   4   2   6   1  10  0.00000000000000D+00  0.19768666229973D+02
   1   1   3   6   1  10 -0.10226837886583D+00 -0.00000000000000D+00
   2   1   3   6   1  10 -0.96709013338505D+00 -0.00000000000000D+00
   3   1   3   6   1  10 -0.25470816099852D+00 -0.00000000000000D+00
   1   2   3   6   1  10 -0.10227197241593D+00 -0.00000000000000D+00
   2   2   3   6   1  10 -0.96709398671869D+00 -0.00000000000000D+00
   3   2   3   6   1  10 -0.25471432330774D+00 -0.00000000000000D+00
   1   4   3   6   1  10  0.00000000000000D+00 -0.37363604950829D+02
   2   4   3   6   1  10  0.00000000000000D+00  0.17706001149780D+02
   3   4   3   6   1  10  0.00000000000000D+00  0.99767817022229D+01
   1   1   1   1   2  10  0.00000000000000D+00  0.38836589591170D-16
   2   1   1   1   2  10  0.00000000000000D+00 -0.24654024864345D+00
   3   1   1   1   2  10  0.00000000000000D+00 -0.77770441518807D-01
   1   2   1   1   2  10  0.00000000000000D+00  0.30558616619179D+01
   2   2   1   1   2  10  0.00000000000000D+00  0.20938161072973D+01
   3   2   1   1   2  10  0.00000000000000D+00  0.32921709648747D+01
   1   4   1   1   2  10  0.00000000000000D+00 -0.39573718165069D+02
   2   4   1   1   2  10  0.00000000000000D+00  0.16150060460694D+02
   3   4   1   1   2  10  0.00000000000000D+00 -0.20613512554277D+01
   1   1   2   1   2  10  0.00000000000000D+00  0.24654024864345D+00
   2   1   2   1   2  10  0.00000000000000D+00 -0.44171500466244D-14
   3   1   2   1   2  10  0.00000000000000D+00 -0.24430539834848D+00
   1   2   2   1   2  10  0.00000000000000D+00  0.20938275207592D+01
   2   2   2   1   2  10  0.00000000000000D+00 -0.66548631079536D+01
   3   2   2   1   2  10  0.00000000000000D+00  0.25742463644620D+01
   1   4   2   1   2  10  0.00000000000000D+00 -0.28264293400304D+02
   2   4   2   1   2  10  0.00000000000000D+00  0.35118007734365D+02
   3   4   2   1   2  10  0.00000000000000D+00 -0.91080044690456D+01
   1   1   3   1   2  10  0.00000000000000D+00  0.77770441518808D-01
   2   1   3   1   2  10  0.00000000000000D+00  0.24430539834848D+00
   3   1   3   1   2  10  0.00000000000000D+00 -0.42760290300484D-16
   1   2   3   1   2  10  0.00000000000000D+00  0.32921720521376D+01
   2   2   3   1   2  10  0.00000000000000D+00  0.25742313064641D+01
   3   2   3   1   2  10  0.00000000000000D+00  0.52633132640603D+01
   1   4   3   1   2  10  0.00000000000000D+00 -0.17175944449643D+02
   2   4   3   1   2  10  0.00000000000000D+00  0.15648127448142D+02
   3   4   3   1   2  10  0.00000000000000D+00 -0.17144921959670D+02
   1   1   1   2   2  10  0.00000000000000D+00 -0.30558616619179D+01
   2   1   1   2   2  10  0.00000000000000D+00 -0.20938275207592D+01
   3   1   1   2   2  10  0.00000000000000D+00 -0.32921720521376D+01
   1   2   1   2   2  10  0.00000000000000D+00  0.11525776221864D-14
   2   2   1   2   2  10  0.00000000000000D+00  0.24654327437855D+00
   3   2   1   2   2  10  0.00000000000000D+00  0.77773429615283D-01
   1   4   1   2   2  10  0.00000000000000D+00  0.39573779611495D+02
   2   4   1   2   2  10  0.00000000000000D+00 -0.16150116482563D+02
   3   4   1   2   2  10  0.00000000000000D+00  0.20613355806845D+01
   1   1   2   2   2  10  0.00000000000000D+00 -0.20938161072973D+01
   2   1   2   2   2  10  0.00000000000000D+00  0.66548631079536D+01
   3   1   2   2   2  10  0.00000000000000D+00 -0.25742313064641D+01
   1   2   2   2   2  10  0.00000000000000D+00 -0.24654327437855D+00
   2   2   2   2   2  10  0.00000000000000D+00  0.51711583753537D-15
   3   2   2   2   2  10  0.00000000000000D+00  0.24432306331505D+00
   1   4   2   2   2  10  0.00000000000000D+00  0.28264186025782D+02
   2   4   2   2   2  10  0.00000000000000D+00 -0.35117915754181D+02
   3   4   2   2   2  10  0.00000000000000D+00  0.91080455624347D+01
   1   1   3   2   2  10  0.00000000000000D+00 -0.32921709648747D+01
   2   1   3   2   2  10  0.00000000000000D+00 -0.25742463644620D+01
   3   1   3   2   2  10  0.00000000000000D+00 -0.52633132640602D+01
   1   2   3   2   2  10  0.00000000000000D+00 -0.77773429615283D-01
   2   2   3   2   2  10  0.00000000000000D+00 -0.24432306331505D+00
   3   2   3   2   2  10  0.00000000000000D+00  0.71533236069424D-15
   1   4   3   2   2  10  0.00000000000000D+00  0.17176018368096D+02
   2   4   3   2   2  10  0.00000000000000D+00 -0.15648338299189D+02
   3   4   3   2   2  10  0.00000000000000D+00  0.17144875258896D+02
   1   1   1   5   2  10 -0.58979008561051D+00 -0.00000000000000D+00
   2   1   1   5   2  10 -0.28878553637553D+01 -0.00000000000000D+00
   3   1   1   5   2  10 -0.94960963348526D+00 -0.00000000000000D+00
   1   2   1   5   2  10 -0.58980390036340D+00 -0.00000000000000D+00
   2   2   1   5   2  10 -0.28878763248105D+01 -0.00000000000000D+00
   3   2   1   5   2  10 -0.94961548618957D+00 -0.00000000000000D+00
   1   4   1   5   2  10  0.00000000000000D+00 -0.77818508992010D+02
   2   4   1   5   2  10  0.00000000000000D+00  0.90348955900209D+02
   3   4   1   5   2  10  0.00000000000000D+00 -0.15551925508721D+02
   1   1   2   5   2  10  0.10665224321591D+00 -0.00000000000000D+00
   2   1   2   5   2  10 -0.14917115354543D+01 -0.00000000000000D+00
   3   1   2   5   2  10  0.46048084857591D+00 -0.00000000000000D+00
   1   2   2   5   2  10  0.10664280263936D+00 -0.00000000000000D+00
   2   2   2   5   2  10 -0.14917358244591D+01 -0.00000000000000D+00
   3   2   2   5   2  10  0.46049393491008D+00 -0.00000000000000D+00
   1   4   2   5   2  10  0.00000000000000D+00 -0.68986549201285D+02
   2   4   2   5   2  10  0.00000000000000D+00  0.89198393575271D+02
   3   4   2   5   2  10  0.00000000000000D+00 -0.30612260318357D+02
   1   1   3   5   2  10 -0.11520062406094D+01 -0.00000000000000D+00
   2   1   3   5   2  10 -0.30665744189466D+01 -0.00000000000000D+00
   3   1   3   5   2  10 -0.24232291539520D+00 -0.00000000000000D+00
   1   2   3   5   2  10 -0.11520161121980D+01 -0.00000000000000D+00
   2   2   3   5   2  10 -0.30665992526390D+01 -0.00000000000000D+00
   3   2   3   5   2  10 -0.24230286951868D+00 -0.00000000000000D+00
   1   4   3   5   2  10  0.00000000000000D+00 -0.40121294252693D+02
   2   4   3   5   2  10  0.00000000000000D+00  0.78851150886086D+02
   3   4   3   5   2  10  0.00000000000000D+00 -0.36557357390722D+02
   1   1   1   6   2  10 -0.12191355621449D+00 -0.00000000000000D+00
   2   1   1   6   2  10  0.14317331040999D+01 -0.00000000000000D+00
   3   1   1   6   2  10 -0.65578200157098D+00 -0.00000000000000D+00
   1   2   1   6   2  10 -0.12191636966210D+00 -0.00000000000000D+00
   2   2   1   6   2  10  0.14317379642339D+01 -0.00000000000000D+00
   3   2   1   6   2  10 -0.65579377903219D+00 -0.00000000000000D+00
   1   4   1   6   2  10  0.00000000000000D+00 -0.86905966190044D+01
   2   4   1   6   2  10  0.00000000000000D+00 -0.40541528986611D+01
   3   4   1   6   2  10  0.00000000000000D+00  0.92216958508266D+01
   1   1   2   6   2  10 -0.81757803026038D+00 -0.00000000000000D+00
   2   1   2   6   2  10 -0.29206869445041D+01 -0.00000000000000D+00
   3   1   2   6   2  10 -0.91930722020840D+00 -0.00000000000000D+00
   1   2   2   6   2  10 -0.81757858548305D+00 -0.00000000000000D+00
   2   2   2   6   2  10 -0.29206905223068D+01 -0.00000000000000D+00
   3   2   2   6   2  10 -0.91930242826934D+00 -0.00000000000000D+00
   1   4   2   6   2  10  0.00000000000000D+00  0.18162736420246D+01
   2   4   2   6   2  10  0.00000000000000D+00  0.17269020567007D+01
   3   4   2   6   2  10  0.00000000000000D+00 -0.10356838923646D+01
   1   1   3   6   2  10 -0.20069534432700D+00 -0.00000000000000D+00
   2   1   3   6   2  10  0.12956851220122D+01 -0.00000000000000D+00
   3   1   3   6   2  10  0.95652046891894D-01 -0.00000000000000D+00
   1   2   3   6   2  10 -0.20069399565505D+00 -0.00000000000000D+00
   2   2   3   6   2  10  0.12956926016756D+01 -0.00000000000000D+00
   3   2   3   6   2  10  0.95642142969833D-01 -0.00000000000000D+00
   1   4   3   6   2  10  0.00000000000000D+00  0.22557600675308D+02
   2   4   3   6   2  10  0.00000000000000D+00 -0.18708428261561D+02
   3   4   3   6   2  10  0.00000000000000D+00  0.26188111437227D+01
   1   1   1   1   3  10  0.00000000000000D+00 -0.13982755466792D-14
   2   1   1   1   3  10  0.00000000000000D+00  0.71270306604144D-01
   3   1   1   1   3  10  0.00000000000000D+00 -0.64085542559302D+00
   1   2   1   1   3  10  0.00000000000000D+00  0.96792121495474D+00
   2   2   1   1   3  10  0.00000000000000D+00  0.24624989683117D+01
   3   2   1   1   3  10  0.00000000000000D+00  0.68762806780995D+00
   1   4   1   1   3  10  0.00000000000000D+00  0.90565593725769D+01
   2   4   1   1   3  10  0.00000000000000D+00 -0.20778990051699D+01
   3   4   1   1   3  10  0.00000000000000D+00 -0.19078773324322D+02
   1   1   2   1   3  10  0.00000000000000D+00 -0.71270306604144D-01
   2   1   2   1   3  10  0.00000000000000D+00  0.56291823813224D-15
   3   1   2   1   3  10  0.00000000000000D+00 -0.38517091465249D-01
   1   2   2   1   3  10  0.00000000000000D+00  0.24625003167888D+01
   2   2   2   1   3  10  0.00000000000000D+00  0.55583099205235D+01
   3   2   2   1   3  10  0.00000000000000D+00  0.23561285198328D+01
   1   4   2   1   3  10  0.00000000000000D+00 -0.11487421456524D+01
   2   4   2   1   3  10  0.00000000000000D+00 -0.11026061529191D+02
   3   4   2   1   3  10  0.00000000000000D+00 -0.69836905602875D+01
   1   1   3   1   3  10  0.00000000000000D+00  0.64085542559302D+00
   2   1   3   1   3  10  0.00000000000000D+00  0.38517091465251D-01
   3   1   3   1   3  10  0.00000000000000D+00 -0.11655116734771D-14
   1   2   3   1   3  10  0.00000000000000D+00  0.68762476310717D+00
   2   2   3   1   3  10  0.00000000000000D+00  0.23561290445520D+01
   3   2   3   1   3  10  0.00000000000000D+00 -0.28328675732044D+01
   1   4   3   1   3  10  0.00000000000000D+00 -0.41814681668233D+01
   2   4   3   1   3  10  0.00000000000000D+00 -0.19895195284352D+02
   3   4   3   1   3  10  0.00000000000000D+00  0.26504236449426D+02
   1   1   1   2   3  10  0.00000000000000D+00 -0.96792121495473D+00
   2   1   1   2   3  10  0.00000000000000D+00 -0.24625003167888D+01
   3   1   1   2   3  10  0.00000000000000D+00 -0.68762476310718D+00
   1   2   1   2   3  10  0.00000000000000D+00  0.11986715454205D-14
   2   2   1   2   3  10  0.00000000000000D+00 -0.71270204992251D-01
   3   2   1   2   3  10  0.00000000000000D+00  0.64085910103066D+00
   1   4   1   2   3  10  0.00000000000000D+00 -0.90564863323356D+01
   2   4   1   2   3  10  0.00000000000000D+00  0.20778740302728D+01
   3   4   1   2   3  10  0.00000000000000D+00  0.19078712586063D+02
   1   1   2   2   3  10  0.00000000000000D+00 -0.24624989683117D+01
   2   1   2   2   3  10  0.00000000000000D+00 -0.55583099205235D+01
   3   1   2   2   3  10  0.00000000000000D+00 -0.23561290445520D+01
   1   2   2   2   3  10  0.00000000000000D+00  0.71270204992251D-01
   2   2   2   2   3  10  0.00000000000000D+00  0.84808583068639D-15
   3   2   2   2   3  10  0.00000000000000D+00  0.38510776792504D-01
   1   4   2   2   3  10  0.00000000000000D+00  0.11487464151050D+01
   2   4   2   2   3  10  0.00000000000000D+00  0.11026039015294D+02
   3   4   2   2   3  10  0.00000000000000D+00  0.69836790475885D+01
   1   1   3   2   3  10  0.00000000000000D+00 -0.68762806780995D+00
   2   1   3   2   3  10  0.00000000000000D+00 -0.23561285198328D+01
   3   1   3   2   3  10  0.00000000000000D+00  0.28328675732044D+01
   1   2   3   2   3  10  0.00000000000000D+00 -0.64085910103066D+00
   2   2   3   2   3  10  0.00000000000000D+00 -0.38510776792500D-01
   3   2   3   2   3  10  0.00000000000000D+00 -0.11967127410162D-14
   1   4   3   2   3  10  0.00000000000000D+00  0.41813874379770D+01
   2   4   3   2   3  10  0.00000000000000D+00  0.19895125508371D+02
   3   4   3   2   3  10  0.00000000000000D+00 -0.26504096075974D+02
   1   1   1   5   3  10 -0.62565109311949D+00 -0.00000000000000D+00
   2   1   1   5   3  10 -0.89779979007044D+00 -0.00000000000000D+00
   3   1   1   5   3  10 -0.21321603043333D+01 -0.00000000000000D+00
   1   2   1   5   3  10 -0.62566269133711D+00 -0.00000000000000D+00
   2   2   1   5   3  10 -0.89779409964947D+00 -0.00000000000000D+00
   3   2   1   5   3  10 -0.21322269588129D+01 -0.00000000000000D+00
   1   4   1   5   3  10  0.00000000000000D+00 -0.39657344570164D+02
   2   4   1   5   3  10  0.00000000000000D+00 -0.21236989979149D+02
   3   4   1   5   3  10  0.00000000000000D+00  0.10058295353459D+03
   1   1   2   5   3  10 -0.11355195644138D+01 -0.00000000000000D+00
   2   1   2   5   3  10 -0.17534942028512D+00 -0.00000000000000D+00
   3   1   2   5   3  10 -0.19340846635001D+01 -0.00000000000000D+00
   1   2   2   5   3  10 -0.11355280332704D+01 -0.00000000000000D+00
   2   2   2   5   3  10 -0.17533913295867D+00 -0.00000000000000D+00
   3   2   2   5   3  10 -0.19341413245983D+01 -0.00000000000000D+00
   1   4   2   5   3  10  0.00000000000000D+00 -0.16848990224436D+02
   2   4   2   5   3  10  0.00000000000000D+00 -0.30334104850798D+02
   3   4   2   5   3  10  0.00000000000000D+00  0.89727788981913D+02
   1   1   3   5   3  10  0.80648636931354D+00 -0.00000000000000D+00
   2   1   3   5   3  10  0.14337939531157D+01 -0.00000000000000D+00
   3   1   3   5   3  10 -0.79038933148682D+00 -0.00000000000000D+00
   1   2   3   5   3  10  0.80647628455322D+00 -0.00000000000000D+00
   2   2   3   5   3  10  0.14338054617456D+01 -0.00000000000000D+00
   3   2   3   5   3  10 -0.79044503359922D+00 -0.00000000000000D+00
   1   4   3   5   3  10  0.00000000000000D+00 -0.40203408536213D+02
   2   4   3   5   3  10  0.00000000000000D+00 -0.32412881568445D+02
   3   4   3   5   3  10  0.00000000000000D+00  0.91026380067793D+02
   1   1   1   6   3  10 -0.21365100332799D+00 -0.00000000000000D+00
   2   1   1   6   3  10 -0.11407563689685D+01 -0.00000000000000D+00
   3   1   1   6   3  10  0.59084701192504D+00 -0.00000000000000D+00
   1   2   1   6   3  10 -0.21365122047119D+00 -0.00000000000000D+00
   2   2   1   6   3  10 -0.11407607701460D+01 -0.00000000000000D+00
   3   2   1   6   3  10  0.59084075573516D+00 -0.00000000000000D+00
   1   4   1   6   3  10  0.00000000000000D+00 -0.64381231990251D+01
   2   4   1   6   3  10  0.00000000000000D+00  0.34220838460570D+01
   3   4   1   6   3  10  0.00000000000000D+00  0.80687882139827D+01
   1   1   2   6   3  10 -0.69266473742187D+00 -0.00000000000000D+00
   2   1   2   6   3  10  0.22810171100793D+00 -0.00000000000000D+00
   3   1   2   6   3  10  0.57647756879165D+00 -0.00000000000000D+00
   1   2   2   6   3  10 -0.69265874836912D+00 -0.00000000000000D+00
   2   2   2   6   3  10  0.22810073711404D+00 -0.00000000000000D+00
   3   2   2   6   3  10  0.57648924731963D+00 -0.00000000000000D+00
   1   4   2   6   3  10  0.00000000000000D+00  0.14461510436726D+02
   2   4   2   6   3  10  0.00000000000000D+00 -0.19229221086659D+00
   3   4   2   6   3  10  0.00000000000000D+00 -0.18886403472393D+02
   1   1   3   6   3  10 -0.10196319816200D+01 -0.00000000000000D+00
   2   1   3   6   3  10 -0.14068312197267D+01 -0.00000000000000D+00
   3   1   3   6   3  10 -0.19012578868585D+01 -0.00000000000000D+00
   1   2   3   6   3  10 -0.10196341917495D+01 -0.00000000000000D+00
   2   2   3   6   3  10 -0.14068329419119D+01 -0.00000000000000D+00
   3   2   3   6   3  10 -0.19012638918189D+01 -0.00000000000000D+00
   1   4   3   6   3  10  0.00000000000000D+00  0.41138926537754D+01
   2   4   3   6   3  10  0.00000000000000D+00  0.49523817491715D+01
   3   4   3   6   3  10  0.00000000000000D+00  0.23424865283408D+01

 List of bloks and their characteristics 
  
 Total energy                 - # elements :       1
  
 1st derivatives              - # elements :      12
  
 2nd derivatives (non-stat.)  - # elements :     171
 qpt  0.00000000E+00  0.00000000E+00  0.00000000E+00   1.0
  
 3rd derivatives (long wave)  - # elements :     324
 qpt  0.00000000E+00  0.00000000E+00  0.00000000E+00   1.0
      0.00000000E+00  0.00000000E+00  0.00000000E+00   1.0
      0.00000000E+00  0.00000000E+00  0.00000000E+00   1.0
