
 **** DERIVATIVE DATABASE ****    
+DDB, Version number  20230401

 linear + nonlinear response calculation of AlP

    usepaw         0
     natom         2
      nkpt       432
    nsppol         1
      nsym        24
    ntypat         2
    occopt         1
     nband         4
     acell  0.71391127387000D+01  0.71391127387000D+01  0.71391127387000D+01
       amu  0.30973762000000D+02  0.26981539000000D+02
   dilatmx  0.10000000000000D+01
      ecut  0.28000000000000D+01
    ecutsm  0.50000000000000D+00
     intxc         0
      iscf         7
       ixc     -1012
       kpt -0.83333333333334D-01 -0.16666666666667D+00  0.00000000000000D+00
           -0.16666666666667D+00 -0.83333333333334D-01  0.00000000000000D+00
           -0.83333333333334D-01 -0.83333333333334D-01  0.83333333333333D-01
           -0.83333333333334D-01 -0.33333333333333D+00  0.00000000000000D+00
           -0.16666666666667D+00 -0.25000000000000D+00  0.00000000000000D+00
           -0.83333333333334D-01 -0.25000000000000D+00  0.83333333333333D-01
           -0.25000000000000D+00 -0.16666666666667D+00  0.00000000000000D+00
           -0.16666666666667D+00 -0.16666666666667D+00  0.83333333333333D-01
           -0.83333333333334D-01 -0.16666666666667D+00  0.16666666666667D+00
           -0.33333333333333D+00 -0.83333333333334D-01  0.00000000000000D+00
           -0.25000000000000D+00 -0.83333333333334D-01  0.83333333333333D-01
           -0.16666666666667D+00 -0.83333333333334D-01  0.16666666666667D+00
           -0.83333333333334D-01 -0.83333333333334D-01  0.25000000000000D+00
           -0.83333333333334D-01  0.50000000000000D+00  0.00000000000000D+00
           -0.16666666666667D+00 -0.41666666666667D+00  0.00000000000000D+00
           -0.83333333333334D-01 -0.41666666666667D+00  0.83333333333333D-01
           -0.25000000000000D+00 -0.33333333333333D+00  0.00000000000000D+00
           -0.16666666666667D+00 -0.33333333333333D+00  0.83333333333333D-01
           -0.83333333333334D-01 -0.33333333333333D+00  0.16666666666667D+00
           -0.33333333333333D+00 -0.25000000000000D+00  0.00000000000000D+00
           -0.25000000000000D+00 -0.25000000000000D+00  0.83333333333333D-01
           -0.16666666666667D+00 -0.25000000000000D+00  0.16666666666667D+00
           -0.83333333333334D-01 -0.25000000000000D+00  0.25000000000000D+00
           -0.41666666666667D+00 -0.16666666666667D+00  0.00000000000000D+00
           -0.33333333333333D+00 -0.16666666666667D+00  0.83333333333333D-01
           -0.25000000000000D+00 -0.16666666666667D+00  0.16666666666667D+00
           -0.16666666666667D+00 -0.16666666666667D+00  0.25000000000000D+00
           -0.83333333333334D-01 -0.16666666666667D+00  0.33333333333333D+00
            0.50000000000000D+00 -0.83333333333334D-01  0.00000000000000D+00
           -0.41666666666667D+00 -0.83333333333334D-01  0.83333333333333D-01
           -0.33333333333333D+00 -0.83333333333334D-01  0.16666666666667D+00
           -0.25000000000000D+00 -0.83333333333334D-01  0.25000000000000D+00
           -0.16666666666667D+00 -0.83333333333334D-01  0.33333333333333D+00
           -0.83333333333334D-01 -0.83333333333334D-01  0.41666666666667D+00
           -0.83333333333334D-01  0.33333333333333D+00  0.00000000000000D+00
           -0.16666666666667D+00  0.41666666666667D+00  0.00000000000000D+00
           -0.83333333333334D-01  0.41666666666667D+00  0.83333333333333D-01
           -0.25000000000000D+00  0.50000000000000D+00  0.00000000000000D+00
           -0.16666666666667D+00  0.50000000000000D+00  0.83333333333333D-01
           -0.83333333333334D-01  0.50000000000000D+00  0.16666666666667D+00
           -0.33333333333333D+00 -0.41666666666667D+00  0.00000000000000D+00
           -0.25000000000000D+00 -0.41666666666667D+00  0.83333333333333D-01
           -0.16666666666667D+00 -0.41666666666667D+00  0.16666666666667D+00
           -0.83333333333334D-01 -0.41666666666667D+00  0.25000000000000D+00
           -0.41666666666667D+00 -0.33333333333333D+00  0.00000000000000D+00
           -0.33333333333333D+00 -0.33333333333333D+00  0.83333333333333D-01
           -0.25000000000000D+00 -0.33333333333333D+00  0.16666666666667D+00
           -0.16666666666667D+00 -0.33333333333333D+00  0.25000000000000D+00
           -0.83333333333334D-01 -0.33333333333333D+00  0.33333333333333D+00
            0.50000000000000D+00 -0.25000000000000D+00  0.00000000000000D+00
           -0.41666666666667D+00 -0.25000000000000D+00  0.83333333333333D-01
           -0.33333333333333D+00 -0.25000000000000D+00  0.16666666666667D+00
           -0.25000000000000D+00 -0.25000000000000D+00  0.25000000000000D+00
           -0.16666666666667D+00 -0.25000000000000D+00  0.33333333333333D+00
           -0.83333333333334D-01 -0.25000000000000D+00  0.41666666666667D+00
            0.41666666666667D+00 -0.16666666666667D+00  0.00000000000000D+00
            0.50000000000000D+00 -0.16666666666667D+00  0.83333333333333D-01
           -0.41666666666667D+00 -0.16666666666667D+00  0.16666666666667D+00
           -0.33333333333333D+00 -0.16666666666667D+00  0.25000000000000D+00
           -0.25000000000000D+00 -0.16666666666667D+00  0.33333333333333D+00
           -0.16666666666667D+00 -0.16666666666667D+00  0.41666666666667D+00
           -0.83333333333334D-01 -0.16666666666667D+00  0.50000000000000D+00
            0.33333333333333D+00 -0.83333333333334D-01  0.00000000000000D+00
            0.41666666666667D+00 -0.83333333333334D-01  0.83333333333333D-01
            0.50000000000000D+00 -0.83333333333334D-01  0.16666666666667D+00
           -0.41666666666667D+00 -0.83333333333334D-01  0.25000000000000D+00
           -0.33333333333333D+00 -0.83333333333334D-01  0.33333333333333D+00
           -0.25000000000000D+00 -0.83333333333334D-01  0.41666666666667D+00
           -0.16666666666667D+00 -0.83333333333334D-01  0.50000000000000D+00
           -0.83333333333334D-01 -0.83333333333334D-01 -0.41666666666667D+00
           -0.83333333333334D-01  0.16666666666667D+00  0.00000000000000D+00
           -0.16666666666667D+00  0.25000000000000D+00  0.00000000000000D+00
           -0.83333333333334D-01  0.25000000000000D+00  0.83333333333333D-01
           -0.25000000000000D+00  0.33333333333333D+00  0.00000000000000D+00
           -0.16666666666667D+00  0.33333333333333D+00  0.83333333333333D-01
           -0.83333333333334D-01  0.33333333333333D+00  0.16666666666667D+00
           -0.33333333333333D+00  0.41666666666667D+00  0.00000000000000D+00
           -0.25000000000000D+00  0.41666666666667D+00  0.83333333333333D-01
           -0.16666666666667D+00  0.41666666666667D+00  0.16666666666667D+00
           -0.83333333333334D-01  0.41666666666667D+00  0.25000000000000D+00
           -0.41666666666667D+00  0.50000000000000D+00  0.00000000000000D+00
           -0.33333333333333D+00  0.50000000000000D+00  0.83333333333333D-01
           -0.25000000000000D+00  0.50000000000000D+00  0.16666666666667D+00
           -0.16666666666667D+00  0.50000000000000D+00  0.25000000000000D+00
           -0.83333333333334D-01  0.50000000000000D+00  0.33333333333333D+00
            0.50000000000000D+00 -0.41666666666667D+00  0.00000000000000D+00
           -0.41666666666667D+00 -0.41666666666667D+00  0.83333333333333D-01
           -0.33333333333333D+00 -0.41666666666667D+00  0.16666666666667D+00
           -0.25000000000000D+00 -0.41666666666667D+00  0.25000000000000D+00
           -0.16666666666667D+00 -0.41666666666667D+00  0.33333333333333D+00
           -0.83333333333334D-01 -0.41666666666667D+00  0.41666666666667D+00
            0.41666666666667D+00 -0.33333333333333D+00  0.00000000000000D+00
            0.50000000000000D+00 -0.33333333333333D+00  0.83333333333333D-01
           -0.41666666666667D+00 -0.33333333333333D+00  0.16666666666667D+00
           -0.33333333333333D+00 -0.33333333333333D+00  0.25000000000000D+00
           -0.25000000000000D+00 -0.33333333333333D+00  0.33333333333333D+00
           -0.16666666666667D+00 -0.33333333333333D+00  0.41666666666667D+00
           -0.83333333333334D-01 -0.33333333333333D+00  0.50000000000000D+00
            0.33333333333333D+00 -0.25000000000000D+00  0.00000000000000D+00
            0.41666666666667D+00 -0.25000000000000D+00  0.83333333333333D-01
            0.50000000000000D+00 -0.25000000000000D+00  0.16666666666667D+00
           -0.41666666666667D+00 -0.25000000000000D+00  0.25000000000000D+00
           -0.33333333333333D+00 -0.25000000000000D+00  0.33333333333333D+00
           -0.25000000000000D+00 -0.25000000000000D+00  0.41666666666667D+00
           -0.16666666666667D+00 -0.25000000000000D+00  0.50000000000000D+00
           -0.83333333333334D-01 -0.25000000000000D+00 -0.41666666666667D+00
            0.25000000000000D+00 -0.16666666666667D+00  0.00000000000000D+00
            0.33333333333333D+00 -0.16666666666667D+00  0.83333333333333D-01
            0.41666666666667D+00 -0.16666666666667D+00  0.16666666666667D+00
            0.50000000000000D+00 -0.16666666666667D+00  0.25000000000000D+00
           -0.41666666666667D+00 -0.16666666666667D+00  0.33333333333333D+00
           -0.33333333333333D+00 -0.16666666666667D+00  0.41666666666667D+00
           -0.25000000000000D+00 -0.16666666666667D+00  0.50000000000000D+00
           -0.16666666666667D+00 -0.16666666666667D+00 -0.41666666666667D+00
           -0.83333333333334D-01 -0.16666666666667D+00 -0.33333333333333D+00
            0.16666666666667D+00 -0.83333333333334D-01  0.00000000000000D+00
            0.25000000000000D+00 -0.83333333333334D-01  0.83333333333333D-01
            0.33333333333333D+00 -0.83333333333334D-01  0.16666666666667D+00
            0.41666666666667D+00 -0.83333333333334D-01  0.25000000000000D+00
            0.50000000000000D+00 -0.83333333333334D-01  0.33333333333333D+00
           -0.41666666666667D+00 -0.83333333333334D-01  0.41666666666667D+00
           -0.33333333333333D+00 -0.83333333333334D-01  0.50000000000000D+00
           -0.25000000000000D+00 -0.83333333333334D-01 -0.41666666666667D+00
           -0.16666666666667D+00 -0.83333333333334D-01 -0.33333333333333D+00
           -0.83333333333334D-01 -0.83333333333334D-01 -0.25000000000000D+00
           -0.83333333333334D-01  0.00000000000000D+00  0.00000000000000D+00
           -0.83333333333334D-01  0.83333333333333D-01  0.83333333333333D-01
           -0.16666666666667D+00  0.16666666666667D+00  0.83333333333333D-01
           -0.83333333333334D-01  0.16666666666667D+00  0.16666666666667D+00
           -0.25000000000000D+00  0.25000000000000D+00  0.83333333333333D-01
           -0.16666666666667D+00  0.25000000000000D+00  0.16666666666667D+00
           -0.83333333333334D-01  0.25000000000000D+00  0.25000000000000D+00
           -0.33333333333333D+00  0.33333333333333D+00  0.83333333333333D-01
           -0.25000000000000D+00  0.33333333333333D+00  0.16666666666667D+00
           -0.16666666666667D+00  0.33333333333333D+00  0.25000000000000D+00
           -0.83333333333334D-01  0.33333333333333D+00  0.33333333333333D+00
           -0.41666666666667D+00  0.41666666666667D+00  0.83333333333333D-01
           -0.33333333333333D+00  0.41666666666667D+00  0.16666666666667D+00
           -0.25000000000000D+00  0.41666666666667D+00  0.25000000000000D+00
           -0.16666666666667D+00  0.41666666666667D+00  0.33333333333333D+00
           -0.83333333333334D-01  0.41666666666667D+00  0.41666666666667D+00
            0.50000000000000D+00  0.50000000000000D+00  0.83333333333333D-01
           -0.41666666666667D+00  0.50000000000000D+00  0.16666666666667D+00
           -0.33333333333333D+00  0.50000000000000D+00  0.25000000000000D+00
           -0.25000000000000D+00  0.50000000000000D+00  0.33333333333333D+00
           -0.16666666666667D+00  0.50000000000000D+00  0.41666666666667D+00
           -0.83333333333334D-01  0.50000000000000D+00  0.50000000000000D+00
            0.41666666666667D+00 -0.41666666666667D+00  0.83333333333333D-01
            0.50000000000000D+00 -0.41666666666667D+00  0.16666666666667D+00
           -0.41666666666667D+00 -0.41666666666667D+00  0.25000000000000D+00
           -0.33333333333333D+00 -0.41666666666667D+00  0.33333333333333D+00
           -0.25000000000000D+00 -0.41666666666667D+00  0.41666666666667D+00
           -0.16666666666667D+00 -0.41666666666667D+00  0.50000000000000D+00
           -0.83333333333334D-01 -0.41666666666667D+00 -0.41666666666667D+00
            0.33333333333333D+00 -0.33333333333333D+00  0.83333333333333D-01
            0.41666666666667D+00 -0.33333333333333D+00  0.16666666666667D+00
            0.50000000000000D+00 -0.33333333333333D+00  0.25000000000000D+00
           -0.41666666666667D+00 -0.33333333333333D+00  0.33333333333333D+00
           -0.33333333333333D+00 -0.33333333333333D+00  0.41666666666667D+00
           -0.25000000000000D+00 -0.33333333333333D+00  0.50000000000000D+00
           -0.16666666666667D+00 -0.33333333333333D+00 -0.41666666666667D+00
           -0.83333333333334D-01 -0.33333333333333D+00 -0.33333333333333D+00
            0.25000000000000D+00 -0.25000000000000D+00  0.83333333333333D-01
            0.33333333333333D+00 -0.25000000000000D+00  0.16666666666667D+00
            0.41666666666667D+00 -0.25000000000000D+00  0.25000000000000D+00
            0.50000000000000D+00 -0.25000000000000D+00  0.33333333333333D+00
           -0.41666666666667D+00 -0.25000000000000D+00  0.41666666666667D+00
           -0.33333333333333D+00 -0.25000000000000D+00  0.50000000000000D+00
           -0.25000000000000D+00 -0.25000000000000D+00 -0.41666666666667D+00
           -0.16666666666667D+00 -0.25000000000000D+00 -0.33333333333333D+00
           -0.83333333333334D-01 -0.25000000000000D+00 -0.25000000000000D+00
            0.16666666666667D+00 -0.16666666666667D+00  0.83333333333333D-01
            0.25000000000000D+00 -0.16666666666667D+00  0.16666666666667D+00
            0.33333333333333D+00 -0.16666666666667D+00  0.25000000000000D+00
            0.41666666666667D+00 -0.16666666666667D+00  0.33333333333333D+00
            0.50000000000000D+00 -0.16666666666667D+00  0.41666666666667D+00
           -0.41666666666667D+00 -0.16666666666667D+00  0.50000000000000D+00
           -0.33333333333333D+00 -0.16666666666667D+00 -0.41666666666667D+00
           -0.25000000000000D+00 -0.16666666666667D+00 -0.33333333333333D+00
           -0.16666666666667D+00 -0.16666666666667D+00 -0.25000000000000D+00
           -0.83333333333334D-01 -0.16666666666667D+00 -0.16666666666667D+00
            0.00000000000000D+00 -0.83333333333334D-01  0.00000000000000D+00
            0.83333333333333D-01 -0.83333333333334D-01  0.83333333333333D-01
            0.16666666666667D+00 -0.83333333333334D-01  0.16666666666667D+00
            0.25000000000000D+00 -0.83333333333334D-01  0.25000000000000D+00
            0.33333333333333D+00 -0.83333333333334D-01  0.33333333333333D+00
            0.41666666666667D+00 -0.83333333333334D-01  0.41666666666667D+00
            0.50000000000000D+00 -0.83333333333334D-01  0.50000000000000D+00
           -0.41666666666667D+00 -0.83333333333334D-01 -0.41666666666667D+00
           -0.33333333333333D+00 -0.83333333333334D-01 -0.33333333333333D+00
           -0.25000000000000D+00 -0.83333333333334D-01 -0.25000000000000D+00
           -0.16666666666667D+00 -0.83333333333334D-01 -0.16666666666667D+00
           -0.83333333333334D-01 -0.83333333333334D-01 -0.83333333333334D-01
           -0.25000000000000D+00  0.00000000000000D+00  0.00000000000000D+00
           -0.16666666666667D+00  0.00000000000000D+00  0.83333333333333D-01
           -0.83333333333334D-01  0.00000000000000D+00  0.16666666666667D+00
           -0.25000000000000D+00  0.83333333333333D-01  0.83333333333333D-01
           -0.16666666666667D+00  0.83333333333333D-01  0.16666666666667D+00
           -0.83333333333334D-01  0.83333333333333D-01  0.25000000000000D+00
           -0.33333333333333D+00  0.16666666666667D+00  0.83333333333333D-01
           -0.25000000000000D+00  0.16666666666667D+00  0.16666666666667D+00
           -0.16666666666667D+00  0.16666666666667D+00  0.25000000000000D+00
           -0.83333333333334D-01  0.16666666666667D+00  0.33333333333333D+00
           -0.41666666666667D+00  0.25000000000000D+00  0.83333333333333D-01
           -0.33333333333333D+00  0.25000000000000D+00  0.16666666666667D+00
           -0.25000000000000D+00  0.25000000000000D+00  0.25000000000000D+00
           -0.16666666666667D+00  0.25000000000000D+00  0.33333333333333D+00
           -0.83333333333334D-01  0.25000000000000D+00  0.41666666666667D+00
            0.50000000000000D+00  0.33333333333333D+00  0.83333333333333D-01
           -0.41666666666667D+00  0.33333333333333D+00  0.16666666666667D+00
           -0.33333333333333D+00  0.33333333333333D+00  0.25000000000000D+00
           -0.25000000000000D+00  0.33333333333333D+00  0.33333333333333D+00
           -0.16666666666667D+00  0.33333333333333D+00  0.41666666666667D+00
           -0.83333333333334D-01  0.33333333333333D+00  0.50000000000000D+00
            0.41666666666667D+00  0.41666666666667D+00  0.83333333333333D-01
            0.50000000000000D+00  0.41666666666667D+00  0.16666666666667D+00
           -0.41666666666667D+00  0.41666666666667D+00  0.25000000000000D+00
           -0.33333333333333D+00  0.41666666666667D+00  0.33333333333333D+00
           -0.25000000000000D+00  0.41666666666667D+00  0.41666666666667D+00
           -0.16666666666667D+00  0.41666666666667D+00  0.50000000000000D+00
           -0.83333333333334D-01  0.41666666666667D+00 -0.41666666666667D+00
            0.33333333333333D+00  0.50000000000000D+00  0.83333333333333D-01
            0.41666666666667D+00  0.50000000000000D+00  0.16666666666667D+00
            0.50000000000000D+00  0.50000000000000D+00  0.25000000000000D+00
           -0.41666666666667D+00  0.50000000000000D+00  0.33333333333333D+00
           -0.33333333333333D+00  0.50000000000000D+00  0.41666666666667D+00
           -0.25000000000000D+00  0.50000000000000D+00  0.50000000000000D+00
           -0.16666666666667D+00  0.50000000000000D+00 -0.41666666666667D+00
           -0.83333333333334D-01  0.50000000000000D+00 -0.33333333333333D+00
            0.25000000000000D+00 -0.41666666666667D+00  0.83333333333333D-01
            0.33333333333333D+00 -0.41666666666667D+00  0.16666666666667D+00
            0.41666666666667D+00 -0.41666666666667D+00  0.25000000000000D+00
            0.50000000000000D+00 -0.41666666666667D+00  0.33333333333333D+00
           -0.41666666666667D+00 -0.41666666666667D+00  0.41666666666667D+00
           -0.33333333333333D+00 -0.41666666666667D+00  0.50000000000000D+00
           -0.25000000000000D+00 -0.41666666666667D+00 -0.41666666666667D+00
           -0.16666666666667D+00 -0.41666666666667D+00 -0.33333333333333D+00
           -0.83333333333334D-01 -0.41666666666667D+00 -0.25000000000000D+00
            0.16666666666667D+00 -0.33333333333333D+00  0.83333333333333D-01
            0.25000000000000D+00 -0.33333333333333D+00  0.16666666666667D+00
            0.33333333333333D+00 -0.33333333333333D+00  0.25000000000000D+00
            0.41666666666667D+00 -0.33333333333333D+00  0.33333333333333D+00
            0.50000000000000D+00 -0.33333333333333D+00  0.41666666666667D+00
           -0.41666666666667D+00 -0.33333333333333D+00  0.50000000000000D+00
           -0.33333333333333D+00 -0.33333333333333D+00 -0.41666666666667D+00
           -0.25000000000000D+00 -0.33333333333333D+00 -0.33333333333333D+00
           -0.16666666666667D+00 -0.33333333333333D+00 -0.25000000000000D+00
           -0.83333333333334D-01 -0.33333333333333D+00 -0.16666666666667D+00
            0.00000000000000D+00 -0.25000000000000D+00  0.00000000000000D+00
            0.83333333333333D-01 -0.25000000000000D+00  0.83333333333333D-01
            0.16666666666667D+00 -0.25000000000000D+00  0.16666666666667D+00
            0.25000000000000D+00 -0.25000000000000D+00  0.25000000000000D+00
            0.33333333333333D+00 -0.25000000000000D+00  0.33333333333333D+00
            0.41666666666667D+00 -0.25000000000000D+00  0.41666666666667D+00
            0.50000000000000D+00 -0.25000000000000D+00  0.50000000000000D+00
           -0.41666666666667D+00 -0.25000000000000D+00 -0.41666666666667D+00
           -0.33333333333333D+00 -0.25000000000000D+00 -0.33333333333333D+00
           -0.25000000000000D+00 -0.25000000000000D+00 -0.25000000000000D+00
           -0.16666666666667D+00 -0.25000000000000D+00 -0.16666666666667D+00
           -0.83333333333334D-01 -0.25000000000000D+00 -0.83333333333334D-01
            0.00000000000000D+00 -0.16666666666667D+00  0.83333333333333D-01
            0.83333333333333D-01 -0.16666666666667D+00  0.16666666666667D+00
            0.16666666666667D+00 -0.16666666666667D+00  0.25000000000000D+00
            0.25000000000000D+00 -0.16666666666667D+00  0.33333333333333D+00
            0.33333333333333D+00 -0.16666666666667D+00  0.41666666666667D+00
            0.41666666666667D+00 -0.16666666666667D+00  0.50000000000000D+00
            0.50000000000000D+00 -0.16666666666667D+00 -0.41666666666667D+00
           -0.41666666666667D+00 -0.16666666666667D+00 -0.33333333333333D+00
           -0.33333333333333D+00 -0.16666666666667D+00 -0.25000000000000D+00
           -0.25000000000000D+00 -0.16666666666667D+00 -0.16666666666667D+00
           -0.16666666666667D+00 -0.16666666666667D+00 -0.83333333333334D-01
            0.00000000000000D+00 -0.83333333333334D-01  0.16666666666667D+00
            0.83333333333333D-01 -0.83333333333334D-01  0.25000000000000D+00
            0.16666666666667D+00 -0.83333333333334D-01  0.33333333333333D+00
            0.25000000000000D+00 -0.83333333333334D-01  0.41666666666667D+00
            0.33333333333333D+00 -0.83333333333334D-01  0.50000000000000D+00
            0.41666666666667D+00 -0.83333333333334D-01 -0.41666666666667D+00
            0.50000000000000D+00 -0.83333333333334D-01 -0.33333333333333D+00
           -0.41666666666667D+00 -0.83333333333334D-01 -0.25000000000000D+00
           -0.33333333333333D+00 -0.83333333333334D-01 -0.16666666666667D+00
           -0.25000000000000D+00 -0.83333333333334D-01 -0.83333333333334D-01
           -0.41666666666667D+00  0.00000000000000D+00  0.00000000000000D+00
           -0.33333333333333D+00  0.00000000000000D+00  0.83333333333333D-01
           -0.25000000000000D+00  0.00000000000000D+00  0.16666666666667D+00
           -0.16666666666667D+00  0.00000000000000D+00  0.25000000000000D+00
           -0.83333333333334D-01  0.00000000000000D+00  0.33333333333333D+00
           -0.41666666666667D+00  0.83333333333333D-01  0.83333333333333D-01
           -0.33333333333333D+00  0.83333333333333D-01  0.16666666666667D+00
           -0.25000000000000D+00  0.83333333333333D-01  0.25000000000000D+00
           -0.16666666666667D+00  0.83333333333333D-01  0.33333333333333D+00
           -0.83333333333334D-01  0.83333333333333D-01  0.41666666666667D+00
            0.50000000000000D+00  0.16666666666667D+00  0.83333333333333D-01
           -0.41666666666667D+00  0.16666666666667D+00  0.16666666666667D+00
           -0.33333333333333D+00  0.16666666666667D+00  0.25000000000000D+00
           -0.25000000000000D+00  0.16666666666667D+00  0.33333333333333D+00
           -0.16666666666667D+00  0.16666666666667D+00  0.41666666666667D+00
           -0.83333333333334D-01  0.16666666666667D+00  0.50000000000000D+00
            0.41666666666667D+00  0.25000000000000D+00  0.83333333333333D-01
            0.50000000000000D+00  0.25000000000000D+00  0.16666666666667D+00
           -0.41666666666667D+00  0.25000000000000D+00  0.25000000000000D+00
           -0.33333333333333D+00  0.25000000000000D+00  0.33333333333333D+00
           -0.25000000000000D+00  0.25000000000000D+00  0.41666666666667D+00
           -0.16666666666667D+00  0.25000000000000D+00  0.50000000000000D+00
           -0.83333333333334D-01  0.25000000000000D+00 -0.41666666666667D+00
            0.33333333333333D+00  0.33333333333333D+00  0.83333333333333D-01
            0.41666666666667D+00  0.33333333333333D+00  0.16666666666667D+00
            0.50000000000000D+00  0.33333333333333D+00  0.25000000000000D+00
           -0.41666666666667D+00  0.33333333333333D+00  0.33333333333333D+00
           -0.33333333333333D+00  0.33333333333333D+00  0.41666666666667D+00
           -0.25000000000000D+00  0.33333333333333D+00  0.50000000000000D+00
           -0.16666666666667D+00  0.33333333333333D+00 -0.41666666666667D+00
           -0.83333333333334D-01  0.33333333333333D+00 -0.33333333333333D+00
            0.25000000000000D+00  0.41666666666667D+00  0.83333333333333D-01
            0.33333333333333D+00  0.41666666666667D+00  0.16666666666667D+00
            0.41666666666667D+00  0.41666666666667D+00  0.25000000000000D+00
            0.50000000000000D+00  0.41666666666667D+00  0.33333333333333D+00
           -0.41666666666667D+00  0.41666666666667D+00  0.41666666666667D+00
           -0.33333333333333D+00  0.41666666666667D+00  0.50000000000000D+00
           -0.25000000000000D+00  0.41666666666667D+00 -0.41666666666667D+00
           -0.16666666666667D+00  0.41666666666667D+00 -0.33333333333333D+00
           -0.83333333333334D-01  0.41666666666667D+00 -0.25000000000000D+00
            0.16666666666667D+00  0.50000000000000D+00  0.83333333333333D-01
            0.25000000000000D+00  0.50000000000000D+00  0.16666666666667D+00
            0.33333333333333D+00  0.50000000000000D+00  0.25000000000000D+00
            0.41666666666667D+00  0.50000000000000D+00  0.33333333333333D+00
            0.50000000000000D+00  0.50000000000000D+00  0.41666666666667D+00
           -0.41666666666667D+00  0.50000000000000D+00  0.50000000000000D+00
           -0.33333333333333D+00  0.50000000000000D+00 -0.41666666666667D+00
           -0.25000000000000D+00  0.50000000000000D+00 -0.33333333333333D+00
           -0.16666666666667D+00  0.50000000000000D+00 -0.25000000000000D+00
           -0.83333333333334D-01  0.50000000000000D+00 -0.16666666666667D+00
            0.00000000000000D+00 -0.41666666666667D+00  0.00000000000000D+00
            0.83333333333333D-01 -0.41666666666667D+00  0.83333333333333D-01
            0.16666666666667D+00 -0.41666666666667D+00  0.16666666666667D+00
            0.25000000000000D+00 -0.41666666666667D+00  0.25000000000000D+00
            0.33333333333333D+00 -0.41666666666667D+00  0.33333333333333D+00
            0.41666666666667D+00 -0.41666666666667D+00  0.41666666666667D+00
            0.50000000000000D+00 -0.41666666666667D+00  0.50000000000000D+00
           -0.41666666666667D+00 -0.41666666666667D+00 -0.41666666666667D+00
           -0.33333333333333D+00 -0.41666666666667D+00 -0.33333333333333D+00
           -0.25000000000000D+00 -0.41666666666667D+00 -0.25000000000000D+00
           -0.16666666666667D+00 -0.41666666666667D+00 -0.16666666666667D+00
           -0.83333333333334D-01 -0.41666666666667D+00 -0.83333333333334D-01
            0.00000000000000D+00 -0.33333333333333D+00  0.83333333333333D-01
            0.83333333333333D-01 -0.33333333333333D+00  0.16666666666667D+00
            0.16666666666667D+00 -0.33333333333333D+00  0.25000000000000D+00
            0.25000000000000D+00 -0.33333333333333D+00  0.33333333333333D+00
            0.33333333333333D+00 -0.33333333333333D+00  0.41666666666667D+00
            0.41666666666667D+00 -0.33333333333333D+00  0.50000000000000D+00
            0.50000000000000D+00 -0.33333333333333D+00 -0.41666666666667D+00
           -0.41666666666667D+00 -0.33333333333333D+00 -0.33333333333333D+00
           -0.33333333333333D+00 -0.33333333333333D+00 -0.25000000000000D+00
           -0.25000000000000D+00 -0.33333333333333D+00 -0.16666666666667D+00
           -0.16666666666667D+00 -0.33333333333333D+00 -0.83333333333334D-01
            0.00000000000000D+00 -0.25000000000000D+00  0.16666666666667D+00
            0.83333333333333D-01 -0.25000000000000D+00  0.25000000000000D+00
            0.16666666666667D+00 -0.25000000000000D+00  0.33333333333333D+00
            0.25000000000000D+00 -0.25000000000000D+00  0.41666666666667D+00
            0.33333333333333D+00 -0.25000000000000D+00  0.50000000000000D+00
            0.41666666666667D+00 -0.25000000000000D+00 -0.41666666666667D+00
            0.50000000000000D+00 -0.25000000000000D+00 -0.33333333333333D+00
           -0.41666666666667D+00 -0.25000000000000D+00 -0.25000000000000D+00
           -0.33333333333333D+00 -0.25000000000000D+00 -0.16666666666667D+00
           -0.25000000000000D+00 -0.25000000000000D+00 -0.83333333333334D-01
            0.00000000000000D+00 -0.16666666666667D+00  0.25000000000000D+00
            0.83333333333333D-01 -0.16666666666667D+00  0.33333333333333D+00
            0.16666666666667D+00 -0.16666666666667D+00  0.41666666666667D+00
            0.25000000000000D+00 -0.16666666666667D+00  0.50000000000000D+00
            0.33333333333333D+00 -0.16666666666667D+00 -0.41666666666667D+00
            0.41666666666667D+00 -0.16666666666667D+00 -0.33333333333333D+00
            0.50000000000000D+00 -0.16666666666667D+00 -0.25000000000000D+00
           -0.41666666666667D+00 -0.16666666666667D+00 -0.16666666666667D+00
           -0.33333333333333D+00 -0.16666666666667D+00 -0.83333333333334D-01
            0.00000000000000D+00 -0.83333333333334D-01  0.33333333333333D+00
            0.83333333333333D-01 -0.83333333333334D-01  0.41666666666667D+00
            0.16666666666667D+00 -0.83333333333334D-01  0.50000000000000D+00
            0.25000000000000D+00 -0.83333333333334D-01 -0.41666666666667D+00
            0.33333333333333D+00 -0.83333333333334D-01 -0.33333333333333D+00
            0.41666666666667D+00 -0.83333333333334D-01 -0.25000000000000D+00
            0.50000000000000D+00 -0.83333333333334D-01 -0.16666666666667D+00
           -0.41666666666667D+00 -0.83333333333334D-01 -0.83333333333334D-01
            0.50000000000000D+00  0.00000000000000D+00  0.83333333333333D-01
           -0.41666666666667D+00  0.00000000000000D+00  0.16666666666667D+00
           -0.33333333333333D+00  0.00000000000000D+00  0.25000000000000D+00
           -0.25000000000000D+00  0.00000000000000D+00  0.33333333333333D+00
           -0.16666666666667D+00  0.00000000000000D+00  0.41666666666667D+00
           -0.83333333333334D-01  0.00000000000000D+00  0.50000000000000D+00
            0.00000000000000D+00  0.50000000000000D+00  0.83333333333333D-01
            0.00000000000000D+00 -0.41666666666667D+00  0.16666666666667D+00
            0.00000000000000D+00 -0.33333333333333D+00  0.25000000000000D+00
            0.00000000000000D+00 -0.25000000000000D+00  0.33333333333333D+00
            0.00000000000000D+00 -0.16666666666667D+00  0.41666666666667D+00
            0.00000000000000D+00 -0.83333333333334D-01  0.50000000000000D+00
            0.33333333333333D+00  0.00000000000000D+00  0.83333333333333D-01
            0.41666666666667D+00  0.00000000000000D+00  0.16666666666667D+00
            0.50000000000000D+00  0.00000000000000D+00  0.25000000000000D+00
           -0.41666666666667D+00  0.00000000000000D+00  0.33333333333333D+00
           -0.33333333333333D+00  0.00000000000000D+00  0.41666666666667D+00
           -0.25000000000000D+00  0.00000000000000D+00  0.50000000000000D+00
           -0.16666666666667D+00  0.00000000000000D+00 -0.41666666666667D+00
           -0.83333333333334D-01  0.00000000000000D+00 -0.33333333333333D+00
            0.00000000000000D+00  0.33333333333333D+00  0.83333333333333D-01
            0.00000000000000D+00  0.41666666666667D+00  0.16666666666667D+00
            0.00000000000000D+00  0.50000000000000D+00  0.25000000000000D+00
            0.00000000000000D+00 -0.41666666666667D+00  0.33333333333333D+00
            0.00000000000000D+00 -0.33333333333333D+00  0.41666666666667D+00
            0.00000000000000D+00 -0.25000000000000D+00  0.50000000000000D+00
            0.00000000000000D+00 -0.16666666666667D+00 -0.41666666666667D+00
            0.00000000000000D+00 -0.83333333333334D-01 -0.33333333333333D+00
            0.16666666666667D+00  0.00000000000000D+00  0.83333333333333D-01
            0.25000000000000D+00  0.00000000000000D+00  0.16666666666667D+00
            0.33333333333333D+00  0.00000000000000D+00  0.25000000000000D+00
            0.41666666666667D+00  0.00000000000000D+00  0.33333333333333D+00
            0.50000000000000D+00  0.00000000000000D+00  0.41666666666667D+00
           -0.41666666666667D+00  0.00000000000000D+00  0.50000000000000D+00
           -0.33333333333333D+00  0.00000000000000D+00 -0.41666666666667D+00
           -0.25000000000000D+00  0.00000000000000D+00 -0.33333333333333D+00
           -0.16666666666667D+00  0.00000000000000D+00 -0.25000000000000D+00
           -0.83333333333334D-01  0.00000000000000D+00 -0.16666666666667D+00
            0.00000000000000D+00  0.16666666666667D+00  0.83333333333333D-01
            0.00000000000000D+00  0.25000000000000D+00  0.16666666666667D+00
            0.00000000000000D+00  0.33333333333333D+00  0.25000000000000D+00
            0.00000000000000D+00  0.41666666666667D+00  0.33333333333333D+00
            0.00000000000000D+00  0.50000000000000D+00  0.41666666666667D+00
            0.00000000000000D+00 -0.41666666666667D+00  0.50000000000000D+00
            0.00000000000000D+00 -0.33333333333333D+00 -0.41666666666667D+00
            0.00000000000000D+00 -0.25000000000000D+00 -0.33333333333333D+00
            0.00000000000000D+00 -0.16666666666667D+00 -0.25000000000000D+00
            0.00000000000000D+00 -0.83333333333334D-01 -0.16666666666667D+00
            0.00000000000000D+00  0.00000000000000D+00  0.83333333333333D-01
            0.00000000000000D+00  0.00000000000000D+00  0.25000000000000D+00
            0.00000000000000D+00  0.00000000000000D+00  0.41666666666667D+00
    kptnrm  0.10000000000000D+01
     ngfft        12   12   12
    nspden         1
   nspinor         1
       occ  0.20000000000000D+01  0.20000000000000D+01  0.20000000000000D+01
            0.20000000000000D+01
     rprim  0.00000000000000D+00  0.70710678119000D+00  0.70710678119000D+00
            0.70710678119000D+00  0.00000000000000D+00  0.70710678119000D+00
            0.70710678119000D+00  0.70710678119000D+00  0.00000000000000D+00
  dfpt_sciss  0.00000000000000D+00
    spinat  0.00000000000000D+00  0.00000000000000D+00  0.00000000000000D+00
            0.00000000000000D+00  0.00000000000000D+00  0.00000000000000D+00
    symafm         1    1    1    1    1    1    1    1    1    1    1    1
                   1    1    1    1    1    1    1    1    1    1    1    1
    symrel         1    0    0    0    1    0    0    0    1
                   0   -1    1    0   -1    0    1   -1    0
                  -1    0    0   -1    0    1   -1    1    0
                   0    1   -1    1    0   -1    0    0   -1
                  -1    0    0   -1    1    0   -1    0    1
                   0   -1    1    1   -1    0    0   -1    0
                   1    0    0    0    0    1    0    1    0
                   0    1   -1    0    0   -1    1    0   -1
                  -1    0    1   -1    1    0   -1    0    0
                   0   -1    0    1   -1    0    0   -1    1
                   1    0   -1    0    0   -1    0    1   -1
                   0    1    0    0    0    1    1    0    0
                   1    0   -1    0    1   -1    0    0   -1
                   0   -1    0    0   -1    1    1   -1    0
                  -1    0    1   -1    0    0   -1    1    0
                   0    1    0    1    0    0    0    0    1
                   0    0   -1    0    1   -1    1    0   -1
                   1   -1    0    0   -1    1    0   -1    0
                   0    0    1    1    0    0    0    1    0
                  -1    1    0   -1    0    0   -1    0    1
                   0    0    1    0    1    0    1    0    0
                   1   -1    0    0   -1    0    0   -1    1
                   0    0   -1    1    0   -1    0    1   -1
                  -1    1    0   -1    0    1   -1    0    0
     tnons  0.00000000000000D+00  0.00000000000000D+00  0.00000000000000D+00
            0.00000000000000D+00  0.00000000000000D+00  0.00000000000000D+00
            0.00000000000000D+00  0.00000000000000D+00  0.00000000000000D+00
            0.00000000000000D+00  0.00000000000000D+00  0.00000000000000D+00
            0.00000000000000D+00  0.00000000000000D+00  0.00000000000000D+00
            0.00000000000000D+00  0.00000000000000D+00  0.00000000000000D+00
            0.00000000000000D+00  0.00000000000000D+00  0.00000000000000D+00
            0.00000000000000D+00  0.00000000000000D+00  0.00000000000000D+00
            0.00000000000000D+00  0.00000000000000D+00  0.00000000000000D+00
            0.00000000000000D+00  0.00000000000000D+00  0.00000000000000D+00
            0.00000000000000D+00  0.00000000000000D+00  0.00000000000000D+00
            0.00000000000000D+00  0.00000000000000D+00  0.00000000000000D+00
            0.00000000000000D+00  0.00000000000000D+00  0.00000000000000D+00
            0.00000000000000D+00  0.00000000000000D+00  0.00000000000000D+00
            0.00000000000000D+00  0.00000000000000D+00  0.00000000000000D+00
            0.00000000000000D+00  0.00000000000000D+00  0.00000000000000D+00
            0.00000000000000D+00  0.00000000000000D+00  0.00000000000000D+00
            0.00000000000000D+00  0.00000000000000D+00  0.00000000000000D+00
            0.00000000000000D+00  0.00000000000000D+00  0.00000000000000D+00
            0.00000000000000D+00  0.00000000000000D+00  0.00000000000000D+00
            0.00000000000000D+00  0.00000000000000D+00  0.00000000000000D+00
            0.00000000000000D+00  0.00000000000000D+00  0.00000000000000D+00
            0.00000000000000D+00  0.00000000000000D+00  0.00000000000000D+00
            0.00000000000000D+00  0.00000000000000D+00  0.00000000000000D+00
    tolwfr  0.10000000000000D+01
   tphysel  0.00000000000000D+00
    tsmear  0.10000000000000D-01
     typat         1    2
       wtk  0.23148148148148D-02  0.23148148148148D-02  0.23148148148148D-02
            0.23148148148148D-02  0.23148148148148D-02  0.23148148148148D-02
            0.23148148148148D-02  0.23148148148148D-02  0.23148148148148D-02
            0.23148148148148D-02  0.23148148148148D-02  0.23148148148148D-02
            0.23148148148148D-02  0.23148148148148D-02  0.23148148148148D-02
            0.23148148148148D-02  0.23148148148148D-02  0.23148148148148D-02
            0.23148148148148D-02  0.23148148148148D-02  0.23148148148148D-02
            0.23148148148148D-02  0.23148148148148D-02  0.23148148148148D-02
            0.23148148148148D-02  0.23148148148148D-02  0.23148148148148D-02
            0.23148148148148D-02  0.23148148148148D-02  0.23148148148148D-02
            0.23148148148148D-02  0.23148148148148D-02  0.23148148148148D-02
            0.23148148148148D-02  0.23148148148148D-02  0.23148148148148D-02
            0.23148148148148D-02  0.23148148148148D-02  0.23148148148148D-02
            0.23148148148148D-02  0.23148148148148D-02  0.23148148148148D-02
            0.23148148148148D-02  0.23148148148148D-02  0.23148148148148D-02
            0.23148148148148D-02  0.23148148148148D-02  0.23148148148148D-02
            0.23148148148148D-02  0.23148148148148D-02  0.23148148148148D-02
            0.23148148148148D-02  0.23148148148148D-02  0.23148148148148D-02
            0.23148148148148D-02  0.23148148148148D-02  0.23148148148148D-02
            0.23148148148148D-02  0.23148148148148D-02  0.23148148148148D-02
            0.23148148148148D-02  0.23148148148148D-02  0.23148148148148D-02
            0.23148148148148D-02  0.23148148148148D-02  0.23148148148148D-02
            0.23148148148148D-02  0.23148148148148D-02  0.23148148148148D-02
            0.23148148148148D-02  0.23148148148148D-02  0.23148148148148D-02
            0.23148148148148D-02  0.23148148148148D-02  0.23148148148148D-02
            0.23148148148148D-02  0.23148148148148D-02  0.23148148148148D-02
            0.23148148148148D-02  0.23148148148148D-02  0.23148148148148D-02
            0.23148148148148D-02  0.23148148148148D-02  0.23148148148148D-02
            0.23148148148148D-02  0.23148148148148D-02  0.23148148148148D-02
            0.23148148148148D-02  0.23148148148148D-02  0.23148148148148D-02
            0.23148148148148D-02  0.23148148148148D-02  0.23148148148148D-02
            0.23148148148148D-02  0.23148148148148D-02  0.23148148148148D-02
            0.23148148148148D-02  0.23148148148148D-02  0.23148148148148D-02
            0.23148148148148D-02  0.23148148148148D-02  0.23148148148148D-02
            0.23148148148148D-02  0.23148148148148D-02  0.23148148148148D-02
            0.23148148148148D-02  0.23148148148148D-02  0.23148148148148D-02
            0.23148148148148D-02  0.23148148148148D-02  0.23148148148148D-02
            0.23148148148148D-02  0.23148148148148D-02  0.23148148148148D-02
            0.23148148148148D-02  0.23148148148148D-02  0.23148148148148D-02
            0.23148148148148D-02  0.23148148148148D-02  0.23148148148148D-02
            0.23148148148148D-02  0.23148148148148D-02  0.23148148148148D-02
            0.23148148148148D-02  0.23148148148148D-02  0.23148148148148D-02
            0.23148148148148D-02  0.23148148148148D-02  0.23148148148148D-02
            0.23148148148148D-02  0.23148148148148D-02  0.23148148148148D-02
            0.23148148148148D-02  0.23148148148148D-02  0.23148148148148D-02
            0.23148148148148D-02  0.23148148148148D-02  0.23148148148148D-02
            0.23148148148148D-02  0.23148148148148D-02  0.23148148148148D-02
            0.23148148148148D-02  0.23148148148148D-02  0.23148148148148D-02
            0.23148148148148D-02  0.23148148148148D-02  0.23148148148148D-02
            0.23148148148148D-02  0.23148148148148D-02  0.23148148148148D-02
            0.23148148148148D-02  0.23148148148148D-02  0.23148148148148D-02
            0.23148148148148D-02  0.23148148148148D-02  0.23148148148148D-02
            0.23148148148148D-02  0.23148148148148D-02  0.23148148148148D-02
            0.23148148148148D-02  0.23148148148148D-02  0.23148148148148D-02
            0.23148148148148D-02  0.23148148148148D-02  0.23148148148148D-02
            0.23148148148148D-02  0.23148148148148D-02  0.23148148148148D-02
            0.23148148148148D-02  0.23148148148148D-02  0.23148148148148D-02
            0.23148148148148D-02  0.23148148148148D-02  0.23148148148148D-02
            0.23148148148148D-02  0.23148148148148D-02  0.23148148148148D-02
            0.23148148148148D-02  0.23148148148148D-02  0.23148148148148D-02
            0.23148148148148D-02  0.23148148148148D-02  0.23148148148148D-02
            0.23148148148148D-02  0.23148148148148D-02  0.23148148148148D-02
            0.23148148148148D-02  0.23148148148148D-02  0.23148148148148D-02
            0.23148148148148D-02  0.23148148148148D-02  0.23148148148148D-02
            0.23148148148148D-02  0.23148148148148D-02  0.23148148148148D-02
            0.23148148148148D-02  0.23148148148148D-02  0.23148148148148D-02
            0.23148148148148D-02  0.23148148148148D-02  0.23148148148148D-02
            0.23148148148148D-02  0.23148148148148D-02  0.23148148148148D-02
            0.23148148148148D-02  0.23148148148148D-02  0.23148148148148D-02
            0.23148148148148D-02  0.23148148148148D-02  0.23148148148148D-02
            0.23148148148148D-02  0.23148148148148D-02  0.23148148148148D-02
            0.23148148148148D-02  0.23148148148148D-02  0.23148148148148D-02
            0.23148148148148D-02  0.23148148148148D-02  0.23148148148148D-02
            0.23148148148148D-02  0.23148148148148D-02  0.23148148148148D-02
            0.23148148148148D-02  0.23148148148148D-02  0.23148148148148D-02
            0.23148148148148D-02  0.23148148148148D-02  0.23148148148148D-02
            0.23148148148148D-02  0.23148148148148D-02  0.23148148148148D-02
            0.23148148148148D-02  0.23148148148148D-02  0.23148148148148D-02
            0.23148148148148D-02  0.23148148148148D-02  0.23148148148148D-02
            0.23148148148148D-02  0.23148148148148D-02  0.23148148148148D-02
            0.23148148148148D-02  0.23148148148148D-02  0.23148148148148D-02
            0.23148148148148D-02  0.23148148148148D-02  0.23148148148148D-02
            0.23148148148148D-02  0.23148148148148D-02  0.23148148148148D-02
            0.23148148148148D-02  0.23148148148148D-02  0.23148148148148D-02
            0.23148148148148D-02  0.23148148148148D-02  0.23148148148148D-02
            0.23148148148148D-02  0.23148148148148D-02  0.23148148148148D-02
            0.23148148148148D-02  0.23148148148148D-02  0.23148148148148D-02
            0.23148148148148D-02  0.23148148148148D-02  0.23148148148148D-02
            0.23148148148148D-02  0.23148148148148D-02  0.23148148148148D-02
            0.23148148148148D-02  0.23148148148148D-02  0.23148148148148D-02
            0.23148148148148D-02  0.23148148148148D-02  0.23148148148148D-02
            0.23148148148148D-02  0.23148148148148D-02  0.23148148148148D-02
            0.23148148148148D-02  0.23148148148148D-02  0.23148148148148D-02
            0.23148148148148D-02  0.23148148148148D-02  0.23148148148148D-02
            0.23148148148148D-02  0.23148148148148D-02  0.23148148148148D-02
            0.23148148148148D-02  0.23148148148148D-02  0.23148148148148D-02
            0.23148148148148D-02  0.23148148148148D-02  0.23148148148148D-02
            0.23148148148148D-02  0.23148148148148D-02  0.23148148148148D-02
            0.23148148148148D-02  0.23148148148148D-02  0.23148148148148D-02
            0.23148148148148D-02  0.23148148148148D-02  0.23148148148148D-02
            0.23148148148148D-02  0.23148148148148D-02  0.23148148148148D-02
            0.23148148148148D-02  0.23148148148148D-02  0.23148148148148D-02
            0.23148148148148D-02  0.23148148148148D-02  0.23148148148148D-02
            0.23148148148148D-02  0.23148148148148D-02  0.23148148148148D-02
            0.23148148148148D-02  0.23148148148148D-02  0.23148148148148D-02
            0.23148148148148D-02  0.23148148148148D-02  0.23148148148148D-02
            0.23148148148148D-02  0.23148148148148D-02  0.23148148148148D-02
            0.23148148148148D-02  0.23148148148148D-02  0.23148148148148D-02
            0.23148148148148D-02  0.23148148148148D-02  0.23148148148148D-02
            0.23148148148148D-02  0.23148148148148D-02  0.23148148148148D-02
            0.23148148148148D-02  0.23148148148148D-02  0.23148148148148D-02
            0.23148148148148D-02  0.23148148148148D-02  0.23148148148148D-02
            0.23148148148148D-02  0.23148148148148D-02  0.23148148148148D-02
            0.23148148148148D-02  0.23148148148148D-02  0.23148148148148D-02
            0.23148148148148D-02  0.23148148148148D-02  0.23148148148148D-02
            0.23148148148148D-02  0.23148148148148D-02  0.23148148148148D-02
            0.23148148148148D-02  0.23148148148148D-02  0.23148148148148D-02
            0.23148148148148D-02  0.23148148148148D-02  0.23148148148148D-02
            0.23148148148148D-02  0.23148148148148D-02  0.23148148148148D-02
            0.23148148148148D-02  0.23148148148148D-02  0.23148148148148D-02
            0.23148148148148D-02  0.23148148148148D-02  0.23148148148148D-02
            0.23148148148148D-02  0.23148148148148D-02  0.23148148148148D-02
            0.23148148148148D-02  0.23148148148148D-02  0.23148148148148D-02
            0.23148148148148D-02  0.23148148148148D-02  0.23148148148148D-02
            0.23148148148148D-02  0.23148148148148D-02  0.23148148148148D-02
            0.23148148148148D-02  0.23148148148148D-02  0.23148148148148D-02
            0.23148148148148D-02  0.23148148148148D-02  0.23148148148148D-02
            0.23148148148148D-02  0.23148148148148D-02  0.23148148148148D-02
            0.23148148148148D-02  0.23148148148148D-02  0.23148148148148D-02
            0.23148148148148D-02  0.23148148148148D-02  0.23148148148148D-02
            0.23148148148148D-02  0.23148148148148D-02  0.23148148148148D-02
            0.23148148148148D-02  0.23148148148148D-02  0.23148148148148D-02
            0.23148148148148D-02  0.23148148148148D-02  0.23148148148148D-02
            0.23148148148148D-02  0.23148148148148D-02  0.23148148148148D-02
            0.23148148148148D-02  0.23148148148148D-02  0.23148148148148D-02
            0.23148148148148D-02  0.23148148148148D-02  0.23148148148148D-02
            0.23148148148148D-02  0.23148148148148D-02  0.23148148148148D-02
            0.23148148148148D-02  0.23148148148148D-02  0.23148148148148D-02
            0.23148148148148D-02  0.23148148148148D-02  0.23148148148148D-02
            0.23148148148148D-02  0.23148148148148D-02  0.23148148148148D-02
            0.23148148148148D-02  0.23148148148148D-02  0.23148148148148D-02
            0.23148148148148D-02  0.23148148148148D-02  0.23148148148148D-02
            0.23148148148148D-02  0.23148148148148D-02  0.23148148148148D-02
            0.23148148148148D-02  0.23148148148148D-02  0.23148148148148D-02
      xred  0.25000000000000D+00  0.25000000000000D+00  0.25000000000000D+00
            0.00000000000000D+00  0.00000000000000D+00  0.00000000000000D+00
     znucl  0.15000000000000D+02  0.13000000000000D+02
      zion  0.50000000000000D+01  0.30000000000000D+01
 
  Description of the potentials (KB energies)
  vrsio8 (for pseudopotentials)=100401
  usepaw =  0
  dimekb =  6       lmnmax=  6
  Atom type=    1   pspso=  0   nekb=   6
  iln lpsang iproj  ekb(:)
     1     0     1     6.7951922E+00  0.0000000E+00  0.0000000E+00  0.0000000E+00
                       0.0000000E+00  0.0000000E+00
     2     0     2     0.0000000E+00  1.0782917E+00  0.0000000E+00  0.0000000E+00
                       0.0000000E+00  0.0000000E+00
     3     1     1     0.0000000E+00  0.0000000E+00  3.4529293E+00  0.0000000E+00
                       0.0000000E+00  0.0000000E+00
     4     1     2     0.0000000E+00  0.0000000E+00  0.0000000E+00  9.0711665E-01
                       0.0000000E+00  0.0000000E+00
     5     2     1     0.0000000E+00  0.0000000E+00  0.0000000E+00  0.0000000E+00
                      -3.0248640E+00  0.0000000E+00
     6     2     2     0.0000000E+00  0.0000000E+00  0.0000000E+00  0.0000000E+00
                      -3.0248640E+00  0.0000000E+00
  Atom type=    2   pspso=  0   nekb=   6
  iln lpsang iproj  ekb(:)
     1     0     1     5.7258697E+00  0.0000000E+00  0.0000000E+00  0.0000000E+00
                       0.0000000E+00  0.0000000E+00
     2     0     2     0.0000000E+00  7.2613085E-01  0.0000000E+00  0.0000000E+00
                       0.0000000E+00  0.0000000E+00
     3     1     1     0.0000000E+00  0.0000000E+00  6.1904197E+00  0.0000000E+00
                       0.0000000E+00  0.0000000E+00
     4     1     2     0.0000000E+00  0.0000000E+00  0.0000000E+00  9.1402167E-01
                       0.0000000E+00  0.0000000E+00
     5     2     1     0.0000000E+00  0.0000000E+00  0.0000000E+00  0.0000000E+00
                      -4.2295028E+00  0.0000000E+00
     6     2     2     0.0000000E+00  0.0000000E+00  0.0000000E+00  0.0000000E+00
                      -4.2295028E+00  0.0000000E+00
 
 **** Database of total energy derivatives ****
 Number of data blocks=    2
  
 2nd derivatives (non-stat.)  - # elements :         171
 qpt  0.00000000E+00  0.00000000E+00  0.00000000E+00   1.0
   1   1   1   1  0.59340127835732D+01  0.00000000000000D+00
   2   1   1   1  0.29670063917866D+01  0.00000000000000D+00
   3   1   1   1  0.29670063917866D+01  0.00000000000000D+00
   1   2   1   1 -0.59692277762944D+01 -0.31351851871110D-17
   2   2   1   1 -0.29846138881472D+01  0.46857655687197D-17
   3   2   1   1 -0.29846138881472D+01 -0.22234796122512D-17
   1   4   1   1 -0.45296172534549D+02  0.00000000000000D+00
   2   4   1   1 -0.20936484154780D-15  0.00000000000000D+00
   3   4   1   1 -0.21748243584028D-15  0.00000000000000D+00
   1   1   2   1  0.29670063917866D+01  0.00000000000000D+00
   2   1   2   1  0.59340127835732D+01  0.00000000000000D+00
   3   1   2   1  0.29670063917866D+01  0.00000000000000D+00
   1   2   2   1 -0.29846138881472D+01  0.46857655687197D-17
   2   2   2   1 -0.59692277762944D+01 -0.19948105862023D-16
   3   2   2   1 -0.29846138881472D+01 -0.10638387326311D-16
   1   4   2   1 -0.29605947323338D-15  0.00000000000000D+00
   2   4   2   1 -0.45296172534549D+02  0.00000000000000D+00
   3   4   2   1 -0.16542864314351D-15  0.00000000000000D+00
   1   1   3   1  0.29670063917866D+01  0.00000000000000D+00
   2   1   3   1  0.29670063917866D+01  0.00000000000000D+00
   3   1   3   1  0.59340127835732D+01  0.00000000000000D+00
   1   2   3   1 -0.29846138881472D+01 -0.22234796122512D-17
   2   2   3   1 -0.29846138881472D+01 -0.10638387326311D-16
   3   2   3   1 -0.59692277762943D+01 -0.16968247761645D-16
   1   4   3   1  0.00000000000000D+00  0.00000000000000D+00
   2   4   3   1  0.45229675562253D-15  0.00000000000000D+00
   3   4   3   1 -0.45296172534549D+02  0.00000000000000D+00
   1   1   1   2 -0.59692274521021D+01  0.31351851871110D-17
   2   1   1   2 -0.29846137260511D+01 -0.46857655687197D-17
   3   1   1   2 -0.29846137260511D+01  0.22234796122512D-17
   1   2   1   2  0.59692648420412D+01  0.00000000000000D+00
   2   2   1   2  0.29846324210206D+01  0.00000000000000D+00
   3   2   1   2  0.29846324210206D+01  0.00000000000000D+00
   1   4   1   2 -0.49772652079264D+01  0.00000000000000D+00
   2   4   1   2 -0.54753309516074D-17  0.00000000000000D+00
   3   4   1   2 -0.80363779776251D-17  0.00000000000000D+00
   1   1   2   2 -0.29846137260511D+01 -0.46857655687197D-17
   2   1   2   2 -0.59692274521021D+01  0.19948105862023D-16
   3   1   2   2 -0.29846137260511D+01  0.10638387326311D-16
   1   2   2   2  0.29846324210206D+01  0.00000000000000D+00
   2   2   2   2  0.59692648420412D+01  0.00000000000000D+00
   3   2   2   2  0.29846324210206D+01  0.00000000000000D+00
   1   4   2   2  0.00000000000000D+00  0.00000000000000D+00
   2   4   2   2 -0.49772652079264D+01  0.00000000000000D+00
   3   4   2   2 -0.34545810549936D-16  0.00000000000000D+00
   1   1   3   2 -0.29846137260511D+01  0.22234796122512D-17
   2   1   3   2 -0.29846137260511D+01  0.10638387326311D-16
   3   1   3   2 -0.59692274521021D+01  0.16968247761645D-16
   1   2   3   2  0.29846324210206D+01  0.00000000000000D+00
   2   2   3   2  0.29846324210206D+01  0.00000000000000D+00
   3   2   3   2  0.59692648420412D+01  0.00000000000000D+00
   1   4   3   2  0.00000000000000D+00  0.00000000000000D+00
   2   4   3   2 -0.19035813448286D-16  0.00000000000000D+00
   3   4   3   2 -0.49772652079264D+01  0.00000000000000D+00
   1   1   1   4 -0.45296172489759D+02  0.00000000000000D+00
   2   1   1   4 -0.29605947323338D-15  0.00000000000000D+00
   3   1   1   4  0.00000000000000D+00  0.00000000000000D+00
   1   2   1   4 -0.49772647743946D+01  0.00000000000000D+00
   2   2   1   4  0.00000000000000D+00  0.00000000000000D+00
   3   2   1   4  0.00000000000000D+00  0.00000000000000D+00
   1   4   1   4 -0.12184960447774D+03  0.00000000000000D+00
   2   4   1   4  0.40616534825913D+02  0.00000000000000D+00
   3   4   1   4  0.40616534825913D+02  0.00000000000000D+00
   1   1   2   4 -0.13289929544054D-15  0.00000000000000D+00
   2   1   2   4 -0.45296172489759D+02  0.00000000000000D+00
   3   1   2   4  0.24010792359937D-15  0.00000000000000D+00
   1   2   2   4  0.42889713996151D-16  0.00000000000000D+00
   2   2   2   4 -0.49772647743946D+01  0.00000000000000D+00
   3   2   2   4 -0.45194767096283D-16  0.00000000000000D+00
   1   4   2   4  0.40616534825913D+02  0.00000000000000D+00
   2   4   2   4 -0.12184960447774D+03  0.00000000000000D+00
   3   4   2   4  0.40616534825913D+02  0.00000000000000D+00
   1   1   3   4  0.85982132496049D-16  0.00000000000000D+00
   2   1   3   4 -0.50590092687542D-15  0.00000000000000D+00
   3   1   3   4 -0.45296172489759D+02  0.00000000000000D+00
   1   2   3   4 -0.85455082650369D-17  0.00000000000000D+00
   2   2   3   4 -0.35075604774094D-16  0.00000000000000D+00
   3   2   3   4 -0.49772647743946D+01  0.00000000000000D+00
   1   4   3   4  0.40616534825913D+02  0.00000000000000D+00
   2   4   3   4  0.40616534825913D+02  0.00000000000000D+00
   3   4   3   4 -0.12184960447774D+03  0.00000000000000D+00
   1   1   1   5 -0.98134317548936D-08  0.00000000000000D+00
   2   1   1   5 -0.12710397080579D-07  0.00000000000000D+00
   3   1   1   5 -0.15302932353840D-07  0.00000000000000D+00
   1   2   1   5  0.99670542155945D-09  0.00000000000000D+00
   2   2   1   5  0.15379770096295D-08  0.00000000000000D+00
   3   2   1   5  0.15848545340032D-08  0.00000000000000D+00
   1   4   1   5 -0.73390808187634D-09  0.00000000000000D+00
   2   4   1   5 -0.19731243373119D-08  0.00000000000000D+00
   3   4   1   5 -0.44761339229333D-08  0.00000000000000D+00
   1   5   1   5  0.14600842390646D+01  0.00000000000000D+00
   2   5   1   5  0.79528511081101D+00  0.00000000000000D+00
   3   5   1   5  0.79528511226950D+00  0.00000000000000D+00
   1   6   1   5  0.32518368141964D-09  0.00000000000000D+00
   2   6   1   5 -0.96195088144938D-09  0.00000000000000D+00
   3   6   1   5 -0.49515699450887D-08  0.00000000000000D+00
   1   1   2   5 -0.39335798910539D-07  0.00000000000000D+00
   2   1   2   5 -0.56861596457486D-07  0.00000000000000D+00
   3   1   2   5 -0.39273464442455D-07  0.00000000000000D+00
   1   2   2   5  0.58860736590316D-08  0.00000000000000D+00
   2   2   2   5  0.84039856130769D-08  0.00000000000000D+00
   3   2   2   5  0.53896582897692D-08  0.00000000000000D+00
   1   4   2   5 -0.40127100646176D-08  0.00000000000000D+00
   2   4   2   5 -0.18119668720529D-07  0.00000000000000D+00
   3   4   2   5 -0.41916982389430D-08  0.00000000000000D+00
   1   5   2   5  0.79528510441416D+00  0.00000000000000D+00
   2   5   2   5  0.14600842431838D+01  0.00000000000000D+00
   3   5   2   5  0.79528510718762D+00  0.00000000000000D+00
   1   6   2   5  0.78046516138999D-09  0.00000000000000D+00
   2   6   2   5 -0.15918786461632D-08  0.00000000000000D+00
   3   6   2   5 -0.80629824489877D-08  0.00000000000000D+00
   1   1   3   5 -0.15458498852955D-07  0.00000000000000D+00
   2   1   3   5 -0.12690895968316D-07  0.00000000000000D+00
   3   1   3   5 -0.96274696304556D-08  0.00000000000000D+00
   1   2   3   5  0.17563307169028D-08  0.00000000000000D+00
   2   2   3   5  0.15222048112070D-08  0.00000000000000D+00
   3   2   3   5  0.80860211486413D-09  0.00000000000000D+00
   1   4   3   5 -0.46112305514788D-08  0.00000000000000D+00
   2   4   3   5 -0.18617630271646D-08  0.00000000000000D+00
   3   4   3   5 -0.59417723258931D-09  0.00000000000000D+00
   1   5   3   5  0.79528511206123D+00  0.00000000000000D+00
   2   5   3   5  0.79528511338608D+00  0.00000000000000D+00
   3   5   3   5  0.14600842593150D+01  0.00000000000000D+00
   1   6   3   5  0.39044572702406D-08  0.00000000000000D+00
   2   6   3   5 -0.96111011756235D-09  0.00000000000000D+00
   3   6   3   5 -0.28310959747611D-08  0.00000000000000D+00
   1   1   1   6  0.17661936945143D-07  0.00000000000000D+00
   2   1   1   6  0.10290817251145D+01  0.00000000000000D+00
   3   1   1   6  0.10290817287582D+01  0.00000000000000D+00
   1   2   1   6 -0.17585614268348D-08  0.00000000000000D+00
   2   2   1   6 -0.10294864906221D+01  0.00000000000000D+00
   3   2   1   6 -0.10294864919415D+01  0.00000000000000D+00
   1   4   1   6  0.16473303263155D+01  0.00000000000000D+00
   2   4   1   6 -0.16473303201273D+01  0.00000000000000D+00
   3   4   1   6 -0.16473303178562D+01  0.00000000000000D+00
   1   5   1   6  0.65088682801531D-08  0.00000000000000D+00
   2   5   1   6  0.92790111002468D-08  0.00000000000000D+00
   3   5   1   6  0.92655280116165D-08  0.00000000000000D+00
   1   6   1   6  0.10569779434395D+01  0.00000000000000D+00
   2   6   1   6 -0.11613558205804D-09  0.00000000000000D+00
   3   6   1   6  0.10517822924614D-08  0.00000000000000D+00
   1   1   2   6  0.10290817230186D+01  0.00000000000000D+00
   2   1   2   6 -0.34490562924009D-08  0.00000000000000D+00
   3   1   2   6  0.10290817229217D+01  0.00000000000000D+00
   1   2   2   6 -0.10294864928826D+01  0.00000000000000D+00
   2   2   2   6  0.16362806645582D-08  0.00000000000000D+00
   3   2   2   6 -0.10294864931158D+01  0.00000000000000D+00
   1   4   2   6 -0.16473303174596D+01  0.00000000000000D+00
   2   4   2   6  0.16473303167322D+01  0.00000000000000D+00
   3   4   2   6 -0.16473303177314D+01  0.00000000000000D+00
   1   5   2   6  0.86092849567173D-08  0.00000000000000D+00
   2   5   2   6  0.86468508776529D-08  0.00000000000000D+00
   3   5   2   6  0.85850572036866D-08  0.00000000000000D+00
   1   6   2   6 -0.18492467049662D-08  0.00000000000000D+00
   2   6   2   6  0.10569779452194D+01  0.00000000000000D+00
   3   6   2   6  0.13772553911647D-08  0.00000000000000D+00
   1   1   3   6  0.10290817291212D+01  0.00000000000000D+00
   2   1   3   6  0.10290817253417D+01  0.00000000000000D+00
   3   1   3   6  0.17799955233667D-07  0.00000000000000D+00
   1   2   3   6 -0.10294864920709D+01  0.00000000000000D+00
   2   2   3   6 -0.10294864906213D+01  0.00000000000000D+00
   3   2   3   6 -0.18892296523745D-08  0.00000000000000D+00
   1   4   3   6 -0.16473303178015D+01  0.00000000000000D+00
   2   4   3   6 -0.16473303200739D+01  0.00000000000000D+00
   3   4   3   6  0.16473303262629D+01  0.00000000000000D+00
   1   5   3   6  0.40970000501166D-09  0.00000000000000D+00
   2   5   3   6  0.42303431891319D-09  0.00000000000000D+00
   3   5   3   6  0.33523708319211D-08  0.00000000000000D+00
   1   6   3   6  0.10519168733045D-08  0.00000000000000D+00
   2   6   3   6  0.31027421831620D-08  0.00000000000000D+00
   3   6   3   6  0.10569779406170D+01  0.00000000000000D+00
  
 3rd derivatives              - # elements :         189
 qpt  0.00000000E+00  0.00000000E+00  0.00000000E+00   1.0
      0.00000000E+00  0.00000000E+00  0.00000000E+00   1.0
      0.00000000E+00  0.00000000E+00  0.00000000E+00   1.0
     1     4     1     4     1     1  0.80344235933319D+01  0.00000000000000D+00
     2     4     1     4     1     1 -0.40172123572047D+01  0.00000000000000D+00
     3     4     1     4     1     1 -0.40172123572047D+01  0.00000000000000D+00
     1     4     2     4     1     1 -0.40172095924148D+01  0.00000000000000D+00
     2     4     2     4     1     1  0.00000000000000D+00  0.00000000000000D+00
     3     4     2     4     1     1  0.00000000000000D+00  0.00000000000000D+00
     1     4     3     4     1     1 -0.40172095924148D+01  0.00000000000000D+00
     2     4     3     4     1     1  0.00000000000000D+00  0.00000000000000D+00
     3     4     3     4     1     1  0.00000000000000D+00  0.00000000000000D+00
     1     4     1     4     2     1  0.00000000000000D+00  0.00000000000000D+00
     2     4     1     4     2     1 -0.40172167657070D+01  0.00000000000000D+00
     3     4     1     4     2     1  0.00000000000000D+00  0.00000000000000D+00
     1     4     2     4     2     1 -0.40172123572047D+01  0.00000000000000D+00
     2     4     2     4     2     1  0.80344235933319D+01  0.00000000000000D+00
     3     4     2     4     2     1 -0.40172123572047D+01  0.00000000000000D+00
     1     4     3     4     2     1  0.00000000000000D+00  0.00000000000000D+00
     2     4     3     4     2     1 -0.40172095924148D+01  0.00000000000000D+00
     3     4     3     4     2     1  0.00000000000000D+00  0.00000000000000D+00
     1     4     1     4     3     1  0.00000000000000D+00  0.00000000000000D+00
     2     4     1     4     3     1  0.00000000000000D+00  0.00000000000000D+00
     3     4     1     4     3     1 -0.40172095924148D+01  0.00000000000000D+00
     1     4     2     4     3     1  0.00000000000000D+00  0.00000000000000D+00
     2     4     2     4     3     1  0.00000000000000D+00  0.00000000000000D+00
     3     4     2     4     3     1 -0.40172167657070D+01  0.00000000000000D+00
     1     4     3     4     3     1 -0.40172123572047D+01  0.00000000000000D+00
     2     4     3     4     3     1 -0.40172123572047D+01  0.00000000000000D+00
     3     4     3     4     3     1  0.80344235933319D+01  0.00000000000000D+00
     1     4     1     4     1     2 -0.12354795383002D+02  0.00000000000000D+00
     2     4     1     4     1     2  0.61773967713873D+01  0.00000000000000D+00
     3     4     1     4     1     2  0.61773967713873D+01  0.00000000000000D+00
     1     4     2     4     1     2  0.61773985126089D+01  0.00000000000000D+00
     2     4     2     4     1     2  0.00000000000000D+00  0.00000000000000D+00
     3     4     2     4     1     2  0.00000000000000D+00  0.00000000000000D+00
     1     4     3     4     1     2  0.61773985126089D+01  0.00000000000000D+00
     2     4     3     4     1     2  0.00000000000000D+00  0.00000000000000D+00
     3     4     3     4     1     2  0.00000000000000D+00  0.00000000000000D+00
     1     4     1     4     2     2  0.00000000000000D+00  0.00000000000000D+00
     2     4     1     4     2     2  0.61773951291720D+01  0.00000000000000D+00
     3     4     1     4     2     2  0.00000000000000D+00  0.00000000000000D+00
     1     4     2     4     2     2  0.61773967713873D+01  0.00000000000000D+00
     2     4     2     4     2     2 -0.12354795383002D+02  0.00000000000000D+00
     3     4     2     4     2     2  0.61773967713873D+01  0.00000000000000D+00
     1     4     3     4     2     2  0.00000000000000D+00  0.00000000000000D+00
     2     4     3     4     2     2  0.61773985126089D+01  0.00000000000000D+00
     3     4     3     4     2     2  0.00000000000000D+00  0.00000000000000D+00
     1     4     1     4     3     2  0.00000000000000D+00  0.00000000000000D+00
     2     4     1     4     3     2  0.00000000000000D+00  0.00000000000000D+00
     3     4     1     4     3     2  0.61773985126089D+01  0.00000000000000D+00
     1     4     2     4     3     2  0.00000000000000D+00  0.00000000000000D+00
     2     4     2     4     3     2  0.00000000000000D+00  0.00000000000000D+00
     3     4     2     4     3     2  0.61773951291720D+01  0.00000000000000D+00
     1     4     3     4     3     2  0.61773967713873D+01  0.00000000000000D+00
     2     4     3     4     3     2  0.61773967713873D+01  0.00000000000000D+00
     3     4     3     4     3     2 -0.12354795383002D+02  0.00000000000000D+00
     1     4     1     1     1     4  0.27801091146021D+02  0.00000000000000D+00
     2     4     1     1     1     4 -0.13900538406902D+02  0.00000000000000D+00
     3     4     1     1     1     4 -0.13900538406902D+02  0.00000000000000D+00
     1     4     2     1     1     4  0.00000000000000D+00  0.00000000000000D+00
     2     4     2     1     1     4 -0.13900552739119D+02  0.00000000000000D+00
     3     4     2     1     1     4  0.00000000000000D+00  0.00000000000000D+00
     1     4     3     1     1     4  0.00000000000000D+00  0.00000000000000D+00
     2     4     3     1     1     4  0.00000000000000D+00  0.00000000000000D+00
     3     4     3     1     1     4 -0.13900538406902D+02  0.00000000000000D+00
     1     4     1     2     1     4 -0.19182350560140D+02  0.00000000000000D+00
     2     4     1     2     1     4  0.95911714124995D+01  0.00000000000000D+00
     3     4     1     2     1     4  0.95911714124995D+01  0.00000000000000D+00
     1     4     2     2     1     4  0.00000000000000D+00  0.00000000000000D+00
     2     4     2     2     1     4  0.95911791476407D+01  0.00000000000000D+00
     3     4     2     2     1     4  0.00000000000000D+00  0.00000000000000D+00
     1     4     3     2     1     4  0.00000000000000D+00  0.00000000000000D+00
     2     4     3     2     1     4  0.00000000000000D+00  0.00000000000000D+00
     3     4     3     2     1     4  0.95911714124995D+01  0.00000000000000D+00
     1     1     1     4     1     4  0.80344235933319D+01  0.00000000000000D+00
     2     1     1     4     1     4  0.00000000000000D+00  0.00000000000000D+00
     3     1     1     4     1     4  0.00000000000000D+00  0.00000000000000D+00
     1     2     1     4     1     4 -0.12354795383002D+02  0.00000000000000D+00
     2     2     1     4     1     4  0.00000000000000D+00  0.00000000000000D+00
     3     2     1     4     1     4  0.00000000000000D+00  0.00000000000000D+00
     1     4     1     4     1     4  0.90687478526549D+02  0.00000000000000D+00
     2     4     1     4     1     4 -0.30229145521203D+02  0.00000000000000D+00
     3     4     1     4     1     4 -0.30229113584534D+02  0.00000000000000D+00
     1     1     2     4     1     4 -0.40172095924148D+01  0.00000000000000D+00
     2     1     2     4     1     4 -0.40172084713373D+01  0.00000000000000D+00
     3     1     2     4     1     4  0.00000000000000D+00  0.00000000000000D+00
     1     2     2     4     1     4  0.61773985126089D+01  0.00000000000000D+00
     2     2     2     4     1     4  0.61774003528368D+01  0.00000000000000D+00
     3     2     2     4     1     4  0.00000000000000D+00  0.00000000000000D+00
     1     4     2     4     1     4 -0.30229177197926D+02  0.00000000000000D+00
     2     4     2     4     1     4 -0.30229145261258D+02  0.00000000000000D+00
     3     4     2     4     1     4  0.30229154216181D+02  0.00000000000000D+00
     1     1     3     4     1     4 -0.40172095924148D+01  0.00000000000000D+00
     2     1     3     4     1     4  0.00000000000000D+00  0.00000000000000D+00
     3     1     3     4     1     4 -0.40172123572047D+01  0.00000000000000D+00
     1     2     3     4     1     4  0.61773985126089D+01  0.00000000000000D+00
     2     2     3     4     1     4  0.00000000000000D+00  0.00000000000000D+00
     3     2     3     4     1     4  0.61773967713873D+01  0.00000000000000D+00
     1     4     3     4     1     4 -0.30229177197926D+02  0.00000000000000D+00
     2     4     3     4     1     4  0.30229168243003D+02  0.00000000000000D+00
     3     4     3     4     1     4 -0.30229187744089D+02  0.00000000000000D+00
     1     4     1     1     2     4 -0.13900538406902D+02  0.00000000000000D+00
     2     4     1     1     2     4  0.00000000000000D+00  0.00000000000000D+00
     3     4     1     1     2     4  0.00000000000000D+00  0.00000000000000D+00
     1     4     2     1     2     4 -0.13900538406902D+02  0.00000000000000D+00
     2     4     2     1     2     4  0.27801091146021D+02  0.00000000000000D+00
     3     4     2     1     2     4 -0.13900538406902D+02  0.00000000000000D+00
     1     4     3     1     2     4  0.00000000000000D+00  0.00000000000000D+00
     2     4     3     1     2     4  0.00000000000000D+00  0.00000000000000D+00
     3     4     3     1     2     4 -0.13900552739119D+02  0.00000000000000D+00
     1     4     1     2     2     4  0.95911714124995D+01  0.00000000000000D+00
     2     4     1     2     2     4  0.00000000000000D+00  0.00000000000000D+00
     3     4     1     2     2     4  0.00000000000000D+00  0.00000000000000D+00
     1     4     2     2     2     4  0.95911714124995D+01  0.00000000000000D+00
     2     4     2     2     2     4 -0.19182350560140D+02  0.00000000000000D+00
     3     4     2     2     2     4  0.95911714124995D+01  0.00000000000000D+00
     1     4     3     2     2     4  0.00000000000000D+00  0.00000000000000D+00
     2     4     3     2     2     4  0.00000000000000D+00  0.00000000000000D+00
     3     4     3     2     2     4  0.95911791476407D+01  0.00000000000000D+00
     1     1     1     4     2     4 -0.40172123572047D+01  0.00000000000000D+00
     2     1     1     4     2     4 -0.40172095924148D+01  0.00000000000000D+00
     3     1     1     4     2     4  0.00000000000000D+00  0.00000000000000D+00
     1     2     1     4     2     4  0.61773967713873D+01  0.00000000000000D+00
     2     2     1     4     2     4  0.61773985126089D+01  0.00000000000000D+00
     3     2     1     4     2     4  0.00000000000000D+00  0.00000000000000D+00
     1     4     1     4     2     4 -0.30229145521203D+02  0.00000000000000D+00
     2     4     1     4     2     4 -0.30229124130698D+02  0.00000000000000D+00
     3     4     1     4     2     4  0.30229122539458D+02  0.00000000000000D+00
     1     1     2     4     2     4  0.00000000000000D+00  0.00000000000000D+00
     2     1     2     4     2     4  0.80344235933319D+01  0.00000000000000D+00
     3     1     2     4     2     4  0.00000000000000D+00  0.00000000000000D+00
     1     2     2     4     2     4  0.00000000000000D+00  0.00000000000000D+00
     2     2     2     4     2     4 -0.12354795383002D+02  0.00000000000000D+00
     3     2     2     4     2     4  0.00000000000000D+00  0.00000000000000D+00
     1     4     2     4     2     4 -0.30229145261258D+02  0.00000000000000D+00
     2     4     2     4     2     4  0.90687478526549D+02  0.00000000000000D+00
     3     4     2     4     2     4 -0.30229145521203D+02  0.00000000000000D+00
     1     1     3     4     2     4  0.00000000000000D+00  0.00000000000000D+00
     2     1     3     4     2     4 -0.40172095924148D+01  0.00000000000000D+00
     3     1     3     4     2     4 -0.40172084713373D+01  0.00000000000000D+00
     1     2     3     4     2     4  0.00000000000000D+00  0.00000000000000D+00
     2     2     3     4     2     4  0.61773985126089D+01  0.00000000000000D+00
     3     2     3     4     2     4  0.61774003528368D+01  0.00000000000000D+00
     1     4     3     4     2     4  0.30229168243003D+02  0.00000000000000D+00
     2     4     3     4     2     4 -0.30229177197926D+02  0.00000000000000D+00
     3     4     3     4     2     4 -0.30229145261258D+02  0.00000000000000D+00
     1     4     1     1     3     4 -0.13900538406902D+02  0.00000000000000D+00
     2     4     1     1     3     4  0.00000000000000D+00  0.00000000000000D+00
     3     4     1     1     3     4  0.00000000000000D+00  0.00000000000000D+00
     1     4     2     1     3     4  0.00000000000000D+00  0.00000000000000D+00
     2     4     2     1     3     4 -0.13900538406902D+02  0.00000000000000D+00
     3     4     2     1     3     4  0.00000000000000D+00  0.00000000000000D+00
     1     4     3     1     3     4 -0.13900538406902D+02  0.00000000000000D+00
     2     4     3     1     3     4 -0.13900538406902D+02  0.00000000000000D+00
     3     4     3     1     3     4  0.27801091146021D+02  0.00000000000000D+00
     1     4     1     2     3     4  0.95911714124995D+01  0.00000000000000D+00
     2     4     1     2     3     4  0.00000000000000D+00  0.00000000000000D+00
     3     4     1     2     3     4  0.00000000000000D+00  0.00000000000000D+00
     1     4     2     2     3     4  0.00000000000000D+00  0.00000000000000D+00
     2     4     2     2     3     4  0.95911714124995D+01  0.00000000000000D+00
     3     4     2     2     3     4  0.00000000000000D+00  0.00000000000000D+00
     1     4     3     2     3     4  0.95911714124995D+01  0.00000000000000D+00
     2     4     3     2     3     4  0.95911714124995D+01  0.00000000000000D+00
     3     4     3     2     3     4 -0.19182350560140D+02  0.00000000000000D+00
     1     1     1     4     3     4 -0.40172123572047D+01  0.00000000000000D+00
     2     1     1     4     3     4  0.00000000000000D+00  0.00000000000000D+00
     3     1     1     4     3     4 -0.40172095924148D+01  0.00000000000000D+00
     1     2     1     4     3     4  0.61773967713873D+01  0.00000000000000D+00
     2     2     1     4     3     4  0.00000000000000D+00  0.00000000000000D+00
     3     2     1     4     3     4  0.61773985126089D+01  0.00000000000000D+00
     1     4     1     4     3     4 -0.30229145261258D+02  0.00000000000000D+00
     2     4     1     4     3     4  0.30229122539458D+02  0.00000000000000D+00
     3     4     1     4     3     4 -0.30229177197926D+02  0.00000000000000D+00
     1     1     2     4     3     4  0.00000000000000D+00  0.00000000000000D+00
     2     1     2     4     3     4 -0.40172123572047D+01  0.00000000000000D+00
     3     1     2     4     3     4 -0.40172095924148D+01  0.00000000000000D+00
     1     2     2     4     3     4  0.00000000000000D+00  0.00000000000000D+00
     2     2     2     4     3     4  0.61773967713873D+01  0.00000000000000D+00
     3     2     2     4     3     4  0.61773985126089D+01  0.00000000000000D+00
     1     4     2     4     3     4  0.30229154216181D+02  0.00000000000000D+00
     2     4     2     4     3     4 -0.30229145521203D+02  0.00000000000000D+00
     3     4     2     4     3     4 -0.30229124130698D+02  0.00000000000000D+00
     1     1     3     4     3     4  0.00000000000000D+00  0.00000000000000D+00
     2     1     3     4     3     4  0.00000000000000D+00  0.00000000000000D+00
     3     1     3     4     3     4  0.80344235933319D+01  0.00000000000000D+00
     1     2     3     4     3     4  0.00000000000000D+00  0.00000000000000D+00
     2     2     3     4     3     4  0.00000000000000D+00  0.00000000000000D+00
     3     2     3     4     3     4 -0.12354795383002D+02  0.00000000000000D+00
     1     4     3     4     3     4 -0.30229145521203D+02  0.00000000000000D+00
     2     4     3     4     3     4 -0.30229145261258D+02  0.00000000000000D+00
     3     4     3     4     3     4  0.90687478526549D+02  0.00000000000000D+00
