
.Version 8.11.12 of ABINIT 
.(MPI version, prepared for a x86_64_linux_gnu4.8 computer) 

.Copyright (C) 1998-2019 ABINIT group . 
 ABINIT comes with ABSOLUTELY NO WARRANTY.
 It is free software, and you are welcome to redistribute it
 under certain conditions (GNU General Public License,
 see ~abinit/COPYING or http://www.gnu.org/copyleft/gpl.txt).

 ABINIT is a project of the Universite Catholique de Louvain,
 Corning Inc. and other collaborators, see ~abinit/doc/developers/contributors.txt .
 Please read https://docs.abinit.org/theory/acknowledgments for suggested
 acknowledgments of the ABINIT effort.
 For more information, see https://www.abinit.org .

.Starting date : Wed 27 Nov 2019.
- ( at 09h46 )
  
- input  file    -> toptic_5.in
- output file    -> toptic_5.out
- root for input  files -> toptic_5i
- root for output files -> toptic_5o


 DATASET    1 : space group F-4 3 m (#216); Bravais cF (face-center cubic)
================================================================================
 Values of the parameters that define the memory need for DATASET  1.
     intxc =       0    ionmov =       0      iscf =       7    lmnmax =       1
     lnmax =       1     mgfft =      10  mpssoang =       2    mqgrid =    3001
     natom =       2  nloc_mem =       1    nspden =       1   nspinor =       1
    nsppol =       1      nsym =      24    n1xccc =    2501    ntypat =       2
    occopt =       1   xclevel =       1
-    mband =           4        mffmem =           1         mkmem =          10
       mpw =          43          nfft =        1000          nkpt =          10
================================================================================
P This job should need less than                       1.052 Mbytes of memory.
  Rough estimation (10% accuracy) of disk space for files :
_ WF disk file :      0.028 Mbytes ; DEN or POT disk file :      0.010 Mbytes.
================================================================================


 DATASET    2 : space group F-4 3 m (#216); Bravais cF (face-center cubic)
================================================================================
 Values of the parameters that define the memory need for DATASET  2.
     intxc =       0    ionmov =       0      iscf =      -2    lmnmax =       1
     lnmax =       1     mgfft =      10  mpssoang =       2    mqgrid =    3001
     natom =       2  nloc_mem =       1    nspden =       1   nspinor =       1
    nsppol =       1      nsym =      24    n1xccc =    2501    ntypat =       2
    occopt =       1   xclevel =       1
-    mband =           9        mffmem =           1         mkmem =          10
       mpw =          43          nfft =        1000          nkpt =          10
================================================================================
P This job should need less than                       0.973 Mbytes of memory.
  Rough estimation (10% accuracy) of disk space for files :
_ WF disk file :      0.061 Mbytes ; DEN or POT disk file :      0.010 Mbytes.
================================================================================


 DATASET    3 : space group F-4 3 m (#216); Bravais cF (face-center cubic)
================================================================================
 Values of the parameters that define the memory need for DATASET  3.
     intxc =       0    ionmov =       0      iscf =      -2    lmnmax =       1
     lnmax =       1     mgfft =      10  mpssoang =       2    mqgrid =    3001
     natom =       2  nloc_mem =       1    nspden =       1   nspinor =       1
    nsppol =       1      nsym =      24    n1xccc =    2501    ntypat =       2
    occopt =       1   xclevel =       1
-    mband =           9        mffmem =           1         mkmem =         128
       mpw =          43          nfft =        1000          nkpt =         128
================================================================================
P This job should need less than                       1.890 Mbytes of memory.
  Rough estimation (10% accuracy) of disk space for files :
_ WF disk file :      0.758 Mbytes ; DEN or POT disk file :      0.010 Mbytes.
================================================================================


 DATASET    4 : space group F-4 3 m (#216); Bravais cF (face-center cubic)
================================================================================
 Values of the parameters that define the memory need for DATASET  4 (RF).
     intxc =       0      iscf =      -3    lmnmax =       1     lnmax =       1
     mgfft =      10  mpssoang =       2    mqgrid =    3001     natom =       2
  nloc_mem =       1    nspden =       1   nspinor =       1    nsppol =       1
      nsym =      24    n1xccc =    2501    ntypat =       2    occopt =       1
   xclevel =       1
-    mband =           9        mffmem =           1         mkmem =         128
-   mkqmem =         128        mk1mem =         128           mpw =          43
      nfft =        1000          nkpt =         128
================================================================================
P This job should need less than                       3.563 Mbytes of memory.
  Rough estimation (10% accuracy) of disk space for files :
_ WF disk file :      0.758 Mbytes ; DEN or POT disk file :      0.010 Mbytes.
================================================================================


 DATASET    5 : space group F-4 3 m (#216); Bravais cF (face-center cubic)
================================================================================
 Values of the parameters that define the memory need for DATASET  5 (RF).
     intxc =       0      iscf =      -3    lmnmax =       1     lnmax =       1
     mgfft =      10  mpssoang =       2    mqgrid =    3001     natom =       2
  nloc_mem =       1    nspden =       1   nspinor =       1    nsppol =       1
      nsym =      24    n1xccc =    2501    ntypat =       2    occopt =       1
   xclevel =       1
-    mband =           9        mffmem =           1         mkmem =         128
-   mkqmem =         128        mk1mem =         128           mpw =          43
      nfft =        1000          nkpt =         128
================================================================================
P This job should need less than                       3.563 Mbytes of memory.
  Rough estimation (10% accuracy) of disk space for files :
_ WF disk file :      0.758 Mbytes ; DEN or POT disk file :      0.010 Mbytes.
================================================================================


 DATASET    6 : space group F-4 3 m (#216); Bravais cF (face-center cubic)
================================================================================
 Values of the parameters that define the memory need for DATASET  6 (RF).
     intxc =       0      iscf =      -3    lmnmax =       1     lnmax =       1
     mgfft =      10  mpssoang =       2    mqgrid =    3001     natom =       2
  nloc_mem =       1    nspden =       1   nspinor =       1    nsppol =       1
      nsym =      24    n1xccc =    2501    ntypat =       2    occopt =       1
   xclevel =       1
-    mband =           9        mffmem =           1         mkmem =         128
-   mkqmem =         128        mk1mem =         128           mpw =          43
      nfft =        1000          nkpt =         128
================================================================================
P This job should need less than                       3.563 Mbytes of memory.
  Rough estimation (10% accuracy) of disk space for files :
_ WF disk file :      0.758 Mbytes ; DEN or POT disk file :      0.010 Mbytes.
================================================================================

--------------------------------------------------------------------------------
------------- Echo of variables that govern the present computation ------------
--------------------------------------------------------------------------------
-
- outvars: echo of selected default values                                      
-   iomode0 =  0 , fftalg0 =112 , wfoptalg0 =  0
-
- outvars: echo of global parameters not present in the input file              
-  max_nthreads =    0
-
 -outvars: echo values of preprocessed input variables --------
            acell      1.0600000000E+01  1.0600000000E+01  1.0600000000E+01 Bohr
              amu      6.97200000E+01  7.49216000E+01
           diemac      1.00000000E+01
             ecut      2.00000000E+00 Hartree
-          fftalg         112
           getden1          0
           getden2          1
           getden3          1
           getden4          0
           getden5          0
           getden6          0
           getwfk1          0
           getwfk2          1
           getwfk3          2
           getwfk4          3
           getwfk5          3
           getwfk6          3
             iscf1          7
             iscf2         -2
             iscf3         -2
             iscf4         -3
             iscf5         -3
             iscf6         -3
              ixc           3
           jdtset        1    2    3    4    5    6
              kpt1    -1.25000000E-01 -2.50000000E-01  0.00000000E+00
                      -1.25000000E-01  5.00000000E-01  0.00000000E+00
                      -2.50000000E-01 -3.75000000E-01  0.00000000E+00
                      -1.25000000E-01 -3.75000000E-01  1.25000000E-01
                      -1.25000000E-01  2.50000000E-01  0.00000000E+00
                      -2.50000000E-01  3.75000000E-01  0.00000000E+00
                      -3.75000000E-01  5.00000000E-01  0.00000000E+00
                      -2.50000000E-01  5.00000000E-01  1.25000000E-01
                      -1.25000000E-01  0.00000000E+00  0.00000000E+00
                      -3.75000000E-01  0.00000000E+00  0.00000000E+00
              kpt2    -1.25000000E-01 -2.50000000E-01  0.00000000E+00
                      -1.25000000E-01  5.00000000E-01  0.00000000E+00
                      -2.50000000E-01 -3.75000000E-01  0.00000000E+00
                      -1.25000000E-01 -3.75000000E-01  1.25000000E-01
                      -1.25000000E-01  2.50000000E-01  0.00000000E+00
                      -2.50000000E-01  3.75000000E-01  0.00000000E+00
                      -3.75000000E-01  5.00000000E-01  0.00000000E+00
                      -2.50000000E-01  5.00000000E-01  1.25000000E-01
                      -1.25000000E-01  0.00000000E+00  0.00000000E+00
                      -3.75000000E-01  0.00000000E+00  0.00000000E+00
              kpt3    -1.25000000E-01 -2.50000000E-01  0.00000000E+00
                      -2.50000000E-01 -1.25000000E-01  0.00000000E+00
                      -1.25000000E-01 -1.25000000E-01  1.25000000E-01
                      -1.25000000E-01  5.00000000E-01  0.00000000E+00
                      -2.50000000E-01 -3.75000000E-01  0.00000000E+00
                      -1.25000000E-01 -3.75000000E-01  1.25000000E-01
                      -3.75000000E-01 -2.50000000E-01  0.00000000E+00
                      -2.50000000E-01 -2.50000000E-01  1.25000000E-01
                      -1.25000000E-01 -2.50000000E-01  2.50000000E-01
                       5.00000000E-01 -1.25000000E-01  0.00000000E+00
                      -3.75000000E-01 -1.25000000E-01  1.25000000E-01
                      -2.50000000E-01 -1.25000000E-01  2.50000000E-01
                      -1.25000000E-01 -1.25000000E-01  3.75000000E-01
                      -1.25000000E-01  2.50000000E-01  0.00000000E+00
                      -2.50000000E-01  3.75000000E-01  0.00000000E+00
                      -1.25000000E-01  3.75000000E-01  1.25000000E-01
                      -3.75000000E-01  5.00000000E-01  0.00000000E+00
                      -2.50000000E-01  5.00000000E-01  1.25000000E-01
                      -1.25000000E-01  5.00000000E-01  2.50000000E-01
                       5.00000000E-01 -3.75000000E-01  0.00000000E+00
                      -3.75000000E-01 -3.75000000E-01  1.25000000E-01
                      -2.50000000E-01 -3.75000000E-01  2.50000000E-01
                      -1.25000000E-01 -3.75000000E-01  3.75000000E-01
                       3.75000000E-01 -2.50000000E-01  0.00000000E+00
                       5.00000000E-01 -2.50000000E-01  1.25000000E-01
                      -3.75000000E-01 -2.50000000E-01  2.50000000E-01
                      -2.50000000E-01 -2.50000000E-01  3.75000000E-01
                      -1.25000000E-01 -2.50000000E-01  5.00000000E-01
                       2.50000000E-01 -1.25000000E-01  0.00000000E+00
                       3.75000000E-01 -1.25000000E-01  1.25000000E-01
                       5.00000000E-01 -1.25000000E-01  2.50000000E-01
                      -3.75000000E-01 -1.25000000E-01  3.75000000E-01
                      -2.50000000E-01 -1.25000000E-01  5.00000000E-01
                      -1.25000000E-01 -1.25000000E-01 -3.75000000E-01
                      -1.25000000E-01  0.00000000E+00  0.00000000E+00
                      -1.25000000E-01  1.25000000E-01  1.25000000E-01
                      -2.50000000E-01  2.50000000E-01  1.25000000E-01
                      -1.25000000E-01  2.50000000E-01  2.50000000E-01
                      -3.75000000E-01  3.75000000E-01  1.25000000E-01
                      -2.50000000E-01  3.75000000E-01  2.50000000E-01
                      -1.25000000E-01  3.75000000E-01  3.75000000E-01
                       5.00000000E-01  5.00000000E-01  1.25000000E-01
                      -3.75000000E-01  5.00000000E-01  2.50000000E-01
                      -2.50000000E-01  5.00000000E-01  3.75000000E-01
                      -1.25000000E-01  5.00000000E-01  5.00000000E-01
                       3.75000000E-01 -3.75000000E-01  1.25000000E-01
                       5.00000000E-01 -3.75000000E-01  2.50000000E-01
                      -3.75000000E-01 -3.75000000E-01  3.75000000E-01
                      -2.50000000E-01 -3.75000000E-01  5.00000000E-01
                      -1.25000000E-01 -3.75000000E-01 -3.75000000E-01
              kpt4    -1.25000000E-01 -2.50000000E-01  0.00000000E+00
                      -2.50000000E-01 -1.25000000E-01  0.00000000E+00
                      -1.25000000E-01 -1.25000000E-01  1.25000000E-01
                      -1.25000000E-01  5.00000000E-01  0.00000000E+00
                      -2.50000000E-01 -3.75000000E-01  0.00000000E+00
                      -1.25000000E-01 -3.75000000E-01  1.25000000E-01
                      -3.75000000E-01 -2.50000000E-01  0.00000000E+00
                      -2.50000000E-01 -2.50000000E-01  1.25000000E-01
                      -1.25000000E-01 -2.50000000E-01  2.50000000E-01
                       5.00000000E-01 -1.25000000E-01  0.00000000E+00
                      -3.75000000E-01 -1.25000000E-01  1.25000000E-01
                      -2.50000000E-01 -1.25000000E-01  2.50000000E-01
                      -1.25000000E-01 -1.25000000E-01  3.75000000E-01
                      -1.25000000E-01  2.50000000E-01  0.00000000E+00
                      -2.50000000E-01  3.75000000E-01  0.00000000E+00
                      -1.25000000E-01  3.75000000E-01  1.25000000E-01
                      -3.75000000E-01  5.00000000E-01  0.00000000E+00
                      -2.50000000E-01  5.00000000E-01  1.25000000E-01
                      -1.25000000E-01  5.00000000E-01  2.50000000E-01
                       5.00000000E-01 -3.75000000E-01  0.00000000E+00
                      -3.75000000E-01 -3.75000000E-01  1.25000000E-01
                      -2.50000000E-01 -3.75000000E-01  2.50000000E-01
                      -1.25000000E-01 -3.75000000E-01  3.75000000E-01
                       3.75000000E-01 -2.50000000E-01  0.00000000E+00
                       5.00000000E-01 -2.50000000E-01  1.25000000E-01
                      -3.75000000E-01 -2.50000000E-01  2.50000000E-01
                      -2.50000000E-01 -2.50000000E-01  3.75000000E-01
                      -1.25000000E-01 -2.50000000E-01  5.00000000E-01
                       2.50000000E-01 -1.25000000E-01  0.00000000E+00
                       3.75000000E-01 -1.25000000E-01  1.25000000E-01
                       5.00000000E-01 -1.25000000E-01  2.50000000E-01
                      -3.75000000E-01 -1.25000000E-01  3.75000000E-01
                      -2.50000000E-01 -1.25000000E-01  5.00000000E-01
                      -1.25000000E-01 -1.25000000E-01 -3.75000000E-01
                      -1.25000000E-01  0.00000000E+00  0.00000000E+00
                      -1.25000000E-01  1.25000000E-01  1.25000000E-01
                      -2.50000000E-01  2.50000000E-01  1.25000000E-01
                      -1.25000000E-01  2.50000000E-01  2.50000000E-01
                      -3.75000000E-01  3.75000000E-01  1.25000000E-01
                      -2.50000000E-01  3.75000000E-01  2.50000000E-01
                      -1.25000000E-01  3.75000000E-01  3.75000000E-01
                       5.00000000E-01  5.00000000E-01  1.25000000E-01
                      -3.75000000E-01  5.00000000E-01  2.50000000E-01
                      -2.50000000E-01  5.00000000E-01  3.75000000E-01
                      -1.25000000E-01  5.00000000E-01  5.00000000E-01
                       3.75000000E-01 -3.75000000E-01  1.25000000E-01
                       5.00000000E-01 -3.75000000E-01  2.50000000E-01
                      -3.75000000E-01 -3.75000000E-01  3.75000000E-01
                      -2.50000000E-01 -3.75000000E-01  5.00000000E-01
                      -1.25000000E-01 -3.75000000E-01 -3.75000000E-01
              kpt5    -1.25000000E-01 -2.50000000E-01  0.00000000E+00
                      -2.50000000E-01 -1.25000000E-01  0.00000000E+00
                      -1.25000000E-01 -1.25000000E-01  1.25000000E-01
                      -1.25000000E-01  5.00000000E-01  0.00000000E+00
                      -2.50000000E-01 -3.75000000E-01  0.00000000E+00
                      -1.25000000E-01 -3.75000000E-01  1.25000000E-01
                      -3.75000000E-01 -2.50000000E-01  0.00000000E+00
                      -2.50000000E-01 -2.50000000E-01  1.25000000E-01
                      -1.25000000E-01 -2.50000000E-01  2.50000000E-01
                       5.00000000E-01 -1.25000000E-01  0.00000000E+00
                      -3.75000000E-01 -1.25000000E-01  1.25000000E-01
                      -2.50000000E-01 -1.25000000E-01  2.50000000E-01
                      -1.25000000E-01 -1.25000000E-01  3.75000000E-01
                      -1.25000000E-01  2.50000000E-01  0.00000000E+00
                      -2.50000000E-01  3.75000000E-01  0.00000000E+00
                      -1.25000000E-01  3.75000000E-01  1.25000000E-01
                      -3.75000000E-01  5.00000000E-01  0.00000000E+00
                      -2.50000000E-01  5.00000000E-01  1.25000000E-01
                      -1.25000000E-01  5.00000000E-01  2.50000000E-01
                       5.00000000E-01 -3.75000000E-01  0.00000000E+00
                      -3.75000000E-01 -3.75000000E-01  1.25000000E-01
                      -2.50000000E-01 -3.75000000E-01  2.50000000E-01
                      -1.25000000E-01 -3.75000000E-01  3.75000000E-01
                       3.75000000E-01 -2.50000000E-01  0.00000000E+00
                       5.00000000E-01 -2.50000000E-01  1.25000000E-01
                      -3.75000000E-01 -2.50000000E-01  2.50000000E-01
                      -2.50000000E-01 -2.50000000E-01  3.75000000E-01
                      -1.25000000E-01 -2.50000000E-01  5.00000000E-01
                       2.50000000E-01 -1.25000000E-01  0.00000000E+00
                       3.75000000E-01 -1.25000000E-01  1.25000000E-01
                       5.00000000E-01 -1.25000000E-01  2.50000000E-01
                      -3.75000000E-01 -1.25000000E-01  3.75000000E-01
                      -2.50000000E-01 -1.25000000E-01  5.00000000E-01
                      -1.25000000E-01 -1.25000000E-01 -3.75000000E-01
                      -1.25000000E-01  0.00000000E+00  0.00000000E+00
                      -1.25000000E-01  1.25000000E-01  1.25000000E-01
                      -2.50000000E-01  2.50000000E-01  1.25000000E-01
                      -1.25000000E-01  2.50000000E-01  2.50000000E-01
                      -3.75000000E-01  3.75000000E-01  1.25000000E-01
                      -2.50000000E-01  3.75000000E-01  2.50000000E-01
                      -1.25000000E-01  3.75000000E-01  3.75000000E-01
                       5.00000000E-01  5.00000000E-01  1.25000000E-01
                      -3.75000000E-01  5.00000000E-01  2.50000000E-01
                      -2.50000000E-01  5.00000000E-01  3.75000000E-01
                      -1.25000000E-01  5.00000000E-01  5.00000000E-01
                       3.75000000E-01 -3.75000000E-01  1.25000000E-01
                       5.00000000E-01 -3.75000000E-01  2.50000000E-01
                      -3.75000000E-01 -3.75000000E-01  3.75000000E-01
                      -2.50000000E-01 -3.75000000E-01  5.00000000E-01
                      -1.25000000E-01 -3.75000000E-01 -3.75000000E-01
              kpt6    -1.25000000E-01 -2.50000000E-01  0.00000000E+00
                      -2.50000000E-01 -1.25000000E-01  0.00000000E+00
                      -1.25000000E-01 -1.25000000E-01  1.25000000E-01
                      -1.25000000E-01  5.00000000E-01  0.00000000E+00
                      -2.50000000E-01 -3.75000000E-01  0.00000000E+00
                      -1.25000000E-01 -3.75000000E-01  1.25000000E-01
                      -3.75000000E-01 -2.50000000E-01  0.00000000E+00
                      -2.50000000E-01 -2.50000000E-01  1.25000000E-01
                      -1.25000000E-01 -2.50000000E-01  2.50000000E-01
                       5.00000000E-01 -1.25000000E-01  0.00000000E+00
                      -3.75000000E-01 -1.25000000E-01  1.25000000E-01
                      -2.50000000E-01 -1.25000000E-01  2.50000000E-01
                      -1.25000000E-01 -1.25000000E-01  3.75000000E-01
                      -1.25000000E-01  2.50000000E-01  0.00000000E+00
                      -2.50000000E-01  3.75000000E-01  0.00000000E+00
                      -1.25000000E-01  3.75000000E-01  1.25000000E-01
                      -3.75000000E-01  5.00000000E-01  0.00000000E+00
                      -2.50000000E-01  5.00000000E-01  1.25000000E-01
                      -1.25000000E-01  5.00000000E-01  2.50000000E-01
                       5.00000000E-01 -3.75000000E-01  0.00000000E+00
                      -3.75000000E-01 -3.75000000E-01  1.25000000E-01
                      -2.50000000E-01 -3.75000000E-01  2.50000000E-01
                      -1.25000000E-01 -3.75000000E-01  3.75000000E-01
                       3.75000000E-01 -2.50000000E-01  0.00000000E+00
                       5.00000000E-01 -2.50000000E-01  1.25000000E-01
                      -3.75000000E-01 -2.50000000E-01  2.50000000E-01
                      -2.50000000E-01 -2.50000000E-01  3.75000000E-01
                      -1.25000000E-01 -2.50000000E-01  5.00000000E-01
                       2.50000000E-01 -1.25000000E-01  0.00000000E+00
                       3.75000000E-01 -1.25000000E-01  1.25000000E-01
                       5.00000000E-01 -1.25000000E-01  2.50000000E-01
                      -3.75000000E-01 -1.25000000E-01  3.75000000E-01
                      -2.50000000E-01 -1.25000000E-01  5.00000000E-01
                      -1.25000000E-01 -1.25000000E-01 -3.75000000E-01
                      -1.25000000E-01  0.00000000E+00  0.00000000E+00
                      -1.25000000E-01  1.25000000E-01  1.25000000E-01
                      -2.50000000E-01  2.50000000E-01  1.25000000E-01
                      -1.25000000E-01  2.50000000E-01  2.50000000E-01
                      -3.75000000E-01  3.75000000E-01  1.25000000E-01
                      -2.50000000E-01  3.75000000E-01  2.50000000E-01
                      -1.25000000E-01  3.75000000E-01  3.75000000E-01
                       5.00000000E-01  5.00000000E-01  1.25000000E-01
                      -3.75000000E-01  5.00000000E-01  2.50000000E-01
                      -2.50000000E-01  5.00000000E-01  3.75000000E-01
                      -1.25000000E-01  5.00000000E-01  5.00000000E-01
                       3.75000000E-01 -3.75000000E-01  1.25000000E-01
                       5.00000000E-01 -3.75000000E-01  2.50000000E-01
                      -3.75000000E-01 -3.75000000E-01  3.75000000E-01
                      -2.50000000E-01 -3.75000000E-01  5.00000000E-01
                      -1.25000000E-01 -3.75000000E-01 -3.75000000E-01
                       outvar_i_n : Printing only first  50 k-points.
           kptopt1          1
           kptopt2          1
           kptopt3          2
           kptopt4          2
           kptopt5          2
           kptopt6          2
         kptrlatt        4   -4    4     -4    4    4     -4   -4    4
          kptrlen      4.24000000E+01
P           mkmem1         10
P           mkmem2         10
P           mkmem3        128
P           mkmem4        128
P           mkmem5        128
P           mkmem6        128
P          mkqmem1         10
P          mkqmem2         10
P          mkqmem3        128
P          mkqmem4        128
P          mkqmem5        128
P          mkqmem6        128
P          mk1mem1         10
P          mk1mem2         10
P          mk1mem3        128
P          mk1mem4        128
P          mk1mem5        128
P          mk1mem6        128
            natom           2
            nband1          4
            nband2          9
            nband3          9
            nband4          9
            nband5          9
            nband6          9
           nbdbuf1          0
           nbdbuf2          2
           nbdbuf3          2
           nbdbuf4          2
           nbdbuf5          2
           nbdbuf6          2
           ndtset           6
            ngfft          10      10      10
             nkpt1         10
             nkpt2         10
             nkpt3        128
             nkpt4        128
             nkpt5        128
             nkpt6        128
            nline1          4
            nline2          4
            nline3          4
            nline4          0
            nline5          0
            nline6          0
             nqpt1          0
             nqpt2          0
             nqpt3          0
             nqpt4          1
             nqpt5          1
             nqpt6          1
            nstep1         25
            nstep2         25
            nstep3         25
            nstep4          1
            nstep5          1
            nstep6          1
             nsym          24
           ntypat           2
              occ1     2.000000  2.000000  2.000000  2.000000
              occ4     2.000000  2.000000  2.000000  2.000000  0.000000  0.000000
                       0.000000  0.000000  0.000000
              occ5     2.000000  2.000000  2.000000  2.000000  0.000000  0.000000
                       0.000000  0.000000  0.000000
              occ6     2.000000  2.000000  2.000000  2.000000  0.000000  0.000000
                       0.000000  0.000000  0.000000
        optdriver1          0
        optdriver2          0
        optdriver3          0
        optdriver4          1
        optdriver5          1
        optdriver6          1
            prtwf1          1
            prtwf2          1
            prtwf3          1
            prtwf4          3
            prtwf5          3
            prtwf6          3
            rfdir1          0       0       0
            rfdir2          0       0       0
            rfdir3          0       0       0
            rfdir4          1       0       0
            rfdir5          0       1       0
            rfdir6          0       0       1
           rfelfd1          0
           rfelfd2          0
           rfelfd3          0
           rfelfd4          2
           rfelfd5          2
           rfelfd6          2
            rprim      0.0000000000E+00  5.0000000000E-01  5.0000000000E-01
                       5.0000000000E-01  0.0000000000E+00  5.0000000000E-01
                       5.0000000000E-01  5.0000000000E-01  0.0000000000E+00
           shiftk      5.00000000E-01  5.00000000E-01  5.00000000E-01
          spgroup         216
           symrel      1  0  0   0  1  0   0  0  1       0 -1  1   0 -1  0   1 -1  0
                      -1  0  0  -1  0  1  -1  1  0       0  1 -1   1  0 -1   0  0 -1
                      -1  0  0  -1  1  0  -1  0  1       0 -1  1   1 -1  0   0 -1  0
                       1  0  0   0  0  1   0  1  0       0  1 -1   0  0 -1   1  0 -1
                      -1  0  1  -1  1  0  -1  0  0       0 -1  0   1 -1  0   0 -1  1
                       1  0 -1   0  0 -1   0  1 -1       0  1  0   0  0  1   1  0  0
                       1  0 -1   0  1 -1   0  0 -1       0 -1  0   0 -1  1   1 -1  0
                      -1  0  1  -1  0  0  -1  1  0       0  1  0   1  0  0   0  0  1
                       0  0 -1   0  1 -1   1  0 -1       1 -1  0   0 -1  1   0 -1  0
                       0  0  1   1  0  0   0  1  0      -1  1  0  -1  0  0  -1  0  1
                       0  0  1   0  1  0   1  0  0       1 -1  0   0 -1  0   0 -1  1
                       0  0 -1   1  0 -1   0  1 -1      -1  1  0  -1  0  1  -1  0  0
           tolwfr      1.00000000E-20
            typat      1  2
              wtk1       0.09375    0.09375    0.09375    0.18750    0.09375    0.09375
                         0.09375    0.18750    0.03125    0.03125
              wtk2       0.09375    0.09375    0.09375    0.18750    0.09375    0.09375
                         0.09375    0.18750    0.03125    0.03125
              wtk3       0.00781    0.00781    0.00781    0.00781    0.00781    0.00781
                         0.00781    0.00781    0.00781    0.00781    0.00781    0.00781
                         0.00781    0.00781    0.00781    0.00781    0.00781    0.00781
                         0.00781    0.00781    0.00781    0.00781    0.00781    0.00781
                         0.00781    0.00781    0.00781    0.00781    0.00781    0.00781
                         0.00781    0.00781    0.00781    0.00781    0.00781    0.00781
                         0.00781    0.00781    0.00781    0.00781    0.00781    0.00781
                         0.00781    0.00781    0.00781    0.00781    0.00781    0.00781
                         0.00781    0.00781
              wtk4       0.00781    0.00781    0.00781    0.00781    0.00781    0.00781
                         0.00781    0.00781    0.00781    0.00781    0.00781    0.00781
                         0.00781    0.00781    0.00781    0.00781    0.00781    0.00781
                         0.00781    0.00781    0.00781    0.00781    0.00781    0.00781
                         0.00781    0.00781    0.00781    0.00781    0.00781    0.00781
                         0.00781    0.00781    0.00781    0.00781    0.00781    0.00781
                         0.00781    0.00781    0.00781    0.00781    0.00781    0.00781
                         0.00781    0.00781    0.00781    0.00781    0.00781    0.00781
                         0.00781    0.00781
              wtk5       0.00781    0.00781    0.00781    0.00781    0.00781    0.00781
                         0.00781    0.00781    0.00781    0.00781    0.00781    0.00781
                         0.00781    0.00781    0.00781    0.00781    0.00781    0.00781
                         0.00781    0.00781    0.00781    0.00781    0.00781    0.00781
                         0.00781    0.00781    0.00781    0.00781    0.00781    0.00781
                         0.00781    0.00781    0.00781    0.00781    0.00781    0.00781
                         0.00781    0.00781    0.00781    0.00781    0.00781    0.00781
                         0.00781    0.00781    0.00781    0.00781    0.00781    0.00781
                         0.00781    0.00781
              wtk6       0.00781    0.00781    0.00781    0.00781    0.00781    0.00781
                         0.00781    0.00781    0.00781    0.00781    0.00781    0.00781
                         0.00781    0.00781    0.00781    0.00781    0.00781    0.00781
                         0.00781    0.00781    0.00781    0.00781    0.00781    0.00781
                         0.00781    0.00781    0.00781    0.00781    0.00781    0.00781
                         0.00781    0.00781    0.00781    0.00781    0.00781    0.00781
                         0.00781    0.00781    0.00781    0.00781    0.00781    0.00781
                         0.00781    0.00781    0.00781    0.00781    0.00781    0.00781
                         0.00781    0.00781
                       outvars : Printing only first  50 k-points.
           xangst      0.0000000000E+00  0.0000000000E+00  0.0000000000E+00
                       1.4023196028E+00  1.4023196028E+00  1.4023196028E+00
            xcart      0.0000000000E+00  0.0000000000E+00  0.0000000000E+00
                       2.6500000000E+00  2.6500000000E+00  2.6500000000E+00
             xred      0.0000000000E+00  0.0000000000E+00  0.0000000000E+00
                       2.5000000000E-01  2.5000000000E-01  2.5000000000E-01
            znucl       31.00000   33.00000

================================================================================

 chkinp: Checking input parameters for consistency, jdtset=   1.

 chkinp: Checking input parameters for consistency, jdtset=   2.

 chkinp: Checking input parameters for consistency, jdtset=   3.

 chkinp: Checking input parameters for consistency, jdtset=   4.

 chkinp: Checking input parameters for consistency, jdtset=   5.

 chkinp: Checking input parameters for consistency, jdtset=   6.

================================================================================
== DATASET  1 ==================================================================
-   nproc =    1

 Exchange-correlation functional for the present dataset will be:
  LDA: old Teter (4/91) fit to Ceperley-Alder data - ixc=3

 Real(R)+Recip(G) space primitive vectors, cartesian coordinates (Bohr,Bohr^-1):
 R(1)=  0.0000000  5.3000000  5.3000000  G(1)= -0.0943396  0.0943396  0.0943396
 R(2)=  5.3000000  0.0000000  5.3000000  G(2)=  0.0943396 -0.0943396  0.0943396
 R(3)=  5.3000000  5.3000000  0.0000000  G(3)=  0.0943396  0.0943396 -0.0943396
 Unit cell volume ucvol=  2.9775400E+02 bohr^3
 Angles (23,13,12)=  6.00000000E+01  6.00000000E+01  6.00000000E+01 degrees

 getcut: wavevector=  0.0000  0.0000  0.0000  ngfft=  10  10  10
         ecut(hartree)=      2.000   => boxcut(ratio)=   2.11655

--- Pseudopotential description ------------------------------------------------
- pspini: atom type   1  psp file is ../../Psps_for_tests/31ga.pspnc
- pspatm: opening atomic psp file    ../../Psps_for_tests/31ga.pspnc
-  Troullier-Martins psp for element  Ga        Thu Oct 27 17:36:43 EDT 1994
- 31.00000   3.00000    940714                znucl, zion, pspdat
    1    1    1    0      2001   0.00000      pspcod,pspxc,lmax,lloc,mmax,r2well
    0   6.570  15.885    0   1.9956558        l,e99.0,e99.9,nproj,rcpsp
   0.00000000   0.00000000   0.00000000   0.00000000     rms, ekb1, ekb2, epsatm
    1   2.122   7.249    1   1.9956558        l,e99.0,e99.9,nproj,rcpsp
   0.00000000   0.00000000   0.00000000   0.00000000     rms, ekb1, ekb2, epsatm
    2.57649862033350    0.14924926558032    2.22766011456380   rchrg,fchrg,qchrg
  pspatm : epsatm=   27.06235248
         --- l  ekb(1:nproj) -->
             1    2.537532
 pspatm: atomic psp has been read  and splines computed

- pspini: atom type   2  psp file is ../../Psps_for_tests/33as.pspnc
- pspatm: opening atomic psp file    ../../Psps_for_tests/33as.pspnc
-  Troullier-Martins psp for element  As        Thu Oct 27 17:37:14 EDT 1994
- 33.00000   5.00000    940714                znucl, zion, pspdat
    1    1    1    1      2001   0.00000      pspcod,pspxc,lmax,lloc,mmax,r2well
    0   4.772  10.829    1   2.5306160        l,e99.0,e99.9,nproj,rcpsp
   0.00000000   0.00000000   0.00000000   0.00000000     rms, ekb1, ekb2, epsatm
    1   2.745   5.580    0   2.5306160        l,e99.0,e99.9,nproj,rcpsp
   0.00000000   0.00000000   0.00000000   0.00000000     rms, ekb1, ekb2, epsatm
    2.05731715564010    0.36322996461007    2.76014815959125   rchrg,fchrg,qchrg
  pspatm : epsatm=   27.20579911
         --- l  ekb(1:nproj) -->
             0    0.838751
 pspatm: atomic psp has been read  and splines computed

   4.34145213E+02                                ecore*ucvol(ha*bohr**3)
--------------------------------------------------------------------------------

_setup2: Arith. and geom. avg. npw (full set) are      39.625      39.591

================================================================================

     iter   Etot(hartree)      deltaE(h)  residm     vres2
 ETOT  1  -10.602338770368    -1.060E+01 4.498E-04 5.974E-01
 ETOT  2  -10.605633088834    -3.294E-03 4.206E-09 1.450E-02
 ETOT  3  -10.605722357761    -8.927E-05 2.660E-06 8.476E-04
 ETOT  4  -10.605727953232    -5.595E-06 4.984E-08 8.591E-06
 ETOT  5  -10.605727978756    -2.552E-08 8.347E-11 2.858E-07
 ETOT  6  -10.605727979405    -6.489E-10 2.471E-12 2.205E-09
 ETOT  7  -10.605727979411    -5.709E-12 3.857E-14 5.300E-11
 ETOT  8  -10.605727979411    -2.540E-13 4.491E-15 1.355E-12
 ETOT  9  -10.605727979411     7.105E-15 1.542E-16 2.537E-14
 ETOT 10  -10.605727979411    -2.665E-14 2.642E-18 2.716E-19
 ETOT 11  -10.605727979411     0.000E+00 9.270E-21 2.652E-20

 At SCF step   11   max residual=  9.27E-21 < tolwfr=  1.00E-20 =>converged.

 Cartesian components of stress tensor (hartree/bohr^3)
  sigma(1 1)=  8.50284516E-04  sigma(3 2)=  0.00000000E+00
  sigma(2 2)=  8.50284516E-04  sigma(3 1)=  0.00000000E+00
  sigma(3 3)=  8.50284516E-04  sigma(2 1)=  0.00000000E+00

 Integrated electronic density in atomic spheres:
 ------------------------------------------------
 Atom  Sphere_radius  Integrated_density
    1        2.00000          1.18104880
    2        2.00000          2.34217193
================================================================================

 ----iterations are completed or convergence reached----

 Mean square residual over all n,k,spin=   21.198E-22; max=  92.696E-22
 reduced coordinates (array xred) for    2 atoms
       0.000000000000      0.000000000000      0.000000000000
       0.250000000000      0.250000000000      0.250000000000
 rms dE/dt=  0.0000E+00; max dE/dt=  0.0000E+00; dE/dt below (all hartree)
    1       0.000000000000      0.000000000000      0.000000000000
    2       0.000000000000      0.000000000000      0.000000000000

 cartesian coordinates (angstrom) at end:
    1      0.00000000000000     0.00000000000000     0.00000000000000
    2      1.40231960276350     1.40231960276350     1.40231960276350

 cartesian forces (hartree/bohr) at end:
    1     -0.00000000000000    -0.00000000000000    -0.00000000000000
    2     -0.00000000000000    -0.00000000000000    -0.00000000000000
 frms,max,avg= 0.0000000E+00 0.0000000E+00   0.000E+00  0.000E+00  0.000E+00 h/b

 cartesian forces (eV/Angstrom) at end:
    1     -0.00000000000000    -0.00000000000000    -0.00000000000000
    2     -0.00000000000000    -0.00000000000000    -0.00000000000000
 frms,max,avg= 0.0000000E+00 0.0000000E+00   0.000E+00  0.000E+00  0.000E+00 e/A
 length scales= 10.600000000000 10.600000000000 10.600000000000 bohr
              =  5.609278411054  5.609278411054  5.609278411054 angstroms
 prteigrs : about to open file toptic_5o_DS1_EIG
 Fermi (or HOMO) energy (hartree) =  -0.00962   Average Vxc (hartree)=  -0.35646
 Eigenvalues (hartree) for nkpt=  10  k points:
 kpt#   1, nband=  4, wtk=  0.09375, kpt= -0.1250 -0.2500  0.0000 (reduced coord)
  -0.44348   -0.12348   -0.04483   -0.04281
 prteigrs : prtvol=0 or 1, do not print more k-points.


--------------------------------------------------------------------------------
 Components of total free energy (in Hartree) :

    Kinetic energy  =  2.84617115496454E+00
    Hartree energy  =  7.19149277185105E-01
    XC energy       = -4.84333001334568E+00
    Ewald energy    = -8.48789573682593E+00
    PspCore energy  =  1.45806676895480E+00
    Loc. psp. energy= -2.47985862198774E+00
    NL   psp  energy=  1.81969191643973E-01
    >>>>>>>>> Etotal= -1.06057279794109E+01

 Other information on the energy :
    Total energy(eV)= -2.88596535162493E+02 ; Band energy (Ha)=  -1.5319706137E+00
--------------------------------------------------------------------------------



 Cartesian components of stress tensor (hartree/bohr^3)
  sigma(1 1)=  8.50284516E-04  sigma(3 2)=  0.00000000E+00
  sigma(2 2)=  8.50284516E-04  sigma(3 1)=  0.00000000E+00
  sigma(3 3)=  8.50284516E-04  sigma(2 1)=  0.00000000E+00

-Cartesian components of stress tensor (GPa)         [Pressure= -2.5016E+01 GPa]
- sigma(1 1)=  2.50162299E+01  sigma(3 2)=  0.00000000E+00
- sigma(2 2)=  2.50162299E+01  sigma(3 1)=  0.00000000E+00
- sigma(3 3)=  2.50162299E+01  sigma(2 1)=  0.00000000E+00

================================================================================
== DATASET  2 ==================================================================
-   nproc =    1

 mkfilename : getwfk/=0, take file _WFK from output of DATASET   1.

 mkfilename : getden/=0, take file _DEN from output of DATASET   1.

 Exchange-correlation functional for the present dataset will be:
  LDA: old Teter (4/91) fit to Ceperley-Alder data - ixc=3

 Real(R)+Recip(G) space primitive vectors, cartesian coordinates (Bohr,Bohr^-1):
 R(1)=  0.0000000  5.3000000  5.3000000  G(1)= -0.0943396  0.0943396  0.0943396
 R(2)=  5.3000000  0.0000000  5.3000000  G(2)=  0.0943396 -0.0943396  0.0943396
 R(3)=  5.3000000  5.3000000  0.0000000  G(3)=  0.0943396  0.0943396 -0.0943396
 Unit cell volume ucvol=  2.9775400E+02 bohr^3
 Angles (23,13,12)=  6.00000000E+01  6.00000000E+01  6.00000000E+01 degrees

 getcut: wavevector=  0.0000  0.0000  0.0000  ngfft=  10  10  10
         ecut(hartree)=      2.000   => boxcut(ratio)=   2.11655
--------------------------------------------------------------------------------

-inwffil : will read wavefunctions from disk file toptic_5o_DS1_WFK

================================================================================
 prteigrs : about to open file toptic_5o_DS2_EIG
 Non-SCF case, kpt    1 ( -0.12500 -0.25000  0.00000), residuals and eigenvalues=
  1.41E-22  7.11E-22  4.09E-22  4.77E-21  1.10E-21  1.94E-21  4.77E-21  5.50E-21
  2.61E-15
 -4.4348E-01 -1.2348E-01 -4.4828E-02 -4.2813E-02  1.0470E-01  1.3295E-01
  1.9454E-01  2.0058E-01  2.7776E-01
  prteigrs : nnsclo,ikpt=   25    1 max resid (incl. the buffer)=  2.61268E-15
 prteigrs : prtvol=0 or 1, do not print more k-points.

  prteigrs : nnsclo,ikpt=   25    2 max resid (incl. the buffer)=  2.62580E-16
  prteigrs : nnsclo,ikpt=   25    3 max resid (incl. the buffer)=  5.67338E-13
  prteigrs : nnsclo,ikpt=   25    4 max resid (incl. the buffer)=  6.19086E-12
  prteigrs : nnsclo,ikpt=   25    5 max resid (incl. the buffer)=  4.33893E-16
  prteigrs : nnsclo,ikpt=   25    6 max resid (incl. the buffer)=  2.72877E-11
  prteigrs : nnsclo,ikpt=   25    7 max resid (incl. the buffer)=  1.51875E-12
  prteigrs : nnsclo,ikpt=   25    8 max resid (incl. the buffer)=  3.57192E-17
  prteigrs : nnsclo,ikpt=   25    9 max resid (incl. the buffer)=  2.57619E-10
  prteigrs : nnsclo,ikpt=   25   10 max resid (incl. the buffer)=  1.67434E-06

 Integrated electronic density in atomic spheres:
 ------------------------------------------------
 Atom  Sphere_radius  Integrated_density
    1        2.00000          1.18104880
    2        2.00000          2.34217193
================================================================================

 ----iterations are completed or convergence reached----

 Mean square residual over all n,k,spin=   18.607E-09; max=  27.288E-12
 reduced coordinates (array xred) for    2 atoms
       0.000000000000      0.000000000000      0.000000000000
       0.250000000000      0.250000000000      0.250000000000

 cartesian coordinates (angstrom) at end:
    1      0.00000000000000     0.00000000000000     0.00000000000000
    2      1.40231960276350     1.40231960276350     1.40231960276350
 length scales= 10.600000000000 10.600000000000 10.600000000000 bohr
              =  5.609278411054  5.609278411054  5.609278411054 angstroms
 prteigrs : about to open file toptic_5o_DS2_EIG
 Eigenvalues (hartree) for nkpt=  10  k points:
 kpt#   1, nband=  9, wtk=  0.09375, kpt= -0.1250 -0.2500  0.0000 (reduced coord)
  -0.44348   -0.12348   -0.04483   -0.04281    0.10470    0.13295    0.19454    0.20058
   0.27776
 prteigrs : prtvol=0 or 1, do not print more k-points.


================================================================================
== DATASET  3 ==================================================================
-   nproc =    1

 mkfilename : getwfk/=0, take file _WFK from output of DATASET   2.

 mkfilename : getden/=0, take file _DEN from output of DATASET   1.

 Exchange-correlation functional for the present dataset will be:
  LDA: old Teter (4/91) fit to Ceperley-Alder data - ixc=3

 Real(R)+Recip(G) space primitive vectors, cartesian coordinates (Bohr,Bohr^-1):
 R(1)=  0.0000000  5.3000000  5.3000000  G(1)= -0.0943396  0.0943396  0.0943396
 R(2)=  5.3000000  0.0000000  5.3000000  G(2)=  0.0943396 -0.0943396  0.0943396
 R(3)=  5.3000000  5.3000000  0.0000000  G(3)=  0.0943396  0.0943396 -0.0943396
 Unit cell volume ucvol=  2.9775400E+02 bohr^3
 Angles (23,13,12)=  6.00000000E+01  6.00000000E+01  6.00000000E+01 degrees

 getcut: wavevector=  0.0000  0.0000  0.0000  ngfft=  10  10  10
         ecut(hartree)=      2.000   => boxcut(ratio)=   2.11655
--------------------------------------------------------------------------------

-inwffil : will read wavefunctions from disk file toptic_5o_DS2_WFK

================================================================================
 prteigrs : about to open file toptic_5o_DS3_EIG
 Non-SCF case, kpt    1 ( -0.12500 -0.25000  0.00000), residuals and eigenvalues=
  1.41E-22  7.11E-22  4.09E-22  4.77E-21  1.10E-21  1.94E-21  4.77E-21  5.50E-21
  3.14E-17
 -4.4348E-01 -1.2348E-01 -4.4828E-02 -4.2813E-02  1.0470E-01  1.3295E-01
  1.9454E-01  2.0058E-01  2.7776E-01
  prteigrs : nnsclo,ikpt=   25    1 max resid (incl. the buffer)=  3.13767E-17
 prteigrs : prtvol=0 or 1, do not print more k-points.

  prteigrs : nnsclo,ikpt=   25    2 max resid (incl. the buffer)=  3.13838E-17
  prteigrs : nnsclo,ikpt=   25    3 max resid (incl. the buffer)=  3.13770E-17
  prteigrs : nnsclo,ikpt=   25    4 max resid (incl. the buffer)=  1.28924E-18
  prteigrs : nnsclo,ikpt=   25    5 max resid (incl. the buffer)=  7.94722E-15
  prteigrs : nnsclo,ikpt=   25    6 max resid (incl. the buffer)=  5.21530E-13
  prteigrs : nnsclo,ikpt=   25    7 max resid (incl. the buffer)=  7.94685E-15
  prteigrs : nnsclo,ikpt=   25    8 max resid (incl. the buffer)=  7.94717E-15
  prteigrs : nnsclo,ikpt=   25    9 max resid (incl. the buffer)=  5.21530E-13
  prteigrs : nnsclo,ikpt=   25   10 max resid (incl. the buffer)=  1.28824E-18
  prteigrs : nnsclo,ikpt=   25   11 max resid (incl. the buffer)=  5.21529E-13
  prteigrs : nnsclo,ikpt=   25   12 max resid (incl. the buffer)=  5.21531E-13
  prteigrs : nnsclo,ikpt=   25   13 max resid (incl. the buffer)=  1.28925E-18
  prteigrs : nnsclo,ikpt=   25   14 max resid (incl. the buffer)=  5.99342E-18
  prteigrs : nnsclo,ikpt=   25   15 max resid (incl. the buffer)=  6.25858E-13
  prteigrs : nnsclo,ikpt=   25   16 max resid (incl. the buffer)=  5.21531E-13
  prteigrs : nnsclo,ikpt=   25   17 max resid (incl. the buffer)=  2.94846E-13
  prteigrs : nnsclo,ikpt=   25   18 max resid (incl. the buffer)=  1.26444E-19
  prteigrs : nnsclo,ikpt=   25   19 max resid (incl. the buffer)=  1.26643E-19
  prteigrs : nnsclo,ikpt=   25   20 max resid (incl. the buffer)=  2.94843E-13
  prteigrs : nnsclo,ikpt=   25   21 max resid (incl. the buffer)=  2.94846E-13
  prteigrs : nnsclo,ikpt=   25   22 max resid (incl. the buffer)=  1.26422E-19
  prteigrs : nnsclo,ikpt=   25   23 max resid (incl. the buffer)=  1.26667E-19
  prteigrs : nnsclo,ikpt=   25   24 max resid (incl. the buffer)=  6.25865E-13
  prteigrs : nnsclo,ikpt=   25   25 max resid (incl. the buffer)=  1.26682E-19
  prteigrs : nnsclo,ikpt=   25   26 max resid (incl. the buffer)=  1.26274E-19
  prteigrs : nnsclo,ikpt=   25   27 max resid (incl. the buffer)=  6.25858E-13
  prteigrs : nnsclo,ikpt=   25   28 max resid (incl. the buffer)=  5.21529E-13
  prteigrs : nnsclo,ikpt=   25   29 max resid (incl. the buffer)=  5.99191E-18
  prteigrs : nnsclo,ikpt=   25   30 max resid (incl. the buffer)=  5.21530E-13
  prteigrs : nnsclo,ikpt=   25   31 max resid (incl. the buffer)=  1.26781E-19
  prteigrs : nnsclo,ikpt=   25   32 max resid (incl. the buffer)=  1.26422E-19
  prteigrs : nnsclo,ikpt=   25   33 max resid (incl. the buffer)=  5.21529E-13
  prteigrs : nnsclo,ikpt=   25   34 max resid (incl. the buffer)=  5.99336E-18
  prteigrs : nnsclo,ikpt=   25   35 max resid (incl. the buffer)=  3.55309E-12
  prteigrs : nnsclo,ikpt=   25   36 max resid (incl. the buffer)=  3.13767E-17
  prteigrs : nnsclo,ikpt=   25   37 max resid (incl. the buffer)=  5.21530E-13
  prteigrs : nnsclo,ikpt=   25   38 max resid (incl. the buffer)=  7.94726E-15
  prteigrs : nnsclo,ikpt=   25   39 max resid (incl. the buffer)=  1.26425E-19
  prteigrs : nnsclo,ikpt=   25   40 max resid (incl. the buffer)=  1.26661E-19
  prteigrs : nnsclo,ikpt=   25   41 max resid (incl. the buffer)=  2.94846E-13
  prteigrs : nnsclo,ikpt=   25   42 max resid (incl. the buffer)=  2.94843E-13
  prteigrs : nnsclo,ikpt=   25   43 max resid (incl. the buffer)=  1.26402E-19
  prteigrs : nnsclo,ikpt=   25   44 max resid (incl. the buffer)=  1.26683E-19
  prteigrs : nnsclo,ikpt=   25   45 max resid (incl. the buffer)=  2.94843E-13
  prteigrs : nnsclo,ikpt=   25   46 max resid (incl. the buffer)=  1.26296E-19
  prteigrs : nnsclo,ikpt=   25   47 max resid (incl. the buffer)=  1.26662E-19
  prteigrs : nnsclo,ikpt=   25   48 max resid (incl. the buffer)=  6.25864E-13
  prteigrs : nnsclo,ikpt=   25   49 max resid (incl. the buffer)=  5.21529E-13
  prteigrs : nnsclo,ikpt=   25   50 max resid (incl. the buffer)=  7.94683E-15
  prteigrs : nnsclo,ikpt=   25   51 max resid (incl. the buffer)=  5.21531E-13
  prteigrs : nnsclo,ikpt=   25   52 max resid (incl. the buffer)=  1.26396E-19
  prteigrs : nnsclo,ikpt=   25   53 max resid (incl. the buffer)=  1.26804E-19
  prteigrs : nnsclo,ikpt=   25   54 max resid (incl. the buffer)=  5.21528E-13
  prteigrs : nnsclo,ikpt=   25   55 max resid (incl. the buffer)=  5.99185E-18
  prteigrs : nnsclo,ikpt=   25   56 max resid (incl. the buffer)=  3.13844E-17
  prteigrs : nnsclo,ikpt=   25   57 max resid (incl. the buffer)=  3.55309E-12
  prteigrs : nnsclo,ikpt=   25   58 max resid (incl. the buffer)=  3.13734E-17
  prteigrs : nnsclo,ikpt=   25   59 max resid (incl. the buffer)=  7.94733E-15
  prteigrs : nnsclo,ikpt=   25   60 max resid (incl. the buffer)=  2.94846E-13
  prteigrs : nnsclo,ikpt=   25   61 max resid (incl. the buffer)=  2.94840E-13
  prteigrs : nnsclo,ikpt=   25   62 max resid (incl. the buffer)=  7.94653E-15
  prteigrs : nnsclo,ikpt=   25   63 max resid (incl. the buffer)=  3.13882E-17
  prteigrs : nnsclo,ikpt=   25   64 max resid (incl. the buffer)=  3.55309E-12
  prteigrs : nnsclo,ikpt=   25   65 max resid (incl. the buffer)=  1.24135E-07
  prteigrs : nnsclo,ikpt=   25   66 max resid (incl. the buffer)=  5.99256E-18
  prteigrs : nnsclo,ikpt=   25   67 max resid (incl. the buffer)=  5.99251E-18
  prteigrs : nnsclo,ikpt=   25   68 max resid (incl. the buffer)=  1.28941E-18
  prteigrs : nnsclo,ikpt=   25   69 max resid (incl. the buffer)=  5.21530E-13
  prteigrs : nnsclo,ikpt=   25   70 max resid (incl. the buffer)=  5.21532E-13
  prteigrs : nnsclo,ikpt=   25   71 max resid (incl. the buffer)=  5.21531E-13
  prteigrs : nnsclo,ikpt=   25   72 max resid (incl. the buffer)=  6.25857E-13
  prteigrs : nnsclo,ikpt=   25   73 max resid (incl. the buffer)=  1.26819E-19
  prteigrs : nnsclo,ikpt=   25   74 max resid (incl. the buffer)=  1.26403E-19
  prteigrs : nnsclo,ikpt=   25   75 max resid (incl. the buffer)=  7.94680E-15
  prteigrs : nnsclo,ikpt=   25   76 max resid (incl. the buffer)=  5.21532E-13
  prteigrs : nnsclo,ikpt=   25   77 max resid (incl. the buffer)=  6.25865E-13
  prteigrs : nnsclo,ikpt=   25   78 max resid (incl. the buffer)=  1.26422E-19
  prteigrs : nnsclo,ikpt=   25   79 max resid (incl. the buffer)=  1.26802E-19
  prteigrs : nnsclo,ikpt=   25   80 max resid (incl. the buffer)=  5.21530E-13
  prteigrs : nnsclo,ikpt=   25   81 max resid (incl. the buffer)=  5.21529E-13
  prteigrs : nnsclo,ikpt=   25   82 max resid (incl. the buffer)=  1.28826E-18
  prteigrs : nnsclo,ikpt=   25   83 max resid (incl. the buffer)=  1.28830E-18
  prteigrs : nnsclo,ikpt=   25   84 max resid (incl. the buffer)=  5.21531E-13
  prteigrs : nnsclo,ikpt=   25   85 max resid (incl. the buffer)=  5.21529E-13
  prteigrs : nnsclo,ikpt=   25   86 max resid (incl. the buffer)=  1.24135E-07
  prteigrs : nnsclo,ikpt=   25   87 max resid (incl. the buffer)=  1.28968E-18
  prteigrs : nnsclo,ikpt=   25   88 max resid (incl. the buffer)=  6.25856E-13
  prteigrs : nnsclo,ikpt=   25   89 max resid (incl. the buffer)=  6.25870E-13
  prteigrs : nnsclo,ikpt=   25   90 max resid (incl. the buffer)=  1.28759E-18
  prteigrs : nnsclo,ikpt=   25   91 max resid (incl. the buffer)=  1.24135E-07
  prteigrs : nnsclo,ikpt=   25   92 max resid (incl. the buffer)=  5.99102E-18
  prteigrs : nnsclo,ikpt=   25   93 max resid (incl. the buffer)=  5.99407E-18
  prteigrs : nnsclo,ikpt=   25   94 max resid (incl. the buffer)=  5.99347E-18
  prteigrs : nnsclo,ikpt=   25   95 max resid (incl. the buffer)=  5.21530E-13
  prteigrs : nnsclo,ikpt=   25   96 max resid (incl. the buffer)=  1.26703E-19
  prteigrs : nnsclo,ikpt=   25   97 max resid (incl. the buffer)=  1.26282E-19
  prteigrs : nnsclo,ikpt=   25   98 max resid (incl. the buffer)=  5.21533E-13
  prteigrs : nnsclo,ikpt=   25   99 max resid (incl. the buffer)=  5.99198E-18
  prteigrs : nnsclo,ikpt=   25  100 max resid (incl. the buffer)=  3.13841E-17
  prteigrs : nnsclo,ikpt=   25  101 max resid (incl. the buffer)=  5.99191E-18
  prteigrs : nnsclo,ikpt=   25  102 max resid (incl. the buffer)=  5.21531E-13
  prteigrs : nnsclo,ikpt=   25  103 max resid (incl. the buffer)=  1.26303E-19
  prteigrs : nnsclo,ikpt=   25  104 max resid (incl. the buffer)=  1.26686E-19
  prteigrs : nnsclo,ikpt=   25  105 max resid (incl. the buffer)=  5.21530E-13
  prteigrs : nnsclo,ikpt=   25  106 max resid (incl. the buffer)=  5.99353E-18
  prteigrs : nnsclo,ikpt=   25  107 max resid (incl. the buffer)=  1.28869E-18
  prteigrs : nnsclo,ikpt=   25  108 max resid (incl. the buffer)=  6.25862E-13
  prteigrs : nnsclo,ikpt=   25  109 max resid (incl. the buffer)=  6.25864E-13
  prteigrs : nnsclo,ikpt=   25  110 max resid (incl. the buffer)=  1.28857E-18
  prteigrs : nnsclo,ikpt=   25  111 max resid (incl. the buffer)=  1.28941E-18
  prteigrs : nnsclo,ikpt=   25  112 max resid (incl. the buffer)=  6.25857E-13
  prteigrs : nnsclo,ikpt=   25  113 max resid (incl. the buffer)=  6.25865E-13
  prteigrs : nnsclo,ikpt=   25  114 max resid (incl. the buffer)=  1.28830E-18
  prteigrs : nnsclo,ikpt=   25  115 max resid (incl. the buffer)=  3.13805E-17
  prteigrs : nnsclo,ikpt=   25  116 max resid (incl. the buffer)=  7.94696E-15
  prteigrs : nnsclo,ikpt=   25  117 max resid (incl. the buffer)=  2.94843E-13
  prteigrs : nnsclo,ikpt=   25  118 max resid (incl. the buffer)=  2.94843E-13
  prteigrs : nnsclo,ikpt=   25  119 max resid (incl. the buffer)=  7.94690E-15
  prteigrs : nnsclo,ikpt=   25  120 max resid (incl. the buffer)=  3.13811E-17
  prteigrs : nnsclo,ikpt=   25  121 max resid (incl. the buffer)=  3.13770E-17
  prteigrs : nnsclo,ikpt=   25  122 max resid (incl. the buffer)=  7.94721E-15
  prteigrs : nnsclo,ikpt=   25  123 max resid (incl. the buffer)=  2.94846E-13
  prteigrs : nnsclo,ikpt=   25  124 max resid (incl. the buffer)=  2.94843E-13
  prteigrs : nnsclo,ikpt=   25  125 max resid (incl. the buffer)=  7.94679E-15
  prteigrs : nnsclo,ikpt=   25  126 max resid (incl. the buffer)=  3.13847E-17
  prteigrs : nnsclo,ikpt=   25  127 max resid (incl. the buffer)=  3.55309E-12
  prteigrs : nnsclo,ikpt=   25  128 max resid (incl. the buffer)=  1.24135E-07

 Integrated electronic density in atomic spheres:
 ------------------------------------------------
 Atom  Sphere_radius  Integrated_density
    1        2.00000          1.18104880
    2        2.00000          2.34217193
================================================================================

 ----iterations are completed or convergence reached----

 Mean square residual over all n,k,spin=   43.106E-11; max=  12.413E-08
 reduced coordinates (array xred) for    2 atoms
       0.000000000000      0.000000000000      0.000000000000
       0.250000000000      0.250000000000      0.250000000000

 cartesian coordinates (angstrom) at end:
    1      0.00000000000000     0.00000000000000     0.00000000000000
    2      1.40231960276350     1.40231960276350     1.40231960276350
 length scales= 10.600000000000 10.600000000000 10.600000000000 bohr
              =  5.609278411054  5.609278411054  5.609278411054 angstroms
 prteigrs : about to open file toptic_5o_DS3_EIG
 Eigenvalues (hartree) for nkpt= 128  k points:
 kpt#   1, nband=  9, wtk=  0.00781, kpt= -0.1250 -0.2500  0.0000 (reduced coord)
  -0.44348   -0.12348   -0.04483   -0.04281    0.10470    0.13295    0.19454    0.20058
   0.27776
 prteigrs : prtvol=0 or 1, do not print more k-points.


================================================================================
== DATASET  4 ==================================================================
-   nproc =    1

 mkfilename : getwfk/=0, take file _WFK from output of DATASET   3.

 Exchange-correlation functional for the present dataset will be:
  LDA: old Teter (4/91) fit to Ceperley-Alder data - ixc=3

 Real(R)+Recip(G) space primitive vectors, cartesian coordinates (Bohr,Bohr^-1):
 R(1)=  0.0000000  5.3000000  5.3000000  G(1)= -0.0943396  0.0943396  0.0943396
 R(2)=  5.3000000  0.0000000  5.3000000  G(2)=  0.0943396 -0.0943396  0.0943396
 R(3)=  5.3000000  5.3000000  0.0000000  G(3)=  0.0943396  0.0943396 -0.0943396
 Unit cell volume ucvol=  2.9775400E+02 bohr^3
 Angles (23,13,12)=  6.00000000E+01  6.00000000E+01  6.00000000E+01 degrees
 setup1 : take into account q-point for computing boxcut.

 getcut: wavevector=  0.0000  0.0000  0.0000  ngfft=  10  10  10
         ecut(hartree)=      2.000   => boxcut(ratio)=   2.11655
--------------------------------------------------------------------------------

-inwffil : will read wavefunctions from disk file toptic_5o_DS3_WFK

 ==>  initialize data related to q vector <== 

 The list of irreducible perturbations for this q vector is:
    1)    idir= 1    ipert=   3

================================================================================

--------------------------------------------------------------------------------
 Perturbation wavevector (in red.coord.)   0.000000  0.000000  0.000000
 Perturbation : derivative vs k along direction   1
 The set of symmetries contains only one element for this perturbation.
 symkpt : not enough symmetry to change the number of k points.

--------------------------------------------------------------------------------

-inwffil : will read wavefunctions from disk file toptic_5o_DS3_WFK
--------------------------------------------------------------------------------

 Initialisation of the first-order wave-functions :
  ireadwf=   0

     iter   2DEtotal(Ha)        deltaE(Ha) residm    vres2
-ETOT  1  -7.5293415803279     -7.529E+00 0.000E+00 0.000E+00

 At SCF step    1   max residual=  0.00E+00 < tolwfr=  1.00E-20 =>converged.
================================================================================

 ----iterations are completed or convergence reached----

 Mean square residual over all n,k,spin=  -22.222E-03; max=  00.000E+00
 dfpt_looppert : ek2=    1.6865112540E+01
          f-sum rule ratio=    8.9136275730E-01
 prteigrs : about to open file toptic_5t_1WF1_EIG
 Expectation of eigenvalue derivatives (hartree) for nkpt= 128  k points:
  (in case of degenerate eigenvalues, averaged derivative)
 kpt#   1, nband=  9, wtk=  0.00781, kpt= -0.1250 -0.2500  0.0000 (reduced coord)
  -0.03328   -0.08226    0.16325    0.24025    0.07002   -0.01437   -0.35313    0.06427
   0.13478
 prteigrs : prtvol=0 or 1, do not print more k-points.


 Eight components of 2nd-order total energy (hartree) are
 1,2,3: 0th-order hamiltonian combined with 1st-order wavefunctions
     kin0=   0.00000000E+00 eigvalue=   0.00000000E+00  local=   0.00000000E+00
 4,5,6: 1st-order hamiltonian combined with 1st and 0th-order wfs
     kin1=  -1.50329332E+01  Hartree=   0.00000000E+00     xc=   0.00000000E+00
 7,8,9: eventually, occupation + non-local contributions
    edocc=   7.52934158E+00     enl0=   0.00000000E+00   enl1=  -2.57499446E-02
 1-9 gives the relaxation energy (to be shifted if some occ is /=2.0)
   erelax=  -7.52934158E+00
  No Ewald or frozen-wf contrib.: the relaxation energy is the total one
 2DEtotal=   -0.7529341580E+01 Ha. Also 2DEtotal=   -0.204883803955E+03 eV
    (  non-var. 2DEtotal :   -7.5293415803E+00 Ha)
================================================================================

 ---- first-order wavefunction calculations are completed ----


 Total localisation tensor (bohr^2) in cartesian coordinates
  WARNING : still subject to testing - especially symmetries.
      direction              matrix element
   alpha     beta       real part   imaginary part
     1        1       0.0000000000    0.0000000000
     1        2       0.0000000000    0.0000000000
     1        3       0.0000000000    0.0000000000
     2        1       0.0000000000    0.0000000000
     2        2       1.8795927617   -0.0000000000
     2        3       1.8795927617   -0.0000000000
     3        1       0.0000000000    0.0000000000
     3        2       1.8795927617   -0.0000000000
     3        3       1.8795927617   -0.0000000000

 WARNING : Localization tensor calculation (this does not apply to other properties).
  Not all d/dk perturbations were computed. So the localization tensor in reciprocal space is incomplete,
  and transformation to cartesian coordinates may be wrong.

 respfn : d/dk was computed, but no 2DTE, so no DDB output.

================================================================================
== DATASET  5 ==================================================================
-   nproc =    1

 mkfilename : getwfk/=0, take file _WFK from output of DATASET   3.

 Exchange-correlation functional for the present dataset will be:
  LDA: old Teter (4/91) fit to Ceperley-Alder data - ixc=3

 Real(R)+Recip(G) space primitive vectors, cartesian coordinates (Bohr,Bohr^-1):
 R(1)=  0.0000000  5.3000000  5.3000000  G(1)= -0.0943396  0.0943396  0.0943396
 R(2)=  5.3000000  0.0000000  5.3000000  G(2)=  0.0943396 -0.0943396  0.0943396
 R(3)=  5.3000000  5.3000000  0.0000000  G(3)=  0.0943396  0.0943396 -0.0943396
 Unit cell volume ucvol=  2.9775400E+02 bohr^3
 Angles (23,13,12)=  6.00000000E+01  6.00000000E+01  6.00000000E+01 degrees
 setup1 : take into account q-point for computing boxcut.

 getcut: wavevector=  0.0000  0.0000  0.0000  ngfft=  10  10  10
         ecut(hartree)=      2.000   => boxcut(ratio)=   2.11655
--------------------------------------------------------------------------------

-inwffil : will read wavefunctions from disk file toptic_5o_DS3_WFK

 ==>  initialize data related to q vector <== 

 The list of irreducible perturbations for this q vector is:
    1)    idir= 2    ipert=   3

================================================================================

--------------------------------------------------------------------------------
 Perturbation wavevector (in red.coord.)   0.000000  0.000000  0.000000
 Perturbation : derivative vs k along direction   2
 The set of symmetries contains only one element for this perturbation.
 symkpt : not enough symmetry to change the number of k points.

--------------------------------------------------------------------------------

-inwffil : will read wavefunctions from disk file toptic_5o_DS3_WFK
--------------------------------------------------------------------------------

 Initialisation of the first-order wave-functions :
  ireadwf=   0

     iter   2DEtotal(Ha)        deltaE(Ha) residm    vres2
-ETOT  1  -7.5293415802250     -7.529E+00 0.000E+00 0.000E+00

 At SCF step    1   max residual=  0.00E+00 < tolwfr=  1.00E-20 =>converged.
================================================================================

 ----iterations are completed or convergence reached----

 Mean square residual over all n,k,spin=  -22.222E-03; max=  00.000E+00
 dfpt_looppert : ek2=    1.6865112540E+01
          f-sum rule ratio=    8.9136275729E-01
 prteigrs : about to open file toptic_5t_1WF1_EIG
 Expectation of eigenvalue derivatives (hartree) for nkpt= 128  k points:
  (in case of degenerate eigenvalues, averaged derivative)
 kpt#   1, nband=  9, wtk=  0.00781, kpt= -0.1250 -0.2500  0.0000 (reduced coord)
  -0.14451    0.55466    0.11562    0.16258    0.05123   -0.21105   -0.12169   -0.06064
  -0.43162
 prteigrs : prtvol=0 or 1, do not print more k-points.


 Eight components of 2nd-order total energy (hartree) are
 1,2,3: 0th-order hamiltonian combined with 1st-order wavefunctions
     kin0=   0.00000000E+00 eigvalue=   0.00000000E+00  local=   0.00000000E+00
 4,5,6: 1st-order hamiltonian combined with 1st and 0th-order wfs
     kin1=  -1.50329332E+01  Hartree=   0.00000000E+00     xc=   0.00000000E+00
 7,8,9: eventually, occupation + non-local contributions
    edocc=   7.52934158E+00     enl0=   0.00000000E+00   enl1=  -2.57499446E-02
 1-9 gives the relaxation energy (to be shifted if some occ is /=2.0)
   erelax=  -7.52934158E+00
  No Ewald or frozen-wf contrib.: the relaxation energy is the total one
 2DEtotal=   -0.7529341580E+01 Ha. Also 2DEtotal=   -0.204883803953E+03 eV
    (  non-var. 2DEtotal :   -7.5293415802E+00 Ha)
================================================================================

 ---- first-order wavefunction calculations are completed ----


 Total localisation tensor (bohr^2) in cartesian coordinates
  WARNING : still subject to testing - especially symmetries.
      direction              matrix element
   alpha     beta       real part   imaginary part
     1        1       1.8795927617   -0.0000000000
     1        2       0.0000000000    0.0000000000
     1        3       1.8795927617   -0.0000000000
     2        1       0.0000000000    0.0000000000
     2        2       0.0000000000    0.0000000000
     2        3       0.0000000000    0.0000000000
     3        1       1.8795927617   -0.0000000000
     3        2       0.0000000000    0.0000000000
     3        3       1.8795927617   -0.0000000000

 WARNING : Localization tensor calculation (this does not apply to other properties).
  Not all d/dk perturbations were computed. So the localization tensor in reciprocal space is incomplete,
  and transformation to cartesian coordinates may be wrong.

 respfn : d/dk was computed, but no 2DTE, so no DDB output.

================================================================================
== DATASET  6 ==================================================================
-   nproc =    1

 mkfilename : getwfk/=0, take file _WFK from output of DATASET   3.

 Exchange-correlation functional for the present dataset will be:
  LDA: old Teter (4/91) fit to Ceperley-Alder data - ixc=3

 Real(R)+Recip(G) space primitive vectors, cartesian coordinates (Bohr,Bohr^-1):
 R(1)=  0.0000000  5.3000000  5.3000000  G(1)= -0.0943396  0.0943396  0.0943396
 R(2)=  5.3000000  0.0000000  5.3000000  G(2)=  0.0943396 -0.0943396  0.0943396
 R(3)=  5.3000000  5.3000000  0.0000000  G(3)=  0.0943396  0.0943396 -0.0943396
 Unit cell volume ucvol=  2.9775400E+02 bohr^3
 Angles (23,13,12)=  6.00000000E+01  6.00000000E+01  6.00000000E+01 degrees
 setup1 : take into account q-point for computing boxcut.

 getcut: wavevector=  0.0000  0.0000  0.0000  ngfft=  10  10  10
         ecut(hartree)=      2.000   => boxcut(ratio)=   2.11655
--------------------------------------------------------------------------------

-inwffil : will read wavefunctions from disk file toptic_5o_DS3_WFK

 ==>  initialize data related to q vector <== 

 The list of irreducible perturbations for this q vector is:
    1)    idir= 3    ipert=   3

================================================================================

--------------------------------------------------------------------------------
 Perturbation wavevector (in red.coord.)   0.000000  0.000000  0.000000
 Perturbation : derivative vs k along direction   3
 The set of symmetries contains only one element for this perturbation.
 symkpt : not enough symmetry to change the number of k points.

--------------------------------------------------------------------------------

-inwffil : will read wavefunctions from disk file toptic_5o_DS3_WFK
--------------------------------------------------------------------------------

 Initialisation of the first-order wave-functions :
  ireadwf=   0

     iter   2DEtotal(Ha)        deltaE(Ha) residm    vres2
-ETOT  1  -7.5293415801221     -7.529E+00 0.000E+00 0.000E+00

 At SCF step    1   max residual=  0.00E+00 < tolwfr=  1.00E-20 =>converged.
================================================================================

 ----iterations are completed or convergence reached----

 Mean square residual over all n,k,spin=  -22.222E-03; max=  00.000E+00
 dfpt_looppert : ek2=    1.6865112540E+01
          f-sum rule ratio=    8.9136275728E-01
 prteigrs : about to open file toptic_5t_1WF1_EIG
 Expectation of eigenvalue derivatives (hartree) for nkpt= 128  k points:
  (in case of degenerate eigenvalues, averaged derivative)
 kpt#   1, nband=  9, wtk=  0.00781, kpt= -0.1250 -0.2500  0.0000 (reduced coord)
   0.08890   -0.23620   -0.13944   -0.20142   -0.06062    0.11271    0.23741   -0.00182
   0.14842
 prteigrs : prtvol=0 or 1, do not print more k-points.


 Eight components of 2nd-order total energy (hartree) are
 1,2,3: 0th-order hamiltonian combined with 1st-order wavefunctions
     kin0=   0.00000000E+00 eigvalue=   0.00000000E+00  local=   0.00000000E+00
 4,5,6: 1st-order hamiltonian combined with 1st and 0th-order wfs
     kin1=  -1.50329332E+01  Hartree=   0.00000000E+00     xc=   0.00000000E+00
 7,8,9: eventually, occupation + non-local contributions
    edocc=   7.52934158E+00     enl0=   0.00000000E+00   enl1=  -2.57499446E-02
 1-9 gives the relaxation energy (to be shifted if some occ is /=2.0)
   erelax=  -7.52934158E+00
  No Ewald or frozen-wf contrib.: the relaxation energy is the total one
 2DEtotal=   -0.7529341580E+01 Ha. Also 2DEtotal=   -0.204883803950E+03 eV
    (  non-var. 2DEtotal :   -7.5293415801E+00 Ha)
================================================================================

 ---- first-order wavefunction calculations are completed ----


 Total localisation tensor (bohr^2) in cartesian coordinates
  WARNING : still subject to testing - especially symmetries.
      direction              matrix element
   alpha     beta       real part   imaginary part
     1        1       1.8795927616   -0.0000000000
     1        2       1.8795927616   -0.0000000000
     1        3       0.0000000000    0.0000000000
     2        1       1.8795927616   -0.0000000000
     2        2       1.8795927616   -0.0000000000
     2        3       0.0000000000    0.0000000000
     3        1       0.0000000000    0.0000000000
     3        2       0.0000000000    0.0000000000
     3        3       0.0000000000    0.0000000000

 WARNING : Localization tensor calculation (this does not apply to other properties).
  Not all d/dk perturbations were computed. So the localization tensor in reciprocal space is incomplete,
  and transformation to cartesian coordinates may be wrong.

 respfn : d/dk was computed, but no 2DTE, so no DDB output.

== END DATASET(S) ==============================================================
================================================================================
  
 -outvars: echo values of variables after computation  --------
            acell      1.0600000000E+01  1.0600000000E+01  1.0600000000E+01 Bohr
              amu      6.97200000E+01  7.49216000E+01
           diemac      1.00000000E+01
             ecut      2.00000000E+00 Hartree
           etotal1    -1.0605727979E+01
           etotal4    -7.5293415803E+00
           etotal5    -7.5293415802E+00
           etotal6    -7.5293415801E+00
            fcart1    -0.0000000000E+00 -0.0000000000E+00 -0.0000000000E+00
                      -0.0000000000E+00 -0.0000000000E+00 -0.0000000000E+00
-          fftalg         112
           getden1          0
           getden2          1
           getden3          1
           getden4          0
           getden5          0
           getden6          0
           getwfk1          0
           getwfk2          1
           getwfk3          2
           getwfk4          3
           getwfk5          3
           getwfk6          3
             iscf1          7
             iscf2         -2
             iscf3         -2
             iscf4         -3
             iscf5         -3
             iscf6         -3
              ixc           3
           jdtset        1    2    3    4    5    6
              kpt1    -1.25000000E-01 -2.50000000E-01  0.00000000E+00
                      -1.25000000E-01  5.00000000E-01  0.00000000E+00
                      -2.50000000E-01 -3.75000000E-01  0.00000000E+00
                      -1.25000000E-01 -3.75000000E-01  1.25000000E-01
                      -1.25000000E-01  2.50000000E-01  0.00000000E+00
                      -2.50000000E-01  3.75000000E-01  0.00000000E+00
                      -3.75000000E-01  5.00000000E-01  0.00000000E+00
                      -2.50000000E-01  5.00000000E-01  1.25000000E-01
                      -1.25000000E-01  0.00000000E+00  0.00000000E+00
                      -3.75000000E-01  0.00000000E+00  0.00000000E+00
              kpt2    -1.25000000E-01 -2.50000000E-01  0.00000000E+00
                      -1.25000000E-01  5.00000000E-01  0.00000000E+00
                      -2.50000000E-01 -3.75000000E-01  0.00000000E+00
                      -1.25000000E-01 -3.75000000E-01  1.25000000E-01
                      -1.25000000E-01  2.50000000E-01  0.00000000E+00
                      -2.50000000E-01  3.75000000E-01  0.00000000E+00
                      -3.75000000E-01  5.00000000E-01  0.00000000E+00
                      -2.50000000E-01  5.00000000E-01  1.25000000E-01
                      -1.25000000E-01  0.00000000E+00  0.00000000E+00
                      -3.75000000E-01  0.00000000E+00  0.00000000E+00
              kpt3    -1.25000000E-01 -2.50000000E-01  0.00000000E+00
                      -2.50000000E-01 -1.25000000E-01  0.00000000E+00
                      -1.25000000E-01 -1.25000000E-01  1.25000000E-01
                      -1.25000000E-01  5.00000000E-01  0.00000000E+00
                      -2.50000000E-01 -3.75000000E-01  0.00000000E+00
                      -1.25000000E-01 -3.75000000E-01  1.25000000E-01
                      -3.75000000E-01 -2.50000000E-01  0.00000000E+00
                      -2.50000000E-01 -2.50000000E-01  1.25000000E-01
                      -1.25000000E-01 -2.50000000E-01  2.50000000E-01
                       5.00000000E-01 -1.25000000E-01  0.00000000E+00
                      -3.75000000E-01 -1.25000000E-01  1.25000000E-01
                      -2.50000000E-01 -1.25000000E-01  2.50000000E-01
                      -1.25000000E-01 -1.25000000E-01  3.75000000E-01
                      -1.25000000E-01  2.50000000E-01  0.00000000E+00
                      -2.50000000E-01  3.75000000E-01  0.00000000E+00
                      -1.25000000E-01  3.75000000E-01  1.25000000E-01
                      -3.75000000E-01  5.00000000E-01  0.00000000E+00
                      -2.50000000E-01  5.00000000E-01  1.25000000E-01
                      -1.25000000E-01  5.00000000E-01  2.50000000E-01
                       5.00000000E-01 -3.75000000E-01  0.00000000E+00
                      -3.75000000E-01 -3.75000000E-01  1.25000000E-01
                      -2.50000000E-01 -3.75000000E-01  2.50000000E-01
                      -1.25000000E-01 -3.75000000E-01  3.75000000E-01
                       3.75000000E-01 -2.50000000E-01  0.00000000E+00
                       5.00000000E-01 -2.50000000E-01  1.25000000E-01
                      -3.75000000E-01 -2.50000000E-01  2.50000000E-01
                      -2.50000000E-01 -2.50000000E-01  3.75000000E-01
                      -1.25000000E-01 -2.50000000E-01  5.00000000E-01
                       2.50000000E-01 -1.25000000E-01  0.00000000E+00
                       3.75000000E-01 -1.25000000E-01  1.25000000E-01
                       5.00000000E-01 -1.25000000E-01  2.50000000E-01
                      -3.75000000E-01 -1.25000000E-01  3.75000000E-01
                      -2.50000000E-01 -1.25000000E-01  5.00000000E-01
                      -1.25000000E-01 -1.25000000E-01 -3.75000000E-01
                      -1.25000000E-01  0.00000000E+00  0.00000000E+00
                      -1.25000000E-01  1.25000000E-01  1.25000000E-01
                      -2.50000000E-01  2.50000000E-01  1.25000000E-01
                      -1.25000000E-01  2.50000000E-01  2.50000000E-01
                      -3.75000000E-01  3.75000000E-01  1.25000000E-01
                      -2.50000000E-01  3.75000000E-01  2.50000000E-01
                      -1.25000000E-01  3.75000000E-01  3.75000000E-01
                       5.00000000E-01  5.00000000E-01  1.25000000E-01
                      -3.75000000E-01  5.00000000E-01  2.50000000E-01
                      -2.50000000E-01  5.00000000E-01  3.75000000E-01
                      -1.25000000E-01  5.00000000E-01  5.00000000E-01
                       3.75000000E-01 -3.75000000E-01  1.25000000E-01
                       5.00000000E-01 -3.75000000E-01  2.50000000E-01
                      -3.75000000E-01 -3.75000000E-01  3.75000000E-01
                      -2.50000000E-01 -3.75000000E-01  5.00000000E-01
                      -1.25000000E-01 -3.75000000E-01 -3.75000000E-01
              kpt4    -1.25000000E-01 -2.50000000E-01  0.00000000E+00
                      -2.50000000E-01 -1.25000000E-01  0.00000000E+00
                      -1.25000000E-01 -1.25000000E-01  1.25000000E-01
                      -1.25000000E-01  5.00000000E-01  0.00000000E+00
                      -2.50000000E-01 -3.75000000E-01  0.00000000E+00
                      -1.25000000E-01 -3.75000000E-01  1.25000000E-01
                      -3.75000000E-01 -2.50000000E-01  0.00000000E+00
                      -2.50000000E-01 -2.50000000E-01  1.25000000E-01
                      -1.25000000E-01 -2.50000000E-01  2.50000000E-01
                       5.00000000E-01 -1.25000000E-01  0.00000000E+00
                      -3.75000000E-01 -1.25000000E-01  1.25000000E-01
                      -2.50000000E-01 -1.25000000E-01  2.50000000E-01
                      -1.25000000E-01 -1.25000000E-01  3.75000000E-01
                      -1.25000000E-01  2.50000000E-01  0.00000000E+00
                      -2.50000000E-01  3.75000000E-01  0.00000000E+00
                      -1.25000000E-01  3.75000000E-01  1.25000000E-01
                      -3.75000000E-01  5.00000000E-01  0.00000000E+00
[...]
                      -1.25000000E-01 -3.75000000E-01  3.75000000E-01
                       3.75000000E-01 -2.50000000E-01  0.00000000E+00
                       5.00000000E-01 -2.50000000E-01  1.25000000E-01
                      -3.75000000E-01 -2.50000000E-01  2.50000000E-01
                      -2.50000000E-01 -2.50000000E-01  3.75000000E-01
                      -1.25000000E-01 -2.50000000E-01  5.00000000E-01
                       2.50000000E-01 -1.25000000E-01  0.00000000E+00
                       3.75000000E-01 -1.25000000E-01  1.25000000E-01
                       5.00000000E-01 -1.25000000E-01  2.50000000E-01
                      -3.75000000E-01 -1.25000000E-01  3.75000000E-01
                      -2.50000000E-01 -1.25000000E-01  5.00000000E-01
                      -1.25000000E-01 -1.25000000E-01 -3.75000000E-01
                      -1.25000000E-01  0.00000000E+00  0.00000000E+00
                      -1.25000000E-01  1.25000000E-01  1.25000000E-01
                      -2.50000000E-01  2.50000000E-01  1.25000000E-01
                      -1.25000000E-01  2.50000000E-01  2.50000000E-01
                      -3.75000000E-01  3.75000000E-01  1.25000000E-01
                      -2.50000000E-01  3.75000000E-01  2.50000000E-01
                      -1.25000000E-01  3.75000000E-01  3.75000000E-01
                       5.00000000E-01  5.00000000E-01  1.25000000E-01
                      -3.75000000E-01  5.00000000E-01  2.50000000E-01
                      -2.50000000E-01  5.00000000E-01  3.75000000E-01
                      -1.25000000E-01  5.00000000E-01  5.00000000E-01
                       3.75000000E-01 -3.75000000E-01  1.25000000E-01
                       5.00000000E-01 -3.75000000E-01  2.50000000E-01
                      -3.75000000E-01 -3.75000000E-01  3.75000000E-01
                      -2.50000000E-01 -3.75000000E-01  5.00000000E-01
                      -1.25000000E-01 -3.75000000E-01 -3.75000000E-01
                       outvar_i_n : Printing only first  50 k-points.
           kptopt1          1
           kptopt2          1
           kptopt3          2
           kptopt4          2
           kptopt5          2
           kptopt6          2
         kptrlatt        4   -4    4     -4    4    4     -4   -4    4
          kptrlen      4.24000000E+01
P           mkmem1         10
P           mkmem2         10
P           mkmem3        128
P           mkmem4        128
P           mkmem5        128
P           mkmem6        128
P          mkqmem1         10
P          mkqmem2         10
P          mkqmem3        128
P          mkqmem4        128
P          mkqmem5        128
P          mkqmem6        128
P          mk1mem1         10
P          mk1mem2         10
P          mk1mem3        128
P          mk1mem4        128
P          mk1mem5        128
P          mk1mem6        128
            natom           2
            nband1          4
            nband2          9
            nband3          9
            nband4          9
            nband5          9
            nband6          9
           nbdbuf1          0
           nbdbuf2          2
           nbdbuf3          2
           nbdbuf4          2
           nbdbuf5          2
           nbdbuf6          2
           ndtset           6
            ngfft          10      10      10
             nkpt1         10
             nkpt2         10
             nkpt3        128
             nkpt4        128
             nkpt5        128
             nkpt6        128
            nline1          4
            nline2          4
            nline3          4
            nline4          0
            nline5          0
            nline6          0
             nqpt1          0
             nqpt2          0
             nqpt3          0
             nqpt4          1
             nqpt5          1
             nqpt6          1
            nstep1         25
            nstep2         25
            nstep3         25
            nstep4          1
            nstep5          1
            nstep6          1
             nsym          24
           ntypat           2
              occ1     2.000000  2.000000  2.000000  2.000000
              occ4     2.000000  2.000000  2.000000  2.000000  0.000000  0.000000
                       0.000000  0.000000  0.000000
              occ5     2.000000  2.000000  2.000000  2.000000  0.000000  0.000000
                       0.000000  0.000000  0.000000
              occ6     2.000000  2.000000  2.000000  2.000000  0.000000  0.000000
                       0.000000  0.000000  0.000000
        optdriver1          0
        optdriver2          0
        optdriver3          0
        optdriver4          1
        optdriver5          1
        optdriver6          1
            prtwf1          1
            prtwf2          1
            prtwf3          1
            prtwf4          3
            prtwf5          3
            prtwf6          3
            rfdir1          0       0       0
            rfdir2          0       0       0
            rfdir3          0       0       0
            rfdir4          1       0       0
            rfdir5          0       1       0
            rfdir6          0       0       1
           rfelfd1          0
           rfelfd2          0
           rfelfd3          0
           rfelfd4          2
           rfelfd5          2
           rfelfd6          2
            rprim      0.0000000000E+00  5.0000000000E-01  5.0000000000E-01
                       5.0000000000E-01  0.0000000000E+00  5.0000000000E-01
                       5.0000000000E-01  5.0000000000E-01  0.0000000000E+00
           shiftk      5.00000000E-01  5.00000000E-01  5.00000000E-01
          spgroup         216
           strten1     8.5028451630E-04  8.5028451630E-04  8.5028451630E-04
                       0.0000000000E+00  0.0000000000E+00  0.0000000000E+00
           symrel      1  0  0   0  1  0   0  0  1       0 -1  1   0 -1  0   1 -1  0
                      -1  0  0  -1  0  1  -1  1  0       0  1 -1   1  0 -1   0  0 -1
                      -1  0  0  -1  1  0  -1  0  1       0 -1  1   1 -1  0   0 -1  0
                       1  0  0   0  0  1   0  1  0       0  1 -1   0  0 -1   1  0 -1
                      -1  0  1  -1  1  0  -1  0  0       0 -1  0   1 -1  0   0 -1  1
                       1  0 -1   0  0 -1   0  1 -1       0  1  0   0  0  1   1  0  0
                       1  0 -1   0  1 -1   0  0 -1       0 -1  0   0 -1  1   1 -1  0
                      -1  0  1  -1  0  0  -1  1  0       0  1  0   1  0  0   0  0  1
                       0  0 -1   0  1 -1   1  0 -1       1 -1  0   0 -1  1   0 -1  0
                       0  0  1   1  0  0   0  1  0      -1  1  0  -1  0  0  -1  0  1
                       0  0  1   0  1  0   1  0  0       1 -1  0   0 -1  0   0 -1  1
                       0  0 -1   1  0 -1   0  1 -1      -1  1  0  -1  0  1  -1  0  0
           tolwfr      1.00000000E-20
            typat      1  2
              wtk1       0.09375    0.09375    0.09375    0.18750    0.09375    0.09375
                         0.09375    0.18750    0.03125    0.03125
              wtk2       0.09375    0.09375    0.09375    0.18750    0.09375    0.09375
                         0.09375    0.18750    0.03125    0.03125
              wtk3       0.00781    0.00781    0.00781    0.00781    0.00781    0.00781
                         0.00781    0.00781    0.00781    0.00781    0.00781    0.00781
                         0.00781    0.00781    0.00781    0.00781    0.00781    0.00781
                         0.00781    0.00781    0.00781    0.00781    0.00781    0.00781
                         0.00781    0.00781    0.00781    0.00781    0.00781    0.00781
                         0.00781    0.00781    0.00781    0.00781    0.00781    0.00781
                         0.00781    0.00781    0.00781    0.00781    0.00781    0.00781
                         0.00781    0.00781    0.00781    0.00781    0.00781    0.00781
                         0.00781    0.00781
              wtk4       0.00781    0.00781    0.00781    0.00781    0.00781    0.00781
                         0.00781    0.00781    0.00781    0.00781    0.00781    0.00781
                         0.00781    0.00781    0.00781    0.00781    0.00781    0.00781
                         0.00781    0.00781    0.00781    0.00781    0.00781    0.00781
                         0.00781    0.00781    0.00781    0.00781    0.00781    0.00781
                         0.00781    0.00781    0.00781    0.00781    0.00781    0.00781
                         0.00781    0.00781    0.00781    0.00781    0.00781    0.00781
                         0.00781    0.00781    0.00781    0.00781    0.00781    0.00781
                         0.00781    0.00781
              wtk5       0.00781    0.00781    0.00781    0.00781    0.00781    0.00781
                         0.00781    0.00781    0.00781    0.00781    0.00781    0.00781
                         0.00781    0.00781    0.00781    0.00781    0.00781    0.00781
                         0.00781    0.00781    0.00781    0.00781    0.00781    0.00781
                         0.00781    0.00781    0.00781    0.00781    0.00781    0.00781
                         0.00781    0.00781    0.00781    0.00781    0.00781    0.00781
                         0.00781    0.00781    0.00781    0.00781    0.00781    0.00781
                         0.00781    0.00781    0.00781    0.00781    0.00781    0.00781
                         0.00781    0.00781
              wtk6       0.00781    0.00781    0.00781    0.00781    0.00781    0.00781
                         0.00781    0.00781    0.00781    0.00781    0.00781    0.00781
                         0.00781    0.00781    0.00781    0.00781    0.00781    0.00781
                         0.00781    0.00781    0.00781    0.00781    0.00781    0.00781
                         0.00781    0.00781    0.00781    0.00781    0.00781    0.00781
                         0.00781    0.00781    0.00781    0.00781    0.00781    0.00781
                         0.00781    0.00781    0.00781    0.00781    0.00781    0.00781
                         0.00781    0.00781    0.00781    0.00781    0.00781    0.00781
                         0.00781    0.00781
                       outvars : Printing only first  50 k-points.
           xangst      0.0000000000E+00  0.0000000000E+00  0.0000000000E+00
                       1.4023196028E+00  1.4023196028E+00  1.4023196028E+00
            xcart      0.0000000000E+00  0.0000000000E+00  0.0000000000E+00
                       2.6500000000E+00  2.6500000000E+00  2.6500000000E+00
             xred      0.0000000000E+00  0.0000000000E+00  0.0000000000E+00
                       2.5000000000E-01  2.5000000000E-01  2.5000000000E-01
            znucl       31.00000   33.00000

================================================================================

- Total cpu        time (s,m,h):        100.8        1.68      0.028
- Total wall clock time (s,m,h):          4.9        0.08      0.001
-
- For major independent code sections, cpu and wall times (sec),
-  as well as % of the time and number of calls for node 0-
-<BEGIN_TIMER mpi_nprocs = 1, omp_nthreads = 1, mpi_rank = 0>
- cpu_time =          100.8, wall_time =            4.9
-
- routine                        cpu     %       wall     %      number of calls  Gflops    Speedup Efficacity
-                                                                  (-1=no count)
- vtowfk(ssdiag)                25.519  25.3      0.543  11.0             -1      -1.00       47.00      47.00
- getghc-other                  13.192  13.1      0.297   6.0             -1      -1.00       44.42      44.42
- newkpt(excl. rwwf   )         10.914  10.8      0.253   5.1             -1      -1.00       43.14      43.14
- fourwf%(pot)                  10.430  10.3      0.261   5.3           8585      -1.00       39.96      39.96
- nonlop(apply)                  6.724   6.7      0.170   3.4           8585      -1.00       39.56      39.56
- projbd                         5.768   5.7      0.148   3.0          14102      -1.00       38.97      38.97
- vtowfk(contrib)                2.550   2.5      0.051   1.0            248      -1.00       50.00      50.00
- ewald                          1.027   1.0      0.281   5.7              3      -1.00        3.66       3.66
- pspini                         0.927   0.9      1.007  20.4              6      -1.00        0.92       0.92
- stress                         0.645   0.6      0.048   1.0              1      -1.00       13.44      13.44
- fourwf%(den)                   0.621   0.6      0.035   0.7           1976      -1.00       17.73      17.73
- ewald2 (+vdw_dftd)             0.607   0.6      0.047   1.0              1      -1.00       12.92      12.92
- others (122)                   1.883   1.9      0.946  19.2             -1      -1.00        1.99       1.99
-<END_TIMER>
-
- subtotal                      80.807  80.2      4.087  82.8                                 19.77      19.77

- For major independent code sections, cpu and wall times (sec),
- as well as % of the total time and number of calls 

-<BEGIN_TIMER mpi_nprocs = 1, omp_nthreads = 1, mpi_rank = world>
- cpu_time =         100.8, wall_time =           4.9
-
- routine                         cpu     %       wall     %      number of calls Gflops    Speedup Efficacity
-                                                                  (-1=no count)
- vtowfk(ssdiag)                25.519  25.3      0.543  11.0             -1      -1.00       47.00      47.00
- getghc-other                  13.192  13.1      0.297   6.0             -1      -1.00       44.42      44.42
- newkpt(excl. rwwf   )         10.914  10.8      0.253   5.1             -1      -1.00       43.14      43.14
- fourwf%(pot)                  10.430  10.3      0.261   5.3           8585      -1.00       39.96      39.96
- nonlop(apply)                  6.724   6.7      0.170   3.4           8585      -1.00       39.56      39.56
- projbd                         5.768   5.7      0.148   3.0          14102      -1.00       38.97      38.97
- vtowfk(contrib)                2.550   2.5      0.051   1.0            248      -1.00       50.00      50.00
- ewald                          1.027   1.0      0.281   5.7              3      -1.00        3.66       3.66
- pspini                         0.927   0.9      1.007  20.4              6      -1.00        0.92       0.92
- stress                         0.645   0.6      0.048   1.0              1      -1.00       13.44      13.44
- fourwf%(den)                   0.621   0.6      0.035   0.7           1976      -1.00       17.73      17.73
- ewald2 (+vdw_dftd)             0.607   0.6      0.047   1.0              1      -1.00       12.92      12.92
- others (122)                   1.883   1.9      0.946  19.2             -1      -1.00        1.99       1.99
-<END_TIMER>

- subtotal                      80.807  80.2      4.087  82.8                                 19.77      19.77

================================================================================

 Suggested references for the acknowledgment of ABINIT usage.

 The users of ABINIT have little formal obligations with respect to the ABINIT group
 (those specified in the GNU General Public License, http://www.gnu.org/copyleft/gpl.txt).
 However, it is common practice in the scientific literature,
 to acknowledge the efforts of people that have made the research possible.
 In this spirit, please find below suggested citations of work written by ABINIT developers,
 corresponding to implementations inside of ABINIT that you have used in the present run.
 Note also that it will be of great value to readers of publications presenting these results,
 to read papers enabling them to understand the theoretical formalism and details
 of the ABINIT implementation.
 For information on why they are suggested, see also https://docs.abinit.org/theory/acknowledgments.
-
- [1] Recent developments in the ABINIT software package.
- Computer Phys. Comm. 205, 106 (2016).
- X.Gonze, F.Jollet, F.Abreu Araujo, D.Adams, B.Amadon, T.Applencourt,
- C.Audouze, J.-M.Beuken, J.Bieder, A.Bokhanchuk, E.Bousquet, F.Bruneval
- D.Caliste, M.Cote, F.Dahm, F.Da Pieve, M.Delaveau, M.Di Gennaro,
- B.Dorado, C.Espejo, G.Geneste, L.Genovese, A.Gerossier, M.Giantomassi,
- Y.Gillet, D.R.Hamann, L.He, G.Jomard, J.Laflamme Janssen, S.Le Roux,
- A.Levitt, A.Lherbier, F.Liu, I.Lukacevic, A.Martin, C.Martins,
- M.J.T.Oliveira, S.Ponce, Y.Pouillon, T.Rangel, G.-M.Rignanese,
- A.H.Romero, B.Rousseau, O.Rubel, A.A.Shukri, M.Stankovski, M.Torrent,
- M.J.Van Setten, B.Van Troeye, M.J.Verstraete, D.Waroquier, J.Wiktor,
- B.Xu, A.Zhou, J.W.Zwanziger.
- Comment: the fourth generic paper describing the ABINIT project.
- Note that a version of this paper, that is not formatted for Computer Phys. Comm. 
- is available at https://www.abinit.org/about/ABINIT16.pdf .
- The licence allows the authors to put it on the Web.
- DOI and bibtex: see https://docs.abinit.org/theory/bibliography/#gonze2016
-
- [2] First-principles responses of solids to atomic displacements and homogeneous electric fields:,
- implementation of a conjugate-gradient algorithm. X. Gonze, Phys. Rev. B55, 10337 (1997).
- Comment: Non-vanishing rfphon and/or rfelfd, in the norm-conserving case.
- DOI and bibtex: see https://docs.abinit.org/theory/bibliography/#gonze1997
-
- [3] Dynamical matrices, Born effective charges, dielectric permittivity tensors, and ,
- interatomic force constants from density-functional perturbation theory,
- X. Gonze and C. Lee, Phys. Rev. B55, 10355 (1997).
- Comment: Non-vanishing rfphon and/or rfelfd, in the norm-conserving case.
- DOI and bibtex: see https://docs.abinit.org/theory/bibliography/#gonze1997a
-
- [4] ABINIT: First-principles approach of materials and nanosystem properties.
- Computer Phys. Comm. 180, 2582-2615 (2009).
- X. Gonze, B. Amadon, P.-M. Anglade, J.-M. Beuken, F. Bottin, P. Boulanger, F. Bruneval,
- D. Caliste, R. Caracas, M. Cote, T. Deutsch, L. Genovese, Ph. Ghosez, M. Giantomassi
- S. Goedecker, D.R. Hamann, P. Hermet, F. Jollet, G. Jomard, S. Leroux, M. Mancini, S. Mazevet,
- M.J.T. Oliveira, G. Onida, Y. Pouillon, T. Rangel, G.-M. Rignanese, D. Sangalli, R. Shaltaf,
- M. Torrent, M.J. Verstraete, G. Zerah, J.W. Zwanziger
- Comment: the third generic paper describing the ABINIT project.
- Note that a version of this paper, that is not formatted for Computer Phys. Comm. 
- is available at https://www.abinit.org/about/ABINIT_CPC_v10.pdf .
- The licence allows the authors to put it on the Web.
- DOI and bibtex: see https://docs.abinit.org/theory/bibliography/#gonze2009
-
- [5] A brief introduction to the ABINIT software package.
- Z. Kristallogr. 220, 558-562 (2005).
- X. Gonze, G.-M. Rignanese, M. Verstraete, J.-M. Beuken, Y. Pouillon, R. Caracas, F. Jollet,
- M. Torrent, G. Zerah, M. Mikami, Ph. Ghosez, M. Veithen, J.-Y. Raty, V. Olevano, F. Bruneval,
- L. Reining, R. Godby, G. Onida, D.R. Hamann, and D.C. Allan.
- Comment: the second generic paper describing the ABINIT project. Note that this paper
- should be cited especially if you are using the GW part of ABINIT, as several authors
- of this part are not in the list of authors of the first or third paper.
- The .pdf of the latter paper is available at https://www.abinit.org/about/zfk_0505-06_558-562.pdf.
- Note that it should not redistributed (Copyright by Oldenburg Wissenshaftverlag,
- the licence allows the authors to put it on the Web).
- DOI and bibtex: see https://docs.abinit.org/theory/bibliography/#gonze2005
-
- Proc.   0 individual time (sec): cpu=        100.8  wall=          4.9

================================================================================

 Calculation completed.
.Delivered  18 WARNINGs and  12 COMMENTs to log file.
+Overall time at end (sec) : cpu=        100.8  wall=          4.9
