PROCAR lm decomposed - need to merge files yourself in parallel case!!! Or use pyprocar package
 Requested complex output of PROCAR file (prtprocar 2)
# of k-points:          4 # of bands:        25 # of ions:         2

 k-point       1 :     0.166667    0.166667    0.166667 weight =     0.296296

band       1 # energy    -2.999731 # occ.     1.000000

ion       s      py     pz     px    dxy    dyz    dz2    dxz    dx2    tot
     1  0.203  0.000  0.000  0.000  0.000  0.000  0.000  0.000  0.000  0.203
tot     0.203  0.000  0.000  0.000  0.000  0.000  0.000  0.000  0.000  0.203
ion            s              py              pz              px             dxy             dyz             dz2             dxz             dx2             tot
     1  0.541   0.000   0.001   0.001   0.001  -0.000  -0.001   0.001  -0.000   0.001   0.001   0.001   0.000  -0.000  -0.001   0.001   0.000  -0.001   0.545   0.003
charge  0.293           0.000           0.000           0.000           0.000           0.000           0.000           0.000           0.000           0.293

band       2 # energy    -2.997154 # occ.     1.000000

ion       s      py     pz     px    dxy    dyz    dz2    dxz    dx2    tot
     1  0.202  0.000  0.000  0.000  0.000  0.000  0.000  0.000  0.000  0.202
tot     0.202  0.000  0.000  0.000  0.000  0.000  0.000  0.000  0.000  0.202
ion            s              py              pz              px             dxy             dyz             dz2             dxz             dx2             tot
     1  0.537  -0.000  -0.001  -0.001  -0.001   0.000   0.001  -0.001   0.000  -0.001  -0.001  -0.001  -0.000   0.000   0.001  -0.001  -0.000   0.001   0.536  -0.001
charge  0.288           0.000           0.000           0.000           0.000           0.000           0.000           0.000           0.000           0.288

band       3 # energy    -1.747181 # occ.     1.000000

ion       s      py     pz     px    dxy    dyz    dz2    dxz    dx2    tot
     1  0.000  0.023  0.073  0.026  0.000  0.000  0.000  0.000  0.000  0.122
tot     0.000  0.023  0.073  0.026  0.000  0.000  0.000  0.000  0.000  0.122
ion            s              py              pz              px             dxy             dyz             dz2             dxz             dx2             tot
     1  0.000  -0.000   0.052   0.216  -0.391   0.002  -0.059   0.226   0.000   0.004  -0.003  -0.001   0.001  -0.000   0.003  -0.001   0.000  -0.004  -0.400   0.439
charge  0.000           0.049           0.153           0.055           0.000           0.000           0.000           0.000           0.000           0.257

band       4 # energy    -1.747181 # occ.     1.000000

ion       s      py     pz     px    dxy    dyz    dz2    dxz    dx2    tot
     1  0.000  0.058  0.009  0.055  0.000  0.000  0.000  0.000  0.000  0.122
tot     0.000  0.058  0.009  0.055  0.000  0.000  0.000  0.000  0.000  0.122
ion            s              py              pz              px             dxy             dyz             dz2             dxz             dx2             tot
     1 -0.000  -0.000   0.291  -0.193  -0.136   0.007  -0.284  -0.191  -0.000   0.001   0.003  -0.004   0.000  -0.000  -0.003  -0.004  -0.001  -0.001  -0.130  -0.379
charge  0.000           0.122           0.018           0.117           0.000           0.000           0.000           0.000           0.000           0.257

band       5 # energy    -1.743941 # occ.     1.000000

ion       s      py     pz     px    dxy    dyz    dz2    dxz    dx2    tot
     1  0.000  0.040  0.040  0.040  0.000  0.000  0.000  0.000  0.000  0.120
tot     0.000  0.040  0.040  0.040  0.000  0.000  0.000  0.000  0.000  0.120
ion            s              py              pz              px             dxy             dyz             dz2             dxz             dx2             tot
     1 -0.004  -0.000   0.204   0.204   0.289   0.000  -0.204   0.204  -0.000   0.003   0.003   0.003  -0.000   0.000  -0.003   0.003   0.000  -0.003   0.286   0.414
charge  0.000           0.083           0.083           0.083           0.000           0.000           0.000           0.000           0.000           0.250

band       6 # energy    -1.740351 # occ.     1.000000

ion       s      py     pz     px    dxy    dyz    dz2    dxz    dx2    tot
     1  0.000  0.041  0.041  0.041  0.000  0.000  0.000  0.000  0.000  0.122
tot     0.000  0.041  0.041  0.041  0.000  0.000  0.000  0.000  0.000  0.122
ion            s              py              pz              px             dxy             dyz             dz2             dxz             dx2             tot
     1  0.006  -0.000   0.206   0.206   0.291  -0.000  -0.206   0.206   0.000  -0.004  -0.004  -0.004  -0.000  -0.000   0.004  -0.004  -0.000   0.004   0.295   0.401
charge  0.000           0.085           0.085           0.085           0.000           0.000           0.000           0.000           0.000           0.254

band       7 # energy    -1.738409 # occ.     1.000000

ion       s      py     pz     px    dxy    dyz    dz2    dxz    dx2    tot
     1  0.000  0.017  0.073  0.029  0.000  0.000  0.000  0.000  0.000  0.120
tot     0.000  0.017  0.073  0.029  0.000  0.000  0.000  0.000  0.000  0.120
ion            s              py              pz              px             dxy             dyz             dz2             dxz             dx2             tot
     1  0.000   0.000   0.051   0.182  -0.387   0.010  -0.085   0.230   0.000  -0.003   0.003   0.001   0.002  -0.000  -0.002   0.001   0.001   0.004  -0.417   0.423
charge  0.000           0.036           0.150           0.060           0.000           0.000           0.000           0.000           0.000           0.245

band       8 # energy    -1.738409 # occ.     1.000000

ion       s      py     pz     px    dxy    dyz    dz2    dxz    dx2    tot
     1  0.000  0.062  0.007  0.051  0.000  0.000  0.000  0.000  0.000  0.120
tot     0.000  0.062  0.007  0.051  0.000  0.000  0.000  0.000  0.000  0.120
ion            s              py              pz              px             dxy             dyz             dz2             dxz             dx2             tot
     1 -0.000  -0.000   0.294  -0.203  -0.113   0.033  -0.259  -0.191  -0.002  -0.001  -0.002   0.003   0.001  -0.000   0.003   0.004  -0.001   0.001  -0.080  -0.354
charge  0.000           0.128           0.014           0.104           0.000           0.000           0.000           0.000           0.000           0.245

band       9 # energy     0.019951 # occ.     1.000000

ion       s      py     pz     px    dxy    dyz    dz2    dxz    dx2    tot
     1  0.139  0.005  0.005  0.005  0.001  0.001  0.000  0.001  0.001  0.160
tot     0.139  0.005  0.005  0.005  0.001  0.001  0.000  0.001  0.001  0.160
ion            s              py              pz              px             dxy             dyz             dz2             dxz             dx2             tot
     1  0.570   0.000   0.077   0.077   0.109  -0.000  -0.077   0.077  -0.000   0.045   0.045   0.045  -0.000  -0.000  -0.045   0.045  -0.000  -0.045   0.671   0.250
charge  0.325           0.012           0.012           0.012           0.002           0.004           0.000           0.004           0.002           0.373

band      10 # energy     0.114613 # occ.     1.000000

ion       s      py     pz     px    dxy    dyz    dz2    dxz    dx2    tot
     1  0.000  0.001  0.004  0.001  0.005  0.001  0.133  0.001  0.006  0.152
tot     0.000  0.001  0.004  0.001  0.005  0.001  0.133  0.001  0.006  0.152
ion            s              py              pz              px             dxy             dyz             dz2             dxz             dx2             tot
     1 -0.000  -0.000  -0.018  -0.047   0.090   0.000   0.017  -0.046  -0.110  -0.049   0.039   0.014  -0.597  -0.002  -0.040   0.015  -0.110   0.059  -0.731  -0.059
charge  0.000           0.003           0.008           0.002           0.015           0.002           0.356           0.002           0.016           0.404

band      11 # energy     0.114613 # occ.     1.000000

ion       s      py     pz     px    dxy    dyz    dz2    dxz    dx2    tot
     1  0.000  0.003  0.000  0.003  0.067  0.002  0.009  0.002  0.066  0.152
tot     0.000  0.003  0.000  0.003  0.067  0.002  0.009  0.002  0.066  0.152
ion            s              py              pz              px             dxy             dyz             dz2             dxz             dx2             tot
     1 -0.000   0.000  -0.063   0.047   0.024   0.001   0.064   0.047   0.423  -0.015  -0.040   0.054  -0.156  -0.007   0.039   0.053   0.422   0.013   0.725   0.202
charge  0.000           0.006           0.001           0.006           0.179           0.005           0.024           0.004           0.178           0.404

band      12 # energy     0.165721 # occ.     1.000000

ion       s      py     pz     px    dxy    dyz    dz2    dxz    dx2    tot
     1  0.000  0.001  0.000  0.001  0.007  0.073  0.001  0.071  0.008  0.161
tot     0.000  0.001  0.000  0.001  0.007  0.073  0.001  0.071  0.008  0.161
ion            s              py              pz              px             dxy             dyz             dz2             dxz             dx2             tot
     1  0.000  -0.000  -0.029   0.022   0.011   0.000   0.030   0.022   0.101   0.093   0.260  -0.354  -0.039  -0.001  -0.258  -0.350   0.107  -0.093   0.155  -0.652
charge  0.000           0.001           0.000           0.001           0.019           0.193           0.001           0.189           0.020           0.426

band      13 # energy     0.165721 # occ.     1.000000

ion       s      py     pz     px    dxy    dyz    dz2    dxz    dx2    tot
     1  0.000  0.000  0.001  0.000  0.047  0.028  0.008  0.029  0.047  0.161
tot     0.000  0.000  0.001  0.000  0.047  0.028  0.008  0.029  0.047  0.161
ion            s              py              pz              px             dxy             dyz             dz2             dxz             dx2             tot
     1  0.000  -0.000   0.008   0.022  -0.042  -0.000  -0.008   0.021   0.028  -0.353   0.254   0.094   0.147   0.000  -0.260   0.098   0.027   0.352   0.143   0.211
charge  0.000           0.001           0.002           0.001           0.126           0.073           0.022           0.077           0.124           0.426

band      14 # energy     0.187903 # occ.     1.000000

ion       s      py     pz     px    dxy    dyz    dz2    dxz    dx2    tot
     1  0.005  0.001  0.001  0.001  0.023  0.046  0.000  0.046  0.023  0.148
tot     0.005  0.001  0.001  0.001  0.023  0.046  0.000  0.046  0.023  0.148
ion            s              py              pz              px             dxy             dyz             dz2             dxz             dx2             tot
     1 -0.114   0.000   0.039   0.039   0.055   0.000  -0.039   0.039   0.000   0.245   0.245   0.245   0.000   0.000  -0.245   0.245   0.000  -0.245  -0.022   0.514
charge  0.013           0.003           0.003           0.003           0.060           0.120           0.000           0.120           0.060           0.387

band      15 # energy     0.210522 # occ.     1.000000

ion       s      py     pz     px    dxy    dyz    dz2    dxz    dx2    tot
     1  0.000  0.000  0.000  0.000  0.008  0.002  0.117  0.002  0.007  0.136
tot     0.000  0.000  0.000  0.000  0.008  0.002  0.117  0.002  0.007  0.136
ion            s              py              pz              px             dxy             dyz             dz2             dxz             dx2             tot
     1  0.000  -0.000  -0.001  -0.002   0.004  -0.000   0.001  -0.002  -0.110  -0.090   0.064   0.023  -0.551   0.002  -0.062   0.021  -0.109   0.079  -0.776   0.021
charge  0.000           0.000           0.000           0.000           0.020           0.005           0.304           0.004           0.018           0.352

band      16 # energy     0.210522 # occ.     1.000000

ion       s      py     pz     px    dxy    dyz    dz2    dxz    dx2    tot
     1  0.000  0.000  0.000  0.000  0.059  0.004  0.009  0.004  0.059  0.136
tot     0.000  0.000  0.000  0.000  0.059  0.004  0.009  0.004  0.059  0.136
ion            s              py              pz              px             dxy             dyz             dz2             dxz             dx2             tot
     1  0.000  -0.000  -0.003   0.002   0.001  -0.000   0.003   0.002   0.389  -0.022  -0.061   0.084  -0.155   0.008   0.062   0.086   0.391   0.025   0.613   0.195
charge  0.000           0.000           0.000           0.000           0.151           0.011           0.024           0.011           0.154           0.352

band      17 # energy     0.213896 # occ.     1.000000

ion       s      py     pz     px    dxy    dyz    dz2    dxz    dx2    tot
     1  0.001  0.001  0.001  0.001  0.024  0.047  0.000  0.047  0.024  0.150
tot     0.001  0.001  0.001  0.001  0.024  0.047  0.000  0.047  0.024  0.150
ion            s              py              pz              px             dxy             dyz             dz2             dxz             dx2             tot
     1  0.057  -0.000   0.042   0.042   0.060  -0.000  -0.042   0.042   0.000  -0.249  -0.249  -0.249  -0.000   0.000   0.249  -0.249  -0.000   0.249   0.143  -0.432
charge  0.003           0.004           0.004           0.004           0.062           0.124           0.000           0.124           0.062           0.389

band      18 # energy     0.239686 # occ.     1.000000

ion       s      py     pz     px    dxy    dyz    dz2    dxz    dx2    tot
     1  0.000  0.002  0.000  0.002  0.005  0.058  0.000  0.058  0.005  0.131
tot     0.000  0.002  0.000  0.002  0.005  0.058  0.000  0.058  0.005  0.131
ion            s              py              pz              px             dxy             dyz             dz2             dxz             dx2             tot
     1  0.000  -0.000   0.052  -0.038  -0.020  -0.000  -0.052  -0.038   0.072   0.085   0.227  -0.313  -0.028  -0.000  -0.227  -0.312   0.072  -0.085   0.100  -0.674
charge  0.000           0.004           0.000           0.004           0.012           0.149           0.001           0.149           0.012           0.335

band      19 # energy     0.239686 # occ.     1.000000

ion       s      py     pz     px    dxy    dyz    dz2    dxz    dx2    tot
     1  0.000  0.001  0.002  0.001  0.038  0.023  0.004  0.023  0.038  0.131
tot     0.000  0.001  0.002  0.001  0.038  0.023  0.004  0.023  0.038  0.131
ion            s              py              pz              px             dxy             dyz             dz2             dxz             dx2             tot
     1 -0.000   0.000   0.014   0.038  -0.073  -0.000  -0.014   0.038  -0.020   0.312  -0.229  -0.082  -0.102  -0.000   0.230  -0.082  -0.020  -0.312  -0.246  -0.146
charge  0.000           0.002           0.005           0.002           0.098           0.059           0.010           0.060           0.097           0.335

band      20 # energy     0.547269 # occ.     0.000000

ion       s      py     pz     px    dxy    dyz    dz2    dxz    dx2    tot
     1  0.000  0.010  0.068  0.035  0.002  0.001  0.006  0.000  0.000  0.127
tot     0.000  0.010  0.068  0.035  0.002  0.001  0.006  0.000  0.000  0.127
ion            s              py              pz              px             dxy             dyz             dz2             dxz             dx2             tot
     1  0.000   0.000   0.037   0.151  -0.401   0.020  -0.118   0.261  -0.013  -0.036   0.025   0.011  -0.064   0.003  -0.014   0.004  -0.011   0.018  -0.586   0.340
charge  0.000           0.024           0.161           0.082           0.001           0.001           0.004           0.000           0.000           0.282

band      21 # energy     0.547269 # occ.     0.000000

ion       s      py     pz     px    dxy    dyz    dz2    dxz    dx2    tot
     1  0.000  0.065  0.007  0.041  0.003  0.001  0.001  0.002  0.004  0.127
tot     0.000  0.065  0.007  0.041  0.003  0.001  0.001  0.002  0.004  0.127
ion            s              py              pz              px             dxy             dyz             dz2             dxz             dx2             tot
     1  0.000  -0.000   0.322  -0.223  -0.105   0.078  -0.242  -0.193   0.040  -0.005  -0.018   0.023  -0.017   0.012   0.021   0.030   0.051   0.009  -0.025  -0.153
charge  0.000           0.154           0.017           0.096           0.002           0.001           0.000           0.001           0.003           0.282

band      22 # energy     0.602943 # occ.     0.000000

ion       s      py     pz     px    dxy    dyz    dz2    dxz    dx2    tot
     1  0.124  0.017  0.017  0.017  0.001  0.002  0.000  0.002  0.001  0.192
tot     0.124  0.017  0.017  0.017  0.001  0.002  0.000  0.002  0.001  0.192
ion            s              py              pz              px             dxy             dyz             dz2             dxz             dx2             tot
     1 -0.548  -0.000   0.143   0.143   0.202   0.000  -0.143   0.143   0.000  -0.016  -0.016  -0.016  -0.000   0.000   0.016  -0.016   0.000   0.016  -0.276   0.071
charge  0.300           0.041           0.041           0.041           0.000           0.001           0.000           0.001           0.000           0.450

band      23 # energy     0.968175 # occ.     0.000000

ion       s      py     pz     px    dxy    dyz    dz2    dxz    dx2    tot
     1  0.000  0.018  0.004  0.020  0.003  0.005  0.001  0.005  0.004  0.095
tot     0.000  0.018  0.004  0.020  0.003  0.005  0.001  0.005  0.004  0.095
ion            s              py              pz              px             dxy             dyz             dz2             dxz             dx2             tot
     1  0.000   0.000   0.173  -0.110  -0.099  -0.014  -0.191  -0.113  -0.048  -0.020  -0.034   0.057   0.030   0.004   0.033   0.051  -0.054   0.022   0.055  -0.256
charge  0.000           0.042           0.010           0.049           0.003           0.004           0.001           0.004           0.003           0.201

band      24 # energy     0.968175 # occ.     0.000000

ion       s      py     pz     px    dxy    dyz    dz2    dxz    dx2    tot
     1  0.000  0.011  0.024  0.008  0.004  0.002  0.006  0.003  0.003  0.096
tot     0.000  0.011  0.024  0.008  0.004  0.002  0.006  0.003  0.003  0.096
ion            s              py              pz              px             dxy             dyz             dz2             dxz             dx2             tot
     1  0.000  -0.000  -0.031  -0.157   0.241   0.006   0.018  -0.135  -0.023   0.053  -0.040  -0.005  -0.072  -0.002   0.046  -0.009  -0.020  -0.047   0.099  -0.391
charge  0.000           0.026           0.058           0.019           0.003           0.002           0.005           0.002           0.003           0.202

band      25 # energy     0.980426 # occ.     0.000000

ion       s      py     pz     px    dxy    dyz    dz2    dxz    dx2    tot
     1  0.000  0.010  0.001  0.017  0.011  0.000  0.002  0.000  0.013  0.083
tot     0.000  0.010  0.001  0.017  0.011  0.000  0.002  0.000  0.013  0.083
ion            s              py              pz              px             dxy             dyz             dz2             dxz             dx2             tot
     1  0.000   0.000  -0.103   0.116  -0.029   0.044   0.127   0.155  -0.103  -0.001  -0.015   0.012  -0.022   0.033   0.011   0.010  -0.109  -0.005  -0.372   0.026
charge  0.000           0.024           0.003           0.040           0.011           0.000           0.002           0.000           0.012           0.160

 k-point       2 :     0.500000    0.166667    0.166667 weight =     0.444444

band       1 # energy    -2.998521 # occ.     1.000000

ion       s      py     pz     px    dxy    dyz    dz2    dxz    dx2    tot
     1  0.012  0.000  0.000  0.000  0.000  0.000  0.000  0.000  0.000  0.012
tot     0.012  0.000  0.000  0.000  0.000  0.000  0.000  0.000  0.000  0.012
ion            s              py              pz              px             dxy             dyz             dz2             dxz             dx2             tot
     1 -0.123  -0.050   0.003  -0.000  -0.000  -0.000  -0.003  -0.000  -0.000   0.001   0.001  -0.000   0.000   0.000  -0.001   0.000  -0.000  -0.001  -0.123  -0.050
charge  0.018           0.000           0.000           0.000           0.000           0.000           0.000           0.000           0.000           0.018

band       2 # energy    -2.998521 # occ.     1.000000

ion       s      py     pz     px    dxy    dyz    dz2    dxz    dx2    tot
     1  0.393  0.000  0.000  0.000  0.000  0.000  0.000  0.000  0.000  0.393
tot     0.393  0.000  0.000  0.000  0.000  0.000  0.000  0.000  0.000  0.393
ion            s              py              pz              px             dxy             dyz             dz2             dxz             dx2             tot
     1  0.751   0.008   0.000   0.000   0.001   0.000  -0.000   0.001   0.001   0.000   0.000  -0.000  -0.001  -0.000  -0.000   0.000   0.001  -0.000   0.751   0.008
charge  0.563           0.000           0.000           0.000           0.000           0.000           0.000           0.000           0.000           0.563

band       3 # energy    -1.749402 # occ.     1.000000

ion       s      py     pz     px    dxy    dyz    dz2    dxz    dx2    tot
     1  0.000  0.036  0.019  0.065  0.000  0.000  0.000  0.000  0.000  0.120
tot     0.000  0.036  0.019  0.065  0.000  0.000  0.000  0.000  0.000  0.120
ion            s              py              pz              px             dxy             dyz             dz2             dxz             dx2             tot
     1  0.005   0.001   0.255   0.105   0.195   0.051  -0.327   0.171   0.001  -0.001  -0.001   0.001  -0.001  -0.000   0.001   0.001   0.001   0.001   0.126   0.329
charge  0.000           0.076           0.040           0.136           0.000           0.000           0.000           0.000           0.000           0.253

band       4 # energy    -1.749402 # occ.     1.000000

ion       s      py     pz     px    dxy    dyz    dz2    dxz    dx2    tot
     1  0.000  0.054  0.042  0.025  0.000  0.000  0.000  0.000  0.000  0.122
tot     0.000  0.054  0.042  0.025  0.000  0.000  0.000  0.000  0.000  0.122
ion            s              py              pz              px             dxy             dyz             dz2             dxz             dx2             tot
     1  0.007   0.001  -0.215   0.260   0.296   0.034   0.167   0.159   0.002   0.001   0.000   0.002  -0.001  -0.000  -0.001   0.002   0.001  -0.000   0.254   0.456
charge  0.000           0.114           0.089           0.053           0.000           0.000           0.000           0.000           0.000           0.256

band       5 # energy    -1.744215 # occ.     1.000000

ion       s      py     pz     px    dxy    dyz    dz2    dxz    dx2    tot
     1  0.000  0.038  0.077  0.038  0.000  0.000  0.000  0.000  0.000  0.153
tot     0.000  0.038  0.077  0.038  0.000  0.000  0.000  0.000  0.000  0.153
ion            s              py              pz              px             dxy             dyz             dz2             dxz             dx2             tot
     1  0.000   0.000  -0.021   0.282  -0.398  -0.029  -0.021   0.282   0.001   0.004  -0.004   0.001   0.000   0.000   0.004  -0.001  -0.000  -0.004  -0.439   0.532
charge  0.000           0.080           0.159           0.080           0.000           0.000           0.000           0.000           0.000           0.319

band       6 # energy    -1.744215 # occ.     1.000000

ion       s      py     pz     px    dxy    dyz    dz2    dxz    dx2    tot
     1  0.000  0.022  0.043  0.022  0.000  0.000  0.000  0.000  0.000  0.086
tot     0.000  0.022  0.043  0.022  0.000  0.000  0.000  0.000  0.000  0.086
ion            s              py              pz              px             dxy             dyz             dz2             dxz             dx2             tot
     1  0.000  -0.000  -0.028   0.210  -0.297  -0.039  -0.028   0.210  -0.000  -0.005   0.005  -0.000   0.000   0.000  -0.005   0.000   0.000   0.005  -0.352   0.379
charge  0.000           0.045           0.090           0.045           0.000           0.000           0.000           0.000           0.000           0.179

band       7 # energy    -1.739262 # occ.     1.000000

ion       s      py     pz     px    dxy    dyz    dz2    dxz    dx2    tot
     1  0.000  0.024  0.057  0.035  0.000  0.000  0.000  0.000  0.000  0.116
tot     0.000  0.024  0.057  0.035  0.000  0.000  0.000  0.000  0.000  0.116
ion            s              py              pz              px             dxy             dyz             dz2             dxz             dx2             tot
     1  0.005  -0.000   0.035  -0.217  -0.342   0.002  -0.038  -0.267   0.001   0.000   0.000   0.002  -0.001   0.000  -0.000   0.002   0.001  -0.000  -0.340  -0.475
charge  0.000           0.048           0.117           0.073           0.000           0.000           0.000           0.000           0.000           0.238

band       8 # energy    -1.739262 # occ.     1.000000

ion       s      py     pz     px    dxy    dyz    dz2    dxz    dx2    tot
     1  0.000  0.068  0.001  0.056  0.000  0.000  0.000  0.000  0.000  0.124
tot     0.000  0.068  0.001  0.056  0.000  0.000  0.000  0.000  0.000  0.124
ion            s              py              pz              px             dxy             dyz             dz2             dxz             dx2             tot
     1 -0.001   0.000   0.372   0.027   0.035  -0.024  -0.339   0.022  -0.000   0.003   0.003  -0.000   0.000  -0.000  -0.003  -0.000  -0.000  -0.003   0.068   0.025
charge  0.000           0.139           0.002           0.115           0.000           0.000           0.000           0.000           0.000           0.256

band       9 # energy     0.108080 # occ.     1.000000

ion       s      py     pz     px    dxy    dyz    dz2    dxz    dx2    tot
     1  0.016  0.012  0.000  0.019  0.043  0.025  0.003  0.016  0.006  0.142
tot     0.016  0.012  0.000  0.019  0.043  0.025  0.003  0.016  0.006  0.142
ion            s              py              pz              px             dxy             dyz             dz2             dxz             dx2             tot
     1 -0.062   0.184   0.164   0.004  -0.010   0.030  -0.207  -0.018  -0.049   0.337   0.260   0.023   0.029  -0.085  -0.208  -0.005  -0.021  -0.130  -0.122   0.315
charge  0.038           0.027           0.001           0.043           0.116           0.068           0.008           0.043           0.017           0.362

band      10 # energy     0.108080 # occ.     1.000000

ion       s      py     pz     px    dxy    dyz    dz2    dxz    dx2    tot
     1  0.083  0.008  0.002  0.001  0.009  0.001  0.015  0.010  0.045  0.174
tot     0.083  0.008  0.002  0.001  0.009  0.001  0.015  0.010  0.045  0.174
ion            s              py              pz              px             dxy             dyz             dz2             dxz             dx2             tot
     1  0.439  -0.026   0.029   0.129   0.072  -0.004  -0.023  -0.027   0.150   0.018   0.029   0.036  -0.202   0.012  -0.037  -0.160   0.346  -0.048   0.765  -0.012
charge  0.194           0.017           0.005           0.001           0.023           0.002           0.041           0.027           0.122           0.434

band      11 # energy     0.140214 # occ.     1.000000

ion       s      py     pz     px    dxy    dyz    dz2    dxz    dx2    tot
     1  0.000  0.001  0.002  0.001  0.050  0.019  0.043  0.019  0.003  0.139
tot     0.000  0.001  0.002  0.001  0.050  0.019  0.043  0.019  0.003  0.139
ion            s              py              pz              px             dxy             dyz             dz2             dxz             dx2             tot
     1 -0.000   0.000  -0.044  -0.009   0.013  -0.063  -0.044  -0.009  -0.052   0.359  -0.225  -0.023  -0.070   0.329   0.225   0.023  -0.005  -0.091  -0.181   0.506
charge  0.000           0.002           0.004           0.002           0.132           0.051           0.113           0.051           0.008           0.367

band      12 # energy     0.140214 # occ.     1.000000

ion       s      py     pz     px    dxy    dyz    dz2    dxz    dx2    tot
     1  0.000  0.002  0.004  0.002  0.001  0.010  0.084  0.010  0.047  0.159
tot     0.000  0.002  0.004  0.002  0.001  0.010  0.084  0.010  0.047  0.159
ion            s              py              pz              px             dxy             dyz             dz2             dxz             dx2             tot
     1 -0.000  -0.000   0.007   0.063  -0.090   0.009   0.007   0.063   0.035   0.013  -0.033  -0.157   0.471  -0.049   0.033   0.157   0.350  -0.053   0.757   0.024
charge  0.000           0.004           0.008           0.004           0.001           0.026           0.224           0.026           0.125           0.421

band      13 # energy     0.169577 # occ.     1.000000

ion       s      py     pz     px    dxy    dyz    dz2    dxz    dx2    tot
     1  0.004  0.001  0.002  0.007  0.001  0.100  0.005  0.027  0.027  0.173
tot     0.004  0.001  0.002  0.007  0.001  0.100  0.005  0.027  0.027  0.173
ion            s              py              pz              px             dxy             dyz             dz2             dxz             dx2             tot
     1  0.093   0.021   0.031  -0.018   0.067   0.016  -0.053   0.114   0.025  -0.039  -0.158   0.489  -0.111  -0.026  -0.017   0.267   0.246   0.102   0.181   0.896
charge  0.009           0.001           0.005           0.016           0.002           0.264           0.013           0.072           0.071           0.454

band      14 # energy     0.169577 # occ.     1.000000

ion       s      py     pz     px    dxy    dyz    dz2    dxz    dx2    tot
     1  0.002  0.009  0.001  0.003  0.030  0.005  0.002  0.077  0.004  0.134