
.Version 10.1.4.5 of ABINIT, released Sep 2024.
.(MPI version, prepared for a x86_64_linux_gnu13.2 computer) 

.Copyright (C) 1998-2025 ABINIT group . 
 ABINIT comes with ABSOLUTELY NO WARRANTY.
 It is free software, and you are welcome to redistribute it
 under certain conditions (GNU General Public License,
 see ~abinit/COPYING or http://www.gnu.org/copyleft/gpl.txt).

 ABINIT is a project of the Universite Catholique de Louvain,
 Corning Inc. and other collaborators, see ~abinit/doc/developers/contributors.txt .
 Please read https://docs.abinit.org/theory/acknowledgments for suggested
 acknowledgments of the ABINIT effort.
 For more information, see https://www.abinit.org .

.Starting date : Fri 13 Sep 2024.
- ( at 19h10 )
  
- input  file    -> /home/buildbot/ABINIT3/eos_gnu_13.2_mpich/trunk_merge-10.0/tests/TestBot_MPI1/v5_t01/t01.abi
- output file    -> t01.abo
- root for input  files -> t01i
- root for output files -> t01o

 DATASET    1 : space group P1 (#  1); Bravais aP (primitive triclinic)
================================================================================
 Values of the parameters that define the memory need for DATASET  1.
     intxc =       1    ionmov =       0      iscf =       7    lmnmax =       3
     lnmax =       3     mgfft =      32  mpssoang =       3    mqgrid =    3001
     natom =       4  nloc_mem =       1    nspden =       1   nspinor =       1
    nsppol =       1      nsym =       1    n1xccc =       0    ntypat =       1
    occopt =       3   xclevel =       1
-    mband =           9        mffmem =           1         mkmem =           1
       mpw =         893          nfft =       28800          nkpt =           1
================================================================================
P This job should need less than                       9.486 Mbytes of memory.
  Rough estimation (10% accuracy) of disk space for files :
_ WF disk file :      0.125 Mbytes ; DEN or POT disk file :      0.222 Mbytes.
================================================================================

 DATASET    2 : space group P1 (#  1); Bravais aP (primitive triclinic)
================================================================================
 Values of the parameters that define the memory need for DATASET  2.
     intxc =       1    ionmov =      13      iscf =       7    lmnmax =       3
     lnmax =       3     mgfft =      32  mpssoang =       3    mqgrid =    3001
     natom =       4  nloc_mem =       1    nspden =       1   nspinor =       1
    nsppol =       1      nsym =       1    n1xccc =       0    ntypat =       1
    occopt =       3   xclevel =       1
-    mband =           9        mffmem =           1         mkmem =           1
       mpw =         893          nfft =       28800          nkpt =           1
================================================================================
P This job should need less than                       9.486 Mbytes of memory.
  Rough estimation (10% accuracy) of disk space for files :
_ WF disk file :      0.125 Mbytes ; DEN or POT disk file :      0.222 Mbytes.
================================================================================

 DATASET    3 : space group P1 (#  1); Bravais aP (primitive triclinic)
================================================================================
 Values of the parameters that define the memory need for DATASET  3.
     intxc =       1    ionmov =      13      iscf =       7    lmnmax =       3
     lnmax =       3     mgfft =      32  mpssoang =       3    mqgrid =    3001
     natom =       4  nloc_mem =       1    nspden =       1   nspinor =       1
    nsppol =       1      nsym =       1    n1xccc =       0    ntypat =       1
    occopt =       3   xclevel =       1
-    mband =           9        mffmem =           1         mkmem =           1
       mpw =         893          nfft =       28800          nkpt =           1
================================================================================
P This job should need less than                       9.486 Mbytes of memory.
  Rough estimation (10% accuracy) of disk space for files :
_ WF disk file :      0.125 Mbytes ; DEN or POT disk file :      0.222 Mbytes.
================================================================================

 DATASET    4 : space group P1 (#  1); Bravais aP (primitive triclinic)
================================================================================
 Values of the parameters that define the memory need for DATASET  4.
     intxc =       1    ionmov =      13      iscf =       7    lmnmax =       3
     lnmax =       3     mgfft =      32  mpssoang =       3    mqgrid =    3001
     natom =       4  nloc_mem =       1    nspden =       1   nspinor =       1
    nsppol =       1      nsym =       1    n1xccc =       0    ntypat =       1
    occopt =       3   xclevel =       1
-    mband =           9        mffmem =           1         mkmem =           1
       mpw =         893          nfft =       28800          nkpt =           1
================================================================================
P This job should need less than                       9.486 Mbytes of memory.
  Rough estimation (10% accuracy) of disk space for files :
_ WF disk file :      0.125 Mbytes ; DEN or POT disk file :      0.222 Mbytes.
================================================================================

 DATASET    5 : space group P1 (#  1); Bravais aP (primitive triclinic)
================================================================================
 Values of the parameters that define the memory need for DATASET  5.
     intxc =       1    ionmov =      13      iscf =       7    lmnmax =       3
     lnmax =       3     mgfft =      32  mpssoang =       3    mqgrid =    3001
     natom =       4  nloc_mem =       1    nspden =       1   nspinor =       1
    nsppol =       1      nsym =       1    n1xccc =       0    ntypat =       1
    occopt =       3   xclevel =       1
-    mband =           9        mffmem =           1         mkmem =           1
       mpw =         893          nfft =       28800          nkpt =           1
================================================================================
P This job should need less than                       9.486 Mbytes of memory.
  Rough estimation (10% accuracy) of disk space for files :
_ WF disk file :      0.125 Mbytes ; DEN or POT disk file :      0.222 Mbytes.
================================================================================

 DATASET    6 : space group P1 (#  1); Bravais aP (primitive triclinic)
================================================================================
 Values of the parameters that define the memory need for DATASET  6.
     intxc =       1    ionmov =      13      iscf =       7    lmnmax =       3
     lnmax =       3     mgfft =      32  mpssoang =       3    mqgrid =    3001
     natom =       4  nloc_mem =       1    nspden =       1   nspinor =       1
    nsppol =       1      nsym =       1    n1xccc =       0    ntypat =       1
    occopt =       3   xclevel =       1
-    mband =           9        mffmem =           1         mkmem =           1
       mpw =         893          nfft =       28800          nkpt =           1
================================================================================
P This job should need less than                       9.486 Mbytes of memory.
  Rough estimation (10% accuracy) of disk space for files :
_ WF disk file :      0.125 Mbytes ; DEN or POT disk file :      0.222 Mbytes.
================================================================================

--------------------------------------------------------------------------------
------------- Echo of variables that govern the present computation ------------
--------------------------------------------------------------------------------
-
- outvars: echo of selected default values
-   iomode0 =  0 , fftalg0 =512 , wfoptalg0 =  0
-
- outvars: echo of global parameters not present in the input file
-  max_nthreads =    0
-
 -outvars: echo values of preprocessed input variables --------
            acell      7.0000000000E+00  7.0000000000E+00  7.0000000000E+00 Bohr
              amu      2.69815390E+01
            bmass1     1.00000000E+01
            bmass2     1.00000000E+01
            bmass3     1.00000000E+01
            bmass4     1.00000000E+01
            bmass5     2.00000000E+01
            bmass6     2.00000000E+01
       chkdilatmx           0
          chkprim           0
          dilatmx      1.50000000E+00
            dtion      5.00000000E-02
             ecut      1.00000000E+01 Hartree
           ecutsm      5.00000000E-01 Hartree
           enunit           2
-          fftalg         512
           getwfk          -1
            intxc           1
           ionmov1          0
           ionmov2         13
           ionmov3         13
           ionmov4         13
           ionmov5         13
           ionmov6         13
           istwfk        2
              ixc           7
           jdtset        1    2    3    4    5    6
           kptopt           0
           mdtemp      5.00000000E+02  5.00000000E+02
P           mkmem           1
            natom           4
            nband           9
           ndtset           6
            ngfft          32      30      30
             nkpt           1
            nline           5
             nnos           3
            nstep          13
             nsym           1
            ntime           9
           ntypat           1
              occ      2.000000  2.000000  2.000000  2.000000  2.000000  2.000000
                       0.000000  0.000000  0.000000
           occopt           3
          optcell1          0
          optcell2          2
          optcell3          1
          optcell4          0
          optcell5          2
          optcell6          1
            qmass1     1.00000000E+01  1.00000000E+01  1.00000000E+01
            qmass2     1.00000000E+01  1.00000000E+01  1.00000000E+01
            qmass3     1.00000000E+01  1.00000000E+01  1.00000000E+01
            qmass4     1.00000000E+00  1.00000000E+00  1.00000000E+00
            qmass5     1.00000000E+01  1.00000000E+01  1.00000000E+01
            qmass6     1.00000000E+01  1.00000000E+01  1.00000000E+01
            rprim      1.0100000000E+00  0.0000000000E+00  0.0000000000E+00
                       0.0000000000E+00  1.0000000000E+00  2.0000000000E-02
                       3.0000000000E-02  0.0000000000E+00  1.0000000000E+00
          spgroup           1
           toldfe      1.00000000E-10 Hartree
           tsmear1     2.00000000E-03 Hartree
           tsmear2     1.00000000E-02 Hartree
           tsmear3     1.00000000E-02 Hartree
           tsmear4     1.00000000E-02 Hartree
           tsmear5     1.00000000E-02 Hartree
           tsmear6     1.00000000E-02 Hartree
            typat      1  1  1  1
           xangst      0.0000000000E+00  0.0000000000E+00  0.0000000000E+00
                       5.5119098047E-02  1.8150778255E+00  1.8736048247E+00
                       1.9337987322E+00  0.0000000000E+00  1.8558244705E+00
                       1.8856065638E+00  1.8891626347E+00  3.7783252693E-02
            xcart      0.0000000000E+00  0.0000000000E+00  0.0000000000E+00
                       1.0416000000E-01  3.4300000000E+00  3.5406000000E+00
                       3.6543500000E+00  0.0000000000E+00  3.5070000000E+00
                       3.5632800000E+00  3.5700000000E+00  7.1400000000E-02
             xred      0.0000000000E+00  0.0000000000E+00  0.0000000000E+00
                      -1.1889169026E-18  4.9000000000E-01  4.9600000000E-01
                       5.0200000000E-01  0.0000000000E+00  5.0100000000E-01
                       5.0400000000E-01  5.1000000000E-01 -2.3009372185E-18
            znucl       13.00000

================================================================================

 chkinp: Checking input parameters for consistency, jdtset=   1.

 chkinp: Checking input parameters for consistency, jdtset=   2.

 chkinp: Checking input parameters for consistency, jdtset=   3.

 chkinp: Checking input parameters for consistency, jdtset=   4.

 chkinp: Checking input parameters for consistency, jdtset=   5.

 chkinp: Checking input parameters for consistency, jdtset=   6.

================================================================================
== DATASET  1 ==================================================================
-   mpi_nproc: 1, omp_nthreads: -1 (-1 if OMP is not activated)


--- !DatasetInfo
iteration_state: {dtset: 1, }
dimensions: {natom: 4, nkpt: 1, mband: 9, nsppol: 1, nspinor: 1, nspden: 1, mpw: 893, }
cutoff_energies: {ecut:  10.0, pawecutdg:  -1.0, }
electrons: {nelect:   1.20000000E+01, charge:   0.00000000E+00, occopt:   3.00000000E+00, tsmear:   2.00000000E-03, }
meta: {optdriver: 0, ionmov: 0, optcell: 0, iscf: 7, paral_kgb: 0, }
...

 Exchange-correlation functional for the present dataset will be:
  LDA: Perdew-Wang 92 LSD fit to Ceperley-Alder data - ixc=7
 Citation for XC functional:
  J.P.Perdew and Y.Wang, PRB 45, 13244 (1992)

 Real(R)+Recip(G) space primitive vectors, cartesian coordinates (Bohr,Bohr^-1):
 R(1)=  7.0700000  0.0000000  0.0000000  G(1)=  0.1414427  0.0000849 -0.0042433
 R(2)=  0.0000000  7.0000000  0.1400000  G(2)=  0.0000000  0.1428571  0.0000000
 R(3)=  0.2100000  0.0000000  7.0000000  G(3)=  0.0000000 -0.0028571  0.1428571
 Unit cell volume ucvol=  3.4643000E+02 bohr^3
 Angles (23,13,12)=  8.88547525E+01  8.82816420E+01  9.00000000E+01 degrees

 getcut: wavevector=  0.0000  0.0000  0.0000  ngfft=  32  30  30
         ecut(hartree)=     22.500   => boxcut(ratio)=   2.00709

--- Pseudopotential description ------------------------------------------------
- pspini: atom type   1  psp file is /home/buildbot/ABINIT3/eos_gnu_13.2_mpich/trunk_merge-10.0/tests/Pspdir/13al.981214.fhi
- pspatm: opening atomic psp file    /home/buildbot/ABINIT3/eos_gnu_13.2_mpich/trunk_merge-10.0/tests/Pspdir/13al.981214.fhi
- Aluminum, fhi98PP : Hamann-type, LDA CA PerdewWang, l=2 local
- 13.00000   3.00000    981214                znucl, zion, pspdat
    6    7    2    2       493   0.00000      pspcod,pspxc,lmax,lloc,mmax,r2well
  No XC core correction.
  1.024700          amesh (Hamman grid)
  pspatm : epsatm=    1.36305739
         --- l  ekb(1:nproj) -->
             0    1.768744
             1    0.900554
 pspatm: atomic psp has been read  and splines computed

   6.54267545E+01                                ecore*ucvol(ha*bohr**3)
--------------------------------------------------------------------------------

_setup2: Arith. and geom. avg. npw (full set) are    1785.000    1785.000

================================================================================

--- !BeginCycle
iteration_state: {dtset: 1, }
solver: {iscf: 7, nstep: 13, nline: 5, wfoptalg: 0, }
tolerances: {toldfe: 1.00E-10, }
...

     iter   Etot(hartree)      deltaE(h)  residm     vres2
 ETOT  1  -8.0876120057133    -8.088E+00 2.032E-03 4.658E+00
 ETOT  2  -8.0896109301118    -1.999E-03 9.812E-05 6.410E-01
 ETOT  3  -8.0886333147851     9.776E-04 8.310E-05 1.727E+00
 ETOT  4  -8.0895163516403    -8.830E-04 1.500E-04 4.660E-01
 ETOT  5  -8.0897770920091    -2.607E-04 3.047E-05 1.181E-01
 ETOT  6  -8.0898657517861    -8.866E-05 4.648E-05 3.524E-04
 ETOT  7  -8.0898656199565     1.318E-07 6.327E-06 4.876E-04
 ETOT  8  -8.0898659520233    -3.321E-07 9.750E-06 9.411E-06
 ETOT  9  -8.0898659585270    -6.504E-09 1.219E-06 9.404E-08
 ETOT 10  -8.0898659585785    -5.150E-11 1.856E-06 2.121E-09
 ETOT 11  -8.0898659585810    -2.510E-12 2.272E-07 1.666E-11

 At SCF step   11, etot is converged : 
  for the second time, diff in etot=  2.510E-12 < toldfe=  1.000E-10

 Cartesian components of stress tensor (hartree/bohr^3)
  sigma(1 1)= -2.53033680E-03  sigma(3 2)=  1.83893374E-04
  sigma(2 2)= -7.66810290E-04  sigma(3 1)=  3.34870181E-04
  sigma(3 3)= -6.07361740E-04  sigma(2 1)= -9.55921176E-06


--- !ResultsGS
iteration_state: {dtset: 1, }
comment   : Summary of ground state results
lattice_vectors:
- [  7.0700000,   0.0000000,   0.0000000, ]
- [  0.0000000,   7.0000000,   0.1400000, ]
- [  0.2100000,   0.0000000,   7.0000000, ]
lattice_lengths: [   7.07000,    7.00140,    7.00315, ]
lattice_angles: [ 88.855,  88.282,  90.000, ] # degrees, (23, 13, 12)
lattice_volume:   3.4643000E+02
convergence: {deltae: -2.510E-12, res2:  1.666E-11, residm:  2.272E-07, diffor: null, }
etotal    :  -8.08986596E+00
entropy   :   0.00000000E+00
fermie    :   3.08166980E-01
cartesian_stress_tensor: # hartree/bohr^3
- [ -2.53033680E-03,  -9.55921176E-06,   3.34870181E-04, ]
- [ -9.55921176E-06,  -7.66810290E-04,   1.83893374E-04, ]
- [  3.34870181E-04,   1.83893374E-04,  -6.07361740E-04, ]
pressure_GPa:   3.8292E+01
xred      :
- [  0.0000E+00,   0.0000E+00,   0.0000E+00, Al]
- [ -1.1889E-18,   4.9000E-01,   4.9600E-01, Al]
- [  5.0200E-01,   0.0000E+00,   5.0100E-01, Al]
- [  5.0400E-01,   5.1000E-01,  -2.3009E-18, Al]
cartesian_forces: # hartree/bohr
- [  1.20847753E-03,  -7.29892529E-04,  -7.61639869E-04, ]
- [  1.07472620E-03,   6.44947380E-03,   1.91743808E-03, ]
- [ -9.02212281E-04,   9.46401726E-04,  -1.17202173E-03, ]
- [ -1.38099145E-03,  -6.66598299E-03,   1.62235211E-05, ]
force_length_stats: {min:   1.60413725E-03, max:   6.81375942E-03, mean:   4.24534461E-03, }
...

 Integrated electronic density in atomic spheres:
 ------------------------------------------------
 Atom  Sphere_radius  Integrated_density
    1        2.00000          1.07249494
    2        2.00000          1.07379273
    3        2.00000          1.07654686
    4        2.00000          1.06960726
================================================================================

 ----iterations are completed or convergence reached----

 Mean square residual over all n,k,spin=   25.264E-09; max=  22.723E-08
 reduced coordinates (array xred) for    4 atoms
       0.000000000000      0.000000000000      0.000000000000
      -0.000000000000      0.490000000000      0.496000000000
       0.502000000000      0.000000000000      0.501000000000
       0.504000000000      0.510000000000     -0.000000000000
 rms dE/dt=  2.0120E-02; max dE/dt=  4.6660E-02; dE/dt below (all hartree)
    1      -0.008543936144      0.005215877709      0.005077698513
    2      -0.007598314288     -0.045414757475     -0.013647759333
    3       0.006378640786     -0.006460728616      0.008393616395
    4       0.009763609492      0.046659610074      0.000176443266

 cartesian coordinates (angstrom) at end:
    1      0.00000000000000     0.00000000000000     0.00000000000000
    2      0.05511909804673     1.81507782546370     1.87360482473375
    3      1.93379873221087     0.00000000000000     1.85582447052513
    4      1.88560656382458     1.88916263466630     0.03778325269333

 cartesian forces (hartree/bohr) at end:
    1      0.00120847752553    -0.00072989252921    -0.00076163986899
    2      0.00107472620220     0.00644947379534     0.00191743807727
    3     -0.00090221228070     0.00094640172591    -0.00117202172940
    4     -0.00138099144704    -0.00666598299204     0.00001622352111
 frms,max,avg= 2.8639513E-03 6.6659830E-03   5.408E-12 -6.123E-11  4.125E-11 h/b

 cartesian forces (eV/Angstrom) at end:
    1      0.06214240768424    -0.03753257976047    -0.03916509347282
    2      0.05526463868412     0.33164524906054     0.09859862197666
    3     -0.04639361691082     0.04866592935507    -0.06026777543181
    4     -0.07101342945753    -0.34277859865514     0.00083424692797
 frms,max,avg= 1.4727028E-01 3.4277860E-01   2.781E-10 -3.149E-09  2.121E-09 e/A
 length scales=  7.000000000000  7.000000000000  7.000000000000 bohr
              =  3.704240460130  3.704240460130  3.704240460130 angstroms
 prteigrs : about to open file t01o_DS1_EIG
 Fermi (or HOMO) energy (hartree) =   0.30817   Average Vxc (hartree)=  -0.37161
 Eigenvalues (hartree) for nkpt=   1  k points:
 kpt#   1, nband=  9, wtk=  1.00000, kpt=  0.0000  0.0000  0.0000 (reduced coord)
  -0.10675    0.23515    0.24241    0.24258    0.30181    0.30785    0.30816    0.56218
   0.56336
      occupation numbers for kpt#   1
   2.00000    2.00000    2.00000    2.00000    1.91992    1.07803    1.00205    0.00000
   0.00000
 Fermi (or HOMO) energy (eV) =   8.38565   Average Vxc (eV)= -10.11216
 Eigenvalues (   eV  ) for nkpt=   1  k points:
 kpt#   1, nband=  9, wtk=  1.00000, kpt=  0.0000  0.0000  0.0000 (reduced coord)
  -2.90485    6.39877    6.59622    6.60096    8.21275    8.37714    8.38543   15.29763
  15.32994

--- !EnergyTerms
iteration_state     : {dtset: 1, }
comment             : Components of total free energy in Hartree
kinetic             :  4.29860698886540E+00
hartree             :  2.46857858381600E-02
xc                  : -3.46442086958278E+00
Ewald energy        : -1.17476608299753E+01
psp_core            :  1.88859955937541E-01
local_psp           :  6.86178058333914E-01
non_local_psp       :  1.93009023775045E+00
internal            : -8.08366067283264E+00
'-kT*entropy'       : -6.20528574833541E-03
total_energy        : -8.08986595858097E+00
total_energy_eV     : -2.20136447974894E+02
band_energy         :  2.44689752869001E+00
...


 Cartesian components of stress tensor (hartree/bohr^3)
  sigma(1 1)= -2.53033680E-03  sigma(3 2)=  1.83893374E-04
  sigma(2 2)= -7.66810290E-04  sigma(3 1)=  3.34870181E-04
  sigma(3 3)= -6.07361740E-04  sigma(2 1)= -9.55921176E-06

-Cartesian components of stress tensor (GPa)         [Pressure=  3.8292E+01 GPa]
- sigma(1 1)= -7.44450662E+01  sigma(3 2)=  5.41032893E+00
- sigma(2 2)= -2.25603338E+01  sigma(3 1)=  9.85221922E+00
- sigma(3 3)= -1.78691963E+01  sigma(2 1)= -2.81241673E-01

================================================================================
== DATASET  2 ==================================================================
-   mpi_nproc: 1, omp_nthreads: -1 (-1 if OMP is not activated)


--- !DatasetInfo
iteration_state: {dtset: 2, }
dimensions: {natom: 4, nkpt: 1, mband: 9, nsppol: 1, nspinor: 1, nspden: 1, mpw: 893, }
cutoff_energies: {ecut:  10.0, pawecutdg:  -1.0, }
electrons: {nelect:   1.20000000E+01, charge:   0.00000000E+00, occopt:   3.00000000E+00, tsmear:   1.00000000E-02, }
meta: {optdriver: 0, ionmov: 13, optcell: 2, iscf: 7, paral_kgb: 0, }
...

 mkfilename : getwfk/=0, take file _WFK from output of DATASET   1.

 Exchange-correlation functional for the present dataset will be:
  LDA: Perdew-Wang 92 LSD fit to Ceperley-Alder data - ixc=7
 Citation for XC functional:
  J.P.Perdew and Y.Wang, PRB 45, 13244 (1992)

 Real(R)+Recip(G) space primitive vectors, cartesian coordinates (Bohr,Bohr^-1):
 R(1)=  7.0700000  0.0000000  0.0000000  G(1)=  0.1414427  0.0000849 -0.0042433
 R(2)=  0.0000000  7.0000000  0.1400000  G(2)=  0.0000000  0.1428571  0.0000000
 R(3)=  0.2100000  0.0000000  7.0000000  G(3)=  0.0000000 -0.0028571  0.1428571
 Unit cell volume ucvol=  3.4643000E+02 bohr^3
 Angles (23,13,12)=  8.88547525E+01  8.82816420E+01  9.00000000E+01 degrees

 getcut: wavevector=  0.0000  0.0000  0.0000  ngfft=  32  30  30
         ecut(hartree)=     22.500   => boxcut(ratio)=   2.00709
--------------------------------------------------------------------------------

-inwffil : will read wavefunctions from disk file t01o_DS1_WFK
_setup2: Arith. and geom. avg. npw (full set) are    1785.000    1785.000

================================================================================

=== [ionmov=13] Isothermal/isenthalpic ensemble molecular dynamics          
================================================================================

--- Iteration: (1/9) Internal Cycle: (1/1)
--------------------------------------------------------------------------------

---SELF-CONSISTENT-FIELD CONVERGENCE--------------------------------------------

--- !BeginCycle
iteration_state: {dtset: 2, itime: 1, icycle: 1, }
solver: {iscf: 7, nstep: 13, nline: 5, wfoptalg: 0, }
tolerances: {toldfe: 1.00E-10, }
...

     iter   Etot(hartree)      deltaE(h)  residm     vres2
 ETOT  1  -8.1186301309485    -8.119E+00 8.781E-08 3.090E-03
 ETOT  2  -8.1186313518582    -1.221E-06 1.041E-08 1.713E-04
 ETOT  3  -8.1186314107969    -5.894E-08 7.401E-09 1.793E-05
 ETOT  4  -8.1186314186168    -7.820E-09 2.549E-09 3.562E-07
 ETOT  5  -8.1186314187643    -1.475E-10 1.831E-09 3.310E-09
 ETOT  6  -8.1186314187655    -1.275E-12 6.594E-10 1.242E-10
 ETOT  7  -8.1186314187655     4.619E-14 4.697E-10 7.360E-12

 At SCF step    7, etot is converged : 
  for the second time, diff in etot=  4.619E-14 < toldfe=  1.000E-10

 Cartesian components of stress tensor (hartree/bohr^3)
  sigma(1 1)= -1.65147947E-03  sigma(3 2)=  1.94941175E-04
  sigma(2 2)= -1.14173349E-03  sigma(3 1)=  3.08187876E-04
  sigma(3 3)= -1.11391232E-03  sigma(2 1)= -9.08433241E-06


--- !ResultsGS
iteration_state: {dtset: 2, itime: 1, icycle: 1, }
comment   : Summary of ground state results
lattice_vectors:
- [  7.0700000,   0.0000000,   0.0000000, ]
- [  0.0000000,   7.0000000,   0.1400000, ]
- [  0.2100000,   0.0000000,   7.0000000, ]
lattice_lengths: [   7.07000,    7.00140,    7.00315, ]
lattice_angles: [ 88.855,  88.282,  90.000, ] # degrees, (23, 13, 12)
lattice_volume:   3.4643000E+02
convergence: {deltae:  4.619E-14, res2:  7.360E-12, residm:  4.697E-10, diffor: null, }
etotal    :  -8.11863142E+00
entropy   :   0.00000000E+00
fermie    :   3.13005887E-01
cartesian_stress_tensor: # hartree/bohr^3
- [ -1.65147947E-03,  -9.08433241E-06,   3.08187876E-04, ]
- [ -9.08433241E-06,  -1.14173349E-03,   1.94941175E-04, ]
- [  3.08187876E-04,   1.94941175E-04,  -1.11391232E-03, ]
pressure_GPa:   3.8317E+01
xred      :
- [  0.0000E+00,   0.0000E+00,   0.0000E+00, Al]
- [ -1.1889E-18,   4.9000E-01,   4.9600E-01, Al]
- [  5.0200E-01,   0.0000E+00,   5.0100E-01, Al]
- [  5.0400E-01,   5.1000E-01,  -2.3009E-18, Al]
cartesian_forces: # hartree/bohr
- [  1.31269788E-03,  -2.45191876E-04,  -6.13152390E-04, ]
- [  1.15373736E-03,   5.75732618E-03,   1.70190874E-03, ]
- [ -8.53087980E-04,   4.45707335E-04,  -9.89944361E-04, ]
- [ -1.61334726E-03,  -5.95784164E-03,  -9.88119845E-05, ]
force_length_stats: {min:   1.38072588E-03, max:   6.17321069E-03, mean:   3.78420917E-03, }
...

 Integrated electronic density in atomic spheres:
 ------------------------------------------------
 Atom  Sphere_radius  Integrated_density
    1        2.00000          1.07190858
    2        2.00000          1.07323619
    3        2.00000          1.07601625
    4        2.00000          1.06909099

---OUTPUT-----------------------------------------------------------------------

 Cartesian coordinates (xcart) [bohr]
  0.00000000000000E+00  0.00000000000000E+00  0.00000000000000E+00
  1.04160000000000E-01  3.43000000000000E+00  3.54060000000000E+00
  3.65435000000000E+00  0.00000000000000E+00  3.50700000000000E+00
  3.56328000000000E+00  3.57000000000000E+00  7.14000000000000E-02
 Reduced coordinates (xred)
  0.00000000000000E+00  0.00000000000000E+00  0.00000000000000E+00
 -1.18891690261465E-18  4.90000000000000E-01  4.96000000000000E-01
  5.02000000000000E-01  0.00000000000000E+00  5.01000000000000E-01
  5.04000000000000E-01  5.10000000000000E-01 -2.30093721853564E-18
 Cartesian forces (fcart) [Ha/bohr]; max,rms= 5.95784E-03 2.57469E-03 (free atoms)
  1.31269787913811E-03 -2.45191876414704E-04 -6.13152390323916E-04
  1.15373735962013E-03  5.75732618357282E-03  1.70190873590950E-03
 -8.53087980099705E-04  4.45707335210553E-04 -9.89944361102227E-04
 -1.61334725865853E-03 -5.95784164236867E-03 -9.88119844833537E-05
 Gradient of E wrt nuclear positions in reduced coordinates (gred)
 -9.28077400550641E-03  1.80218446954828E-03  4.01640017764841E-03
 -8.15692313251434E-03 -4.05395505080371E-02 -1.21556459968867E-02
  6.03133201930492E-03 -2.98135913591956E-03  7.10875900353653E-03
  1.14063651187158E-02  4.17187251744083E-02  1.03048681570177E-03
 Cartesian velocities (vel) [bohr*Ha/hbar]; max,rms= 0.00000E+00 0.00000E+00 (free atoms)
  0.00000000000000E+00  0.00000000000000E+00  0.00000000000000E+00
  0.00000000000000E+00  0.00000000000000E+00  0.00000000000000E+00
  0.00000000000000E+00  0.00000000000000E+00  0.00000000000000E+00
  0.00000000000000E+00  0.00000000000000E+00  0.00000000000000E+00
 Kinetic energy of ions (ekin) [Ha]=  0.00000000000000E+00
 Scale of Primitive Cell (acell) [bohr]
  7.00000000000000E+00  7.00000000000000E+00  7.00000000000000E+00
 Real space primitive translations (rprimd) [bohr]
  7.07000000000000E+00  0.00000000000000E+00  0.00000000000000E+00
  0.00000000000000E+00  7.00000000000000E+00  1.40000000000000E-01
  2.10000000000000E-01  0.00000000000000E+00  7.00000000000000E+00
 Unitary Cell Volume (ucvol) [Bohr^3]=  3.46430000000000E+02
 Angles (23,13,12)= [degrees]
  8.88547524759832E+01  8.82816419983445E+01  9.00000000000000E+01
 Lengths [Bohr]
  7.07000000000000E+00  7.00139986002799E+00  7.00314929156876E+00
 Stress tensor in cartesian coordinates (strten) [Ha/bohr^3]
 -1.65147946594501E-03 -9.08433241354391E-06  3.08187876485108E-04
 -9.08433241354391E-06 -1.14173349210822E-03  1.94941174974063E-04
  3.08187876485108E-04  1.94941174974063E-04 -1.11391232371440E-03
 Total energy (etotal) [Ha]= -8.11863141876548E+00

--- Iteration: (2/9) Internal Cycle: (1/1)
--------------------------------------------------------------------------------

---SELF-CONSISTENT-FIELD CONVERGENCE--------------------------------------------

--- !BeginCycle
iteration_state: {dtset: 2, itime: 2, icycle: 1, }
solver: {iscf: 7, nstep: 13, nline: 5, wfoptalg: 0, }
tolerances: {toldfe: 1.00E-10, }
...

     iter   Etot(hartree)      deltaE(h)  residm     vres2
 ETOT  1  -8.1187157924274    -8.119E+00 9.858E-11 7.853E-07
 ETOT  2  -8.1187157926266    -1.992E-10 2.754E-11 3.918E-08
 ETOT  3  -8.1187157926348    -8.194E-12 2.532E-11 2.749E-09
 ETOT  4  -8.1187157926356    -8.047E-13 9.013E-12 1.541E-10

 At SCF step    4, etot is converged : 
  for the second time, diff in etot=  8.047E-13 < toldfe=  1.000E-10

 Cartesian components of stress tensor (hartree/bohr^3)
  sigma(1 1)= -1.65116813E-03  sigma(3 2)=  1.94694579E-04
  sigma(2 2)= -1.14030807E-03  sigma(3 1)=  3.07845395E-04
  sigma(3 3)= -1.11235543E-03  sigma(2 1)= -9.09988909E-06


--- !ResultsGS
iteration_state: {dtset: 2, itime: 2, icycle: 1, }
comment   : Summary of ground state results
lattice_vectors:
- [  7.0705151,   0.0000014,  -0.0000933, ]
- [ -0.0000005,   7.0003526,   0.1399460, ]
- [  0.2099229,  -0.0000608,   7.0003386, ]
lattice_lengths: [   7.07052,    7.00175,    7.00349, ]
lattice_angles: [ 88.856,  88.283,  90.000, ] # degrees, (23, 13, 12)
lattice_volume:   3.4648965E+02
convergence: {deltae: -8.047E-13, res2:  1.541E-10, residm:  9.013E-12, diffor: null, }
etotal    :  -8.11871579E+00
entropy   :   0.00000000E+00
fermie    :   3.12939047E-01
cartesian_stress_tensor: # hartree/bohr^3
- [ -1.65116813E-03,  -9.09988909E-06,   3.07845395E-04, ]
- [ -9.09988909E-06,  -1.14030807E-03,   1.94694579E-04, ]
- [  3.07845395E-04,   1.94694579E-04,  -1.11235543E-03, ]
pressure_GPa:   3.8285E+01
xred      :
- [ -1.0605E-06,  -1.6640E-06,  -1.8816E-07, Al]
- [  4.6872E-07,   4.9000E-01,   4.9600E-01, Al]
- [  5.0200E-01,   1.7641E-07,   5.0100E-01, Al]
- [  5.0400E-01,   5.1000E-01,  -7.8186E-07, Al]
cartesian_forces: # hartree/bohr
- [  1.31234205E-03,  -2.45193467E-04,  -6.13220687E-04, ]
- [  1.15298207E-03,   5.75490901E-03,   1.70059960E-03, ]
- [ -8.53748038E-04,   4.46929384E-04,  -9.89170967E-04, ]
- [ -1.61157608E-03,  -5.95664493E-03,  -9.82079504E-05, ]
force_length_stats: {min:   1.38097458E-03, max:   6.17158335E-03, mean:   3.78309641E-03, }
...

 Integrated electronic density in atomic spheres:
 ------------------------------------------------
 Atom  Sphere_radius  Integrated_density
    1        2.00000          1.07198544
    2        2.00000          1.07287765
    3        2.00000          1.07609319
    4        2.00000          1.06872648

---OUTPUT-----------------------------------------------------------------------

 Cartesian coordinates (xcart) [bohr]
 -7.53810432792923E-06 -1.16488888855298E-05 -1.54998379061607E-06
  1.04125133385617E-01  3.43013846001014E+00  3.54075122881732E+00
  3.65458587768272E+00 -2.85439800411006E-05  3.50711976265799E+00
  3.56352740163783E+00  3.57019505386338E+00  7.13202451839782E-02
 Reduced coordinates (xred)
 -1.06054583642668E-06 -1.66404459819326E-06 -1.88163239289082E-07
  4.68719459099282E-07  4.89999408278137E-01  4.96001406124122E-01
  5.02002261444411E-01  1.76414253241814E-07  5.00999563901588E-01
  5.03998330381966E-01  5.10002079352207E-01 -7.81862470250470E-07
 Cartesian forces (fcart) [Ha/bohr]; max,rms= 5.95664E-03 2.57382E-03 (free atoms)
  1.31234204629829E-03 -2.45193467090042E-04 -6.13220686721784E-04
  1.15298207267833E-03  5.75490901429510E-03  1.70059960380340E-03
 -8.53748038191077E-04  4.46929383916217E-04 -9.89170966670121E-04
 -1.61157608078554E-03 -5.95664493112127E-03 -9.82079504114973E-05
 Gradient of E wrt nuclear positions in reduced coordinates (gred)
 -9.27899117690571E-03  1.80225914717731E-03  4.01724684647595E-03
 -8.15202635067884E-03 -4.05243836293778E-02 -1.21464604699976E-02
  6.03634552156769E-03 -2.99023318504973E-03  7.10378013822814E-03
  1.13946720060169E-02  4.17123576672502E-02  1.02543348529355E-03
 Cartesian velocities (vel) [bohr*Ha/hbar]; max,rms= 3.17949E-04 1.79422E-04 (free atoms)
 -1.50757443816036E-04 -2.32971885998662E-04 -3.10006154938763E-05
  7.21834000471147E-05 -8.28469218991480E-05  1.95204333846840E-04
  3.17949044408333E-04  2.46986868051698E-05 -6.05629963106994E-05
 -2.39375000639412E-04  2.91120121092640E-04 -1.03640722042264E-04
 Kinetic energy of ions (ekin) [Ha]=  9.50009589573605E-03
 Scale of Primitive Cell (acell) [bohr]
  7.00000000000000E+00  7.00000000000000E+00  7.00000000000000E+00
 Real space primitive translations (rprimd) [bohr]
  7.07051513097408E+00  1.36069520506043E-06 -9.33027456302676E-05
 -5.00356146499694E-07  7.00035257221403E+00  1.39945984151020E-01
  2.09922921963953E-01 -6.08024762445057E-05  7.00033858082907E+00
 Unitary Cell Volume (ucvol) [Bohr^3]=  3.46489647233144E+02
 Angles (23,13,12)= [degrees]
  8.88557489913573E+01  8.82831114311323E+01  9.00000081822065E+01
 Lengths [Bohr]
  7.07051513158983E+00  7.00175128191396E+00  7.00348540964474E+00
 Stress tensor in cartesian coordinates (strten) [Ha/bohr^3]
 -1.65116812952858E-03 -9.09988909104936E-06  3.07845394849515E-04
 -9.09988909104936E-06 -1.14030806652190E-03  1.94694579366388E-04
  3.07845394849515E-04  1.94694579366388E-04 -1.11235542965303E-03
 Total energy (etotal) [Ha]= -8.11871579263562E+00

 Difference of energy with previous step (new-old):
           Absolute (Ha)=-8.43739E-05
           Relative     =-1.03926E-05

--- Iteration: (3/9) Internal Cycle: (1/1)
--------------------------------------------------------------------------------

---SELF-CONSISTENT-FIELD CONVERGENCE--------------------------------------------

--- !BeginCycle
iteration_state: {dtset: 2, itime: 3, icycle: 1, }
solver: {iscf: 7, nstep: 13, nline: 5, wfoptalg: 0, }
tolerances: {toldfe: 1.00E-10, }
...

     iter   Etot(hartree)      deltaE(h)  residm     vres2
 ETOT  1  -8.1189686929621    -8.119E+00 7.261E-11 6.517E-06
 ETOT  2  -8.1189686946145    -1.652E-09 2.557E-11 3.141E-07
 ETOT  3  -8.1189686946821    -6.758E-11 8.210E-12 9.203E-09
 ETOT  4  -8.1189686946848    -2.757E-12 5.852E-12 6.226E-10

 At SCF step    4, etot is converged : 
  for the second time, diff in etot=  2.757E-12 < toldfe=  1.000E-10

 Cartesian components of stress tensor (hartree/bohr^3)
  sigma(1 1)= -1.65023451E-03  sigma(3 2)=  1.93953934E-04
  sigma(2 2)= -1.13602455E-03  sigma(3 1)=  3.06817876E-04
  sigma(3 3)= -1.10769455E-03  sigma(2 1)= -9.14293403E-06


--- !ResultsGS
iteration_state: {dtset: 2, itime: 3, icycle: 1, }
comment   : Summary of ground state results
lattice_vectors:
- [  7.0720607,   0.0000055,  -0.0003731, ]
- [ -0.0000020,   7.0014097,   0.1397840, ]
- [  0.2096918,  -0.0002431,   7.0013536, ]
lattice_lengths: [   7.07206,    7.00280,    7.00449, ]
lattice_angles: [ 88.859,  88.288,  90.000, ] # degrees, (23, 13, 12)
lattice_volume:   3.4666857E+02
convergence: {deltae: -2.757E-12, res2:  6.226E-10, residm:  5.852E-12, diffor: null, }
etotal    :  -8.11896869E+00
entropy   :   0.00000000E+00
fermie    :   3.12738692E-01
cartesian_stress_tensor: # hartree/bohr^3
- [ -1.65023451E-03,  -9.14293403E-06,   3.06817876E-04, ]
- [ -9.14293403E-06,  -1.13602455E-03,   1.93953934E-04, ]
- [  3.06817876E-04,   1.93953934E-04,  -1.10769455E-03, ]
pressure_GPa:   3.8188E+01
xred      :
- [ -2.1208E-06,  -3.3277E-06,  -3.7640E-07, Al]
- [  9.3737E-07,   4.9000E-01,   4.9600E-01, Al]
- [  5.0200E-01,   3.5277E-07,   5.0100E-01, Al]
- [  5.0400E-01,   5.1000E-01,  -1.5636E-06, Al]
cartesian_forces: # hartree/bohr
- [  1.30991950E-03,  -2.47531103E-04,  -6.13675136E-04, ]
- [  1.15073785E-03,   5.74748396E-03,   1.69842801E-03, ]
- [ -8.53208125E-04,   4.50074204E-04,  -9.87209782E-04, ]
- [ -1.60744922E-03,  -5.95002707E-03,  -9.75430943E-05, ]
force_length_stats: {min:   1.38025869E-03, max:   6.16410819E-03, mean:   3.77864824E-03, }
...

 Integrated electronic density in atomic spheres:
 ------------------------------------------------
 Atom  Sphere_radius  Integrated_density
    1        2.00000          1.06946029
    2        2.00000          1.07263240
    3        2.00000          1.07489211
    4        2.00000          1.06849172

---OUTPUT-----------------------------------------------------------------------

 Cartesian coordinates (xcart) [bohr]
 -1.50770147403780E-05 -2.32986498183241E-05 -3.09970963602936E-06
  1.04013380924471E-01  3.43056186085329E+00  3.54118508009299E+00
  3.65526188234393E+00 -1.16590359423874E-04  3.50748480395016E+00
  3.56429366228740E+00  3.57075078955660E+00  7.10914395791314E-02
 Reduced coordinates (xred)
 -2.12075277843821E-06 -3.32771982996675E-06 -3.76404192794945E-07
  9.37367575603290E-07  4.89998816780513E-01  4.96002811955939E-01
  5.02004522141890E-01  3.52774900477499E-07  5.00999128018163E-01
  5.03996661243312E-01  5.10004158164416E-01 -1.56356990846230E-06
 Cartesian forces (fcart) [Ha/bohr]; max,rms= 5.95003E-03 2.57063E-03 (free atoms)
  1.30991950239371E-03 -2.47531102509886E-04 -6.13675136030812E-04
  1.15073784726980E-03  5.74748396364893E-03  1.69842801238804E-03
 -8.53208125248700E-04  4.50074204395184E-04 -9.87209782087368E-04
 -1.60744922441481E-03 -5.95002706553423E-03 -9.75430942698594E-05
 Gradient of E wrt nuclear positions in reduced coordinates (gred)
 -9.26405789830430E-03  1.81885122296589E-03  4.02181706996147E-03
 -8.13748564359495E-03 -4.04779005264449E-02 -1.21311980821890E-02
  6.03356889829396E-03 -3.01315942470735E-03  7.09082494144251E-03
  1.13679746436053E-02  4.16722087281864E-02  1.01855607078508E-03
 Cartesian velocities (vel) [bohr*Ha/hbar]; max,rms= 3.17892E-04 1.79394E-04 (free atoms)
 -1.50731082456108E-04 -2.32943224873023E-04 -3.10054615933076E-05
  7.21774212721800E-05 -8.28272562265561E-05  1.95182596529864E-04
  3.17892251969351E-04  2.46948500048189E-05 -6.05477620586468E-05
 -2.39338590785423E-04  2.91075631094760E-04 -1.03629372877909E-04
 Kinetic energy of ions (ekin) [Ha]=  9.49720785011024E-03
 Scale of Primitive Cell (acell) [bohr]
  7.00000000000000E+00  7.00000000000000E+00  7.00000000000000E+00
 Real space primitive translations (rprimd) [bohr]
  7.07206074042682E+00  5.45963321452662E-06 -3.73102512907000E-04
 -1.98259134654272E-06  7.00140965593541E+00  1.39784015413418E-01
  2.09691801668038E-01 -2.43116274599507E-04  7.00135361045859E+00
 Unitary Cell Volume (ucvol) [Bohr^3]=  3.46668571951191E+02
 Angles (23,13,12)= [degrees]
  8.88587364358298E+01  8.82875166757736E+01  9.00000323355997E+01
 Lengths [Bohr]
  7.07206075027085E+00  7.00280491954436E+00  7.00449306441757E+00
 Stress tensor in cartesian coordinates (strten) [Ha/bohr^3]
 -1.65023450657680E-03 -9.14293403001382E-06  3.06817875682050E-04
 -9.14293403001382E-06 -1.13602455203437E-03  1.93953934434717E-04
  3.06817875682050E-04  1.93953934434717E-04 -1.10769455472291E-03
 Total energy (etotal) [Ha]= -8.11896869468482E+00

 Difference of energy with previous step (new-old):
           Absolute (Ha)=-2.52902E-04
           Relative     =-3.11500E-05

--- Iteration: (4/9) Internal Cycle: (1/1)
--------------------------------------------------------------------------------

---SELF-CONSISTENT-FIELD CONVERGENCE--------------------------------------------

--- !BeginCycle
iteration_state: {dtset: 2, itime: 4, icycle: 1, }
solver: {iscf: 7, nstep: 13, nline: 5, wfoptalg: 0, }
tolerances: {toldfe: 1.00E-10, }
...

     iter   Etot(hartree)      deltaE(h)  residm     vres2
 ETOT  1  -8.1193889474293    -8.119E+00 4.300E-10 1.797E-05
 ETOT  2  -8.1193889520025    -4.573E-09 5.922E-11 8.642E-07
 ETOT  3  -8.1193889521892    -1.867E-10 2.286E-11 2.225E-08
 ETOT  4  -8.1193889521962    -6.967E-12 1.253E-11 1.355E-09
 ETOT  5  -8.1193889521966    -4.707E-13 3.218E-12 1.091E-10

 At SCF step    5, etot is converged : 
  for the second time, diff in etot=  4.707E-13 < toldfe=  1.000E-10

 Cartesian components of stress tensor (hartree/bohr^3)
  sigma(1 1)= -1.64869193E-03  sigma(3 2)=  1.92722328E-04
  sigma(2 2)= -1.12891449E-03  sigma(3 1)=  3.05107796E-04
  sigma(3 3)= -1.09993862E-03  sigma(2 1)= -9.22366758E-06


--- !ResultsGS
iteration_state: {dtset: 2, itime: 4, icycle: 1, }
comment   : Summary of ground state results
lattice_vectors:
- [  7.0746375,   0.0000123,  -0.0008391, ]
- [ -0.0000044,   7.0031693,   0.1395143, ]
- [  0.2093070,  -0.0005467,   7.0030430, ]
lattice_lengths: [   7.07464,    7.00456,    7.00617, ]
lattice_angles: [ 88.864,  88.295,  90.000, ] # degrees, (23, 13, 12)
lattice_volume:   3.4696672E+02
convergence: {deltae: -4.707E-13, res2:  1.091E-10, residm:  3.218E-12, diffor: null, }
etotal    :  -8.11938895E+00
entropy   :   0.00000000E+00
fermie    :   3.12405249E-01
cartesian_stress_tensor: # hartree/bohr^3
- [ -1.64869193E-03,  -9.22366758E-06,   3.05107796E-04, ]
- [ -9.22366758E-06,  -1.12891449E-03,   1.92722328E-04, ]
- [  3.05107796E-04,   1.92722328E-04,  -1.09993862E-03, ]
pressure_GPa:   3.8027E+01
xred      :
- [ -3.1803E-06,  -4.9907E-06,  -5.6480E-07, Al]
- [  1.4059E-06,   4.9000E-01,   4.9600E-01, Al]
- [  5.0201E-01,   5.2903E-07,   5.0100E-01, Al]
- [  5.0399E-01,   5.1001E-01,  -2.3450E-06, Al]
cartesian_forces: # hartree/bohr
- [  1.30547285E-03,  -2.52257450E-04,  -6.14554869E-04, ]
- [  1.14704001E-03,   5.73511220E-03,   1.69542810E-03, ]
- [ -8.51503576E-04,   4.55121382E-04,  -9.84035157E-04, ]
- [ -1.60100929E-03,  -5.93797613E-03,  -9.68380750E-05, ]
force_length_stats: {min:   1.37859312E-03, max:   6.15078603E-03, mean:   3.77090738E-03, }
...

 Integrated electronic density in atomic spheres:
 ------------------------------------------------
 Atom  Sphere_radius  Integrated_density
    1        2.00000          1.06804112
    2        2.00000          1.07208812
    3        2.00000          1.07334845
    4        2.00000          1.06796005

---OUTPUT-----------------------------------------------------------------------

 Cartesian coordinates (xcart) [bohr]
 -2.26176052249114E-05 -3.49501356642813E-05 -4.64888918768712E-06
  1.03824939058614E-01  3.43126940815747E+00  3.54190061135883E+00
  3.65637851340922E+00 -2.63973669682061E-04  3.50809421690259E+00
  3.56557913551087E+00  3.57166626077223E+00  7.07138684511561E-02
 Reduced coordinates (xred)
 -3.18029178164434E-06 -4.99065543458933E-06 -5.64795868858752E-07
  1.40586489861227E-06  4.89998225689014E-01  4.96004217192414E-01
  5.02006781352144E-01  5.29025260056345E-07  5.00998692571280E-01
  5.03994993074738E-01  5.10006235941160E-01 -2.34496782558652E-06
 Cartesian forces (fcart) [Ha/bohr]; max,rms= 5.93798E-03 2.56515E-03 (free atoms)
  1.30547285314193E-03 -2.52257450137575E-04 -6.14554868600562E-04
  1.14704001110305E-03  5.73511219563696E-03  1.69542810033013E-03
 -8.51503575744310E-04  4.55121382235018E-04 -9.84035156734807E-04
 -1.60100928850066E-03 -5.93797612773440E-03 -9.68380749947629E-05
 Gradient of E wrt nuclear positions in reduced coordinates (gred)
 -9.23625971520063E-03  1.85234658793512E-03  4.03037166060048E-03
 -8.11354046279334E-03 -4.04004934021331E-02 -1.21101041378582E-02
  6.02324781364272E-03 -3.05000884621169E-03  7.06971490926379E-03
  1.13265523643513E-02  4.15981556604097E-02  1.01001756799394E-03
 Cartesian velocities (vel) [bohr*Ha/hbar]; max,rms= 3.17780E-04 1.79341E-04 (free atoms)
 -1.50679700554671E-04 -2.32885702936812E-04 -3.10145151636889E-05
  7.21642786509732E-05 -8.27938105579325E-05  1.95137435672595E-04
  3.17779554400632E-04  2.46867327119519E-05 -6.05163248521365E-05
 -2.39264132496934E-04  2.90992780782793E-04 -1.03606595656770E-04
 Kinetic energy of ions (ekin) [Ha]=  9.49152187915191E-03
 Scale of Primitive Cell (acell) [bohr]
  7.00000000000000E+00  7.00000000000000E+00  7.00000000000000E+00
 Real space primitive translations (rprimd) [bohr]
  7.07463747769537E+00  1.23449457631926E-05 -8.39072928607147E-04
 -4.39259012483666E-06  7.00316934577942E+00  1.39514331202439E-01
  2.09306981346104E-01 -5.46659649448110E-04  7.00304295284566E+00
 Unitary Cell Volume (ucvol) [Bohr^3]=  3.46966722805392E+02
 Angles (23,13,12)= [degrees]
  8.88637084948396E+01  8.82948485643769E+01  9.00000713208915E+01
 Lengths [Bohr]
  7.07463752746440E+00  7.00455888220626E+00  7.00617015998600E+00
 Stress tensor in cartesian coordinates (strten) [Ha/bohr^3]
 -1.64869192726070E-03 -9.22366758053462E-06  3.05107796076703E-04
 -9.22366758053462E-06 -1.12891448929524E-03  1.92722328341833E-04
  3.05107796076703E-04  1.92722328341833E-04 -1.09993861909163E-03
 Total energy (etotal) [Ha]= -8.11938895219664E+00

 Difference of energy with previous step (new-old):
           Absolute (Ha)=-4.20258E-04
           Relative     =-5.17611E-05

--- Iteration: (5/9) Internal Cycle: (1/1)
--------------------------------------------------------------------------------

---SELF-CONSISTENT-FIELD CONVERGENCE--------------------------------------------

--- !BeginCycle
iteration_state: {dtset: 2, itime: 5, icycle: 1, }
solver: {iscf: 7, nstep: 13, nline: 5, wfoptalg: 0, }
tolerances: {toldfe: 1.00E-10, }
...

     iter   Etot(hartree)      deltaE(h)  residm     vres2
 ETOT  1  -8.1199746210492    -8.120E+00 6.137E-10 3.500E-05
 ETOT  2  -8.1199746299795    -8.930E-09 9.979E-11 1.675E-06
 ETOT  3  -8.1199746303446    -3.651E-10 3.398E-11 3.358E-08
 ETOT  4  -8.1199746303540    -9.482E-12 2.133E-11 1.057E-09
 ETOT  5  -8.1199746303544    -3.695E-13 4.742E-12 9.407E-11

 At SCF step    5, etot is converged : 
  for the second time, diff in etot=  3.695E-13 < toldfe=  1.000E-10

 Cartesian components of stress tensor (hartree/bohr^3)
  sigma(1 1)= -1.64656342E-03  sigma(3 2)=  1.91004173E-04
  sigma(2 2)= -1.11903794E-03  sigma(3 1)=  3.02718163E-04
  sigma(3 3)= -1.08910500E-03  sigma(2 1)= -9.36258570E-06


--- !ResultsGS
iteration_state: {dtset: 2, itime: 5, icycle: 1, }
comment   : Summary of ground state results
lattice_vectors:
- [  7.0782464,   0.0000221,  -0.0014907, ]
- [ -0.0000076,   7.0056285,   0.1391373, ]
- [  0.2087690,  -0.0009710,   7.0054030, ]
lattice_lengths: [   7.07825,    7.00701,    7.00851, ]
lattice_angles: [ 88.871,  88.305,  90.000, ] # degrees, (23, 13, 12)
lattice_volume:   3.4738401E+02
convergence: {deltae: -3.695E-13, res2:  9.407E-11, residm:  4.742E-12, diffor: null, }
etotal    :  -8.11997463E+00
entropy   :   0.00000000E+00
fermie    :   3.11939423E-01
cartesian_stress_tensor: # hartree/bohr^3
- [ -1.64656342E-03,  -9.36258570E-06,   3.02718163E-04, ]
- [ -9.36258570E-06,  -1.11903794E-03,   1.91004173E-04, ]
- [  3.02718163E-04,   1.91004173E-04,  -1.08910500E-03, ]
pressure_GPa:   3.7803E+01
xred      :
- [ -4.2388E-06,  -6.6525E-06,  -7.5341E-07, Al]
- [  1.8741E-06,   4.9000E-01,   4.9601E-01, Al]
- [  5.0201E-01,   7.0511E-07,   5.0100E-01, Al]
- [  5.0399E-01,   5.1001E-01,  -3.1259E-06, Al]
cartesian_forces: # hartree/bohr
- [  1.29898610E-03,  -2.59343652E-04,  -6.15823185E-04, ]
- [  1.14188183E-03,   5.71779559E-03,   1.69158836E-03, ]
- [ -8.48611170E-04,   4.62140981E-04,  -9.79699901E-04, ]
- [ -1.59225676E-03,  -5.92059292E-03,  -9.60652713E-05, ]
force_length_stats: {min:   1.37605491E-03, max:   6.13171515E-03, mean:   3.75991725E-03, }
...

 Integrated electronic density in atomic spheres:
 ------------------------------------------------
 Atom  Sphere_radius  Integrated_density
    1        2.00000          1.06766882
    2        2.00000          1.07124815
    3        2.00000          1.07291809
    4        2.00000          1.06760449

---OUTPUT-----------------------------------------------------------------------

 Cartesian coordinates (xcart) [bohr]
 -3.01607520728545E-05 -4.66041858018271E-05 -6.19723560753346E-06
  1.03560138421199E-01  3.43225978245806E+00  3.54289624976114E+00
  3.65793660587804E+00 -4.70415161219460E-04  3.50894648933885E+00
  3.56738441746341E+00  3.57293989624161E+00  7.01880085768365E-02
 Reduced coordinates (xred)
 -4.23883433987124E-06 -6.65248290298533E-06 -7.53410699793532E-07
  1.87413168138070E-06  4.89997635184501E-01  4.96005621532097E-01
  5.02009038336311E-01  7.05108957877012E-07  5.00998257781119E-01
  5.03993326366347E-01  5.10008312189444E-01 -3.12590251627785E-06
 Cartesian forces (fcart) [Ha/bohr]; max,rms= 5.92059E-03 2.55741E-03 (free atoms)
  1.29898610396454E-03 -2.59343651617189E-04 -6.15823184666981E-04
  1.14188182753141E-03  5.71779559171300E-03  1.69158835742829E-03
 -8.48611170383080E-04  4.62140981047682E-04 -9.79699901444677E-04
 -1.59225676111286E-03 -5.92059292114350E-03 -9.60652713166316E-05
 Gradient of E wrt nuclear positions in reduced coordinates (gred)
 -9.19545601094755E-03  1.90255917998463E-03  4.04264972709582E-03
 -8.08012575009585E-03 -4.02921059708996E-02 -1.20830960291708E-02
  6.00520836651592E-03 -3.10128166849089E-03  7.04080512671975E-03
  1.12703733945275E-02  4.14908284594059E-02  9.99641175355182E-04
 Cartesian velocities (vel) [bohr*Ha/hbar]; max,rms= 3.17611E-04 1.79261E-04 (free atoms)
 -1.50603309851871E-04 -2.32799419207682E-04 -3.10277458035119E-05
  7.21439489169257E-05 -8.27466466619946E-05  1.95068940529065E-04
  3.17610992192148E-04  2.46743525191605E-05 -6.04687609233795E-05
 -2.39151631257203E-04  2.90871713350516E-04 -1.03572433802174E-04
 Kinetic energy of ions (ekin) [Ha]=  9.48304601077552E-03
 Scale of Primitive Cell (acell) [bohr]
  7.00000000000000E+00  7.00000000000000E+00  7.00000000000000E+00
 Real space primitive translations (rprimd) [bohr]
  7.07824643148194E+00  2.21022850802541E-05 -1.49066830563982E-03
 -7.63475449125901E-06  7.00562847390441E+00  1.39137327697807E-01
  2.08769032792621E-01 -9.70962337562992E-04  7.00540304419147E+00
 Unitary Cell Volume (ucvol) [Bohr^3]=  3.47384014106647E+02
 Angles (23,13,12)= [degrees]
  8.88706546542643E+01  8.83050918139717E+01  9.00001231554157E+01
 Lengths [Bohr]
  7.07824658848272E+00  7.00701002642335E+00  7.00851319920196E+00
 Stress tensor in cartesian coordinates (strten) [Ha/bohr^3]
 -1.64656342321667E-03 -9.36258569611546E-06  3.02718162540559E-04
 -9.36258569611546E-06 -1.11903793890825E-03  1.91004173466044E-04
  3.02718162540559E-04  1.91004173466044E-04 -1.08910499883599E-03
 Total energy (etotal) [Ha]= -8.11997463035441E+00

 Difference of energy with previous step (new-old):
           Absolute (Ha)=-5.85678E-04
           Relative     =-7.21307E-05

--- Iteration: (6/9) Internal Cycle: (1/1)
--------------------------------------------------------------------------------

---SELF-CONSISTENT-FIELD CONVERGENCE--------------------------------------------

--- !BeginCycle
iteration_state: {dtset: 2, itime: 6, icycle: 1, }
solver: {iscf: 7, nstep: 13, nline: 5, wfoptalg: 0, }
tolerances: {toldfe: 1.00E-10, }
...

     iter   Etot(hartree)      deltaE(h)  residm     vres2
 ETOT  1  -8.1207230276523    -8.121E+00 9.098E-10 5.755E-05
 ETOT  2  -8.1207230423723    -1.472E-08 1.635E-10 2.754E-06
 ETOT  3  -8.1207230429738    -6.015E-10 7.748E-11 5.425E-08
 ETOT  4  -8.1207230429892    -1.544E-11 2.759E-11 1.648E-09
 ETOT  5  -8.1207230429899    -7.319E-13 8.636E-12 1.403E-10

 At SCF step    5, etot is converged : 
  for the second time, diff in etot=  7.319E-13 < toldfe=  1.000E-10

 Cartesian components of stress tensor (hartree/bohr^3)
  sigma(1 1)= -1.64387812E-03  sigma(3 2)=  1.88795561E-04
  sigma(2 2)= -1.10639297E-03  sigma(3 1)=  2.99619578E-04
  sigma(3 3)= -1.07524142E-03  sigma(2 1)= -9.53299301E-06


--- !ResultsGS
iteration_state: {dtset: 2, itime: 6, icycle: 1, }
comment   : Summary of ground state results
lattice_vectors:
- [  7.0828891,   0.0000349,  -0.0023271, ]
- [ -0.0000116,   7.0087826,   0.1386536, ]
- [  0.2080788,  -0.0015154,   7.0084289, ]
lattice_lengths: [   7.08289,    7.01015,    7.01152, ]
lattice_angles: [ 88.880,  88.318,  90.000, ] # degrees, (23, 13, 12)
lattice_volume:   3.4792033E+02
convergence: {deltae: -7.319E-13, res2:  1.403E-10, residm:  8.636E-12, diffor: null, }
etotal    :  -8.12072304E+00
entropy   :   0.00000000E+00
fermie    :   3.11342207E-01
cartesian_stress_tensor: # hartree/bohr^3
- [ -1.64387812E-03,  -9.53299301E-06,   2.99619578E-04, ]
- [ -9.53299301E-06,  -1.10639297E-03,   1.88795561E-04, ]
- [  2.99619578E-04,   1.88795561E-04,  -1.07524142E-03, ]
pressure_GPa:   3.7517E+01
xred      :
- [ -5.2961E-06,  -8.3128E-06,  -9.4232E-07, Al]
- [  2.3421E-06,   4.9000E-01,   4.9601E-01, Al]
- [  5.0201E-01,   8.8097E-07,   5.0100E-01, Al]
- [  5.0399E-01,   5.1001E-01,  -3.9062E-06, Al]
cartesian_forces: # hartree/bohr
- [  1.29047050E-03,  -2.68838969E-04,  -6.17486345E-04, ]
- [  1.13527105E-03,   5.69561863E-03,   1.68692762E-03, ]
- [ -8.44532973E-04,   4.71145960E-04,  -9.74229278E-04, ]
- [ -1.58120858E-03,  -5.89792562E-03,  -9.52119967E-05, ]
force_length_stats: {min:   1.37271160E-03, max:   6.10694789E-03, mean:   3.74574822E-03, }
...

 Integrated electronic density in atomic spheres:
 ------------------------------------------------
 Atom  Sphere_radius  Integrated_density
    1        2.00000          1.06786247
    2        2.00000          1.07150631
    3        2.00000          1.07133090
    4        2.00000          1.06740842

---OUTPUT-----------------------------------------------------------------------

 Cartesian coordinates (xcart) [bohr]
 -3.77073351452643E-05 -5.82616195619000E-05 -7.74446431916750E-06
  1.03219451255935E-01  3.43353115026815E+00  3.54416978942677E+00
  3.65993733739522E+00 -7.35515894687312E-04  3.51003950239212E+00
  3.56971035908267E+00  3.57456951700402E+00  6.95145301408806E-02
 Reduced coordinates (xred)
 -5.29605273467382E-06 -8.31283632616041E-06 -9.42320258106503E-07
  2.34208774366009E-06  4.89997045446327E-01  4.96007024675911E-01
  5.02011292357658E-01  8.80970066549203E-07  5.00997823865791E-01
  5.03991661607333E-01  5.10010386419932E-01 -3.90622144484722E-06
 Cartesian forces (fcart) [Ha/bohr]; max,rms= 5.89793E-03 2.54743E-03 (free atoms)
  1.29047050459607E-03 -2.68838969192219E-04 -6.17486344590811E-04
  1.13527104687097E-03  5.69561862851457E-03  1.68692761910044E-03
 -8.44532973468882E-04  4.71145959676359E-04 -9.74229277798225E-04
 -1.58120857799816E-03 -5.89792561899871E-03 -9.52119967114079E-05
 Gradient of E wrt nuclear positions in reduced coordinates (gred)
 -9.14168711573188E-03  1.96986549536498E-03  4.05868224337474E-03
 -8.03727187795836E-03 -4.01532383164410E-02 -1.20503071097706E-02
  5.97944985061792E-03 -3.16708902323141E-03  7.00425994468011E-03
  1.11995091430723E-02  4.13504618443074E-02  9.87364921715743E-04
 Cartesian velocities (vel) [bohr*Ha/hbar]; max,rms= 3.17387E-04 1.79154E-04 (free atoms)
 -1.50501926187452E-04 -2.32684520021064E-04 -3.10451079706994E-05
  7.21163982142084E-05 -8.26858536431672E-05  1.94977245394105E-04
  3.17386625020116E-04  2.46577343501715E-05 -6.04051851785706E-05
 -2.39001097046873E-04  2.90712639314060E-04 -1.03526952244835E-04
 Kinetic energy of ions (ekin) [Ha]=  9.47179214987236E-03
 Scale of Primitive Cell (acell) [bohr]
  7.00000000000000E+00  7.00000000000000E+00  7.00000000000000E+00
 Real space primitive translations (rprimd) [bohr]
  7.08288914136412E+00  3.48674349529106E-05 -2.32712061661305E-03
 -1.15594749024638E-05  7.00878263142856E+00  1.38653560565325E-01
  2.08078759941097E-01 -1.51536440340674E-03  7.00842888693124E+00
 Unitary Cell Volume (ucvol) [Bohr^3]=  3.47920326215765E+02
 Angles (23,13,12)= [degrees]
  8.88795602150948E+01  8.83182250143350E+01  9.00001848153475E+01
 Lengths [Bohr]
  7.08288952374381E+00  7.01015397723942E+00  7.01151727729741E+00
 Stress tensor in cartesian coordinates (strten) [Ha/bohr^3]
 -1.64387811718268E-03 -9.53299301179038E-06  2.99619578324187E-04
 -9.53299301179038E-06 -1.10639296679140E-03  1.88795561339454E-04
  2.99619578324187E-04  1.88795561339454E-04 -1.07524141585238E-03
 Total energy (etotal) [Ha]= -8.12072304298994E+00

 Difference of energy with previous step (new-old):
           Absolute (Ha)=-7.48413E-04
           Relative     =-9.21651E-05

--- Iteration: (7/9) Internal Cycle: (1/1)
--------------------------------------------------------------------------------

---SELF-CONSISTENT-FIELD CONVERGENCE--------------------------------------------

--- !BeginCycle
iteration_state: {dtset: 2, itime: 7, icycle: 1, }
solver: {iscf: 7, nstep: 13, nline: 5, wfoptalg: 0, }
tolerances: {toldfe: 1.00E-10, }
...

     iter   Etot(hartree)      deltaE(h)  residm     vres2
 ETOT  1  -8.1216307624891    -8.122E+00 8.469E-10 8.543E-05
 ETOT  2  -8.1216307844014    -2.191E-08 2.119E-10 4.089E-06
 ETOT  3  -8.1216307852972    -8.958E-10 8.459E-11 7.967E-08
 ETOT  4  -8.1216307853200    -2.277E-11 3.859E-11 2.290E-09
 ETOT  5  -8.1216307853207    -7.532E-13 1.161E-11 1.802E-10

 At SCF step    5, etot is converged : 
  for the second time, diff in etot=  7.532E-13 < toldfe=  1.000E-10

 Cartesian components of stress tensor (hartree/bohr^3)
  sigma(1 1)= -1.64065458E-03  sigma(3 2)=  1.86098698E-04
  sigma(2 2)= -1.09102007E-03  sigma(3 1)=  2.95805558E-04
  sigma(3 3)= -1.05838980E-03  sigma(2 1)= -9.72175135E-06


--- !ResultsGS
iteration_state: {dtset: 2, itime: 7, icycle: 1, }
comment   : Summary of ground state results
lattice_vectors:
- [  7.0885676,   0.0000508,  -0.0033474, ]
- [ -0.0000160,   7.0126261,   0.1380638, ]
- [  0.2072372,  -0.0021790,   7.0121141, ]
lattice_lengths: [   7.08857,    7.01399,    7.01518, ]
lattice_angles: [ 88.890,  88.334,  90.000, ] # degrees, (23, 13, 12)
lattice_volume:   3.4857550E+02
convergence: {deltae: -7.532E-13, res2:  1.802E-10, residm:  1.161E-11, diffor: null, }
etotal    :  -8.12163079E+00
entropy   :   0.00000000E+00
fermie    :   3.10614875E-01
cartesian_stress_tensor: # hartree/bohr^3
- [ -1.64065458E-03,  -9.72175135E-06,   2.95805558E-04, ]
- [ -9.72175135E-06,  -1.09102007E-03,   1.86098698E-04, ]
- [  2.95805558E-04,   1.86098698E-04,  -1.05838980E-03, ]
pressure_GPa:   3.7169E+01
xred      :
- [ -6.3516E-06,  -9.9714E-06,  -1.1316E-06, Al]
- [  2.8097E-06,   4.9000E-01,   4.9601E-01, Al]
- [  5.0201E-01,   1.0566E-06,   5.0100E-01, Al]
- [  5.0399E-01,   5.1001E-01,  -4.6858E-06, Al]
cartesian_forces: # hartree/bohr
- [  1.27995238E-03,  -2.80776502E-04,  -6.19550668E-04, ]
- [  1.12722895E-03,   5.66866342E-03,   1.68146805E-03, ]
- [ -8.39284139E-04,   4.82176925E-04,  -9.67652438E-04, ]
- [ -1.56789719E-03,  -5.87006385E-03,  -9.42649486E-05, ]
force_length_stats: {min:   1.36866493E-03, max:   6.07658103E-03, mean:   3.72849827E-03, }
...

 Integrated electronic density in atomic spheres:
 ------------------------------------------------
 Atom  Sphere_radius  Integrated_density
    1        2.00000          1.06643247
    2        2.00000          1.06870853
    3        2.00000          1.06755475
    4        2.00000          1.06632839

---OUTPUT-----------------------------------------------------------------------

 Cartesian coordinates (xcart) [bohr]
 -4.52582390765997E-05 -6.99232293866081E-05 -9.29029395093276E-06
  1.02803495642100E-01  3.43508115666249E+00  3.54571839835942E+00
  3.66238224749806E+00 -1.05876157494024E-03  3.51137054632845E+00
  3.57255806531293E+00  3.57655231696658E+00  6.86943130810770E-02
 Reduced coordinates (xred)
 -6.35162028086887E-06 -9.97135323580481E-06 -1.13159497257734E-06
  2.80965233116715E-06  4.89996456651864E-01  4.96008426327937E-01
  5.02013542682273E-01  1.05655324348903E-06  5.00997391040656E-01
  5.03989999285677E-01  5.10012458148128E-01 -4.68577362149495E-06
 Cartesian forces (fcart) [Ha/bohr]; max,rms= 5.87006E-03 2.53526E-03 (free atoms)
  1.27995237968630E-03 -2.80776502129700E-04 -6.19550668378465E-04
  1.12722894701600E-03  5.66866342409278E-03  1.68146805463431E-03
 -8.39284139496398E-04  4.82176924648010E-04 -9.67652437658997E-04
 -1.56789718720589E-03 -5.87006384661109E-03 -9.42649485968478E-05
 Gradient of E wrt nuclear positions in reduced coordinates (gred)
 -9.07508861042619E-03  2.05453858235611E-03  4.07849435907547E-03
 -7.98509805925509E-03 -3.99843491206826E-02 -1.20118975061961E-02
  5.94605873536630E-03 -3.24774219326938E-03  6.96027084214620E-03
  1.11141279343150E-02  4.11775527315958E-02  9.73132304974378E-04
 Cartesian velocities (vel) [bohr*Ha/hbar]; max,rms= 3.17107E-04 1.79022E-04 (free atoms)
 -1.50375569399473E-04 -2.32541198810174E-04 -3.10665408015228E-05
  7.20815817838537E-05 -8.26115477954885E-05  1.94862529237369E-04
  3.17106531556898E-04  2.46369105135635E-05 -6.03257514505113E-05
 -2.38812543941279E-04  2.90515836092099E-04 -1.03470236985334E-04
 Kinetic energy of ions (ekin) [Ha]=  9.45777603726285E-03
 Scale of Primitive Cell (acell) [bohr]
  7.00000000000000E+00  7.00000000000000E+00  7.00000000000000E+00
 Real space primitive translations (rprimd) [bohr]
  7.08856761215101E+00  5.08099697753287E-05 -3.34741456629612E-03
 -1.59788348036183E-05  7.01262614647902E+00  1.38063752365395E-01
  2.07237222893584E-01 -2.17900951241196E-03  7.01211405633229E+00
 Unitary Cell Volume (ucvol) [Bohr^3]=  3.48575504142664E+02
 Angles (23,13,12)= [degrees]
  8.88904062195106E+01  8.83342202805359E+01  9.00002525027448E+01
 Lengths [Bohr]
  7.08856840270320E+00  7.01398510621842E+00  7.01517608857026E+00
 Stress tensor in cartesian coordinates (strten) [Ha/bohr^3]
 -1.64065457576901E-03 -9.72175134564222E-06  2.95805557943544E-04
 -9.72175134564222E-06 -1.09102006730425E-03  1.86098697875056E-04
  2.95805557943544E-04  1.86098697875056E-04 -1.05838980136024E-03
 Total energy (etotal) [Ha]= -8.12163078532071E+00

 Difference of energy with previous step (new-old):
           Absolute (Ha)=-9.07742E-04
           Relative     =-1.11775E-04

--- Iteration: (8/9) Internal Cycle: (1/1)
--------------------------------------------------------------------------------

---SELF-CONSISTENT-FIELD CONVERGENCE--------------------------------------------

--- !BeginCycle
iteration_state: {dtset: 2, itime: 8, icycle: 1, }
solver: {iscf: 7, nstep: 13, nline: 5, wfoptalg: 0, }
tolerances: {toldfe: 1.00E-10, }
...

     iter   Etot(hartree)      deltaE(h)  residm     vres2
 ETOT  1  -8.1226937024474    -8.123E+00 1.091E-09 1.184E-04
 ETOT  2  -8.1226937329147    -3.047E-08 2.531E-10 5.670E-06
 ETOT  3  -8.1226937341606    -1.246E-09 1.065E-10 1.095E-07
 ETOT  4  -8.1226937341919    -3.135E-11 4.170E-11 3.028E-09
 ETOT  5  -8.1226937341930    -1.076E-12 1.366E-11 2.232E-10

 At SCF step    5, etot is converged : 
  for the second time, diff in etot=  1.076E-12 < toldfe=  1.000E-10

 Cartesian components of stress tensor (hartree/bohr^3)
  sigma(1 1)= -1.63685311E-03  sigma(3 2)=  1.82925659E-04
  sigma(2 2)= -1.07296729E-03  sigma(3 1)=  2.91312791E-04
  sigma(3 3)= -1.03857460E-03  sigma(2 1)= -9.89571398E-06


--- !ResultsGS
iteration_state: {dtset: 2, itime: 8, icycle: 1, }
comment   : Summary of ground state results
lattice_vectors:
- [  7.0952843,   0.0000701,  -0.0045503, ]
- [ -0.0000207,   7.0171521,   0.1373688, ]
- [  0.2062457,  -0.0029608,   7.0164507, ]
lattice_lengths: [   7.09529,    7.01850,    7.01948, ]
lattice_angles: [ 88.903,  88.353,  90.000, ] # degrees, (23, 13, 12)
lattice_volume:   3.4934936E+02
convergence: {deltae: -1.076E-12, res2:  2.232E-10, residm:  1.366E-11, diffor: null, }
etotal    :  -8.12269373E+00
entropy   :   0.00000000E+00
fermie    :   3.09758990E-01
cartesian_stress_tensor: # hartree/bohr^3
- [ -1.63685311E-03,  -9.89571398E-06,   2.91312791E-04, ]
- [ -9.89571398E-06,  -1.07296729E-03,   1.82925659E-04, ]
- [  2.91312791E-04,   1.82925659E-04,  -1.03857460E-03, ]
pressure_GPa:   3.6761E+01
xred      :
- [ -7.4052E-06,  -1.1628E-05,  -1.3213E-06, Al]
- [  3.2767E-06,   4.9000E-01,   4.9601E-01, Al]
- [  5.0202E-01,   1.2318E-06,   5.0100E-01, Al]
- [  5.0399E-01,   5.1001E-01,  -5.4644E-06, Al]
cartesian_forces: # hartree/bohr
- [  1.26745908E-03,  -2.95196769E-04,  -6.22019444E-04, ]
- [  1.11777463E-03,   5.63703250E-03,   1.67523500E-03, ]
- [ -8.32879753E-04,   4.95279869E-04,  -9.60009733E-04, ]
- [ -1.55235396E-03,  -5.83711560E-03,  -9.32058230E-05, ]
force_length_stats: {min:   1.36404161E-03, max:   6.04072915E-03, mean:   3.70828655E-03, }
...

 Integrated electronic density in atomic spheres:
 ------------------------------------------------
 Atom  Sphere_radius  Integrated_density
    1        2.00000          1.06173891
    2        2.00000          1.06794174
    3        2.00000          1.06388702
    4        2.00000          1.06547739

---OUTPUT-----------------------------------------------------------------------

 Cartesian coordinates (xcart) [bohr]
 -5.28143544779680E-05 -8.15897740642511E-05 -1.08344473169034E-05
  1.02313037438970E-01  3.43690692661595E+00  3.54753861905767E+00
  3.66527324697857E+00 -1.43952430963126E-03  3.51293632525829E+00
  3.57592889467820E+00  3.57888485780880E+00  6.77284561032006E-02
 Reduced coordinates (xred)
 -7.40521157366307E-06 -1.16276754424294E-05 -1.32130384312018E-06
  3.27674397005339E-06  4.89995868976037E-01  4.96009826196178E-01
  5.02015788579752E-01  1.23180387552019E-06  5.00996959517632E-01
  5.03988339887852E-01  5.10014526895529E-01 -5.46440996733778E-06
 Cartesian forces (fcart) [Ha/bohr]; max,rms= 5.83712E-03 2.52097E-03 (free atoms)
  1.26745907765475E-03 -2.95196768721914E-04 -6.22019443816105E-04
  1.11777463141569E-03  5.63703250262246E-03  1.67523499938421E-03
 -8.32879753470417E-04  4.95279868687202E-04 -9.60009732545879E-04
 -1.55235395560002E-03 -5.83711560258774E-03 -9.32058230222232E-05
 Gradient of E wrt nuclear positions in reduced coordinates (gred)
 -8.99579217970135E-03  2.15691288725481E-03  4.10208668208915E-03
 -7.92370133495550E-03 -3.97860162713810E-02 -1.19680496925655E-02
  5.90511561649554E-03 -3.34359599865724E-03  6.90910531061068E-03
  1.10143778981613E-02  4.09726993827834E-02  9.56857699865616E-04
 Cartesian velocities (vel) [bohr*Ha/hbar]; max,rms= 3.16771E-04 1.78863E-04 (free atoms)
 -1.50224263634403E-04 -2.32369696483327E-04 -3.10919678856902E-05
  7.20394435396814E-05 -8.25238724604567E-05  1.94725015258498E-04
  3.16770809568170E-04  2.46119212243870E-05 -6.02306528035069E-05
 -2.38585989473449E-04  2.90281647719397E-04 -1.03402394569301E-04
 Kinetic energy of ions (ekin) [Ha]=  9.44101721584682E-03
 Scale of Primitive Cell (acell) [bohr]
  7.00000000000000E+00  7.00000000000000E+00  7.00000000000000E+00
 Real space primitive translations (rprimd) [bohr]
  7.09528432093164E+00  7.01251402717799E-05 -4.55027465468507E-03
 -2.06744093728580E-05  7.01715208223788E+00  1.37368797438046E-01
  2.06245749542028E-01 -2.96084030885594E-03  7.01645069692720E+00
 Unitary Cell Volume (ucvol) [Bohr^3]=  3.49349355923748E+02
 Angles (23,13,12)= [degrees]
  8.89031694276293E+01  8.83530431163090E+01  9.00003217856248E+01
 Lengths [Bohr]
  7.09528578034566E+00  7.01849652932823E+00  7.01948192234937E+00
 Stress tensor in cartesian coordinates (strten) [Ha/bohr^3]
 -1.63685310627853E-03 -9.89571398432519E-06  2.91312791239849E-04
 -9.89571398432519E-06 -1.07296728804208E-03  1.82925659115008E-04
  2.91312791239849E-04  1.82925659115008E-04 -1.03857460459907E-03
 Total energy (etotal) [Ha]= -8.12269373419300E+00

 Difference of energy with previous step (new-old):
           Absolute (Ha)=-1.06295E-03
           Relative     =-1.30870E-04

--- Iteration: (9/9) Internal Cycle: (1/1)
--------------------------------------------------------------------------------

---SELF-CONSISTENT-FIELD CONVERGENCE--------------------------------------------

--- !BeginCycle
iteration_state: {dtset: 2, itime: 9, icycle: 1, }
solver: {iscf: 7, nstep: 13, nline: 5, wfoptalg: 0, }
tolerances: {toldfe: 1.00E-10, }
...

     iter   Etot(hartree)      deltaE(h)  residm     vres2
 ETOT  1  -8.1239070367178    -8.124E+00 1.040E-09 1.563E-04
 ETOT  2  -8.1239070770542    -4.034E-08 2.890E-10 7.486E-06
 ETOT  3  -8.1239070787050    -1.651E-09 1.071E-10 1.433E-07
 ETOT  4  -8.1239070787458    -4.081E-11 5.111E-11 3.825E-09
 ETOT  5  -8.1239070787471    -1.346E-12 1.471E-11 2.633E-10

 At SCF step    5, etot is converged : 
  for the second time, diff in etot=  1.346E-12 < toldfe=  1.000E-10

 Cartesian components of stress tensor (hartree/bohr^3)
  sigma(1 1)= -1.63247197E-03  sigma(3 2)=  1.79281875E-04
  sigma(2 2)= -1.05229801E-03  sigma(3 1)=  2.86153070E-04
  sigma(3 3)= -1.01585719E-03  sigma(2 1)= -1.00235403E-05


--- !ResultsGS
iteration_state: {dtset: 2, itime: 9, icycle: 1, }
comment   : Summary of ground state results
lattice_vectors:
- [  7.1030422,   0.0000930,  -0.0059342, ]
- [ -0.0000254,   7.0223522,   0.1365698, ]
- [  0.2051059,  -0.0038596,   7.0214295, ]
lattice_lengths: [   7.10304,    7.02368,    7.02443, ]
lattice_angles: [ 88.918,  88.375,  90.000, ] # degrees, (23, 13, 12)
lattice_volume:   3.5024165E+02
convergence: {deltae: -1.346E-12, res2:  2.633E-10, residm:  1.471E-11, diffor: null, }
etotal    :  -8.12390708E+00
entropy   :   0.00000000E+00
fermie    :   3.08776412E-01
cartesian_stress_tensor: # hartree/bohr^3
- [ -1.63247197E-03,  -1.00235403E-05,   2.86153070E-04, ]
- [ -1.00235403E-05,  -1.05229801E-03,   1.79281875E-04, ]
- [  2.86153070E-04,   1.79281875E-04,  -1.01585719E-03, ]
pressure_GPa:   3.6292E+01
xred      :
- [ -8.4565E-06,  -1.3281E-05,  -1.5115E-06, Al]
- [  3.7433E-06,   4.9000E-01,   4.9601E-01, Al]
- [  5.0202E-01,   1.4067E-06,   5.0100E-01, Al]
- [  5.0399E-01,   5.1002E-01,  -6.2420E-06, Al]
cartesian_forces: # hartree/bohr
- [  1.25302688E-03,  -3.12143877E-04,  -6.24897283E-04, ]
- [  1.10693063E-03,   5.60084552E-03,   1.66825964E-03, ]
- [ -8.25342646E-04,   5.10507419E-04,  -9.51347277E-04, ]
- [ -1.53461486E-03,  -5.79920906E-03,  -9.20150803E-05, ]
force_length_stats: {min:   1.35899593E-03, max:   5.99952792E-03, mean:   3.68525701E-03, }
...

 Integrated electronic density in atomic spheres:
 ------------------------------------------------
 Atom  Sphere_radius  Integrated_density
    1        2.00000          1.06005509
    2        2.00000          1.06536708
    3        2.00000          1.06217310
    4        2.00000          1.06480665

---OUTPUT-----------------------------------------------------------------------

 Cartesian coordinates (xcart) [bohr]
 -6.03765786813626E-05 -9.32619718601380E-05 -1.23766522069056E-05
  1.01748973115219E-01  3.43900506333501E+00  3.54962635796254E+00
  3.66861259578798E+00 -1.87707320164731E-03  3.51473294065566E+00
  3.57982443368852E+00  3.58156305705564E+00  6.66182706963403E-02
 Reduced coordinates (xred)
 -8.45650274627206E-06 -1.32814498652727E-05 -1.51151416448797E-06
  3.74328032806266E-06  4.89995282590868E-01  4.96011223993318E-01
  5.02018029323891E-01  1.40666822887959E-06  5.00996529504523E-01
  5.03986683898528E-01  5.10016592190767E-01 -6.24198367704430E-06
 Cartesian forces (fcart) [Ha/bohr]; max,rms= 5.79921E-03 2.50461E-03 (free atoms)
  1.25302688200997E-03 -3.12143876988773E-04 -6.24897282696562E-04
  1.10693062610875E-03  5.60084551777791E-03  1.66825963977634E-03
 -8.25342645837216E-04  5.10507419230808E-04 -9.51347276775518E-04
 -1.53461486228150E-03 -5.79920906001995E-03 -9.20150803042605E-05
 Gradient of E wrt nuclear positions in reduced coordinates (gred)
 -8.90398202216853E-03  2.27735817429262E-03  4.12946423276344E-03
 -7.85319614040347E-03 -3.95589157196358E-02 -1.19189884596658E-02
  5.85675068529787E-03 -3.45505862346215E-03  6.85107085289074E-03
  1.09004274772741E-02  4.07366161688053E-02  9.38453374011643E-04
 Cartesian velocities (vel) [bohr*Ha/hbar]; max,rms= 3.16380E-04 1.78678E-04 (free atoms)
 -1.50048038389603E-04 -2.32170301504604E-04 -3.11212976831480E-05
  7.19899164474931E-05 -8.24229976407931E-05  1.94564970927169E-04
  3.16379577049696E-04  2.45828151650030E-05 -6.01201210185203E-05
 -2.38321455107586E-04  2.90010483980394E-04 -1.03323552225500E-04
 Kinetic energy of ions (ekin) [Ha]=  9.42153902285450E-03
 Scale of Primitive Cell (acell) [bohr]
  7.00000000000000E+00  7.00000000000000E+00  7.00000000000000E+00
 Real space primitive translations (rprimd) [bohr]
  7.10304218722225E+00  9.30132214762178E-05 -5.93417692536744E-03
 -2.54179439386445E-05  7.02235223398262E+00  1.36569761771412E-01
  2.05105921375529E-01 -3.85959886286189E-03  7.02142950138199E+00
 Unitary Cell Volume (ucvol) [Bohr^3]=  3.50241647921068E+02
 Angles (23,13,12)= [degrees]
  8.89178223906671E+01  8.83746526978513E+01  9.00003879501338E+01
 Lengths [Bohr]
  7.10304466665994E+00  7.02368010366340E+00  7.02442564046086E+00
 Stress tensor in cartesian coordinates (strten) [Ha/bohr^3]
 -1.63247196733402E-03 -1.00235403075434E-05  2.86153070266784E-04
 -1.00235403075434E-05 -1.05229801141559E-03  1.79281875294721E-04
  2.86153070266784E-04  1.79281875294721E-04 -1.01585719044449E-03
 Total energy (etotal) [Ha]= -8.12390707874715E+00

 Difference of energy with previous step (new-old):
           Absolute (Ha)=-1.21334E-03
           Relative     =-1.49366E-04
================================================================================

 ----iterations are completed or convergence reached----

 Mean square residual over all n,k,spin=   16.460E-13; max=  14.714E-12
 reduced coordinates (array xred) for    4 atoms
      -0.000008456503     -0.000013281450     -0.000001511514
       0.000003743280      0.489995282591      0.496011223993
       0.502018029324      0.000001406668      0.500996529505
       0.503986683899      0.510016592191     -0.000006241984
 rms dE/dt=  1.7660E-02; max dE/dt=  4.0737E-02; dE/dt below (all hartree)
    1      -0.008903981968      0.002277359539      0.004129464077
    2      -0.007853196086     -0.039558914355     -0.011918988615
    3       0.005856750740     -0.003455057259      0.006851070697
    4       0.010900427532      0.040736617534      0.000938453218

 cartesian coordinates (angstrom) at end:
    1     -0.00003194990937    -0.00004935210994    -0.00000654944227
    2      0.05384323757001     1.81984309974250     1.87838136764410
    3      1.94134617283720    -0.00099330435717     1.85991656647548
    4      1.89436150106157     1.89528154092177     0.03525287052818

 cartesian forces (hartree/bohr) at end:
    1      0.00125302688201    -0.00031214387699    -0.00062489728270
    2      0.00110693062611     0.00560084551778     0.00166825963978
    3     -0.00082534264584     0.00051050741923    -0.00095134727678
    4     -0.00153461486228    -0.00579920906002    -0.00009201508030
 frms,max,avg= 2.5046135E-03 5.7992091E-03  -7.663E-12 -1.948E-10  2.229E-11 h/b

 cartesian forces (eV/Angstrom) at end:
    1      0.06443322750827    -0.01605108216758    -0.03213350755947
    2      0.05692065660517     0.28800703214506     0.08578535261762
    3     -0.04244082168948     0.02625134477179    -0.04892023978410
    4     -0.07891306242397    -0.29820729474927    -0.00473160527404
 frms,max,avg= 1.2879240E-01 2.9820729E-01  -3.940E-10 -1.002E-08  1.146E-09 e/A
 length scales=  7.000000000000  7.000000000000  7.000000000000 bohr
              =  3.704240460130  3.704240460130  3.704240460130 angstroms
 prteigrs : about to open file t01o_DS2_EIG
 Fermi (or HOMO) energy (hartree) =   0.30878   Average Vxc (hartree)=  -0.37048
 Eigenvalues (hartree) for nkpt=   1  k points:
 kpt#   1, nband=  9, wtk=  1.00000, kpt=  0.0000  0.0000  0.0000 (reduced coord)
  -0.10838    0.23118    0.23874    0.23892    0.29609    0.30404    0.30449    0.55761
   0.55859
      occupation numbers for kpt#   1
   2.00000    1.99915    1.99818    1.99815    1.56112    1.23240    1.21099    0.00000
   0.00000
 Fermi (or HOMO) energy (eV) =   8.40223   Average Vxc (eV)= -10.08140
 Eigenvalues (   eV  ) for nkpt=   1  k points:
 kpt#   1, nband=  9, wtk=  1.00000, kpt=  0.0000  0.0000  0.0000 (reduced coord)
  -2.94921    6.29085    6.49645    6.50132    8.05694    8.27340    8.28565   15.17343
  15.20011

--- !EnergyTerms
iteration_state     : {dtset: 2, itime: 9, icycle: 1, }
comment             : Components of total free energy in Hartree
kinetic             :  4.26924170123049E+00
hartree             :  2.23283341509443E-02
xc                  : -3.45113865273831E+00
Ewald energy        : -1.17050467038978E+01
psp_core            :  1.86804610256366E-01
local_psp           :  6.71616640076822E-01
non_local_psp       :  1.91991087302006E+00
internal            : -8.08628319790144E+00
'-kT*entropy'       : -3.76238808457107E-02
total_energy        : -8.12390707874715E+00
total_energy_eV     : -2.21062753962760E+02
band_energy         :  2.40552041393876E+00
...

 rms coord change=  1.0178E-05   atom, delta coord (reduced):
     1       -0.000008456503     -0.000013281450     -0.000001511514
     2        0.000003743280     -0.000004717409      0.000011223993
     3        0.000018029324      0.000001406668     -0.000003470495
     4       -0.000013316101      0.000016592191     -0.000006241984

 Cartesian components of stress tensor (hartree/bohr^3)
  sigma(1 1)= -1.63247197E-03  sigma(3 2)=  1.79281875E-04
  sigma(2 2)= -1.05229801E-03  sigma(3 1)=  2.86153070E-04
  sigma(3 3)= -1.01585719E-03  sigma(2 1)= -1.00235403E-05

-Cartesian components of stress tensor (GPa)         [Pressure=  3.6292E+01 GPa]
- sigma(1 1)= -4.80289754E+01  sigma(3 2)=  5.27465399E+00
- sigma(2 2)= -3.09596712E+01  sigma(3 1)=  8.41891257E+00
- sigma(3 3)= -2.98875454E+01  sigma(2 1)= -2.94902688E-01

================================================================================
== DATASET  3 ==================================================================
-   mpi_nproc: 1, omp_nthreads: -1 (-1 if OMP is not activated)


--- !DatasetInfo
iteration_state: {dtset: 3, }
dimensions: {natom: 4, nkpt: 1, mband: 9, nsppol: 1, nspinor: 1, nspden: 1, mpw: 893, }
cutoff_energies: {ecut:  10.0, pawecutdg:  -1.0, }
electrons: {nelect:   1.20000000E+01, charge:   0.00000000E+00, occopt:   3.00000000E+00, tsmear:   1.00000000E-02, }
meta: {optdriver: 0, ionmov: 13, optcell: 1, iscf: 7, paral_kgb: 0, }
...

 mkfilename : getwfk/=0, take file _WFK from output of DATASET   2.

 Exchange-correlation functional for the present dataset will be:
  LDA: Perdew-Wang 92 LSD fit to Ceperley-Alder data - ixc=7
 Citation for XC functional:
  J.P.Perdew and Y.Wang, PRB 45, 13244 (1992)

 Real(R)+Recip(G) space primitive vectors, cartesian coordinates (Bohr,Bohr^-1):
 R(1)=  7.0700000  0.0000000  0.0000000  G(1)=  0.1414427  0.0000849 -0.0042433
 R(2)=  0.0000000  7.0000000  0.1400000  G(2)=  0.0000000  0.1428571  0.0000000
 R(3)=  0.2100000  0.0000000  7.0000000  G(3)=  0.0000000 -0.0028571  0.1428571
 Unit cell volume ucvol=  3.4643000E+02 bohr^3
[...]
                      -1.5798079997E-03 -5.8660839834E-03 -8.6337167338E-05
            fcart6     1.2340451305E-03 -2.6471933290E-04 -5.9556759445E-04
                       1.0778349192E-03  5.4423541021E-03  1.5976580409E-03
                      -7.9730201161E-04  4.3796268133E-04 -9.2322963654E-04
                      -1.5145780381E-03 -5.6155974505E-03 -7.8860809916E-05
-          fftalg         512
           getwfk          -1
            intxc           1
           ionmov1          0
           ionmov2         13
           ionmov3         13
           ionmov4         13
           ionmov5         13
           ionmov6         13
           istwfk        2
              ixc           7
           jdtset        1    2    3    4    5    6
           kptopt           0
           mdtemp      5.00000000E+02  5.00000000E+02
P           mkmem           1
            natom           4
            nband           9
           ndtset           6
            ngfft          32      30      30
             nkpt           1
            nline           5
             nnos           3
            nstep          13
             nsym           1
            ntime           9
           ntypat           1
              occ1     2.000000  2.000000  2.000000  2.000000  1.919916  1.078033
                       1.002050  0.000000  0.000000
              occ2     2.000000  1.999147  1.998184  1.998152  1.561120  1.232403
                       1.210993  0.000000  0.000000
              occ3     2.000000  1.998950  1.998012  1.997987  1.531521  1.245887
                       1.227642  0.000000  0.000000
              occ4     2.000000  1.999135  1.998329  1.998310  1.531336  1.245332
                       1.227558  0.000000  0.000000
              occ5     2.000000  1.999139  1.998257  1.998236  1.545378  1.238552
                       1.220438  0.000000  0.000000
              occ6     2.000000  1.999048  1.998180  1.998158  1.531425  1.245598
                       1.227591  0.000000  0.000000
           occopt           3
          optcell1          0
          optcell2          2
          optcell3          1
          optcell4          0
          optcell5          2
          optcell6          1
            qmass1     1.00000000E+01  1.00000000E+01  1.00000000E+01
            qmass2     1.00000000E+01  1.00000000E+01  1.00000000E+01
            qmass3     1.00000000E+01  1.00000000E+01  1.00000000E+01
            qmass4     1.00000000E+00  1.00000000E+00  1.00000000E+00
            qmass5     1.00000000E+01  1.00000000E+01  1.00000000E+01
            qmass6     1.00000000E+01  1.00000000E+01  1.00000000E+01
            rprim1     1.0100000000E+00  0.0000000000E+00  0.0000000000E+00
                       0.0000000000E+00  1.0000000000E+00  2.0000000000E-02
                       3.0000000000E-02  0.0000000000E+00  1.0000000000E+00
            rprim2     1.0147203125E+00  1.3287603068E-05 -8.4773956077E-04
                      -3.6311348484E-06  1.0031931763E+00  1.9509965967E-02
                       2.9300845911E-02 -5.5137126612E-04  1.0030613573E+00
            rprim3     1.0100000000E+00  0.0000000000E+00  0.0000000000E+00
                       0.0000000000E+00  1.0000000000E+00  2.0000000000E-02
                       3.0000000000E-02  0.0000000000E+00  1.0000000000E+00
            rprim4     1.0100000000E+00  0.0000000000E+00  0.0000000000E+00
                       0.0000000000E+00  1.0000000000E+00  2.0000000000E-02
                       3.0000000000E-02  0.0000000000E+00  1.0000000000E+00
            rprim5     1.0123296766E+00  4.1665903694E-06 -4.1774643594E-04
                      -4.1469078955E-06  1.0015976212E+00  1.9764807947E-02
                       2.9655586255E-02 -2.6679145464E-04  1.0015737465E+00
            rprim6     1.0100000000E+00  0.0000000000E+00  0.0000000000E+00
                       0.0000000000E+00  1.0000000000E+00  2.0000000000E-02
                       3.0000000000E-02  0.0000000000E+00  1.0000000000E+00
          spgroup           1
           strten1    -2.5303367951E-03 -7.6681029012E-04 -6.0736174002E-04
                       1.8389337358E-04  3.3487018137E-04 -9.5592117623E-06
           strten2    -1.6324719673E-03 -1.0522980114E-03 -1.0158571904E-03
                       1.7928187529E-04  2.8615307027E-04 -1.0023540308E-05
           strten3    -1.4480800823E-03 -9.5384713594E-04 -9.2443869811E-04
                       1.7985386700E-04  2.8274885585E-04 -1.0797624317E-05
           strten4    -1.6514799005E-03 -1.1416800508E-03 -1.1139382358E-03
                       1.9493920851E-04  3.0818795592E-04 -9.0831920520E-06
           strten5    -1.6404435580E-03 -1.0959317660E-03 -1.0665525436E-03
                       1.8732659119E-04  2.9727847749E-04 -9.7012644967E-06
           strten6    -1.5466477951E-03 -1.0444928659E-03 -1.0146697847E-03
                       1.8747125525E-04  2.9636829363E-04 -1.1208915635E-05
           toldfe      1.00000000E-10 Hartree
           tsmear1     2.00000000E-03 Hartree
           tsmear2     1.00000000E-02 Hartree
           tsmear3     1.00000000E-02 Hartree
           tsmear4     1.00000000E-02 Hartree
           tsmear5     1.00000000E-02 Hartree
           tsmear6     1.00000000E-02 Hartree
            typat      1  1  1  1
              vel1     0.0000000000E+00  0.0000000000E+00  0.0000000000E+00
                       0.0000000000E+00  0.0000000000E+00  0.0000000000E+00
                       0.0000000000E+00  0.0000000000E+00  0.0000000000E+00
                       0.0000000000E+00  0.0000000000E+00  0.0000000000E+00
              vel2    -1.5004803839E-04 -2.3217030150E-04 -3.1121297683E-05
                       7.1989916447E-05 -8.2422997641E-05  1.9456497093E-04
                       3.1637957705E-04  2.4582815165E-05 -6.0120121019E-05
                      -2.3832145511E-04  2.9001048398E-04 -1.0332355223E-04
              vel3     5.3640530443E-05 -2.6497177582E-04 -2.2722985991E-05
                      -4.0573475982E-05 -2.4299041389E-04 -1.4119677881E-04
                      -5.0571765505E-06  4.5439218679E-04  7.4127418601E-05
                      -8.0098779110E-06  5.3570002921E-05  8.9792346197E-05
              vel4    -7.7682366020E-05  2.2095079686E-04  2.1060669177E-04
                      -7.1417010963E-05  1.7334754926E-04 -5.9309977110E-05
                      -9.5801182483E-05 -2.5924892784E-05  4.9863748585E-05
                       2.4490055947E-04 -3.6837345334E-04 -2.0116046325E-04
              vel5    -1.5300714564E-04  1.7360058995E-05 -2.4466749788E-04
                       1.3910852819E-04 -1.6269708911E-04  3.1039466815E-04
                      -4.3578544135E-05  2.6668223628E-04  1.4893508973E-04
                       5.7477161591E-05 -1.2134520617E-04 -2.1466226000E-04
              vel6     8.7656293181E-05  2.7088444700E-04  2.8757795505E-04
                       8.0955105822E-05 -1.9734282685E-04 -2.6250912201E-05
                      -2.0129527443E-04  9.0058405823E-05 -3.0553026945E-04
                       3.2683875426E-05 -1.6360002598E-04  4.4203226599E-05
         vel_cell1     0.0000000000E+00  0.0000000000E+00  0.0000000000E+00
                       0.0000000000E+00  0.0000000000E+00  0.0000000000E+00
                       0.0000000000E+00  0.0000000000E+00  0.0000000000E+00
         vel_cell2     1.4474575071E-01  4.2203251701E-04 -2.5867623591E-02
                      -9.4391091350E-05  9.7260875036E-02 -1.4939905940E-02
                      -2.1313015181E-02 -1.6805893504E-02  9.3154450497E-02
         vel_cell3     3.3286042132E-01  0.0000000000E+00  0.0000000000E+00
                       0.0000000000E+00  3.2956477358E-01  6.5912954717E-03
                       9.8869432075E-03  0.0000000000E+00  3.2956477358E-01
         vel_cell4     0.0000000000E+00  0.0000000000E+00  0.0000000000E+00
                       0.0000000000E+00  0.0000000000E+00  0.0000000000E+00
                       0.0000000000E+00  0.0000000000E+00  0.0000000000E+00
         vel_cell5     7.1386704876E-02  1.3146409311E-04 -1.2770788148E-02
                      -1.2272667463E-04  4.8792158219E-02 -7.1868564646E-03
                      -1.0524047515E-02 -8.1516488511E-03  4.8055338263E-02
         vel_cell6     1.6839773441E-01  0.0000000000E+00  0.0000000000E+00
                       0.0000000000E+00  1.6673043011E-01  3.3346086022E-03
                       5.0019129033E-03  0.0000000000E+00  1.6673043011E-01
           xangst1     0.0000000000E+00  0.0000000000E+00  0.0000000000E+00
                       5.5119098047E-02  1.8150778255E+00  1.8736048247E+00
                       1.9337987322E+00  0.0000000000E+00  1.8558244705E+00
                       1.8856065638E+00  1.8891626347E+00  3.7783252693E-02
           xangst2    -3.1949909371E-05 -4.9352109937E-05 -6.5494422665E-06
                       5.3843237570E-02  1.8198430997E+00  1.8783813676E+00
                       1.9413461728E+00 -9.9330435717E-04  1.8599165665E+00
                       1.8943615011E+00  1.8952815409E+00  3.5252870528E-02
           xangst3     1.1519574369E-05 -5.6907911583E-05 -4.8798361023E-06
                       5.5708676466E-02  1.8347274914E+00  1.8939116398E+00
                       1.9547881655E+00  9.7589670656E-05  1.8759845347E+00
                       1.9060722590E+00  1.9096801577E+00  3.8212657759E-02
           xangst4    -1.6443944559E-05  4.6769013163E-05  4.4579704383E-05
                       5.5103980398E-02  1.8151145144E+00  1.8735922694E+00
                       1.9337784544E+00 -5.4878323060E-06  1.8558350259E+00
                       1.8856584032E+00  1.8890846646E+00  3.7740672940E-02
           xangst5    -3.2458782290E-05  3.6992040570E-06 -5.1882945356E-05
                       5.4508277937E-02  1.8174529191E+00  1.8761352180E+00
                       1.9374823944E+00 -4.3081149264E-04  1.8579998351E+00
                       1.8899603158E+00  1.8921628583E+00  3.6513498834E-02
           xangst6     1.8690252433E-05  5.7761270172E-05  6.1321081946E-05
                       5.5437744396E-02  1.8249603792E+00  1.8838438822E+00
                       1.9443295996E+00  1.9203004790E-05  1.8659067576E+00
                       1.8959238142E+00  1.8994574781E+00  3.7999272762E-02
            xcart1     0.0000000000E+00  0.0000000000E+00  0.0000000000E+00
                       1.0416000000E-01  3.4300000000E+00  3.5406000000E+00
                       3.6543500000E+00  0.0000000000E+00  3.5070000000E+00
                       3.5632800000E+00  3.5700000000E+00  7.1400000000E-02
            xcart2    -6.0376578681E-05 -9.3261971860E-05 -1.2376652207E-05
                       1.0174897312E-01  3.4390050633E+00  3.5496263580E+00
                       3.6686125958E+00 -1.8770732016E-03  3.5147329407E+00
                       3.5798244337E+00  3.5815630571E+00  6.6618270696E-02
            xcart3     2.1768840724E-05 -1.0754036769E-04 -9.2215538067E-06
                       1.0527414175E-01  3.4671324872E+00  3.5789743191E+00
                       3.6940142806E+00  1.8441775094E-04  3.5450970002E+00
                       3.6019545591E+00  3.6087724994E+00  7.2211457973E-02
            xcart4    -3.1074551761E-05  8.8380626383E-05  8.4243432370E-05
                       1.0413143178E-01  3.4300693320E+00  3.5405762739E+00
                       3.6543116806E+00 -1.0370500122E-05  3.5070199467E+00
                       3.5633779622E+00  3.5698526579E+00  7.1319535928E-02
            xcart5    -6.1338209135E-05  6.9904825774E-06 -9.8044557691E-05
                       1.0300571728E-01  3.4344882764E+00  3.5453817502E+00
                       3.6613111128E+00 -8.1411573600E-04  3.5111108432E+00
                       3.5715073989E+00  3.5756696011E+00  6.9000512949E-02
            xcart6     3.5319458453E-05  1.0915298171E-04  1.1588005105E-04
                       1.0476215433E-01  3.4486753201E+00  3.5599490144E+00
                       3.6742504554E+00  3.6288419981E-05  3.5260527613E+00
                       3.5827767777E+00  3.5894544347E+00  7.1808218768E-02
             xred1     0.0000000000E+00  0.0000000000E+00  0.0000000000E+00
                      -1.1889169026E-18  4.9000000000E-01  4.9600000000E-01
                       5.0200000000E-01  0.0000000000E+00  5.0100000000E-01
                       5.0400000000E-01  5.1000000000E-01 -2.3009372185E-18
             xred2    -8.4565027463E-06 -1.3281449865E-05 -1.5115141645E-06
                       3.7432803281E-06  4.8999528259E-01  4.9601122399E-01
                       5.0201802932E-01  1.4066682289E-06  5.0099652950E-01
                       5.0398668390E-01  5.1001659219E-01 -6.2419836770E-06
             xred3     3.0756621820E-06 -1.5197942809E-05 -9.9926011525E-07
                      -2.0720400587E-06  4.8998606184E-01  4.9599217986E-01
                       5.0199960214E-01  2.6062496270E-05  5.0100373064E-01
                       5.0399939424E-01  5.1000307361E-01  5.0887615546E-06
             xred4    -4.7452371083E-06  1.2625803769E-05  1.1782259977E-05
                      -3.9342057086E-06  4.9000990457E-01  4.9599641247E-01
                       5.0199449448E-01 -1.4815000174E-06  5.0100287916E-01
                       5.0401418497E-01  5.0997895112E-01 -1.1073889936E-05
             xred5    -8.2455347729E-06  9.9335067143E-07 -1.4007399217E-05
                       7.3413385894E-06  4.8999069612E-01  4.9601793177E-01
                       5.0199728835E-01  1.5246485863E-05  5.0100820965E-01
                       5.0400361584E-01  5.0999306404E-01 -1.2134019661E-05
             xred6     4.4886881524E-06  1.5508484490E-05  1.6154098589E-05
                       4.6266249193E-06  4.8998870092E-01  4.9599872280E-01
                       5.0198911249E-01  5.1558683015E-06  5.0098240510E-01
                       5.0400177220E-01  5.0999063473E-01  2.7180060603E-06
            znucl       13.00000

================================================================================


- Timing analysis has been suppressed with timopt=0



================================================================================

 Suggested references for the acknowledgment of ABINIT usage.

 The users of ABINIT have little formal obligations with respect to the ABINIT group
 (those specified in the GNU General Public License, http://www.gnu.org/copyleft/gpl.txt).
 However, it is common practice in the scientific literature,
 to acknowledge the efforts of people that have made the research possible.
 In this spirit, please find below suggested citations of work written by ABINIT developers,
 corresponding to implementations inside of ABINIT that you have used in the present run.
 Note also that it will be of great value to readers of publications presenting these results,
 to read papers enabling them to understand the theoretical formalism and details
 of the ABINIT implementation.
 For information on why they are suggested, see also https://docs.abinit.org/theory/acknowledgments.
-
- [1] The Abinit project: Impact, environment and recent developments.
- Computer Phys. Comm. 248, 107042 (2020).
- X.Gonze, B. Amadon, G. Antonius, F.Arnardi, L.Baguet, J.-M.Beuken,
- J.Bieder, F.Bottin, J.Bouchet, E.Bousquet, N.Brouwer, F.Bruneval,
- G.Brunin, T.Cavignac, J.-B. Charraud, Wei Chen, M.Cote, S.Cottenier,
- J.Denier, G.Geneste, Ph.Ghosez, M.Giantomassi, Y.Gillet, O.Gingras,
- D.R.Hamann, G.Hautier, Xu He, N.Helbig, N.Holzwarth, Y.Jia, F.Jollet,
- W.Lafargue-Dit-Hauret, K.Lejaeghere, M.A.L.Marques, A.Martin, C.Martins,
- H.P.C. Miranda, F.Naccarato, K. Persson, G.Petretto, V.Planes, Y.Pouillon,
- S.Prokhorenko, F.Ricci, G.-M.Rignanese, A.H.Romero, M.M.Schmitt, M.Torrent,
- M.J.van Setten, B.Van Troeye, M.J.Verstraete, G.Zerah and J.W.Zwanzig
- Comment: the fifth generic paper describing the ABINIT project.
- Note that a version of this paper, that is not formatted for Computer Phys. Comm. 
- is available at https://www.abinit.org/sites/default/files/ABINIT20.pdf .
- The licence allows the authors to put it on the Web.
- DOI and bibtex: see https://docs.abinit.org/theory/bibliography/#gonze2020
-
- [2] Ab initio pseudopotentials for electronic structure calculations of poly-atomic systems, 
- using density-functional theory.
- M. Fuchs and, M. Scheffler, Comput. Phys. Commun. 119, 67 (1999).
- Comment: Some pseudopotential generated using the FHI code were used.
- DOI and bibtex: see https://docs.abinit.org/theory/bibliography/#fuchs1999
-
- [3] ABINIT: Overview, and focus on selected capabilities
- J. Chem. Phys. 152, 124102 (2020).
- A. Romero, D.C. Allan, B. Amadon, G. Antonius, T. Applencourt, L.Baguet,
- J.Bieder, F.Bottin, J.Bouchet, E.Bousquet, F.Bruneval,
- G.Brunin, D.Caliste, M.Cote,
- J.Denier, C. Dreyer, Ph.Ghosez, M.Giantomassi, Y.Gillet, O.Gingras,
- D.R.Hamann, G.Hautier, F.Jollet, G. Jomard,
- A.Martin, 
- H.P.C. Miranda, F.Naccarato, G.Petretto, N.A. Pike, V.Planes,
- S.Prokhorenko, T. Rangel, F.Ricci, G.-M.Rignanese, M.Royo, M.Stengel, M.Torrent,
- M.J.van Setten, B.Van Troeye, M.J.Verstraete, J.Wiktor, J.W.Zwanziger, and X.Gonze.
- Comment: a global overview of ABINIT, with focus on selected capabilities .
- Note that a version of this paper, that is not formatted for J. Chem. Phys 
- is available at https://www.abinit.org/sites/default/files/ABINIT20_JPC.pdf .
- The licence allows the authors to put it on the Web.
- DOI and bibtex: see https://docs.abinit.org/theory/bibliography/#romero2020
-
- [4] Recent developments in the ABINIT software package.
- Computer Phys. Comm. 205, 106 (2016).
- X.Gonze, F.Jollet, F.Abreu Araujo, D.Adams, B.Amadon, T.Applencourt,
- C.Audouze, J.-M.Beuken, J.Bieder, A.Bokhanchuk, E.Bousquet, F.Bruneval
- D.Caliste, M.Cote, F.Dahm, F.Da Pieve, M.Delaveau, M.Di Gennaro,
- B.Dorado, C.Espejo, G.Geneste, L.Genovese, A.Gerossier, M.Giantomassi,
- Y.Gillet, D.R.Hamann, L.He, G.Jomard, J.Laflamme Janssen, S.Le Roux,
- A.Levitt, A.Lherbier, F.Liu, I.Lukacevic, A.Martin, C.Martins,
- M.J.T.Oliveira, S.Ponce, Y.Pouillon, T.Rangel, G.-M.Rignanese,
- A.H.Romero, B.Rousseau, O.Rubel, A.A.Shukri, M.Stankovski, M.Torrent,
- M.J.Van Setten, B.Van Troeye, M.J.Verstraete, D.Waroquier, J.Wiktor,
- B.Xu, A.Zhou, J.W.Zwanziger.
- Comment: the fourth generic paper describing the ABINIT project.
- Note that a version of this paper, that is not formatted for Computer Phys. Comm. 
- is available at https://www.abinit.org/sites/default/files/ABINIT16.pdf .
- The licence allows the authors to put it on the Web.
- DOI and bibtex: see https://docs.abinit.org/theory/bibliography/#gonze2016
-
- And optionally:
-
- [5] ABINIT: First-principles approach of materials and nanosystem properties.
- Computer Phys. Comm. 180, 2582-2615 (2009).
- X. Gonze, B. Amadon, P.-M. Anglade, J.-M. Beuken, F. Bottin, P. Boulanger, F. Bruneval,
- D. Caliste, R. Caracas, M. Cote, T. Deutsch, L. Genovese, Ph. Ghosez, M. Giantomassi
- S. Goedecker, D.R. Hamann, P. Hermet, F. Jollet, G. Jomard, S. Leroux, M. Mancini, S. Mazevet,
- M.J.T. Oliveira, G. Onida, Y. Pouillon, T. Rangel, G.-M. Rignanese, D. Sangalli, R. Shaltaf,
- M. Torrent, M.J. Verstraete, G. Zerah, J.W. Zwanziger
- Comment: the third generic paper describing the ABINIT project.
- Note that a version of this paper, that is not formatted for Computer Phys. Comm. 
- is available at https://www.abinit.org/sites/default/files/ABINIT_CPC_v10.pdf .
- The licence allows the authors to put it on the Web.
- DOI and bibtex: see https://docs.abinit.org/theory/bibliography/#gonze2009
-
- Proc.   0 individual time (sec): cpu=         12.4  wall=         12.7

================================================================================

 Calculation completed.
.Delivered  28 WARNINGs and  53 COMMENTs to log file.
+Overall time at end (sec) : cpu=         12.4  wall=         12.7
