
.Version 10.5.8.2 of ABINIT, released Oct 2025.
.(MPI version, prepared for a x86_64_linux_gnu13.2 computer) 

.Copyright (C) 1998-2026 ABINIT group . 
 ABINIT comes with ABSOLUTELY NO WARRANTY.
 It is free software, and you are welcome to redistribute it
 under certain conditions (GNU General Public License,
 see ~abinit/COPYING or http://www.gnu.org/copyleft/gpl.txt).

 ABINIT is a project of the Universite Catholique de Louvain,
 Corning Inc. and other collaborators, see ~abinit/doc/developers/contributors.txt .
 Please read https://docs.abinit.org/theory/acknowledgments for suggested
 acknowledgments of the ABINIT effort.
 For more information, see https://www.abinit.org .

.Starting date : Sat 20 Dec 2025.
- ( at 17h12 )
  
- input  file    -> /home/buildbot/ABINIT3/eos_gnu_13.2_mpich/trunk__codata2022/tests/TestBot_MPI1/v5_t07/t07.abi
- output file    -> t07.abo
- root for input  files -> t07i
- root for output files -> t07o

 DATASET    1 : the unit cell is not primitive
================================================================================
 Values of the parameters that define the memory need for DATASET  1.
     intxc =       0    ionmov =       0      iscf =      17    lmnmax =       8
     lnmax =       4     mgfft =      20  mpssoang =       2    mqgrid =    3001
     natom =       4  nloc_mem =       2    nspden =       1   nspinor =       1
    nsppol =       1      nsym =     192    n1xccc =       1    ntypat =       1
    occopt =       7   xclevel =       2
-    mband =          15        mffmem =           1         mkmem =           4
       mpw =         486          nfft =        8000          nkpt =           4
 PAW method is used; the additional fine FFT grid is defined by:
   mgfftf=        30    nfftf =     27000
================================================================================
P This job should need less than                       9.905 Mbytes of memory.
  Rough estimation (10% accuracy) of disk space for files :
_ WF disk file :      0.447 Mbytes ; DEN or POT disk file :      0.208 Mbytes.
================================================================================

 DATASET    2 : the unit cell is not primitive
================================================================================
 Values of the parameters that define the memory need for DATASET  2.
     intxc =       0    ionmov =       0      iscf =      17    lmnmax =       8
     lnmax =       4     mgfft =      20  mpssoang =       2    mqgrid =    3001
     natom =       4  nloc_mem =       2    nspden =       1   nspinor =       1
    nsppol =       1      nsym =     192    n1xccc =       1    ntypat =       1
    occopt =       7   xclevel =       2
-    mband =          15        mffmem =           1         mkmem =           1
       mpw =         231          nfft =        8000          nkpt =           1
 PAW method is used; the additional fine FFT grid is defined by:
   mgfftf=        30    nfftf =     27000
================================================================================
P This job should need less than                       9.418 Mbytes of memory.
  Rough estimation (10% accuracy) of disk space for files :
_ WF disk file :      0.055 Mbytes ; DEN or POT disk file :      0.208 Mbytes.
================================================================================

 DATASET    3 : the unit cell is not primitive
================================================================================
 Values of the parameters that define the memory need for DATASET  3.
     intxc =       0    ionmov =       0      iscf =      17    lmnmax =       8
     lnmax =       4     mgfft =      20  mpssoang =       2    mqgrid =    3001
     natom =       4  nloc_mem =       2    nspden =       1   nspinor =       1
    nsppol =       1      nsym =     192    n1xccc =       1    ntypat =       1
    occopt =       7   xclevel =       2
-    mband =          15        mffmem =           1         mkmem =           4
       mpw =         486          nfft =        8000          nkpt =           4
 PAW method is used; the additional fine FFT grid is defined by:
   mgfftf=        30    nfftf =     27000
================================================================================
P This job should need less than                       9.905 Mbytes of memory.
  Rough estimation (10% accuracy) of disk space for files :
_ WF disk file :      0.447 Mbytes ; DEN or POT disk file :      0.208 Mbytes.
================================================================================

 DATASET    4 : the unit cell is not primitive
================================================================================
 Values of the parameters that define the memory need for DATASET  4.
     intxc =       0    ionmov =       0      iscf =      17    lmnmax =       8
     lnmax =       4     mgfft =      20  mpssoang =       2    mqgrid =    3001
     natom =       4  nloc_mem =       2    nspden =       1   nspinor =       1
    nsppol =       1      nsym =     192    n1xccc =       1    ntypat =       1
    occopt =       7   xclevel =       2
-    mband =          15        mffmem =           1         mkmem =           4
       mpw =         486          nfft =        8000          nkpt =           4
 PAW method is used; the additional fine FFT grid is defined by:
   mgfftf=        30    nfftf =     27000
================================================================================
P This job should need less than                       9.905 Mbytes of memory.
  Rough estimation (10% accuracy) of disk space for files :
_ WF disk file :      0.447 Mbytes ; DEN or POT disk file :      0.208 Mbytes.
================================================================================

 DATASET    5 : the unit cell is not primitive
================================================================================
 Values of the parameters that define the memory need for DATASET  5.
     intxc =       0    ionmov =       0      iscf =      17    lmnmax =       8
     lnmax =       4     mgfft =      20  mpssoang =       2    mqgrid =    3001
     natom =       4  nloc_mem =       2    nspden =       1   nspinor =       1
    nsppol =       1      nsym =     192    n1xccc =       1    ntypat =       1
    occopt =       7   xclevel =       2
-    mband =          15        mffmem =           1         mkmem =           4
       mpw =         486          nfft =        8000          nkpt =           4
 PAW method is used; the additional fine FFT grid is defined by:
   mgfftf=        30    nfftf =     27000
================================================================================
P This job should need less than                       9.905 Mbytes of memory.
  Rough estimation (10% accuracy) of disk space for files :
_ WF disk file :      0.447 Mbytes ; DEN or POT disk file :      0.208 Mbytes.
================================================================================

 DATASET    6 : space group P4 m m (# 99); Bravais tP (primitive tetrag.)
================================================================================
 Values of the parameters that define the memory need for DATASET  6.
     intxc =       0    ionmov =       0      iscf =      17    lmnmax =       8
     lnmax =       4     mgfft =      20  mpssoang =       2    mqgrid =    3001
     natom =       4  nloc_mem =       2    nspden =       1   nspinor =       1
    nsppol =       1      nsym =       8    n1xccc =       1    ntypat =       1
    occopt =       7   xclevel =       2
-    mband =          15        mffmem =           1         mkmem =           6
       mpw =         486          nfft =        8000          nkpt =           6
 PAW method is used; the additional fine FFT grid is defined by:
   mgfftf=        30    nfftf =     27000
================================================================================
P This job should need less than                      11.055 Mbytes of memory.
  Rough estimation (10% accuracy) of disk space for files :
_ WF disk file :      0.669 Mbytes ; DEN or POT disk file :      0.208 Mbytes.
================================================================================

--------------------------------------------------------------------------------
------------- Echo of variables that govern the present computation ------------
--------------------------------------------------------------------------------
-
- outvars: echo of selected default values
-   iomode0 =  0 , fftalg0 =512 , wfoptalg0 = 10
-
- outvars: echo of global parameters not present in the input file
-  max_nthreads =    0
-
 -outvars: echo values of preprocessed input variables --------
            acell      7.6533908099E+00  7.6533908099E+00  7.6533908099E+00 Bohr
              amu      2.69815390E+01
          chkprim           0
             ecut      8.00000000E+00 Hartree
-          fftalg         512
           getden1          0
           getden2          1
           getden3          2
           getden4          0
           getden5          0
           getden6          0
           istwfk2       2
              ixc          11
      ixcpositron1          1
      ixcpositron2          2
      ixcpositron3          2
      ixcpositron4         11
      ixcpositron5         11
      ixcpositron6         11
           jdtset        1    2    3    4    5    6
              kpt1     1.25000000E-01  1.25000000E-01  1.25000000E-01
                       3.75000000E-01  1.25000000E-01  1.25000000E-01
                       3.75000000E-01  3.75000000E-01  1.25000000E-01
                       3.75000000E-01  3.75000000E-01  3.75000000E-01
              kpt2     0.00000000E+00  0.00000000E+00  0.00000000E+00
              kpt3     1.25000000E-01  1.25000000E-01  1.25000000E-01
                       3.75000000E-01  1.25000000E-01  1.25000000E-01
                       3.75000000E-01  3.75000000E-01  1.25000000E-01
                       3.75000000E-01  3.75000000E-01  3.75000000E-01
              kpt4     1.25000000E-01  1.25000000E-01  1.25000000E-01
                       3.75000000E-01  1.25000000E-01  1.25000000E-01
                       3.75000000E-01  3.75000000E-01  1.25000000E-01
                       3.75000000E-01  3.75000000E-01  3.75000000E-01
              kpt5     1.25000000E-01  1.25000000E-01  1.25000000E-01
                       3.75000000E-01  1.25000000E-01  1.25000000E-01
                       3.75000000E-01  3.75000000E-01  1.25000000E-01
                       3.75000000E-01  3.75000000E-01  3.75000000E-01
              kpt6     1.25000000E-01  1.25000000E-01  1.25000000E-01
                       3.75000000E-01  1.25000000E-01  1.25000000E-01
                       1.25000000E-01  3.75000000E-01  1.25000000E-01
                       3.75000000E-01  3.75000000E-01  1.25000000E-01
                       1.25000000E-01  3.75000000E-01  3.75000000E-01
                       3.75000000E-01  3.75000000E-01  3.75000000E-01
           kptopt1          1
           kptopt2          0
           kptopt3          1
           kptopt4          1
           kptopt5          1
           kptopt6          1
         kptrlatt        4    0    0      0    4    0      0    0    4
          kptrlen1     3.06135632E+01
          kptrlen2     3.00000000E+01
          kptrlen3     3.06135632E+01
          kptrlen4     3.06135632E+01
          kptrlen5     3.06135632E+01
          kptrlen6     3.06135632E+01
P           mkmem1          4
P           mkmem2          1
P           mkmem3          4
P           mkmem4          4
P           mkmem5          4
P           mkmem6          6
            natom           4
            nband1         15
            nband2         15
            nband3         15
            nband4         15
            nband5         15
            nband6         15
           ndtset           6
            ngfft          20      20      20
          ngfftdg          30      30      30
             nkpt1          4
             nkpt2          1
             nkpt3          4
             nkpt4          4
             nkpt5          4
             nkpt6          6
            nstep          50
             nsym1        192
             nsym2        192
             nsym3        192
             nsym4        192
             nsym5        192
             nsym6          8
           ntypat           1
              occ1     2.000000  2.000000  2.000000  2.000000  2.000000  2.000000
                       0.000000  0.000000  0.000000  0.000000  0.000000  0.000000
                       0.000000  0.000000  0.000000
                       2.000000  2.000000  2.000000  2.000000  2.000000  2.000000
                       0.000000  0.000000  0.000000  0.000000  0.000000  0.000000
                       0.000000  0.000000  0.000000
                       2.000000  2.000000  2.000000  2.000000  2.000000  2.000000
                       0.000000  0.000000  0.000000  0.000000  0.000000  0.000000
                       0.000000  0.000000  0.000000
                       2.000000  2.000000  2.000000  2.000000  2.000000  2.000000
                       0.000000  0.000000  0.000000  0.000000  0.000000  0.000000
                       0.000000  0.000000  0.000000
              occ2     1.000000  0.000000  0.000000  0.000000  0.000000  0.000000
                       0.000000  0.000000  0.000000  0.000000  0.000000  0.000000
                       0.000000  0.000000  0.000000
              occ3     2.000000  2.000000  2.000000  2.000000  2.000000  2.000000
                       0.000000  0.000000  0.000000  0.000000  0.000000  0.000000
                       0.000000  0.000000  0.000000
                       2.000000  2.000000  2.000000  2.000000  2.000000  2.000000
                       0.000000  0.000000  0.000000  0.000000  0.000000  0.000000
                       0.000000  0.000000  0.000000
                       2.000000  2.000000  2.000000  2.000000  2.000000  2.000000
                       0.000000  0.000000  0.000000  0.000000  0.000000  0.000000
                       0.000000  0.000000  0.000000
                       2.000000  2.000000  2.000000  2.000000  2.000000  2.000000
                       0.000000  0.000000  0.000000  0.000000  0.000000  0.000000
                       0.000000  0.000000  0.000000
              occ4     2.000000  2.000000  2.000000  2.000000  2.000000  2.000000
                       0.000000  0.000000  0.000000  0.000000  0.000000  0.000000
                       0.000000  0.000000  0.000000
                       2.000000  2.000000  2.000000  2.000000  2.000000  2.000000
                       0.000000  0.000000  0.000000  0.000000  0.000000  0.000000
                       0.000000  0.000000  0.000000
                       2.000000  2.000000  2.000000  2.000000  2.000000  2.000000
                       0.000000  0.000000  0.000000  0.000000  0.000000  0.000000
                       0.000000  0.000000  0.000000
                       2.000000  2.000000  2.000000  2.000000  2.000000  2.000000
                       0.000000  0.000000  0.000000  0.000000  0.000000  0.000000
                       0.000000  0.000000  0.000000
              occ5     2.000000  2.000000  2.000000  2.000000  2.000000  2.000000
                       0.000000  0.000000  0.000000  0.000000  0.000000  0.000000
                       0.000000  0.000000  0.000000
                       2.000000  2.000000  2.000000  2.000000  2.000000  2.000000
                       0.000000  0.000000  0.000000  0.000000  0.000000  0.000000
                       0.000000  0.000000  0.000000
                       2.000000  2.000000  2.000000  2.000000  2.000000  2.000000
                       0.000000  0.000000  0.000000  0.000000  0.000000  0.000000
                       0.000000  0.000000  0.000000
                       2.000000  2.000000  2.000000  2.000000  2.000000  2.000000
                       0.000000  0.000000  0.000000  0.000000  0.000000  0.000000
                       0.000000  0.000000  0.000000
              occ6     2.000000  2.000000  2.000000  2.000000  2.000000  2.000000
                       0.000000  0.000000  0.000000  0.000000  0.000000  0.000000
                       0.000000  0.000000  0.000000
                       2.000000  2.000000  2.000000  2.000000  2.000000  2.000000
                       0.000000  0.000000  0.000000  0.000000  0.000000  0.000000
                       0.000000  0.000000  0.000000
                       2.000000  2.000000  2.000000  2.000000  2.000000  2.000000
                       0.000000  0.000000  0.000000  0.000000  0.000000  0.000000
                       0.000000  0.000000  0.000000
                       2.000000  2.000000  2.000000  2.000000  2.000000  2.000000
                       0.000000  0.000000  0.000000  0.000000  0.000000  0.000000
                       0.000000  0.000000  0.000000
                       2.000000  2.000000  2.000000  2.000000  2.000000  2.000000
                       0.000000  0.000000  0.000000  0.000000  0.000000  0.000000
                       0.000000  0.000000  0.000000
                       2.000000  2.000000  2.000000  2.000000  2.000000  2.000000
                       0.000000  0.000000  0.000000  0.000000  0.000000  0.000000
                       0.000000  0.000000  0.000000
           occopt           7
        optforces1          0
        optforces2          0
        optforces3          0
        optforces4          0
        optforces5          0
        optforces6          1
        optstress           0
        pawecutdg      1.50000000E+01 Hartree
         positron1          0
         positron2          1
         positron3          2
         positron4         -1
         positron5        -10
         positron6        -10
         posnstep        4
        postoldfe1     1.00000000E-06 Hartree
        postoldfe2     1.00000000E-06 Hartree
        postoldfe3     1.00000000E-06 Hartree
        postoldfe4     1.00000000E-06 Hartree
        postoldfe5     1.00000000E-06 Hartree
        postoldfe6     0.00000000E+00 Hartree
        postoldff1     0.00000000E+00
        postoldff2     0.00000000E+00
        postoldff3     0.00000000E+00
        postoldff4     0.00000000E+00
        postoldff5     0.00000000E+00
        postoldff6     1.50000000E-03
           prteig           0
            prtwf           0
           shiftk      5.00000000E-01  5.00000000E-01  5.00000000E-01
          spgroup1          0
          spgroup2          0
          spgroup3          0
          spgroup4          0
          spgroup5          0
          spgroup6         99
           symafm1       1    1    1    1    1    1    1    1    1    1
                         1    1    1    1    1    1    1    1    1    1
                         1    1    1    1    1    1    1    1    1    1
                         1    1    1    1    1    1    1    1    1    1
                         1    1    1    1    1    1    1    1    1    1
                         1    1    1    1    1    1    1    1    1    1
                         1    1    1    1    1    1    1    1    1    1
                         1    1    1    1    1    1    1    1    1    1
                         1    1    1    1    1    1    1    1    1    1
                         1    1    1    1    1    1    1    1    1    1
                         1    1    1    1    1    1    1    1    1    1
                         1    1    1    1    1    1    1    1    1    1
                         1    1    1    1    1    1    1    1    1    1
                         1    1    1    1    1    1    1    1    1    1
                         1    1    1    1    1    1    1    1    1    1
                         1    1    1    1    1    1    1    1    1    1
                         1    1    1    1    1    1    1    1    1    1
                         1    1    1    1    1    1    1    1    1    1
                         1    1    1    1    1    1    1    1    1    1
                         1    1
           symafm2       1    1    1    1    1    1    1    1    1    1
                         1    1    1    1    1    1    1    1    1    1
                         1    1    1    1    1    1    1    1    1    1
                         1    1    1    1    1    1    1    1    1    1
                         1    1    1    1    1    1    1    1    1    1
                         1    1    1    1    1    1    1    1    1    1
                         1    1    1    1    1    1    1    1    1    1
                         1    1    1    1    1    1    1    1    1    1
                         1    1    1    1    1    1    1    1    1    1
                         1    1    1    1    1    1    1    1    1    1
                         1    1    1    1    1    1    1    1    1    1
                         1    1    1    1    1    1    1    1    1    1
                         1    1    1    1    1    1    1    1    1    1
                         1    1    1    1    1    1    1    1    1    1
                         1    1    1    1    1    1    1    1    1    1
                         1    1    1    1    1    1    1    1    1    1
                         1    1    1    1    1    1    1    1    1    1
                         1    1    1    1    1    1    1    1    1    1
                         1    1    1    1    1    1    1    1    1    1
                         1    1
           symafm3       1    1    1    1    1    1    1    1    1    1
                         1    1    1    1    1    1    1    1    1    1
                         1    1    1    1    1    1    1    1    1    1
                         1    1    1    1    1    1    1    1    1    1
                         1    1    1    1    1    1    1    1    1    1
                         1    1    1    1    1    1    1    1    1    1
                         1    1    1    1    1    1    1    1    1    1
                         1    1    1    1    1    1    1    1    1    1
                         1    1    1    1    1    1    1    1    1    1
                         1    1    1    1    1    1    1    1    1    1
                         1    1    1    1    1    1    1    1    1    1
                         1    1    1    1    1    1    1    1    1    1
                         1    1    1    1    1    1    1    1    1    1
                         1    1    1    1    1    1    1    1    1    1
                         1    1    1    1    1    1    1    1    1    1
                         1    1    1    1    1    1    1    1    1    1
                         1    1    1    1    1    1    1    1    1    1
                         1    1    1    1    1    1    1    1    1    1
                         1    1    1    1    1    1    1    1    1    1
                         1    1
           symafm4       1    1    1    1    1    1    1    1    1    1
                         1    1    1    1    1    1    1    1    1    1
                         1    1    1    1    1    1    1    1    1    1
                         1    1    1    1    1    1    1    1    1    1
                         1    1    1    1    1    1    1    1    1    1
                         1    1    1    1    1    1    1    1    1    1
                         1    1    1    1    1    1    1    1    1    1
                         1    1    1    1    1    1    1    1    1    1
                         1    1    1    1    1    1    1    1    1    1
                         1    1    1    1    1    1    1    1    1    1
                         1    1    1    1    1    1    1    1    1    1
                         1    1    1    1    1    1    1    1    1    1
                         1    1    1    1    1    1    1    1    1    1
                         1    1    1    1    1    1    1    1    1    1
                         1    1    1    1    1    1    1    1    1    1
                         1    1    1    1    1    1    1    1    1    1
                         1    1    1    1    1    1    1    1    1    1
                         1    1    1    1    1    1    1    1    1    1
                         1    1    1    1    1    1    1    1    1    1
                         1    1
           symafm5       1    1    1    1    1    1    1    1    1    1
                         1    1    1    1    1    1    1    1    1    1
                         1    1    1    1    1    1    1    1    1    1
                         1    1    1    1    1    1    1    1    1    1
                         1    1    1    1    1    1    1    1    1    1
                         1    1    1    1    1    1    1    1    1    1
                         1    1    1    1    1    1    1    1    1    1
                         1    1    1    1    1    1    1    1    1    1
                         1    1    1    1    1    1    1    1    1    1
                         1    1    1    1    1    1    1    1    1    1
                         1    1    1    1    1    1    1    1    1    1
                         1    1    1    1    1    1    1    1    1    1
                         1    1    1    1    1    1    1    1    1    1
                         1    1    1    1    1    1    1    1    1    1
                         1    1    1    1    1    1    1    1    1    1
                         1    1    1    1    1    1    1    1    1    1
                         1    1    1    1    1    1    1    1    1    1
                         1    1    1    1    1    1    1    1    1    1
                         1    1    1    1    1    1    1    1    1    1
                         1    1
           symafm6       1    1    1    1    1    1    1    1
           symrel1     1  0  0   0  1  0   0  0  1       1  0  0   0  1  0   0  0  1
                       1  0  0   0  1  0   0  0  1       1  0  0   0  1  0   0  0  1
                      -1  0  0   0 -1  0   0  0 -1      -1  0  0   0 -1  0   0  0 -1
                      -1  0  0   0 -1  0   0  0 -1      -1  0  0   0 -1  0   0  0 -1
                      -1  0  0   0  1  0   0  0 -1      -1  0  0   0  1  0   0  0 -1
                      -1  0  0   0  1  0   0  0 -1      -1  0  0   0  1  0   0  0 -1
                       1  0  0   0 -1  0   0  0  1       1  0  0   0 -1  0   0  0  1
                       1  0  0   0 -1  0   0  0  1       1  0  0   0 -1  0   0  0  1
                      -1  0  0   0 -1  0   0  0  1      -1  0  0   0 -1  0   0  0  1
                      -1  0  0   0 -1  0   0  0  1      -1  0  0   0 -1  0   0  0  1
                       1  0  0   0  1  0   0  0 -1       1  0  0   0  1  0   0  0 -1
                       1  0  0   0  1  0   0  0 -1       1  0  0   0  1  0   0  0 -1
                       1  0  0   0 -1  0   0  0 -1       1  0  0   0 -1  0   0  0 -1
                       1  0  0   0 -1  0   0  0 -1       1  0  0   0 -1  0   0  0 -1
                      -1  0  0   0  1  0   0  0  1      -1  0  0   0  1  0   0  0  1
                      -1  0  0   0  1  0   0  0  1      -1  0  0   0  1  0   0  0  1
                       0  1  0   1  0  0   0  0  1       0  1  0   1  0  0   0  0  1
                       0  1  0   1  0  0   0  0  1       0  1  0   1  0  0   0  0  1
                       0 -1  0  -1  0  0   0  0 -1       0 -1  0  -1  0  0   0  0 -1
                       0 -1  0  -1  0  0   0  0 -1       0 -1  0  -1  0  0   0  0 -1
                       0 -1  0   1  0  0   0  0 -1       0 -1  0   1  0  0   0  0 -1
                       0 -1  0   1  0  0   0  0 -1       0 -1  0   1  0  0   0  0 -1
                       0  1  0  -1  0  0   0  0  1       0  1  0  -1  0  0   0  0  1
                       0  1  0  -1  0  0   0  0  1       0  1  0  -1  0  0   0  0  1
                       0 -1  0  -1  0  0   0  0  1       0 -1  0  -1  0  0   0  0  1
                       0 -1  0  -1  0  0   0  0  1       0 -1  0  -1  0  0   0  0  1
                       0  1  0   1  0  0   0  0 -1       0  1  0   1  0  0   0  0 -1
                       0  1  0   1  0  0   0  0 -1       0  1  0   1  0  0   0  0 -1
                       0  1  0  -1  0  0   0  0 -1       0  1  0  -1  0  0   0  0 -1
                       0  1  0  -1  0  0   0  0 -1       0  1  0  -1  0  0   0  0 -1
                       0 -1  0   1  0  0   0  0  1       0 -1  0   1  0  0   0  0  1
                       0 -1  0   1  0  0   0  0  1       0 -1  0   1  0  0   0  0  1
                       0  0  1   1  0  0   0  1  0       0  0  1   1  0  0   0  1  0
                       0  0  1   1  0  0   0  1  0       0  0  1   1  0  0   0  1  0
                       0  0 -1  -1  0  0   0 -1  0       0  0 -1  -1  0  0   0 -1  0
                       0  0 -1  -1  0  0   0 -1  0       0  0 -1  -1  0  0   0 -1  0
                       0  0 -1   1  0  0   0 -1  0       0  0 -1   1  0  0   0 -1  0
                       0  0 -1   1  0  0   0 -1  0       0  0 -1   1  0  0   0 -1  0
                       0  0  1  -1  0  0   0  1  0       0  0  1  -1  0  0   0  1  0
                       0  0  1  -1  0  0   0  1  0       0  0  1  -1  0  0   0  1  0
                       0  0 -1  -1  0  0   0  1  0       0  0 -1  -1  0  0   0  1  0
                       0  0 -1  -1  0  0   0  1  0       0  0 -1  -1  0  0   0  1  0
                       0  0  1   1  0  0   0 -1  0       0  0  1   1  0  0   0 -1  0
                       0  0  1   1  0  0   0 -1  0       0  0  1   1  0  0   0 -1  0
                       0  0  1  -1  0  0   0 -1  0       0  0  1  -1  0  0   0 -1  0
                       0  0  1  -1  0  0   0 -1  0       0  0  1  -1  0  0   0 -1  0
                       0  0 -1   1  0  0   0  1  0       0  0 -1   1  0  0   0  1  0
                       0  0 -1   1  0  0   0  1  0       0  0 -1   1  0  0   0  1  0
                       1  0  0   0  0  1   0  1  0       1  0  0   0  0  1   0  1  0
                       1  0  0   0  0  1   0  1  0       1  0  0   0  0  1   0  1  0
                      -1  0  0   0  0 -1   0 -1  0      -1  0  0   0  0 -1   0 -1  0
                      -1  0  0   0  0 -1   0 -1  0      -1  0  0   0  0 -1   0 -1  0
                      -1  0  0   0  0  1   0 -1  0      -1  0  0   0  0  1   0 -1  0
                      -1  0  0   0  0  1   0 -1  0      -1  0  0   0  0  1   0 -1  0
                       1  0  0   0  0 -1   0  1  0       1  0  0   0  0 -1   0  1  0
                       1  0  0   0  0 -1   0  1  0       1  0  0   0  0 -1   0  1  0
                      -1  0  0   0  0 -1   0  1  0      -1  0  0   0  0 -1   0  1  0
                      -1  0  0   0  0 -1   0  1  0      -1  0  0   0  0 -1   0  1  0
                       1  0  0   0  0  1   0 -1  0       1  0  0   0  0  1   0 -1  0
                       1  0  0   0  0  1   0 -1  0       1  0  0   0  0  1   0 -1  0
                       1  0  0   0  0 -1   0 -1  0       1  0  0   0  0 -1   0 -1  0
                       1  0  0   0  0 -1   0 -1  0       1  0  0   0  0 -1   0 -1  0
                      -1  0  0   0  0  1   0  1  0      -1  0  0   0  0  1   0  1  0
                      -1  0  0   0  0  1   0  1  0      -1  0  0   0  0  1   0  1  0
                       0  1  0   0  0  1   1  0  0       0  1  0   0  0  1   1  0  0
                       0  1  0   0  0  1   1  0  0       0  1  0   0  0  1   1  0  0
                       0 -1  0   0  0 -1  -1  0  0       0 -1  0   0  0 -1  -1  0  0
                       0 -1  0   0  0 -1  -1  0  0       0 -1  0   0  0 -1  -1  0  0
                       0 -1  0   0  0  1  -1  0  0       0 -1  0   0  0  1  -1  0  0
                       0 -1  0   0  0  1  -1  0  0       0 -1  0   0  0  1  -1  0  0
                       0  1  0   0  0 -1   1  0  0       0  1  0   0  0 -1   1  0  0
                       0  1  0   0  0 -1   1  0  0       0  1  0   0  0 -1   1  0  0
                       0 -1  0   0  0 -1   1  0  0       0 -1  0   0  0 -1   1  0  0
                       0 -1  0   0  0 -1   1  0  0       0 -1  0   0  0 -1   1  0  0
                       0  1  0   0  0  1  -1  0  0       0  1  0   0  0  1  -1  0  0
                       0  1  0   0  0  1  -1  0  0       0  1  0   0  0  1  -1  0  0
                       0  1  0   0  0 -1  -1  0  0       0  1  0   0  0 -1  -1  0  0
                       0  1  0   0  0 -1  -1  0  0       0  1  0   0  0 -1  -1  0  0
                       0 -1  0   0  0  1   1  0  0       0 -1  0   0  0  1   1  0  0
                       0 -1  0   0  0  1   1  0  0       0 -1  0   0  0  1   1  0  0
                       0  0  1   0  1  0   1  0  0       0  0  1   0  1  0   1  0  0
                       0  0  1   0  1  0   1  0  0       0  0  1   0  1  0   1  0  0
                       0  0 -1   0 -1  0  -1  0  0       0  0 -1   0 -1  0  -1  0  0
                       0  0 -1   0 -1  0  -1  0  0       0  0 -1   0 -1  0  -1  0  0
                       0  0 -1   0  1  0  -1  0  0       0  0 -1   0  1  0  -1  0  0
                       0  0 -1   0  1  0  -1  0  0       0  0 -1   0  1  0  -1  0  0
                       0  0  1   0 -1  0   1  0  0       0  0  1   0 -1  0   1  0  0
                       0  0  1   0 -1  0   1  0  0       0  0  1   0 -1  0   1  0  0
                       0  0 -1   0 -1  0   1  0  0       0  0 -1   0 -1  0   1  0  0
                       0  0 -1   0 -1  0   1  0  0       0  0 -1   0 -1  0   1  0  0
                       0  0  1   0  1  0  -1  0  0       0  0  1   0  1  0  -1  0  0
                       0  0  1   0  1  0  -1  0  0       0  0  1   0  1  0  -1  0  0
                       0  0  1   0 -1  0  -1  0  0       0  0  1   0 -1  0  -1  0  0
                       0  0  1   0 -1  0  -1  0  0       0  0  1   0 -1  0  -1  0  0
                       0  0 -1   0  1  0   1  0  0       0  0 -1   0  1  0   1  0  0
                       0  0 -1   0  1  0   1  0  0       0  0 -1   0  1  0   1  0  0
           symrel2     1  0  0   0  1  0   0  0  1       1  0  0   0  1  0   0  0  1
                       1  0  0   0  1  0   0  0  1       1  0  0   0  1  0   0  0  1
                      -1  0  0   0 -1  0   0  0 -1      -1  0  0   0 -1  0   0  0 -1
                      -1  0  0   0 -1  0   0  0 -1      -1  0  0   0 -1  0   0  0 -1
                      -1  0  0   0  1  0   0  0 -1      -1  0  0   0  1  0   0  0 -1
                      -1  0  0   0  1  0   0  0 -1      -1  0  0   0  1  0   0  0 -1
                       1  0  0   0 -1  0   0  0  1       1  0  0   0 -1  0   0  0  1
                       1  0  0   0 -1  0   0  0  1       1  0  0   0 -1  0   0  0  1
                      -1  0  0   0 -1  0   0  0  1      -1  0  0   0 -1  0   0  0  1
                      -1  0  0   0 -1  0   0  0  1      -1  0  0   0 -1  0   0  0  1
                       1  0  0   0  1  0   0  0 -1       1  0  0   0  1  0   0  0 -1
                       1  0  0   0  1  0   0  0 -1       1  0  0   0  1  0   0  0 -1
                       1  0  0   0 -1  0   0  0 -1       1  0  0   0 -1  0   0  0 -1
                       1  0  0   0 -1  0   0  0 -1       1  0  0   0 -1  0   0  0 -1
                      -1  0  0   0  1  0   0  0  1      -1  0  0   0  1  0   0  0  1
                      -1  0  0   0  1  0   0  0  1      -1  0  0   0  1  0   0  0  1
                       0  1  0   1  0  0   0  0  1       0  1  0   1  0  0   0  0  1
                       0  1  0   1  0  0   0  0  1       0  1  0   1  0  0   0  0  1
                       0 -1  0  -1  0  0   0  0 -1       0 -1  0  -1  0  0   0  0 -1
                       0 -1  0  -1  0  0   0  0 -1       0 -1  0  -1  0  0   0  0 -1
                       0 -1  0   1  0  0   0  0 -1       0 -1  0   1  0  0   0  0 -1
                       0 -1  0   1  0  0   0  0 -1       0 -1  0   1  0  0   0  0 -1
                       0  1  0  -1  0  0   0  0  1       0  1  0  -1  0  0   0  0  1
                       0  1  0  -1  0  0   0  0  1       0  1  0  -1  0  0   0  0  1
                       0 -1  0  -1  0  0   0  0  1       0 -1  0  -1  0  0   0  0  1
                       0 -1  0  -1  0  0   0  0  1       0 -1  0  -1  0  0   0  0  1
                       0  1  0   1  0  0   0  0 -1       0  1  0   1  0  0   0  0 -1
                       0  1  0   1  0  0   0  0 -1       0  1  0   1  0  0   0  0 -1
                       0  1  0  -1  0  0   0  0 -1       0  1  0  -1  0  0   0  0 -1
                       0  1  0  -1  0  0   0  0 -1       0  1  0  -1  0  0   0  0 -1
                       0 -1  0   1  0  0   0  0  1       0 -1  0   1  0  0   0  0  1
                       0 -1  0   1  0  0   0  0  1       0 -1  0   1  0  0   0  0  1
                       0  0  1   1  0  0   0  1  0       0  0  1   1  0  0   0  1  0
                       0  0  1   1  0  0   0  1  0       0  0  1   1  0  0   0  1  0
                       0  0 -1  -1  0  0   0 -1  0       0  0 -1  -1  0  0   0 -1  0
                       0  0 -1  -1  0  0   0 -1  0       0  0 -1  -1  0  0   0 -1  0
                       0  0 -1   1  0  0   0 -1  0       0  0 -1   1  0  0   0 -1  0
                       0  0 -1   1  0  0   0 -1  0       0  0 -1   1  0  0   0 -1  0
                       0  0  1  -1  0  0   0  1  0       0  0  1  -1  0  0   0  1  0
                       0  0  1  -1  0  0   0  1  0       0  0  1  -1  0  0   0  1  0
                       0  0 -1  -1  0  0   0  1  0       0  0 -1  -1  0  0   0  1  0
                       0  0 -1  -1  0  0   0  1  0       0  0 -1  -1  0  0   0  1  0
                       0  0  1   1  0  0   0 -1  0       0  0  1   1  0  0   0 -1  0
                       0  0  1   1  0  0   0 -1  0       0  0  1   1  0  0   0 -1  0
                       0  0  1  -1  0  0   0 -1  0       0  0  1  -1  0  0   0 -1  0
                       0  0  1  -1  0  0   0 -1  0       0  0  1  -1  0  0   0 -1  0
                       0  0 -1   1  0  0   0  1  0       0  0 -1   1  0  0   0  1  0
                       0  0 -1   1  0  0   0  1  0       0  0 -1   1  0  0   0  1  0
                       1  0  0   0  0  1   0  1  0       1  0  0   0  0  1   0  1  0
                       1  0  0   0  0  1   0  1  0       1  0  0   0  0  1   0  1  0
                      -1  0  0   0  0 -1   0 -1  0      -1  0  0   0  0 -1   0 -1  0
                      -1  0  0   0  0 -1   0 -1  0      -1  0  0   0  0 -1   0 -1  0
                      -1  0  0   0  0  1   0 -1  0      -1  0  0   0  0  1   0 -1  0
                      -1  0  0   0  0  1   0 -1  0      -1  0  0   0  0  1   0 -1  0
                       1  0  0   0  0 -1   0  1  0       1  0  0   0  0 -1   0  1  0
                       1  0  0   0  0 -1   0  1  0       1  0  0   0  0 -1   0  1  0
                      -1  0  0   0  0 -1   0  1  0      -1  0  0   0  0 -1   0  1  0
                      -1  0  0   0  0 -1   0  1  0      -1  0  0   0  0 -1   0  1  0
                       1  0  0   0  0  1   0 -1  0       1  0  0   0  0  1   0 -1  0
                       1  0  0   0  0  1   0 -1  0       1  0  0   0  0  1   0 -1  0
                       1  0  0   0  0 -1   0 -1  0       1  0  0   0  0 -1   0 -1  0
                       1  0  0   0  0 -1   0 -1  0       1  0  0   0  0 -1   0 -1  0
                      -1  0  0   0  0  1   0  1  0      -1  0  0   0  0  1   0  1  0
                      -1  0  0   0  0  1   0  1  0      -1  0  0   0  0  1   0  1  0
                       0  1  0   0  0  1   1  0  0       0  1  0   0  0  1   1  0  0
                       0  1  0   0  0  1   1  0  0       0  1  0   0  0  1   1  0  0
                       0 -1  0   0  0 -1  -1  0  0       0 -1  0   0  0 -1  -1  0  0
                       0 -1  0   0  0 -1  -1  0  0       0 -1  0   0  0 -1  -1  0  0
                       0 -1  0   0  0  1  -1  0  0       0 -1  0   0  0  1  -1  0  0
                       0 -1  0   0  0  1  -1  0  0       0 -1  0   0  0  1  -1  0  0
                       0  1  0   0  0 -1   1  0  0       0  1  0   0  0 -1   1  0  0
                       0  1  0   0  0 -1   1  0  0       0  1  0   0  0 -1   1  0  0
                       0 -1  0   0  0 -1   1  0  0       0 -1  0   0  0 -1   1  0  0
                       0 -1  0   0  0 -1   1  0  0       0 -1  0   0  0 -1   1  0  0
                       0  1  0   0  0  1  -1  0  0       0  1  0   0  0  1  -1  0  0
                       0  1  0   0  0  1  -1  0  0       0  1  0   0  0  1  -1  0  0
                       0  1  0   0  0 -1  -1  0  0       0  1  0   0  0 -1  -1  0  0
                       0  1  0   0  0 -1  -1  0  0       0  1  0   0  0 -1  -1  0  0
                       0 -1  0   0  0  1   1  0  0       0 -1  0   0  0  1   1  0  0
                       0 -1  0   0  0  1   1  0  0       0 -1  0   0  0  1   1  0  0
                       0  0  1   0  1  0   1  0  0       0  0  1   0  1  0   1  0  0
                       0  0  1   0  1  0   1  0  0       0  0  1   0  1  0   1  0  0
                       0  0 -1   0 -1  0  -1  0  0       0  0 -1   0 -1  0  -1  0  0
                       0  0 -1   0 -1  0  -1  0  0       0  0 -1   0 -1  0  -1  0  0
                       0  0 -1   0  1  0  -1  0  0       0  0 -1   0  1  0  -1  0  0
                       0  0 -1   0  1  0  -1  0  0       0  0 -1   0  1  0  -1  0  0
                       0  0  1   0 -1  0   1  0  0       0  0  1   0 -1  0   1  0  0
                       0  0  1   0 -1  0   1  0  0       0  0  1   0 -1  0   1  0  0
                       0  0 -1   0 -1  0   1  0  0       0  0 -1   0 -1  0   1  0  0
                       0  0 -1   0 -1  0   1  0  0       0  0 -1   0 -1  0   1  0  0
                       0  0  1   0  1  0  -1  0  0       0  0  1   0  1  0  -1  0  0
                       0  0  1   0  1  0  -1  0  0       0  0  1   0  1  0  -1  0  0
                       0  0  1   0 -1  0  -1  0  0       0  0  1   0 -1  0  -1  0  0
                       0  0  1   0 -1  0  -1  0  0       0  0  1   0 -1  0  -1  0  0
                       0  0 -1   0  1  0   1  0  0       0  0 -1   0  1  0   1  0  0
                       0  0 -1   0  1  0   1  0  0       0  0 -1   0  1  0   1  0  0
           symrel3     1  0  0   0  1  0   0  0  1       1  0  0   0  1  0   0  0  1
                       1  0  0   0  1  0   0  0  1       1  0  0   0  1  0   0  0  1
                      -1  0  0   0 -1  0   0  0 -1      -1  0  0   0 -1  0   0  0 -1
                      -1  0  0   0 -1  0   0  0 -1      -1  0  0   0 -1  0   0  0 -1
                      -1  0  0   0  1  0   0  0 -1      -1  0  0   0  1  0   0  0 -1
                      -1  0  0   0  1  0   0  0 -1      -1  0  0   0  1  0   0  0 -1
                       1  0  0   0 -1  0   0  0  1       1  0  0   0 -1  0   0  0  1
                       1  0  0   0 -1  0   0  0  1       1  0  0   0 -1  0   0  0  1
                      -1  0  0   0 -1  0   0  0  1      -1  0  0   0 -1  0   0  0  1
                      -1  0  0   0 -1  0   0  0  1      -1  0  0   0 -1  0   0  0  1
                       1  0  0   0  1  0   0  0 -1       1  0  0   0  1  0   0  0 -1
                       1  0  0   0  1  0   0  0 -1       1  0  0   0  1  0   0  0 -1
                       1  0  0   0 -1  0   0  0 -1       1  0  0   0 -1  0   0  0 -1
                       1  0  0   0 -1  0   0  0 -1       1  0  0   0 -1  0   0  0 -1
                      -1  0  0   0  1  0   0  0  1      -1  0  0   0  1  0   0  0  1
                      -1  0  0   0  1  0   0  0  1      -1  0  0   0  1  0   0  0  1
                       0  1  0   1  0  0   0  0  1       0  1  0   1  0  0   0  0  1
                       0  1  0   1  0  0   0  0  1       0  1  0   1  0  0   0  0  1
                       0 -1  0  -1  0  0   0  0 -1       0 -1  0  -1  0  0   0  0 -1
                       0 -1  0  -1  0  0   0  0 -1       0 -1  0  -1  0  0   0  0 -1
                       0 -1  0   1  0  0   0  0 -1       0 -1  0   1  0  0   0  0 -1
                       0 -1  0   1  0  0   0  0 -1       0 -1  0   1  0  0   0  0 -1
                       0  1  0  -1  0  0   0  0  1       0  1  0  -1  0  0   0  0  1
                       0  1  0  -1  0  0   0  0  1       0  1  0  -1  0  0   0  0  1
                       0 -1  0  -1  0  0   0  0  1       0 -1  0  -1  0  0   0  0  1
                       0 -1  0  -1  0  0   0  0  1       0 -1  0  -1  0  0   0  0  1
                       0  1  0   1  0  0   0  0 -1       0  1  0   1  0  0   0  0 -1
                       0  1  0   1  0  0   0  0 -1       0  1  0   1  0  0   0  0 -1
                       0  1  0  -1  0  0   0  0 -1       0  1  0  -1  0  0   0  0 -1
                       0  1  0  -1  0  0   0  0 -1       0  1  0  -1  0  0   0  0 -1
                       0 -1  0   1  0  0   0  0  1       0 -1  0   1  0  0   0  0  1
                       0 -1  0   1  0  0   0  0  1       0 -1  0   1  0  0   0  0  1
                       0  0  1   1  0  0   0  1  0       0  0  1   1  0  0   0  1  0
                       0  0  1   1  0  0   0  1  0       0  0  1   1  0  0   0  1  0
                       0  0 -1  -1  0  0   0 -1  0       0  0 -1  -1  0  0   0 -1  0
                       0  0 -1  -1  0  0   0 -1  0       0  0 -1  -1  0  0   0 -1  0
                       0  0 -1   1  0  0   0 -1  0       0  0 -1   1  0  0   0 -1  0
                       0  0 -1   1  0  0   0 -1  0       0  0 -1   1  0  0   0 -1  0
                       0  0  1  -1  0  0   0  1  0       0  0  1  -1  0  0   0  1  0
                       0  0  1  -1  0  0   0  1  0       0  0  1  -1  0  0   0  1  0
                       0  0 -1  -1  0  0   0  1  0       0  0 -1  -1  0  0   0  1  0
                       0  0 -1  -1  0  0   0  1  0       0  0 -1  -1  0  0   0  1  0
                       0  0  1   1  0  0   0 -1  0       0  0  1   1  0  0   0 -1  0
                       0  0  1   1  0  0   0 -1  0       0  0  1   1  0  0   0 -1  0
                       0  0  1  -1  0  0   0 -1  0       0  0  1  -1  0  0   0 -1  0
                       0  0  1  -1  0  0   0 -1  0       0  0  1  -1  0  0   0 -1  0
                       0  0 -1   1  0  0   0  1  0       0  0 -1   1  0  0   0  1  0
                       0  0 -1   1  0  0   0  1  0       0  0 -1   1  0  0   0  1  0
                       1  0  0   0  0  1   0  1  0       1  0  0   0  0  1   0  1  0
                       1  0  0   0  0  1   0  1  0       1  0  0   0  0  1   0  1  0
                      -1  0  0   0  0 -1   0 -1  0      -1  0  0   0  0 -1   0 -1  0
                      -1  0  0   0  0 -1   0 -1  0      -1  0  0   0  0 -1   0 -1  0
                      -1  0  0   0  0  1   0 -1  0      -1  0  0   0  0  1   0 -1  0
                      -1  0  0   0  0  1   0 -1  0      -1  0  0   0  0  1   0 -1  0
                       1  0  0   0  0 -1   0  1  0       1  0  0   0  0 -1   0  1  0
                       1  0  0   0  0 -1   0  1  0       1  0  0   0  0 -1   0  1  0
                      -1  0  0   0  0 -1   0  1  0      -1  0  0   0  0 -1   0  1  0
                      -1  0  0   0  0 -1   0  1  0      -1  0  0   0  0 -1   0  1  0
                       1  0  0   0  0  1   0 -1  0       1  0  0   0  0  1   0 -1  0
                       1  0  0   0  0  1   0 -1  0       1  0  0   0  0  1   0 -1  0
                       1  0  0   0  0 -1   0 -1  0       1  0  0   0  0 -1   0 -1  0
                       1  0  0   0  0 -1   0 -1  0       1  0  0   0  0 -1   0 -1  0
                      -1  0  0   0  0  1   0  1  0      -1  0  0   0  0  1   0  1  0
                      -1  0  0   0  0  1   0  1  0      -1  0  0   0  0  1   0  1  0
                       0  1  0   0  0  1   1  0  0       0  1  0   0  0  1   1  0  0
                       0  1  0   0  0  1   1  0  0       0  1  0   0  0  1   1  0  0
                       0 -1  0   0  0 -1  -1  0  0       0 -1  0   0  0 -1  -1  0  0
                       0 -1  0   0  0 -1  -1  0  0       0 -1  0   0  0 -1  -1  0  0
                       0 -1  0   0  0  1  -1  0  0       0 -1  0   0  0  1  -1  0  0
                       0 -1  0   0  0  1  -1  0  0       0 -1  0   0  0  1  -1  0  0
                       0  1  0   0  0 -1   1  0  0       0  1  0   0  0 -1   1  0  0
                       0  1  0   0  0 -1   1  0  0       0  1  0   0  0 -1   1  0  0
                       0 -1  0   0  0 -1   1  0  0       0 -1  0   0  0 -1   1  0  0
                       0 -1  0   0  0 -1   1  0  0       0 -1  0   0  0 -1   1  0  0
                       0  1  0   0  0  1  -1  0  0       0  1  0   0  0  1  -1  0  0
                       0  1  0   0  0  1  -1  0  0       0  1  0   0  0  1  -1  0  0
                       0  1  0   0  0 -1  -1  0  0       0  1  0   0  0 -1  -1  0  0
                       0  1  0   0  0 -1  -1  0  0       0  1  0   0  0 -1  -1  0  0
                       0 -1  0   0  0  1   1  0  0       0 -1  0   0  0  1   1  0  0
                       0 -1  0   0  0  1   1  0  0       0 -1  0   0  0  1   1  0  0
                       0  0  1   0  1  0   1  0  0       0  0  1   0  1  0   1  0  0
                       0  0  1   0  1  0   1  0  0       0  0  1   0  1  0   1  0  0
                       0  0 -1   0 -1  0  -1  0  0       0  0 -1   0 -1  0  -1  0  0
                       0  0 -1   0 -1  0  -1  0  0       0  0 -1   0 -1  0  -1  0  0
                       0  0 -1   0  1  0  -1  0  0       0  0 -1   0  1  0  -1  0  0
                       0  0 -1   0  1  0  -1  0  0       0  0 -1   0  1  0  -1  0  0
                       0  0  1   0 -1  0   1  0  0       0  0  1   0 -1  0   1  0  0
                       0  0  1   0 -1  0   1  0  0       0  0  1   0 -1  0   1  0  0
                       0  0 -1   0 -1  0   1  0  0       0  0 -1   0 -1  0   1  0  0
                       0  0 -1   0 -1  0   1  0  0       0  0 -1   0 -1  0   1  0  0
                       0  0  1   0  1  0  -1  0  0       0  0  1   0  1  0  -1  0  0
                       0  0  1   0  1  0  -1  0  0       0  0  1   0  1  0  -1  0  0
                       0  0  1   0 -1  0  -1  0  0       0  0  1   0 -1  0  -1  0  0
                       0  0  1   0 -1  0  -1  0  0       0  0  1   0 -1  0  -1  0  0
                       0  0 -1   0  1  0   1  0  0       0  0 -1   0  1  0   1  0  0
                       0  0 -1   0  1  0   1  0  0       0  0 -1   0  1  0   1  0  0
           symrel4     1  0  0   0  1  0   0  0  1       1  0  0   0  1  0   0  0  1
                       1  0  0   0  1  0   0  0  1       1  0  0   0  1  0   0  0  1
                      -1  0  0   0 -1  0   0  0 -1      -1  0  0   0 -1  0   0  0 -1
                      -1  0  0   0 -1  0   0  0 -1      -1  0  0   0 -1  0   0  0 -1
                      -1  0  0   0  1  0   0  0 -1      -1  0  0   0  1  0   0  0 -1
                      -1  0  0   0  1  0   0  0 -1      -1  0  0   0  1  0   0  0 -1
                       1  0  0   0 -1  0   0  0  1       1  0  0   0 -1  0   0  0  1
                       1  0  0   0 -1  0   0  0  1       1  0  0   0 -1  0   0  0  1
                      -1  0  0   0 -1  0   0  0  1      -1  0  0   0 -1  0   0  0  1
                      -1  0  0   0 -1  0   0  0  1      -1  0  0   0 -1  0   0  0  1
                       1  0  0   0  1  0   0  0 -1       1  0  0   0  1  0   0  0 -1
                       1  0  0   0  1  0   0  0 -1       1  0  0   0  1  0   0  0 -1
                       1  0  0   0 -1  0   0  0 -1       1  0  0   0 -1  0   0  0 -1
                       1  0  0   0 -1  0   0  0 -1       1  0  0   0 -1  0   0  0 -1
                      -1  0  0   0  1  0   0  0  1      -1  0  0   0  1  0   0  0  1
                      -1  0  0   0  1  0   0  0  1      -1  0  0   0  1  0   0  0  1
                       0  1  0   1  0  0   0  0  1       0  1  0   1  0  0   0  0  1
                       0  1  0   1  0  0   0  0  1       0  1  0   1  0  0   0  0  1
                       0 -1  0  -1  0  0   0  0 -1       0 -1  0  -1  0  0   0  0 -1
                       0 -1  0  -1  0  0   0  0 -1       0 -1  0  -1  0  0   0  0 -1
                       0 -1  0   1  0  0   0  0 -1       0 -1  0   1  0  0   0  0 -1
                       0 -1  0   1  0  0   0  0 -1       0 -1  0   1  0  0   0  0 -1
                       0  1  0  -1  0  0   0  0  1       0  1  0  -1  0  0   0  0  1
                       0  1  0  -1  0  0   0  0  1       0  1  0  -1  0  0   0  0  1
                       0 -1  0  -1  0  0   0  0  1       0 -1  0  -1  0  0   0  0  1
                       0 -1  0  -1  0  0   0  0  1       0 -1  0  -1  0  0   0  0  1
                       0  1  0   1  0  0   0  0 -1       0  1  0   1  0  0   0  0 -1
                       0  1  0   1  0  0   0  0 -1       0  1  0   1  0  0   0  0 -1
                       0  1  0  -1  0  0   0  0 -1       0  1  0  -1  0  0   0  0 -1
                       0  1  0  -1  0  0   0  0 -1       0  1  0  -1  0  0   0  0 -1
                       0 -1  0   1  0  0   0  0  1       0 -1  0   1  0  0   0  0  1
                       0 -1  0   1  0  0   0  0  1       0 -1  0   1  0  0   0  0  1
                       0  0  1   1  0  0   0  1  0       0  0  1   1  0  0   0  1  0
                       0  0  1   1  0  0   0  1  0       0  0  1   1  0  0   0  1  0
                       0  0 -1  -1  0  0   0 -1  0       0  0 -1  -1  0  0   0 -1  0
                       0  0 -1  -1  0  0   0 -1  0       0  0 -1  -1  0  0   0 -1  0
                       0  0 -1   1  0  0   0 -1  0       0  0 -1   1  0  0   0 -1  0
                       0  0 -1   1  0  0   0 -1  0       0  0 -1   1  0  0   0 -1  0
                       0  0  1  -1  0  0   0  1  0       0  0  1  -1  0  0   0  1  0
                       0  0  1  -1  0  0   0  1  0       0  0  1  -1  0  0   0  1  0
                       0  0 -1  -1  0  0   0  1  0       0  0 -1  -1  0  0   0  1  0
                       0  0 -1  -1  0  0   0  1  0       0  0 -1  -1  0  0   0  1  0
                       0  0  1   1  0  0   0 -1  0       0  0  1   1  0  0   0 -1  0
                       0  0  1   1  0  0   0 -1  0       0  0  1   1  0  0   0 -1  0
                       0  0  1  -1  0  0   0 -1  0       0  0  1  -1  0  0   0 -1  0
                       0  0  1  -1  0  0   0 -1  0       0  0  1  -1  0  0   0 -1  0
                       0  0 -1   1  0  0   0  1  0       0  0 -1   1  0  0   0  1  0
                       0  0 -1   1  0  0   0  1  0       0  0 -1   1  0  0   0  1  0
                       1  0  0   0  0  1   0  1  0       1  0  0   0  0  1   0  1  0
                       1  0  0   0  0  1   0  1  0       1  0  0   0  0  1   0  1  0
                      -1  0  0   0  0 -1   0 -1  0      -1  0  0   0  0 -1   0 -1  0
                      -1  0  0   0  0 -1   0 -1  0      -1  0  0   0  0 -1   0 -1  0
                      -1  0  0   0  0  1   0 -1  0      -1  0  0   0  0  1   0 -1  0
                      -1  0  0   0  0  1   0 -1  0      -1  0  0   0  0  1   0 -1  0
                       1  0  0   0  0 -1   0  1  0       1  0  0   0  0 -1   0  1  0
                       1  0  0   0  0 -1   0  1  0       1  0  0   0  0 -1   0  1  0
                      -1  0  0   0  0 -1   0  1  0      -1  0  0   0  0 -1   0  1  0
                      -1  0  0   0  0 -1   0  1  0      -1  0  0   0  0 -1   0  1  0
                       1  0  0   0  0  1   0 -1  0       1  0  0   0  0  1   0 -1  0
                       1  0  0   0  0  1   0 -1  0       1  0  0   0  0  1   0 -1  0
                       1  0  0   0  0 -1   0 -1  0       1  0  0   0  0 -1   0 -1  0
                       1  0  0   0  0 -1   0 -1  0       1  0  0   0  0 -1   0 -1  0
                      -1  0  0   0  0  1   0  1  0      -1  0  0   0  0  1   0  1  0
                      -1  0  0   0  0  1   0  1  0      -1  0  0   0  0  1   0  1  0
                       0  1  0   0  0  1   1  0  0       0  1  0   0  0  1   1  0  0
                       0  1  0   0  0  1   1  0  0       0  1  0   0  0  1   1  0  0
                       0 -1  0   0  0 -1  -1  0  0       0 -1  0   0  0 -1  -1  0  0
                       0 -1  0   0  0 -1  -1  0  0       0 -1  0   0  0 -1  -1  0  0
                       0 -1  0   0  0  1  -1  0  0       0 -1  0   0  0  1  -1  0  0
                       0 -1  0   0  0  1  -1  0  0       0 -1  0   0  0  1  -1  0  0
                       0  1  0   0  0 -1   1  0  0       0  1  0   0  0 -1   1  0  0
                       0  1  0   0  0 -1   1  0  0       0  1  0   0  0 -1   1  0  0
                       0 -1  0   0  0 -1   1  0  0       0 -1  0   0  0 -1   1  0  0
                       0 -1  0   0  0 -1   1  0  0       0 -1  0   0  0 -1   1  0  0
                       0  1  0   0  0  1  -1  0  0       0  1  0   0  0  1  -1  0  0
                       0  1  0   0  0  1  -1  0  0       0  1  0   0  0  1  -1  0  0
                       0  1  0   0  0 -1  -1  0  0       0  1  0   0  0 -1  -1  0  0
                       0  1  0   0  0 -1  -1  0  0       0  1  0   0  0 -1  -1  0  0
                       0 -1  0   0  0  1   1  0  0       0 -1  0   0  0  1   1  0  0
                       0 -1  0   0  0  1   1  0  0       0 -1  0   0  0  1   1  0  0
                       0  0  1   0  1  0   1  0  0       0  0  1   0  1  0   1  0  0
                       0  0  1   0  1  0   1  0  0       0  0  1   0  1  0   1  0  0
                       0  0 -1   0 -1  0  -1  0  0       0  0 -1   0 -1  0  -1  0  0
                       0  0 -1   0 -1  0  -1  0  0       0  0 -1   0 -1  0  -1  0  0
                       0  0 -1   0  1  0  -1  0  0       0  0 -1   0  1  0  -1  0  0
                       0  0 -1   0  1  0  -1  0  0       0  0 -1   0  1  0  -1  0  0
                       0  0  1   0 -1  0   1  0  0       0  0  1   0 -1  0   1  0  0
                       0  0  1   0 -1  0   1  0  0       0  0  1   0 -1  0   1  0  0
                       0  0 -1   0 -1  0   1  0  0       0  0 -1   0 -1  0   1  0  0
                       0  0 -1   0 -1  0   1  0  0       0  0 -1   0 -1  0   1  0  0
                       0  0  1   0  1  0  -1  0  0       0  0  1   0  1  0  -1  0  0
                       0  0  1   0  1  0  -1  0  0       0  0  1   0  1  0  -1  0  0
                       0  0  1   0 -1  0  -1  0  0       0  0  1   0 -1  0  -1  0  0
                       0  0  1   0 -1  0  -1  0  0       0  0  1   0 -1  0  -1  0  0
                       0  0 -1   0  1  0   1  0  0       0  0 -1   0  1  0   1  0  0
                       0  0 -1   0  1  0   1  0  0       0  0 -1   0  1  0   1  0  0
           symrel5     1  0  0   0  1  0   0  0  1       1  0  0   0  1  0   0  0  1
                       1  0  0   0  1  0   0  0  1       1  0  0   0  1  0   0  0  1
                      -1  0  0   0 -1  0   0  0 -1      -1  0  0   0 -1  0   0  0 -1
                      -1  0  0   0 -1  0   0  0 -1      -1  0  0   0 -1  0   0  0 -1
                      -1  0  0   0  1  0   0  0 -1      -1  0  0   0  1  0   0  0 -1
                      -1  0  0   0  1  0   0  0 -1      -1  0  0   0  1  0   0  0 -1
                       1  0  0   0 -1  0   0  0  1       1  0  0   0 -1  0   0  0  1
                       1  0  0   0 -1  0   0  0  1       1  0  0   0 -1  0   0  0  1
                      -1  0  0   0 -1  0   0  0  1      -1  0  0   0 -1  0   0  0  1
                      -1  0  0   0 -1  0   0  0  1      -1  0  0   0 -1  0   0  0  1
                       1  0  0   0  1  0   0  0 -1       1  0  0   0  1  0   0  0 -1
                       1  0  0   0  1  0   0  0 -1       1  0  0   0  1  0   0  0 -1
                       1  0  0   0 -1  0   0  0 -1       1  0  0   0 -1  0   0  0 -1
                       1  0  0   0 -1  0   0  0 -1       1  0  0   0 -1  0   0  0 -1
                      -1  0  0   0  1  0   0  0  1      -1  0  0   0  1  0   0  0  1
                      -1  0  0   0  1  0   0  0  1      -1  0  0   0  1  0   0  0  1
                       0  1  0   1  0  0   0  0  1       0  1  0   1  0  0   0  0  1
                       0  1  0   1  0  0   0  0  1       0  1  0   1  0  0   0  0  1
                       0 -1  0  -1  0  0   0  0 -1       0 -1  0  -1  0  0   0  0 -1
                       0 -1  0  -1  0  0   0  0 -1       0 -1  0  -1  0  0   0  0 -1
                       0 -1  0   1  0  0   0  0 -1       0 -1  0   1  0  0   0  0 -1
                       0 -1  0   1  0  0   0  0 -1       0 -1  0   1  0  0   0  0 -1
                       0  1  0  -1  0  0   0  0  1       0  1  0  -1  0  0   0  0  1
                       0  1  0  -1  0  0   0  0  1       0  1  0  -1  0  0   0  0  1
                       0 -1  0  -1  0  0   0  0  1       0 -1  0  -1  0  0   0  0  1
                       0 -1  0  -1  0  0   0  0  1       0 -1  0  -1  0  0   0  0  1
                       0  1  0   1  0  0   0  0 -1       0  1  0   1  0  0   0  0 -1
                       0  1  0   1  0  0   0  0 -1       0  1  0   1  0  0   0  0 -1
                       0  1  0  -1  0  0   0  0 -1       0  1  0  -1  0  0   0  0 -1
                       0  1  0  -1  0  0   0  0 -1       0  1  0  -1  0  0   0  0 -1
                       0 -1  0   1  0  0   0  0  1       0 -1  0   1  0  0   0  0  1
                       0 -1  0   1  0  0   0  0  1       0 -1  0   1  0  0   0  0  1
                       0  0  1   1  0  0   0  1  0       0  0  1   1  0  0   0  1  0
                       0  0  1   1  0  0   0  1  0       0  0  1   1  0  0   0  1  0
                       0  0 -1  -1  0  0   0 -1  0       0  0 -1  -1  0  0   0 -1  0
                       0  0 -1  -1  0  0   0 -1  0       0  0 -1  -1  0  0   0 -1  0
                       0  0 -1   1  0  0   0 -1  0       0  0 -1   1  0  0   0 -1  0
                       0  0 -1   1  0  0   0 -1  0       0  0 -1   1  0  0   0 -1  0
                       0  0  1  -1  0  0   0  1  0       0  0  1  -1  0  0   0  1  0
                       0  0  1  -1  0  0   0  1  0       0  0  1  -1  0  0   0  1  0
                       0  0 -1  -1  0  0   0  1  0       0  0 -1  -1  0  0   0  1  0
                       0  0 -1  -1  0  0   0  1  0       0  0 -1  -1  0  0   0  1  0
                       0  0  1   1  0  0   0 -1  0       0  0  1   1  0  0   0 -1  0
                       0  0  1   1  0  0   0 -1  0       0  0  1   1  0  0   0 -1  0
                       0  0  1  -1  0  0   0 -1  0       0  0  1  -1  0  0   0 -1  0
                       0  0  1  -1  0  0   0 -1  0       0  0  1  -1  0  0   0 -1  0
                       0  0 -1   1  0  0   0  1  0       0  0 -1   1  0  0   0  1  0
                       0  0 -1   1  0  0   0  1  0       0  0 -1   1  0  0   0  1  0
                       1  0  0   0  0  1   0  1  0       1  0  0   0  0  1   0  1  0
                       1  0  0   0  0  1   0  1  0       1  0  0   0  0  1   0  1  0
                      -1  0  0   0  0 -1   0 -1  0      -1  0  0   0  0 -1   0 -1  0
                      -1  0  0   0  0 -1   0 -1  0      -1  0  0   0  0 -1   0 -1  0
                      -1  0  0   0  0  1   0 -1  0      -1  0  0   0  0  1   0 -1  0
                      -1  0  0   0  0  1   0 -1  0      -1  0  0   0  0  1   0 -1  0
                       1  0  0   0  0 -1   0  1  0       1  0  0   0  0 -1   0  1  0
                       1  0  0   0  0 -1   0  1  0       1  0  0   0  0 -1   0  1  0
                      -1  0  0   0  0 -1   0  1  0      -1  0  0   0  0 -1   0  1  0
                      -1  0  0   0  0 -1   0  1  0      -1  0  0   0  0 -1   0  1  0
                       1  0  0   0  0  1   0 -1  0       1  0  0   0  0  1   0 -1  0
                       1  0  0   0  0  1   0 -1  0       1  0  0   0  0  1   0 -1  0
                       1  0  0   0  0 -1   0 -1  0       1  0  0   0  0 -1   0 -1  0
                       1  0  0   0  0 -1   0 -1  0       1  0  0   0  0 -1   0 -1  0
                      -1  0  0   0  0  1   0  1  0      -1  0  0   0  0  1   0  1  0
                      -1  0  0   0  0  1   0  1  0      -1  0  0   0  0  1   0  1  0
                       0  1  0   0  0  1   1  0  0       0  1  0   0  0  1   1  0  0
                       0  1  0   0  0  1   1  0  0       0  1  0   0  0  1   1  0  0
                       0 -1  0   0  0 -1  -1  0  0       0 -1  0   0  0 -1  -1  0  0
                       0 -1  0   0  0 -1  -1  0  0       0 -1  0   0  0 -1  -1  0  0
                       0 -1  0   0  0  1  -1  0  0       0 -1  0   0  0  1  -1  0  0
                       0 -1  0   0  0  1  -1  0  0       0 -1  0   0  0  1  -1  0  0
                       0  1  0   0  0 -1   1  0  0       0  1  0   0  0 -1   1  0  0
                       0  1  0   0  0 -1   1  0  0       0  1  0   0  0 -1   1  0  0
                       0 -1  0   0  0 -1   1  0  0       0 -1  0   0  0 -1   1  0  0
                       0 -1  0   0  0 -1   1  0  0       0 -1  0   0  0 -1   1  0  0
                       0  1  0   0  0  1  -1  0  0       0  1  0   0  0  1  -1  0  0
                       0  1  0   0  0  1  -1  0  0       0  1  0   0  0  1  -1  0  0
                       0  1  0   0  0 -1  -1  0  0       0  1  0   0  0 -1  -1  0  0
                       0  1  0   0  0 -1  -1  0  0       0  1  0   0  0 -1  -1  0  0
                       0 -1  0   0  0  1   1  0  0       0 -1  0   0  0  1   1  0  0
                       0 -1  0   0  0  1   1  0  0       0 -1  0   0  0  1   1  0  0
                       0  0  1   0  1  0   1  0  0       0  0  1   0  1  0   1  0  0
                       0  0  1   0  1  0   1  0  0       0  0  1   0  1  0   1  0  0
                       0  0 -1   0 -1  0  -1  0  0       0  0 -1   0 -1  0  -1  0  0
                       0  0 -1   0 -1  0  -1  0  0       0  0 -1   0 -1  0  -1  0  0
                       0  0 -1   0  1  0  -1  0  0       0  0 -1   0  1  0  -1  0  0
                       0  0 -1   0  1  0  -1  0  0       0  0 -1   0  1  0  -1  0  0
                       0  0  1   0 -1  0   1  0  0       0  0  1   0 -1  0   1  0  0
                       0  0  1   0 -1  0   1  0  0       0  0  1   0 -1  0   1  0  0
                       0  0 -1   0 -1  0   1  0  0       0  0 -1   0 -1  0   1  0  0
                       0  0 -1   0 -1  0   1  0  0       0  0 -1   0 -1  0   1  0  0
                       0  0  1   0  1  0  -1  0  0       0  0  1   0  1  0  -1  0  0
                       0  0  1   0  1  0  -1  0  0       0  0  1   0  1  0  -1  0  0
                       0  0  1   0 -1  0  -1  0  0       0  0  1   0 -1  0  -1  0  0
                       0  0  1   0 -1  0  -1  0  0       0  0  1   0 -1  0  -1  0  0
                       0  0 -1   0  1  0   1  0  0       0  0 -1   0  1  0   1  0  0
                       0  0 -1   0  1  0   1  0  0       0  0 -1   0  1  0   1  0  0
           symrel6     1  0  0   0  1  0   0  0  1       1  0  0   0 -1  0   0  0  1
                       1  0  0   0  1  0   0  0 -1       1  0  0   0 -1  0   0  0 -1
                       1  0  0   0  0  1   0  1  0       1  0  0   0  0 -1   0  1  0
                       1  0  0   0  0  1   0 -1  0       1  0  0   0  0 -1   0 -1  0
            tnons1     0.0000000  0.0000000  0.0000000     0.5000000  0.5000000  0.0000000
                       0.5000000  0.0000000  0.5000000     0.0000000  0.5000000  0.5000000
                       0.0000000  0.0000000  0.0000000     0.5000000  0.5000000  0.0000000
                       0.5000000  0.0000000  0.5000000     0.0000000  0.5000000  0.5000000
                       0.0000000  0.0000000  0.0000000     0.5000000  0.5000000  0.0000000
                       0.5000000  0.0000000  0.5000000     0.0000000  0.5000000  0.5000000
                       0.0000000  0.0000000  0.0000000     0.5000000  0.5000000  0.0000000
                       0.5000000  0.0000000  0.5000000     0.0000000  0.5000000  0.5000000
                       0.0000000  0.0000000  0.0000000     0.5000000  0.5000000  0.0000000
                       0.5000000  0.0000000  0.5000000     0.0000000  0.5000000  0.5000000
                       0.0000000  0.0000000  0.0000000     0.5000000  0.5000000  0.0000000
                       0.5000000  0.0000000  0.5000000     0.0000000  0.5000000  0.5000000
                       0.0000000  0.0000000  0.0000000     0.5000000  0.5000000  0.0000000
                       0.5000000  0.0000000  0.5000000     0.0000000  0.5000000  0.5000000
                       0.0000000  0.0000000  0.0000000     0.5000000  0.5000000  0.0000000
                       0.5000000  0.0000000  0.5000000     0.0000000  0.5000000  0.5000000
                       0.0000000  0.0000000  0.0000000     0.5000000  0.5000000  0.0000000
                       0.5000000  0.0000000  0.5000000     0.0000000  0.5000000  0.5000000
                       0.0000000  0.0000000  0.0000000     0.5000000  0.5000000  0.0000000
                       0.5000000  0.0000000  0.5000000     0.0000000  0.5000000  0.5000000
                       0.0000000  0.0000000  0.0000000     0.5000000  0.5000000  0.0000000
                       0.5000000  0.0000000  0.5000000     0.0000000  0.5000000  0.5000000
                       0.0000000  0.0000000  0.0000000     0.5000000  0.5000000  0.0000000
                       0.5000000  0.0000000  0.5000000     0.0000000  0.5000000  0.5000000
                       0.0000000  0.0000000  0.0000000     0.5000000  0.5000000  0.0000000
                       0.5000000  0.0000000  0.5000000     0.0000000  0.5000000  0.5000000
                       0.0000000  0.0000000  0.0000000     0.5000000  0.5000000  0.0000000
                       0.5000000  0.0000000  0.5000000     0.0000000  0.5000000  0.5000000
                       0.0000000  0.0000000  0.0000000     0.5000000  0.5000000  0.0000000
                       0.5000000  0.0000000  0.5000000     0.0000000  0.5000000  0.5000000
                       0.0000000  0.0000000  0.0000000     0.5000000  0.5000000  0.0000000
                       0.5000000  0.0000000  0.5000000     0.0000000  0.5000000  0.5000000
                       0.0000000  0.0000000  0.0000000     0.5000000  0.5000000  0.0000000
                       0.5000000  0.0000000  0.5000000     0.0000000  0.5000000  0.5000000
                       0.0000000  0.0000000  0.0000000     0.5000000  0.5000000  0.0000000
                       0.5000000  0.0000000  0.5000000     0.0000000  0.5000000  0.5000000
                       0.0000000  0.0000000  0.0000000     0.5000000  0.5000000  0.0000000
                       0.5000000  0.0000000  0.5000000     0.0000000  0.5000000  0.5000000
                       0.0000000  0.0000000  0.0000000     0.5000000  0.5000000  0.0000000
                       0.5000000  0.0000000  0.5000000     0.0000000  0.5000000  0.5000000
                       0.0000000  0.0000000  0.0000000     0.5000000  0.5000000  0.0000000
                       0.5000000  0.0000000  0.5000000     0.0000000  0.5000000  0.5000000
                       0.0000000  0.0000000  0.0000000     0.5000000  0.5000000  0.0000000
                       0.5000000  0.0000000  0.5000000     0.0000000  0.5000000  0.5000000
                       0.0000000  0.0000000  0.0000000     0.5000000  0.5000000  0.0000000
                       0.5000000  0.0000000  0.5000000     0.0000000  0.5000000  0.5000000
                       0.0000000  0.0000000  0.0000000     0.5000000  0.5000000  0.0000000
                       0.5000000  0.0000000  0.5000000     0.0000000  0.5000000  0.5000000
                       0.0000000  0.0000000  0.0000000     0.5000000  0.5000000  0.0000000
                       0.5000000  0.0000000  0.5000000     0.0000000  0.5000000  0.5000000
                       0.0000000  0.0000000  0.0000000     0.5000000  0.5000000  0.0000000
                       0.5000000  0.0000000  0.5000000     0.0000000  0.5000000  0.5000000
                       0.0000000  0.0000000  0.0000000     0.5000000  0.5000000  0.0000000
                       0.5000000  0.0000000  0.5000000     0.0000000  0.5000000  0.5000000
                       0.0000000  0.0000000  0.0000000     0.5000000  0.5000000  0.0000000
                       0.5000000  0.0000000  0.5000000     0.0000000  0.5000000  0.5000000
                       0.0000000  0.0000000  0.0000000     0.5000000  0.5000000  0.0000000
                       0.5000000  0.0000000  0.5000000     0.0000000  0.5000000  0.5000000
                       0.0000000  0.0000000  0.0000000     0.5000000  0.5000000  0.0000000
                       0.5000000  0.0000000  0.5000000     0.0000000  0.5000000  0.5000000
                       0.0000000  0.0000000  0.0000000     0.5000000  0.5000000  0.0000000
                       0.5000000  0.0000000  0.5000000     0.0000000  0.5000000  0.5000000
                       0.0000000  0.0000000  0.0000000     0.5000000  0.5000000  0.0000000
                       0.5000000  0.0000000  0.5000000     0.0000000  0.5000000  0.5000000
                       0.0000000  0.0000000  0.0000000     0.5000000  0.5000000  0.0000000
                       0.5000000  0.0000000  0.5000000     0.0000000  0.5000000  0.5000000
                       0.0000000  0.0000000  0.0000000     0.5000000  0.5000000  0.0000000
                       0.5000000  0.0000000  0.5000000     0.0000000  0.5000000  0.5000000
                       0.0000000  0.0000000  0.0000000     0.5000000  0.5000000  0.0000000
                       0.5000000  0.0000000  0.5000000     0.0000000  0.5000000  0.5000000
                       0.0000000  0.0000000  0.0000000     0.5000000  0.5000000  0.0000000
                       0.5000000  0.0000000  0.5000000     0.0000000  0.5000000  0.5000000
                       0.0000000  0.0000000  0.0000000     0.5000000  0.5000000  0.0000000
                       0.5000000  0.0000000  0.5000000     0.0000000  0.5000000  0.5000000
                       0.0000000  0.0000000  0.0000000     0.5000000  0.5000000  0.0000000
                       0.5000000  0.0000000  0.5000000     0.0000000  0.5000000  0.5000000
                       0.0000000  0.0000000  0.0000000     0.5000000  0.5000000  0.0000000
                       0.5000000  0.0000000  0.5000000     0.0000000  0.5000000  0.5000000
                       0.0000000  0.0000000  0.0000000     0.5000000  0.5000000  0.0000000
                       0.5000000  0.0000000  0.5000000     0.0000000  0.5000000  0.5000000
                       0.0000000  0.0000000  0.0000000     0.5000000  0.5000000  0.0000000
                       0.5000000  0.0000000  0.5000000     0.0000000  0.5000000  0.5000000
                       0.0000000  0.0000000  0.0000000     0.5000000  0.5000000  0.0000000
                       0.5000000  0.0000000  0.5000000     0.0000000  0.5000000  0.5000000
                       0.0000000  0.0000000  0.0000000     0.5000000  0.5000000  0.0000000
                       0.5000000  0.0000000  0.5000000     0.0000000  0.5000000  0.5000000
                       0.0000000  0.0000000  0.0000000     0.5000000  0.5000000  0.0000000
                       0.5000000  0.0000000  0.5000000     0.0000000  0.5000000  0.5000000
                       0.0000000  0.0000000  0.0000000     0.5000000  0.5000000  0.0000000
                       0.5000000  0.0000000  0.5000000     0.0000000  0.5000000  0.5000000
                       0.0000000  0.0000000  0.0000000     0.5000000  0.5000000  0.0000000
                       0.5000000  0.0000000  0.5000000     0.0000000  0.5000000  0.5000000
                       0.0000000  0.0000000  0.0000000     0.5000000  0.5000000  0.0000000
                       0.5000000  0.0000000  0.5000000     0.0000000  0.5000000  0.5000000
                       0.0000000  0.0000000  0.0000000     0.5000000  0.5000000  0.0000000
                       0.5000000  0.0000000  0.5000000     0.0000000  0.5000000  0.5000000
            tnons2     0.0000000  0.0000000  0.0000000     0.5000000  0.5000000  0.0000000
                       0.5000000  0.0000000  0.5000000     0.0000000  0.5000000  0.5000000
                       0.0000000  0.0000000  0.0000000     0.5000000  0.5000000  0.0000000
                       0.5000000  0.0000000  0.5000000     0.0000000  0.5000000  0.5000000
                       0.0000000  0.0000000  0.0000000     0.5000000  0.5000000  0.0000000
                       0.5000000  0.0000000  0.5000000     0.0000000  0.5000000  0.5000000
                       0.0000000  0.0000000  0.0000000     0.5000000  0.5000000  0.0000000
                       0.5000000  0.0000000  0.5000000     0.0000000  0.5000000  0.5000000
                       0.0000000  0.0000000  0.0000000     0.5000000  0.5000000  0.0000000
                       0.5000000  0.0000000  0.5000000     0.0000000  0.5000000  0.5000000
                       0.0000000  0.0000000  0.0000000     0.5000000  0.5000000  0.0000000
                       0.5000000  0.0000000  0.5000000     0.0000000  0.5000000  0.5000000
                       0.0000000  0.0000000  0.0000000     0.5000000  0.5000000  0.0000000
                       0.5000000  0.0000000  0.5000000     0.0000000  0.5000000  0.5000000
                       0.0000000  0.0000000  0.0000000     0.5000000  0.5000000  0.0000000
                       0.5000000  0.0000000  0.5000000     0.0000000  0.5000000  0.5000000
                       0.0000000  0.0000000  0.0000000     0.5000000  0.5000000  0.0000000
                       0.5000000  0.0000000  0.5000000     0.0000000  0.5000000  0.5000000
                       0.0000000  0.0000000  0.0000000     0.5000000  0.5000000  0.0000000
                       0.5000000  0.0000000  0.5000000     0.0000000  0.5000000  0.5000000
                       0.0000000  0.0000000  0.0000000     0.5000000  0.5000000  0.0000000
                       0.5000000  0.0000000  0.5000000     0.0000000  0.5000000  0.5000000
                       0.0000000  0.0000000  0.0000000     0.5000000  0.5000000  0.0000000
                       0.5000000  0.0000000  0.5000000     0.0000000  0.5000000  0.5000000
                       0.0000000  0.0000000  0.0000000     0.5000000  0.5000000  0.0000000
                       0.5000000  0.0000000  0.5000000     0.0000000  0.5000000  0.5000000
                       0.0000000  0.0000000  0.0000000     0.5000000  0.5000000  0.0000000
                       0.5000000  0.0000000  0.5000000     0.0000000  0.5000000  0.5000000
                       0.0000000  0.0000000  0.0000000     0.5000000  0.5000000  0.0000000
                       0.5000000  0.0000000  0.5000000     0.0000000  0.5000000  0.5000000
                       0.0000000  0.0000000  0.0000000     0.5000000  0.5000000  0.0000000
                       0.5000000  0.0000000  0.5000000     0.0000000  0.5000000  0.5000000
                       0.0000000  0.0000000  0.0000000     0.5000000  0.5000000  0.0000000
                       0.5000000  0.0000000  0.5000000     0.0000000  0.5000000  0.5000000
                       0.0000000  0.0000000  0.0000000     0.5000000  0.5000000  0.0000000
                       0.5000000  0.0000000  0.5000000     0.0000000  0.5000000  0.5000000
                       0.0000000  0.0000000  0.0000000     0.5000000  0.5000000  0.0000000
                       0.5000000  0.0000000  0.5000000     0.0000000  0.5000000  0.5000000
                       0.0000000  0.0000000  0.0000000     0.5000000  0.5000000  0.0000000
                       0.5000000  0.0000000  0.5000000     0.0000000  0.5000000  0.5000000
                       0.0000000  0.0000000  0.0000000     0.5000000  0.5000000  0.0000000
                       0.5000000  0.0000000  0.5000000     0.0000000  0.5000000  0.5000000
                       0.0000000  0.0000000  0.0000000     0.5000000  0.5000000  0.0000000
                       0.5000000  0.0000000  0.5000000     0.0000000  0.5000000  0.5000000
                       0.0000000  0.0000000  0.0000000     0.5000000  0.5000000  0.0000000
                       0.5000000  0.0000000  0.5000000     0.0000000  0.5000000  0.5000000
                       0.0000000  0.0000000  0.0000000     0.5000000  0.5000000  0.0000000
[...]
                       0.5000000  0.0000000  0.5000000     0.0000000  0.5000000  0.5000000
                       0.0000000  0.0000000  0.0000000     0.5000000  0.5000000  0.0000000
                       0.5000000  0.0000000  0.5000000     0.0000000  0.5000000  0.5000000
                       0.0000000  0.0000000  0.0000000     0.5000000  0.5000000  0.0000000
                       0.5000000  0.0000000  0.5000000     0.0000000  0.5000000  0.5000000
                       0.0000000  0.0000000  0.0000000     0.5000000  0.5000000  0.0000000
                       0.5000000  0.0000000  0.5000000     0.0000000  0.5000000  0.5000000
                       0.0000000  0.0000000  0.0000000     0.5000000  0.5000000  0.0000000
                       0.5000000  0.0000000  0.5000000     0.0000000  0.5000000  0.5000000
                       0.0000000  0.0000000  0.0000000     0.5000000  0.5000000  0.0000000
                       0.5000000  0.0000000  0.5000000     0.0000000  0.5000000  0.5000000
                       0.0000000  0.0000000  0.0000000     0.5000000  0.5000000  0.0000000
                       0.5000000  0.0000000  0.5000000     0.0000000  0.5000000  0.5000000
                       0.0000000  0.0000000  0.0000000     0.5000000  0.5000000  0.0000000
                       0.5000000  0.0000000  0.5000000     0.0000000  0.5000000  0.5000000
                       0.0000000  0.0000000  0.0000000     0.5000000  0.5000000  0.0000000
                       0.5000000  0.0000000  0.5000000     0.0000000  0.5000000  0.5000000
                       0.0000000  0.0000000  0.0000000     0.5000000  0.5000000  0.0000000
                       0.5000000  0.0000000  0.5000000     0.0000000  0.5000000  0.5000000
                       0.0000000  0.0000000  0.0000000     0.5000000  0.5000000  0.0000000
                       0.5000000  0.0000000  0.5000000     0.0000000  0.5000000  0.5000000
                       0.0000000  0.0000000  0.0000000     0.5000000  0.5000000  0.0000000
                       0.5000000  0.0000000  0.5000000     0.0000000  0.5000000  0.5000000
                       0.0000000  0.0000000  0.0000000     0.5000000  0.5000000  0.0000000
                       0.5000000  0.0000000  0.5000000     0.0000000  0.5000000  0.5000000
                       0.0000000  0.0000000  0.0000000     0.5000000  0.5000000  0.0000000
                       0.5000000  0.0000000  0.5000000     0.0000000  0.5000000  0.5000000
                       0.0000000  0.0000000  0.0000000     0.5000000  0.5000000  0.0000000
                       0.5000000  0.0000000  0.5000000     0.0000000  0.5000000  0.5000000
                       0.0000000  0.0000000  0.0000000     0.5000000  0.5000000  0.0000000
                       0.5000000  0.0000000  0.5000000     0.0000000  0.5000000  0.5000000
                       0.0000000  0.0000000  0.0000000     0.5000000  0.5000000  0.0000000
                       0.5000000  0.0000000  0.5000000     0.0000000  0.5000000  0.5000000
                       0.0000000  0.0000000  0.0000000     0.5000000  0.5000000  0.0000000
                       0.5000000  0.0000000  0.5000000     0.0000000  0.5000000  0.5000000
                       0.0000000  0.0000000  0.0000000     0.5000000  0.5000000  0.0000000
                       0.5000000  0.0000000  0.5000000     0.0000000  0.5000000  0.5000000
                       0.0000000  0.0000000  0.0000000     0.5000000  0.5000000  0.0000000
                       0.5000000  0.0000000  0.5000000     0.0000000  0.5000000  0.5000000
                       0.0000000  0.0000000  0.0000000     0.5000000  0.5000000  0.0000000
                       0.5000000  0.0000000  0.5000000     0.0000000  0.5000000  0.5000000
                       0.0000000  0.0000000  0.0000000     0.5000000  0.5000000  0.0000000
                       0.5000000  0.0000000  0.5000000     0.0000000  0.5000000  0.5000000
                       0.0000000  0.0000000  0.0000000     0.5000000  0.5000000  0.0000000
                       0.5000000  0.0000000  0.5000000     0.0000000  0.5000000  0.5000000
                       0.0000000  0.0000000  0.0000000     0.5000000  0.5000000  0.0000000
                       0.5000000  0.0000000  0.5000000     0.0000000  0.5000000  0.5000000
                       0.0000000  0.0000000  0.0000000     0.5000000  0.5000000  0.0000000
                       0.5000000  0.0000000  0.5000000     0.0000000  0.5000000  0.5000000
                       0.0000000  0.0000000  0.0000000     0.5000000  0.5000000  0.0000000
                       0.5000000  0.0000000  0.5000000     0.0000000  0.5000000  0.5000000
                       0.0000000  0.0000000  0.0000000     0.5000000  0.5000000  0.0000000
                       0.5000000  0.0000000  0.5000000     0.0000000  0.5000000  0.5000000
                       0.0000000  0.0000000  0.0000000     0.5000000  0.5000000  0.0000000
                       0.5000000  0.0000000  0.5000000     0.0000000  0.5000000  0.5000000
                       0.0000000  0.0000000  0.0000000     0.5000000  0.5000000  0.0000000
                       0.5000000  0.0000000  0.5000000     0.0000000  0.5000000  0.5000000
                       0.0000000  0.0000000  0.0000000     0.5000000  0.5000000  0.0000000
                       0.5000000  0.0000000  0.5000000     0.0000000  0.5000000  0.5000000
                       0.0000000  0.0000000  0.0000000     0.5000000  0.5000000  0.0000000
                       0.5000000  0.0000000  0.5000000     0.0000000  0.5000000  0.5000000
                       0.0000000  0.0000000  0.0000000     0.5000000  0.5000000  0.0000000
                       0.5000000  0.0000000  0.5000000     0.0000000  0.5000000  0.5000000
                       0.0000000  0.0000000  0.0000000     0.5000000  0.5000000  0.0000000
                       0.5000000  0.0000000  0.5000000     0.0000000  0.5000000  0.5000000
                       0.0000000  0.0000000  0.0000000     0.5000000  0.5000000  0.0000000
                       0.5000000  0.0000000  0.5000000     0.0000000  0.5000000  0.5000000
                       0.0000000  0.0000000  0.0000000     0.5000000  0.5000000  0.0000000
                       0.5000000  0.0000000  0.5000000     0.0000000  0.5000000  0.5000000
                       0.0000000  0.0000000  0.0000000     0.5000000  0.5000000  0.0000000
                       0.5000000  0.0000000  0.5000000     0.0000000  0.5000000  0.5000000
                       0.0000000  0.0000000  0.0000000     0.5000000  0.5000000  0.0000000
                       0.5000000  0.0000000  0.5000000     0.0000000  0.5000000  0.5000000
                       0.0000000  0.0000000  0.0000000     0.5000000  0.5000000  0.0000000
                       0.5000000  0.0000000  0.5000000     0.0000000  0.5000000  0.5000000
                       0.0000000  0.0000000  0.0000000     0.5000000  0.5000000  0.0000000
                       0.5000000  0.0000000  0.5000000     0.0000000  0.5000000  0.5000000
                       0.0000000  0.0000000  0.0000000     0.5000000  0.5000000  0.0000000
                       0.5000000  0.0000000  0.5000000     0.0000000  0.5000000  0.5000000
                       0.0000000  0.0000000  0.0000000     0.5000000  0.5000000  0.0000000
                       0.5000000  0.0000000  0.5000000     0.0000000  0.5000000  0.5000000
                       0.0000000  0.0000000  0.0000000     0.5000000  0.5000000  0.0000000
                       0.5000000  0.0000000  0.5000000     0.0000000  0.5000000  0.5000000
                       0.0000000  0.0000000  0.0000000     0.5000000  0.5000000  0.0000000
                       0.5000000  0.0000000  0.5000000     0.0000000  0.5000000  0.5000000
                       0.0000000  0.0000000  0.0000000     0.5000000  0.5000000  0.0000000
                       0.5000000  0.0000000  0.5000000     0.0000000  0.5000000  0.5000000
                       0.0000000  0.0000000  0.0000000     0.5000000  0.5000000  0.0000000
                       0.5000000  0.0000000  0.5000000     0.0000000  0.5000000  0.5000000
            tnons6     0.0000000  0.0000000  0.0000000     0.0000000  0.0000000  0.0000000
                       0.0000000  0.0000000  0.0000000     0.0000000  0.0000000  0.0000000
                       0.0000000  0.5000000  0.5000000     0.0000000  0.5000000  0.5000000
                       0.0000000  0.5000000  0.5000000     0.0000000  0.5000000  0.5000000
           tolvrs      2.00000000E-10
            typat      1  1  1  1
           useylm           1
              wtk1       0.12500    0.37500    0.37500    0.12500
              wtk2       1.00000
              wtk3       0.12500    0.37500    0.37500    0.12500
              wtk4       0.12500    0.37500    0.37500    0.12500
              wtk5       0.12500    0.37500    0.37500    0.12500
              wtk6       0.12500    0.12500    0.25000    0.25000    0.12500    0.12500
           xangst1     0.0000000000E+00  0.0000000000E+00  0.0000000000E+00
                       2.0250000000E+00  2.0250000000E+00  0.0000000000E+00
                       2.0250000000E+00  0.0000000000E+00  2.0250000000E+00
                       0.0000000000E+00  2.0250000000E+00  2.0250000000E+00
           xangst2     0.0000000000E+00  0.0000000000E+00  0.0000000000E+00
                       2.0250000000E+00  2.0250000000E+00  0.0000000000E+00
                       2.0250000000E+00  0.0000000000E+00  2.0250000000E+00
                       0.0000000000E+00  2.0250000000E+00  2.0250000000E+00
           xangst3     0.0000000000E+00  0.0000000000E+00  0.0000000000E+00
                       2.0250000000E+00  2.0250000000E+00  0.0000000000E+00
                       2.0250000000E+00  0.0000000000E+00  2.0250000000E+00
                       0.0000000000E+00  2.0250000000E+00  2.0250000000E+00
           xangst4     0.0000000000E+00  0.0000000000E+00  0.0000000000E+00
                       2.0250000000E+00  2.0250000000E+00  0.0000000000E+00
                       2.0250000000E+00  0.0000000000E+00  2.0250000000E+00
                       0.0000000000E+00  2.0250000000E+00  2.0250000000E+00
           xangst5     0.0000000000E+00  0.0000000000E+00  0.0000000000E+00
                       2.0250000000E+00  2.0250000000E+00  0.0000000000E+00
                       2.0250000000E+00  0.0000000000E+00  2.0250000000E+00
                       0.0000000000E+00  2.0250000000E+00  2.0250000000E+00
           xangst6     0.0000000000E+00  0.0000000000E+00  0.0000000000E+00
                       2.0655000000E+00  2.0250000000E+00  0.0000000000E+00
                       2.0250000000E+00  0.0000000000E+00  2.0250000000E+00
                       0.0000000000E+00  2.0250000000E+00  2.0250000000E+00
            xcart1     0.0000000000E+00  0.0000000000E+00  0.0000000000E+00
                       3.8266954050E+00  3.8266954050E+00  0.0000000000E+00
                       3.8266954050E+00  0.0000000000E+00  3.8266954050E+00
                       0.0000000000E+00  3.8266954050E+00  3.8266954050E+00
            xcart2     0.0000000000E+00  0.0000000000E+00  0.0000000000E+00
                       3.8266954050E+00  3.8266954050E+00  0.0000000000E+00
                       3.8266954050E+00  0.0000000000E+00  3.8266954050E+00
                       0.0000000000E+00  3.8266954050E+00  3.8266954050E+00
            xcart3     0.0000000000E+00  0.0000000000E+00  0.0000000000E+00
                       3.8266954050E+00  3.8266954050E+00  0.0000000000E+00
                       3.8266954050E+00  0.0000000000E+00  3.8266954050E+00
                       0.0000000000E+00  3.8266954050E+00  3.8266954050E+00
            xcart4     0.0000000000E+00  0.0000000000E+00  0.0000000000E+00
                       3.8266954050E+00  3.8266954050E+00  0.0000000000E+00
                       3.8266954050E+00  0.0000000000E+00  3.8266954050E+00
                       0.0000000000E+00  3.8266954050E+00  3.8266954050E+00
            xcart5     0.0000000000E+00  0.0000000000E+00  0.0000000000E+00
                       3.8266954050E+00  3.8266954050E+00  0.0000000000E+00
                       3.8266954050E+00  0.0000000000E+00  3.8266954050E+00
                       0.0000000000E+00  3.8266954050E+00  3.8266954050E+00
            xcart6     0.0000000000E+00  0.0000000000E+00  0.0000000000E+00
                       3.9032293131E+00  3.8266954050E+00  0.0000000000E+00
                       3.8266954050E+00  0.0000000000E+00  3.8266954050E+00
                       0.0000000000E+00  3.8266954050E+00  3.8266954050E+00
             xred1     0.0000000000E+00  0.0000000000E+00  0.0000000000E+00
                       5.0000000000E-01  5.0000000000E-01  0.0000000000E+00
                       5.0000000000E-01  0.0000000000E+00  5.0000000000E-01
                       0.0000000000E+00  5.0000000000E-01  5.0000000000E-01
             xred2     0.0000000000E+00  0.0000000000E+00  0.0000000000E+00
                       5.0000000000E-01  5.0000000000E-01  0.0000000000E+00
                       5.0000000000E-01  0.0000000000E+00  5.0000000000E-01
                       0.0000000000E+00  5.0000000000E-01  5.0000000000E-01
             xred3     0.0000000000E+00  0.0000000000E+00  0.0000000000E+00
                       5.0000000000E-01  5.0000000000E-01  0.0000000000E+00
                       5.0000000000E-01  0.0000000000E+00  5.0000000000E-01
                       0.0000000000E+00  5.0000000000E-01  5.0000000000E-01
             xred4     0.0000000000E+00  0.0000000000E+00  0.0000000000E+00
                       5.0000000000E-01  5.0000000000E-01  0.0000000000E+00
                       5.0000000000E-01  0.0000000000E+00  5.0000000000E-01
                       0.0000000000E+00  5.0000000000E-01  5.0000000000E-01
             xred5     0.0000000000E+00  0.0000000000E+00  0.0000000000E+00
                       5.0000000000E-01  5.0000000000E-01  0.0000000000E+00
                       5.0000000000E-01  0.0000000000E+00  5.0000000000E-01
                       0.0000000000E+00  5.0000000000E-01  5.0000000000E-01
             xred6     0.0000000000E+00  0.0000000000E+00  0.0000000000E+00
                       5.1000000000E-01  5.0000000000E-01  0.0000000000E+00
                       5.0000000000E-01  0.0000000000E+00  5.0000000000E-01
                       0.0000000000E+00  5.0000000000E-01  5.0000000000E-01
            znucl       13.00000

================================================================================


- Timing analysis has been suppressed with timopt=0



================================================================================

 Suggested references for the acknowledgment of ABINIT usage.

 The users of ABINIT have little formal obligations with respect to the ABINIT group
 (those specified in the GNU General Public License, http://www.gnu.org/copyleft/gpl.txt).
 However, it is common practice in the scientific literature,
 to acknowledge the efforts of people that have made the research possible.
 In this spirit, please find below suggested citations of work written by ABINIT developers,
 corresponding to implementations inside of ABINIT that you have used in the present run.
 Note also that it will be of great value to readers of publications presenting these results,
 to read papers enabling them to understand the theoretical formalism and details
 of the ABINIT implementation.
 For information on why they are suggested, see also https://docs.abinit.org/theory/acknowledgments.
-
- [1] Two-component density functional theory within the projector augmented-wave approach:
- Accurate and self-consistent computations of positron lifetimes and momentum distributions
- J. Wiktor, G. Jomard and M. Torrent, Phys. Rev. B 92, 125113 (2015).
- Comment: to be cited in case the computation of electron-positron annihilation properties within the 2-component DFT, i.e. positron/=0.
- Strong suggestion to cite this paper.
- DOI and bibtex: see https://docs.abinit.org/theory/bibliography/#wiktor2015
-
- [2] Implementation of the Projector Augmented-Wave Method in the ABINIT code.
- M. Torrent, F. Jollet, F. Bottin, G. Zerah, and X. Gonze Comput. Mat. Science 42, 337, (2008).
- Comment: PAW calculations. Strong suggestion to cite this paper.
- DOI and bibtex: see https://docs.abinit.org/theory/bibliography/#torrent2008
-
- [3] The Abinit project: Impact, environment and recent developments.
- Computer Phys. Comm. 248, 107042 (2020).
- X.Gonze, B. Amadon, G. Antonius, F.Arnardi, L.Baguet, J.-M.Beuken,
- J.Bieder, F.Bottin, J.Bouchet, E.Bousquet, N.Brouwer, F.Bruneval,
- G.Brunin, T.Cavignac, J.-B. Charraud, Wei Chen, M.Cote, S.Cottenier,
- J.Denier, G.Geneste, Ph.Ghosez, M.Giantomassi, Y.Gillet, O.Gingras,
- D.R.Hamann, G.Hautier, Xu He, N.Helbig, N.Holzwarth, Y.Jia, F.Jollet,
- W.Lafargue-Dit-Hauret, K.Lejaeghere, M.A.L.Marques, A.Martin, C.Martins,
- H.P.C. Miranda, F.Naccarato, K. Persson, G.Petretto, V.Planes, Y.Pouillon,
- S.Prokhorenko, F.Ricci, G.-M.Rignanese, A.H.Romero, M.M.Schmitt, M.Torrent,
- M.J.van Setten, B.Van Troeye, M.J.Verstraete, G.Zerah and J.W.Zwanzig
- Comment: the fifth generic paper describing the ABINIT project.
- Note that a version of this paper, that is not formatted for Computer Phys. Comm. 
- is available at https://www.abinit.org/sites/default/files/ABINIT20.pdf .
- The licence allows the authors to put it on the Web.
- DOI and bibtex: see https://docs.abinit.org/theory/bibliography/#gonze2020
-
- [4] ABINIT: Overview, and focus on selected capabilities
- J. Chem. Phys. 152, 124102 (2020).
- A. Romero, D.C. Allan, B. Amadon, G. Antonius, T. Applencourt, L.Baguet,
- J.Bieder, F.Bottin, J.Bouchet, E.Bousquet, F.Bruneval,
- G.Brunin, D.Caliste, M.Cote,
- J.Denier, C. Dreyer, Ph.Ghosez, M.Giantomassi, Y.Gillet, O.Gingras,
- D.R.Hamann, G.Hautier, F.Jollet, G. Jomard,
- A.Martin, 
- H.P.C. Miranda, F.Naccarato, G.Petretto, N.A. Pike, V.Planes,
- S.Prokhorenko, T. Rangel, F.Ricci, G.-M.Rignanese, M.Royo, M.Stengel, M.Torrent,
- M.J.van Setten, B.Van Troeye, M.J.Verstraete, J.Wiktor, J.W.Zwanziger, and X.Gonze.
- Comment: a global overview of ABINIT, with focus on selected capabilities .
- Note that a version of this paper, that is not formatted for J. Chem. Phys 
- is available at https://www.abinit.org/sites/default/files/ABINIT20_JPC.pdf .
- The licence allows the authors to put it on the Web.
- DOI and bibtex: see https://docs.abinit.org/theory/bibliography/#romero2020
-
- [5] Recent developments in the ABINIT software package.
- Computer Phys. Comm. 205, 106 (2016).
- X.Gonze, F.Jollet, F.Abreu Araujo, D.Adams, B.Amadon, T.Applencourt,
- C.Audouze, J.-M.Beuken, J.Bieder, A.Bokhanchuk, E.Bousquet, F.Bruneval
- D.Caliste, M.Cote, F.Dahm, F.Da Pieve, M.Delaveau, M.Di Gennaro,
- B.Dorado, C.Espejo, G.Geneste, L.Genovese, A.Gerossier, M.Giantomassi,
- Y.Gillet, D.R.Hamann, L.He, G.Jomard, J.Laflamme Janssen, S.Le Roux,
- A.Levitt, A.Lherbier, F.Liu, I.Lukacevic, A.Martin, C.Martins,
- M.J.T.Oliveira, S.Ponce, Y.Pouillon, T.Rangel, G.-M.Rignanese,
- A.H.Romero, B.Rousseau, O.Rubel, A.A.Shukri, M.Stankovski, M.Torrent,
- M.J.Van Setten, B.Van Troeye, M.J.Verstraete, D.Waroquier, J.Wiktor,
- B.Xu, A.Zhou, J.W.Zwanziger.
- Comment: the fourth generic paper describing the ABINIT project.
- Note that a version of this paper, that is not formatted for Computer Phys. Comm. 
- is available at https://www.abinit.org/sites/default/files/ABINIT16.pdf .
- The licence allows the authors to put it on the Web.
- DOI and bibtex: see https://docs.abinit.org/theory/bibliography/#gonze2016
-
- Proc.   0 individual time (sec): cpu=         11.5  wall=         11.5

================================================================================

 Calculation completed.
.Delivered   6 WARNINGs and  59 COMMENTs to log file.
+Overall time at end (sec) : cpu=         11.5  wall=         11.5
