
.Version 5.8.2  of ABINIT 
.(sequential version, prepared for a x86_64_linux_gnu4.3 computer) 

.Copyright (C) 1998-2020 ABINIT group . 
 ABINIT comes with ABSOLUTELY NO WARRANTY.
 It is free software, and you are welcome to redistribute it
 under certain conditions (GNU General Public License,
 see ~abinit/COPYING or http://www.gnu.org/copyleft/gpl.txt).

 ABINIT is a project of the Universite Catholique de Louvain,
 Corning Inc. and other collaborators, see ~abinit/doc/developers/contributors.txt .
 Please read https://docs.abinit.org/theory/acknowledgments for suggested
 acknowledgments of the ABINIT effort.
 For more information, see https://www.abinit.org .

.Starting date : Wed 13 May 2009.
  
- input  file    -> /home/gonze/ABINIT/ABINITv5.8.2/5.8.2-private/tests/v5/Input/t12.in
- output file    -> t12.out
- root for input  files -> t12i
- root for output files -> t12o


 Symmetries : the space group has not been recognized
================================================================================
 Values of the parameters that define the memory need of the present run
   intxc =         0  ionmov =         0    iscf =        17 xclevel =         1
  lmnmax =         8   lnmax =         4   mband =         9  mffmem =         1
P  mgfft =        36   mkmem =        32 mpssoang=         2     mpw =      2008
  mqgrid =      3001   natom =         2    nfft =     46656    nkpt =        32
  nloalg =         4  nspden =         1 nspinor =         1  nsppol =         1
    nsym =         8  n1xccc =         1  ntypat =         2  occopt =         1
 PAW method is used; the additional fine FFT grid is defined by:
   mgfftf=        50    nfftf =    125000
================================================================================
P This job should need less than                      40.665 Mbytes of memory.
  Rough estimation (10% accuracy) of disk space for files :
  WF disk file :      8.826 Mbytes ; DEN or POT disk file :      0.956 Mbytes.
================================================================================

 -outvars: echo values of preprocessed input variables --------
     acell    8.7305347339E+00  8.7305347339E+00  8.7305347339E+00 Bohr
       amu    2.29897680E+01  1.89984032E+01
  berryopt        -1
      ecut    4.00000000E+01 Hartree
       ixc         7
       kpt   -2.50000000E-01  5.00000000E-01  0.00000000E+00
              5.00000000E-01 -2.50000000E-01  0.00000000E+00
             -2.50000000E-01 -2.50000000E-01  2.50000000E-01
             -2.50000000E-01  0.00000000E+00  0.00000000E+00
              5.00000000E-01  2.50000000E-01  0.00000000E+00
             -2.50000000E-01  2.50000000E-01  2.50000000E-01
              2.50000000E-01  5.00000000E-01  0.00000000E+00
              5.00000000E-01  5.00000000E-01  2.50000000E-01
             -2.50000000E-01  5.00000000E-01  5.00000000E-01
              0.00000000E+00 -2.50000000E-01  0.00000000E+00
              2.50000000E-01 -2.50000000E-01  2.50000000E-01
              5.00000000E-01 -2.50000000E-01  5.00000000E-01
             -2.50000000E-01 -2.50000000E-01 -2.50000000E-01
              2.50000000E-01  0.00000000E+00  0.00000000E+00
              5.00000000E-01  0.00000000E+00  2.50000000E-01
             -2.50000000E-01  0.00000000E+00  5.00000000E-01
              0.00000000E+00  2.50000000E-01  0.00000000E+00
              2.50000000E-01  2.50000000E-01  2.50000000E-01
              5.00000000E-01  2.50000000E-01  5.00000000E-01
             -2.50000000E-01  2.50000000E-01 -2.50000000E-01
              0.00000000E+00  5.00000000E-01  2.50000000E-01
              2.50000000E-01  5.00000000E-01  5.00000000E-01
              5.00000000E-01  5.00000000E-01 -2.50000000E-01
              0.00000000E+00 -2.50000000E-01  5.00000000E-01
              2.50000000E-01 -2.50000000E-01 -2.50000000E-01
              0.00000000E+00  0.00000000E+00  2.50000000E-01
              2.50000000E-01  0.00000000E+00  5.00000000E-01
              5.00000000E-01  0.00000000E+00 -2.50000000E-01
              0.00000000E+00  2.50000000E-01  5.00000000E-01
              2.50000000E-01  2.50000000E-01 -2.50000000E-01
              0.00000000E+00  5.00000000E-01 -2.50000000E-01
              0.00000000E+00  0.00000000E+00 -2.50000000E-01
   kptrlen    1.74610695E+01
    kptopt         3
  kptrlatt    2 -2  2  -2  2  2  -2 -2  2
P    mkmem        32
     natom         2
     nband         9
     ngfft        36      36      36
   ngfftdg        50      50      50
      nkpt        32
     nstep         1
      nsym         8
    ntypat         2
       occ    2.000000  2.000000  2.000000  2.000000  2.000000  2.000000
              2.000000  2.000000  0.000000
 pawecutdg    8.00000000E+01 Hartree
     rprim    0.0000000000E+00  5.0000000000E-01  5.0000000000E-01
              5.0000000000E-01  0.0000000000E+00  5.0000000000E-01
              5.0000000000E-01  5.0000000000E-01  0.0000000000E+00
    shiftk    5.00000000E-01  5.00000000E-01  5.00000000E-01
    symrel    1  0  0   0  1  0   0  0  1       0  1 -1   0  1  0  -1  1  0
             -1  0  0  -1  0  1  -1  1  0       0 -1  1  -1  0  1   0  0  1
             -1  0  0  -1  1  0  -1  0  1       0  1 -1  -1  1  0   0  1  0
              1  0  0   0  0  1   0  1  0       0 -1  1   0  0  1  -1  0  1
    toldfe    1.00000000E-12 Hartree
     typat    1  2
    useylm         1
       wtk      0.03125    0.03125    0.03125    0.03125    0.03125    0.03125
                0.03125    0.03125    0.03125    0.03125    0.03125    0.03125
                0.03125    0.03125    0.03125    0.03125    0.03125    0.03125
                0.03125    0.03125    0.03125    0.03125    0.03125    0.03125
                0.03125    0.03125    0.03125    0.03125    0.03125    0.03125
                0.03125    0.03125
    xangst    5.2917720859E-03  0.0000000000E+00  0.0000000000E+00
              2.3099999903E+00  2.3099999903E+00  2.3099999903E+00
     xcart    1.0000000000E-02  0.0000000000E+00  0.0000000000E+00
              4.3652673487E+00  4.3652673487E+00  4.3652673487E+00
      xred   -1.1454052134E-03  1.1454052134E-03  1.1454052134E-03
              4.9999999791E-01  4.9999999791E-01  4.9999999791E-01
     znucl     11.00000    9.00000

================================================================================

 chkinp: Checking input parameters for consistency.

================================================================================
== DATASET  1 ==================================================================

 Real(R)+Recip(G) space primitive vectors, cartesian coordinates (Bohr,Bohr^-1):
 R(1)=  0.0000000  4.3652674  4.3652674  G(1)= -0.1145405  0.1145405  0.1145405
 R(2)=  4.3652674  0.0000000  4.3652674  G(2)=  0.1145405 -0.1145405  0.1145405
 R(3)=  4.3652674  4.3652674  0.0000000  G(3)=  0.1145405  0.1145405 -0.1145405
 Unit cell volume ucvol=  1.6636522E+02 bohr^3
 Angles (23,13,12)=  6.00000000E+01  6.00000000E+01  6.00000000E+01 degrees

 Coarse grid specifications (used for wave-functions):

 getcut: wavevector=  0.0000  0.0000  0.0000  ngfft=  36  36  36
         ecut(hartree)=     40.000   => boxcut(ratio)=   2.04824

 Fine grid specifications (used for densities):

 getcut: wavevector=  0.0000  0.0000  0.0000  ngfft=  50  50  50
         ecut(hartree)=     80.000   => boxcut(ratio)=   2.01237

--- Pseudopotential description ------------------------------------------------
- pspini: atom type   1  psp file is /home/gonze/ABINIT/ABINITv5.8.2/5.8.2-private/tests/Psps_for_tests/Na.noRSO.9e.pawps
- pspatm: opening atomic psp file    /home/gonze/ABINIT/ABINITv5.8.2/5.8.2-private/tests/Psps_for_tests/Na.noRSO.9e.pawps
- Paw atomic data for element Na - Generated by AtomPAW (N. Holzwarth) + AtomPAW2Abinit v3.1.1
  11.00000   9.00000  20070403                znucl, zion, pspdat
    7    7    1    0       432   0.00000      pspcod,pspxc,lmax,lloc,mmax,r2well
 Pseudopotential format is: paw3
 basis_size (lnmax)=  4 (lmn_size=  8), orbitals=   0   0   1   1
 Spheres core radius: rc_sph= 1.11525214
 3 radial meshes are used:
  - mesh 1: r(i)=AA*[exp(BB*(i-1))-1], size= 432 , AA= 0.14225E-02 BB= 0.15647E-01
  - mesh 2: r(i)=AA*[exp(BB*(i-1))-1], size= 427 , AA= 0.14225E-02 BB= 0.15647E-01
  - mesh 3: r(i)=AA*[exp(BB*(i-1))-1], size= 567 , AA= 0.14225E-02 BB= 0.15647E-01
 Shapefunction is SIN type: shapef(r)=[sin(pi*r/rshp)/(pi*r/rshp)]**2
 Radius for shape functions = sphere core radius
 Radial grid used for partial waves is grid 1
 Radial grid used for projectors is grid 2
 Radial grid used for (t)core density is grid 1
 Radial grid used for Vloc is grid 3
 Compensation charge density is taken into account in XC energy/potential
 pspatm: atomic psp has been read  and splines computed

- pspini: atom type   2  psp file is /home/gonze/ABINIT/ABINITv5.8.2/5.8.2-private/tests/Psps_for_tests/F.noRSO.rc1.4.pawps
- pspatm: opening atomic psp file    /home/gonze/ABINIT/ABINITv5.8.2/5.8.2-private/tests/Psps_for_tests/F.noRSO.rc1.4.pawps
- Paw atomic data for element F - Generated by AtomPAW (N. Holzwarth) + AtomPAW2Abinit v3.1.1
   9.00000   7.00000  20070403                znucl, zion, pspdat
    7    7    1    0       443   0.00000      pspcod,pspxc,lmax,lloc,mmax,r2well
 Pseudopotential format is: paw3
 basis_size (lnmax)=  4 (lmn_size=  8), orbitals=   0   0   1   1
 Spheres core radius: rc_sph= 1.41926478
 3 radial meshes are used:
  - mesh 1: r(i)=AA*[exp(BB*(i-1))-1], size= 443 , AA= 0.17094E-02 BB= 0.15384E-01
  - mesh 2: r(i)=AA*[exp(BB*(i-1))-1], size= 438 , AA= 0.17094E-02 BB= 0.15384E-01
  - mesh 3: r(i)=AA*[exp(BB*(i-1))-1], size= 564 , AA= 0.17094E-02 BB= 0.15384E-01
 Shapefunction is SIN type: shapef(r)=[sin(pi*r/rshp)/(pi*r/rshp)]**2
 Radius for shape functions = sphere core radius
 Radial grid used for partial waves is grid 1
 Radial grid used for projectors is grid 2
 Radial grid used for (t)core density is grid 1
 Radial grid used for Vloc is grid 3
 Compensation charge density is taken into account in XC energy/potential
 pspatm: atomic psp has been read  and splines computed

   1.36488908E+02                                ecore*ucvol(ha*bohr**3)
--------------------------------------------------------------------------------

P newkpt: treating      9 bands with npw=    2008 for ikpt=   1
P newkpt: treating      9 bands with npw=    2008 for ikpt=   2
P newkpt: treating      9 bands with npw=    2008 for ikpt=   3
P newkpt: treating      9 bands with npw=    2000 for ikpt=   4
P newkpt: treating      9 bands with npw=    2008 for ikpt=   5
P newkpt: treating      9 bands with npw=    2008 for ikpt=   6
P newkpt: treating      9 bands with npw=    2008 for ikpt=   7
P newkpt: treating      9 bands with npw=    2008 for ikpt=   8
P newkpt: treating      9 bands with npw=    2008 for ikpt=   9
P newkpt: treating      9 bands with npw=    2000 for ikpt=  10
P newkpt: treating      9 bands with npw=    2008 for ikpt=  11
P newkpt: treating      9 bands with npw=    2008 for ikpt=  12
P newkpt: treating      9 bands with npw=    2000 for ikpt=  13
P newkpt: treating      9 bands with npw=    2000 for ikpt=  14
P newkpt: treating      9 bands with npw=    2008 for ikpt=  15
P newkpt: treating      9 bands with npw=    2008 for ikpt=  16
P newkpt: treating      9 bands with npw=    2000 for ikpt=  17
P newkpt: treating      9 bands with npw=    2000 for ikpt=  18
P newkpt: treating      9 bands with npw=    2008 for ikpt=  19
P newkpt: treating      9 bands with npw=    2008 for ikpt=  20
P newkpt: treating      9 bands with npw=    2008 for ikpt=  21
P newkpt: treating      9 bands with npw=    2008 for ikpt=  22
P newkpt: treating      9 bands with npw=    2008 for ikpt=  23
P newkpt: treating      9 bands with npw=    2008 for ikpt=  24
P newkpt: treating      9 bands with npw=    2008 for ikpt=  25
P newkpt: treating      9 bands with npw=    2000 for ikpt=  26
P newkpt: treating      9 bands with npw=    2008 for ikpt=  27
P newkpt: treating      9 bands with npw=    2008 for ikpt=  28
P newkpt: treating      9 bands with npw=    2008 for ikpt=  29
P newkpt: treating      9 bands with npw=    2008 for ikpt=  30
P newkpt: treating      9 bands with npw=    2008 for ikpt=  31
P newkpt: treating      9 bands with npw=    2000 for ikpt=  32

 setup2: Arith. and geom. avg. npw (full set) are    2006.000    2005.997
  initberry: for direction 1, nkstr =   2, nstr =  16
  initberry: for direction 2, nkstr =   2, nstr =  16
  initberry: for direction 3, nkstr =   2, nstr =  16

================================================================================

     iter   Etot(hartree)      deltaE(h)  residm     nres2    diffor    maxfor
 ETOT  1  -76.537764896277    -7.654E+01 7.510E-02 9.416E+03 3.595E-01 3.595E-01

 Computing the polarization (Berry phase) for reciprocal vector:
  0.50000  0.00000  0.00000 (in reduced coordinates)
 -0.05727  0.05727  0.05727 (in cartesian coordinates - atomic units)
 Number of strings:    16
 Number of k points in string:    2

 Summary of the results
 Electronic Berry phase     1.276530857E-02
            Ionic phase    -5.103086323E-01
            Total phase    -4.975433237E-01
    Remapping in [-1,1]    -4.975433237E-01

           Polarization    -1.507469653E-02 (a.u. of charge)/bohr^2
           Polarization    -8.624951662E-01 C/m^2


 Computing the polarization (Berry phase) for reciprocal vector:
  0.00000  0.50000  0.00000 (in reduced coordinates)
  0.05727 -0.05727  0.05727 (in cartesian coordinates - atomic units)
 Number of strings:    16
 Number of k points in string:    2

 Summary of the results
 Electronic Berry phase    -7.954719819E-03
            Ionic phase    -4.896913677E-01
            Total phase    -4.976460875E-01
    Remapping in [-1,1]    -4.976460875E-01

           Polarization    -1.507781009E-02 (a.u. of charge)/bohr^2
           Polarization    -8.626733081E-01 C/m^2


 Computing the polarization (Berry phase) for reciprocal vector:
  0.00000  0.00000  0.50000 (in reduced coordinates)
  0.05727  0.05727 -0.05727 (in cartesian coordinates - atomic units)
 Number of strings:    16
 Number of k points in string:    2

 Summary of the results
 Electronic Berry phase    -1.064940299E-02
            Ionic phase    -4.896913677E-01
            Total phase    -5.003407707E-01
    Remapping in [-1,1]    -5.003407707E-01

           Polarization    -1.515945430E-02 (a.u. of charge)/bohr^2
           Polarization    -8.673445620E-01 C/m^2


 Polarization in cartesian coordinates (a.u.):
 (the sum of the electronic and ionic Berry phase has been fold into [-1, 1])
     Electronic berry phase:       -0.488154733E-03   0.555193777E-04   0.126225337E-03  
     Expectation value (PAW only):  0.605153028E-07   0.000000000E+00   0.000000000E+00  
     Ionic:                        -0.256980844E-01  -0.262390621E-01  -0.262390621E-01  
     Total:                        -0.261861786E-01  -0.261835427E-01  -0.261128367E-01

 Polarization in cartesian coordinates (C/m^2):
 (the sum of the electronic and ionic Berry phase has been fold into [-1, 1])
     Electronic berry phase:       -0.279296566E-01   0.317652795E-02   0.722195253E-02  
     Expectation value (PAW only):  0.346236862E-05   0.000000000E+00   0.000000000E+00  
     Ionic:                        -0.147030977E+01  -0.150126168E+01  -0.150126168E+01  
     Total:                        -0.149823596E+01  -0.149808515E+01  -0.149403972E+01

 Cartesian components of stress tensor (hartree/bohr^3)
  sigma(1 1)=  2.38239035E-01  sigma(3 2)=  0.00000000E+00
  sigma(2 2)=  2.38203768E-01  sigma(3 1)=  0.00000000E+00
  sigma(3 3)=  2.38203768E-01  sigma(2 1)=  0.00000000E+00


 scprqt:  WARNING -
  nstep=    1 was not enough SCF cycles to converge;
  maximum energy difference=  7.654E+01 exceeds toldfe=  1.000E-12


 PAW TEST:
 ==== Compensation charge inside spheres ============
 The following values must be close to each other ...
 Compensation charge over spherical meshes =      2.791093333652899
 Compensation charge over fine fft grid    =      1.527932963076499

 ==== Results concerning PAW augmentation regions ====

 Total pseudopotential strength Dij (hartree):
 Atom #  1
   1.33225  -0.23940   0.00000   0.00000   0.00000   0.00000   0.00000  -0.00000
  -0.23940   0.04339   0.00000   0.00000  -0.00000   0.00000   0.00000   0.00000
   0.00000   0.00000  -0.26080   0.00000   0.00000   0.01102   0.00000   0.00000
   0.00000   0.00000   0.00000  -0.26080   0.00000   0.00000   0.01102   0.00000
   0.00000  -0.00000   0.00000   0.00000  -0.26080   0.00000   0.00000   0.01102
   0.00000   0.00000   0.01102   0.00000   0.00000   0.00122   0.00000   0.00000
   0.00000   0.00000   0.00000   0.01102   0.00000   0.00000   0.00122   0.00000
  -0.00000   0.00000   0.00000   0.00000   0.01102   0.00000   0.00000   0.00122
 Atom #  2
   0.74467  -1.64678   0.00000   0.00000   0.00000   0.00000   0.00000  -0.00000
  -1.64678   3.71904   0.00000   0.00000  -0.00000   0.00000   0.00000   0.00000
   0.00000   0.00000  -0.25313   0.00000   0.00000   0.97021   0.00000   0.00000
   0.00000   0.00000   0.00000  -0.25313   0.00000   0.00000   0.97021   0.00000
   0.00000  -0.00000   0.00000   0.00000  -0.25313   0.00000   0.00000   0.97021
   0.00000   0.00000   0.97021   0.00000   0.00000   2.20740   0.00000   0.00000
   0.00000   0.00000   0.00000   0.97021   0.00000   0.00000   2.20740   0.00000
  -0.00000   0.00000   0.00000   0.00000   0.97021   0.00000   0.00000   2.20740


 Augmentation waves occupancies Rhoij:
 Atom #  1
   3.39315   7.77263   0.00000   0.00000   0.00168   0.00000   0.00000   0.00122
   7.77263  17.88824   0.00000   0.00000   0.01405   0.00000   0.00000   0.04322
   0.00000   0.00000   2.23143   0.00000   0.00000   9.21321   0.00000   0.00000
   0.00000   0.00000   0.00000   2.23143   0.00000   0.00000   9.21321   0.00000
   0.00168   0.01405   0.00000   0.00000   2.23972   0.00000   0.00000   9.24659
   0.00000   0.00000   9.21321   0.00000   0.00000  38.17095   0.00000   0.00000
   0.00000   0.00000   0.00000   9.21321   0.00000   0.00000  38.17095   0.00000
   0.00122   0.04322   0.00000   0.00000   9.24659   0.00000   0.00000  38.29270
 Atom #  2
   2.66225   0.26951   0.00000   0.00000  -0.00185   0.00000   0.00000   0.00006
   0.26951   0.03265   0.00000   0.00000  -0.00159   0.00000   0.00000  -0.00004
   0.00000   0.00000   2.38932   0.00000   0.00000   0.06550   0.00000   0.00000
   0.00000   0.00000   0.00000   2.38932   0.00000   0.00000   0.06550   0.00000
  -0.00185  -0.00159   0.00000   0.00000   2.39115   0.00000   0.00000   0.06529
   0.00000   0.00000   0.06550   0.00000   0.00000   0.00211   0.00000   0.00000
   0.00000   0.00000   0.00000   0.06550   0.00000   0.00000   0.00211   0.00000
   0.00006  -0.00004   0.00000   0.00000   0.06529   0.00000   0.00000   0.00209


================================================================================

 ----iterations are completed or convergence reached----

 Mean square residual over all n,k,spin=   1.5767E-02; max=  7.5096E-02
  -0.2500  0.5000  0.0000    1  4.69980E-02 kpt; spin; max resid(k); each band:
 1.19E-02 2.37E-02 7.40E-03 4.16E-03 2.03E-02 2.15E-03 6.97E-03 4.70E-02
 2.12E-02
   0.5000 -0.2500  0.0000    1  1.64564E-02 kpt; spin; max resid(k); each band:
 4.04E-03 8.32E-03 2.49E-03 3.26E-03 9.44E-03 2.30E-03 8.75E-03 9.70E-03
 1.65E-02
  -0.2500 -0.2500  0.2500    1  3.39979E-02 kpt; spin; max resid(k); each band:
 1.51E-02 3.40E-02 5.10E-03 4.62E-03 1.81E-02 6.02E-03 1.68E-02 3.04E-02
 2.37E-02
  -0.2500  0.0000  0.0000    1  6.28732E-02 kpt; spin; max resid(k); each band:
 2.21E-02 2.00E-02 5.93E-03 5.82E-03 1.24E-02 9.97E-03 2.25E-02 4.27E-02
 6.29E-02
   0.5000  0.2500  0.0000    1  2.68050E-02 kpt; spin; max resid(k); each band:
 7.92E-03 1.17E-02 2.02E-03 4.09E-03 1.21E-02 8.95E-03 7.88E-03 2.68E-02
 2.44E-02
  -0.2500  0.2500  0.2500    1  5.45138E-02 kpt; spin; max resid(k); each band:
 1.78E-02 2.04E-02 5.12E-03 1.64E-02 1.99E-02 1.02E-02 1.73E-02 5.24E-02
 5.45E-02
   0.2500  0.5000  0.0000    1  3.21006E-02 kpt; spin; max resid(k); each band:
 2.18E-02 1.48E-02 6.73E-03 7.74E-03 1.73E-02 1.14E-02 6.87E-03 2.48E-02
 3.21E-02
   0.5000  0.5000  0.2500    1  3.26694E-02 kpt; spin; max resid(k); each band:
 2.06E-02 3.27E-02 4.93E-03 6.06E-03 2.00E-02 8.10E-03 1.35E-02 2.46E-02
 3.22E-02
  -0.2500  0.5000  0.5000    1  2.21290E-02 kpt; spin; max resid(k); each band:
 1.12E-02 2.21E-02 3.43E-03 3.75E-03 1.49E-02 4.24E-03 1.61E-02 1.28E-02
 1.70E-02
   0.0000 -0.2500  0.0000    1  3.72377E-02 kpt; spin; max resid(k); each band:
 1.53E-02 1.71E-02 2.82E-03 3.84E-03 7.62E-03 1.06E-02 4.50E-03 3.13E-02
 3.72E-02
   0.2500 -0.2500  0.2500    1  3.34808E-02 kpt; spin; max resid(k); each band:
 7.25E-03 3.35E-02 3.26E-03 1.45E-02 2.39E-02 2.29E-03 1.07E-02 2.36E-02
 2.68E-02
   0.5000 -0.2500  0.5000    1  1.80324E-02 kpt; spin; max resid(k); each band:
 4.81E-03 1.80E-02 1.81E-03 3.41E-03 7.70E-03 4.36E-03 6.98E-03 7.03E-03
 1.01E-02
  -0.2500 -0.2500 -0.2500    1  4.63835E-02 kpt; spin; max resid(k); each band:
 2.10E-02 9.53E-03 3.30E-03 5.39E-03 1.13E-02 6.72E-03 4.74E-03 4.64E-02
 3.99E-02
   0.2500  0.0000  0.0000    1  5.40527E-02 kpt; spin; max resid(k); each band:
 4.02E-02 1.80E-02 6.57E-03 8.41E-03 2.06E-02 1.32E-02 2.74E-02 3.18E-02
 5.41E-02
   0.5000  0.0000  0.2500    1  7.50957E-02 kpt; spin; max resid(k); each band:
 1.18E-02 1.33E-02 5.39E-03 1.10E-02 1.31E-02 8.38E-03 9.23E-03 7.51E-02
 5.75E-02
  -0.2500  0.0000  0.5000    1  3.51240E-02 kpt; spin; max resid(k); each band:
 9.76E-03 1.88E-02 3.35E-03 5.60E-03 2.66E-02 4.41E-03 1.84E-02 2.83E-02
 3.51E-02
   0.0000  0.2500  0.0000    1  4.88646E-02 kpt; spin; max resid(k); each band:
 3.84E-02 1.83E-02 4.42E-03 5.95E-03 6.92E-03 1.40E-02 7.88E-03 4.89E-02
 3.39E-02
   0.2500  0.2500  0.2500    1  2.60801E-02 kpt; spin; max resid(k); each band:
 8.33E-03 1.12E-02 2.18E-03 4.52E-03 1.68E-02 1.07E-02 5.43E-03 1.86E-02
 2.61E-02
   0.5000  0.2500  0.5000    1  2.71652E-02 kpt; spin; max resid(k); each band:
 7.93E-03 2.72E-02 2.63E-03 1.25E-03 1.22E-02 2.47E-03 6.74E-03 8.26E-03
 1.48E-02
  -0.2500  0.2500 -0.2500    1  4.02635E-02 kpt; spin; max resid(k); each band:
 1.10E-02 4.03E-02 3.99E-03 1.44E-02 6.43E-03 4.69E-03 8.43E-03 2.46E-02
 2.51E-02
   0.0000  0.5000  0.2500    1  4.76797E-02 kpt; spin; max resid(k); each band:
 1.56E-02 2.80E-02 6.33E-03 1.22E-02 1.60E-02 6.37E-03 1.61E-02 4.77E-02
 3.09E-02
   0.2500  0.5000  0.5000    1  2.68903E-02 kpt; spin; max resid(k); each band:
 1.29E-02 2.69E-02 3.87E-03 5.26E-03 1.26E-02 4.69E-03 4.29E-03 1.59E-02
 2.41E-02
   0.5000  0.5000 -0.2500    1  6.01703E-02 kpt; spin; max resid(k); each band:
 7.24E-03 6.02E-02 2.32E-03 6.04E-03 2.46E-02 6.62E-03 2.47E-02 2.28E-02
 3.07E-02
   0.0000 -0.2500  0.5000    1  2.52408E-02 kpt; spin; max resid(k); each band:
 2.15E-02 1.37E-02 4.67E-03 6.34E-03 2.04E-02 4.50E-03 9.40E-03 1.87E-02
 2.52E-02
   0.2500 -0.2500 -0.2500    1  5.95444E-02 kpt; spin; max resid(k); each band:
 1.20E-02 2.28E-02 3.44E-03 5.64E-03 1.62E-02 8.15E-03 6.80E-03 5.95E-02
 3.13E-02
   0.0000  0.0000  0.2500    1  4.53780E-02 kpt; spin; max resid(k); each band:
 1.76E-02 1.12E-02 4.48E-03 5.11E-03 3.67E-03 8.77E-03 7.10E-03 4.03E-02
 4.54E-02
   0.2500  0.0000  0.5000    1  4.55484E-02 kpt; spin; max resid(k); each band:
 1.27E-02 4.36E-02 6.61E-03 1.04E-02 2.20E-02 1.06E-02 1.09E-02 4.55E-02
 1.91E-02
   0.5000  0.0000 -0.2500    1  2.45181E-02 kpt; spin; max resid(k); each band:
 7.99E-03 1.77E-02 1.40E-03 6.29E-03 2.45E-02 7.65E-03 8.53E-03 1.89E-02
 2.34E-02
   0.0000  0.2500  0.5000    1  1.35054E-02 kpt; spin; max resid(k); each band:
 1.09E-02 1.16E-02 3.25E-03 4.58E-03 1.14E-02 3.84E-03 7.55E-03 1.35E-02
 1.22E-02
   0.2500  0.2500 -0.2500    1  3.94594E-02 kpt; spin; max resid(k); each band:
 1.20E-02 3.79E-02 2.65E-03 8.26E-03 1.20E-02 4.69E-03 1.17E-02 3.95E-02
 2.91E-02
   0.0000  0.5000 -0.2500    1  2.63480E-02 kpt; spin; max resid(k); each band:
 1.28E-02 2.63E-02 5.05E-03 4.57E-03 2.23E-02 5.61E-03 1.16E-02 1.94E-02
 1.80E-02
   0.0000  0.0000 -0.2500    1  1.95901E-02 kpt; spin; max resid(k); each band:
 1.72E-02 1.72E-02 4.04E-03 2.54E-03 1.81E-02 4.58E-03 4.25E-03 1.62E-02
 1.96E-02
 reduced coordinates (array xred) for    2 atoms
      -0.001145405213      0.001145405213      0.001145405213
       0.500000002092      0.499999997908      0.499999997908
 rms dE/dt=  1.8259E+00; max dE/dt=  0.0000E+00; dE/dt below (all hartree)
    1       0.000000000000     -3.162534297675     -3.162534297675
    2       0.000000000000     -0.024075960903     -0.024075960903

 cartesian coordinates (angstrom) at end:
    1      0.00529177208590     0.00000000000000     0.00000000000000
    2      2.30999999033414     2.31000000000000     2.31000000000000

 cartesian forces (hartree/bohr) at end:
    1      0.35948065409720     0.00000000000000    -0.00000000000000
    2     -0.35948065409720    -0.00000000000000     0.00000000000000
 frms,max,avg= 2.0754625E-01 3.5948065E-01   3.650E-01  0.000E+00  0.000E+00 h/b

 cartesian forces (eV/Angstrom) at end:
    1     18.48523691136837     0.00000000000000    -0.00000000000000
    2    -18.48523691136837    -0.00000000000000     0.00000000000000
 frms,max,avg= 1.0672457E+01 1.8485237E+01   1.877E+01  0.000E+00  0.000E+00 e/A
 length scales=  8.730534733932  8.730534733932  8.730534733932 bohr
              =  4.620000000000  4.620000000000  4.620000000000 angstroms
 prteigrs : about to open file t12o_EIG
 Fermi (or HOMO) energy (hartree) =   0.41611   Average Vxc (hartree)=  -0.21533
 Eigenvalues (hartree) for nkpt=  32  k points:
 kpt#   1, nband=  9, wtk=  0.03125, kpt= -0.2500  0.5000  0.0000 (reduced coord)
  -0.49990  -0.43880   0.05694   0.09329   0.10765   0.34342   0.38900   0.39351
   0.67294
 kpt#   2, nband=  9, wtk=  0.03125, kpt=  0.5000 -0.2500  0.0000 (reduced coord)
  -0.50314  -0.43924   0.05517   0.09142   0.10747   0.33958   0.38490   0.39089
   0.62213
 kpt#   3, nband=  9, wtk=  0.03125, kpt= -0.2500 -0.2500  0.2500 (reduced coord)
  -0.49792  -0.43663   0.05512   0.09183   0.10774   0.34100   0.38663   0.39356
   0.68193
 kpt#   4, nband=  9, wtk=  0.03125, kpt= -0.2500  0.0000  0.0000 (reduced coord)
  -0.52747  -0.41508   0.11246   0.12964   0.13116   0.31063   0.38748   0.41611
   0.57670
 kpt#   5, nband=  9, wtk=  0.03125, kpt=  0.5000  0.2500  0.0000 (reduced coord)
  -0.50281  -0.43890   0.05391   0.09388   0.10838   0.34059   0.38765   0.39262
   0.63910
 kpt#   6, nband=  9, wtk=  0.03125, kpt= -0.2500  0.2500  0.2500 (reduced coord)
  -0.49942  -0.43878   0.05485   0.10026   0.10781   0.34451   0.38798   0.40838
   0.66792
 kpt#   7, nband=  9, wtk=  0.03125, kpt=  0.2500  0.5000  0.0000 (reduced coord)
  -0.49984  -0.43873   0.05833   0.09127   0.10781   0.34195   0.38493   0.39090
   0.63291
 kpt#   8, nband=  9, wtk=  0.03125, kpt=  0.5000  0.5000  0.2500 (reduced coord)
  -0.50112  -0.43843   0.05477   0.09449   0.10715   0.33933   0.38487   0.39232
   0.61314
 kpt#   9, nband=  9, wtk=  0.03125, kpt= -0.2500  0.5000  0.5000 (reduced coord)
  -0.49953  -0.43811   0.05507   0.09357   0.10790   0.33967   0.38629   0.39088
   0.62268
 kpt#  10, nband=  9, wtk=  0.03125, kpt=  0.0000 -0.2500  0.0000 (reduced coord)
  -0.53358  -0.41660   0.10792   0.12951   0.13263   0.30926   0.38657   0.39192
   0.58033
 kpt#  11, nband=  9, wtk=  0.03125, kpt=  0.2500 -0.2500  0.2500 (reduced coord)
  -0.49945  -0.43873   0.05445   0.09493   0.10777   0.33942   0.38517   0.39202
   0.61484
 kpt#  12, nband=  9, wtk=  0.03125, kpt=  0.5000 -0.2500  0.5000 (reduced coord)
  -0.50269  -0.43903   0.05357   0.09151   0.10673   0.33923   0.38454   0.38999
   0.61115
 kpt#  13, nband=  9, wtk=  0.03125, kpt= -0.2500 -0.2500 -0.2500 (reduced coord)
  -0.53176  -0.41660   0.11002   0.12943   0.13158   0.30617   0.38689   0.40339
   0.59333
 kpt#  14, nband=  9, wtk=  0.03125, kpt=  0.2500  0.0000  0.0000 (reduced coord)
  -0.52572  -0.41601   0.10874   0.12948   0.14192   0.30849   0.39042   0.40076
   0.58822
 kpt#  15, nband=  9, wtk=  0.03125, kpt=  0.5000  0.0000  0.2500 (reduced coord)
  -0.50171  -0.43858   0.05619   0.09530   0.10991   0.34071   0.38743   0.40678
   0.66031
 kpt#  16, nband=  9, wtk=  0.03125, kpt= -0.2500  0.0000  0.5000 (reduced coord)
  -0.50223  -0.43816   0.05930   0.09203   0.10735   0.34292   0.38647   0.39166
   0.62615
 kpt#  17, nband=  9, wtk=  0.03125, kpt=  0.0000  0.2500  0.0000 (reduced coord)
  -0.52823  -0.41555   0.10903   0.12975   0.13110   0.30671   0.38822   0.39240
   0.57087
 kpt#  18, nband=  9, wtk=  0.03125, kpt=  0.2500  0.2500  0.2500 (reduced coord)
  -0.53374  -0.41664   0.11013   0.12929   0.13194   0.30665   0.38707   0.39363
   0.61319
 kpt#  19, nband=  9, wtk=  0.03125, kpt=  0.5000  0.2500  0.5000 (reduced coord)
  -0.50119  -0.43913   0.05367   0.09120   0.10696   0.33887   0.38454   0.39017
   0.61439
 kpt#  20, nband=  9, wtk=  0.03125, kpt= -0.2500  0.2500 -0.2500 (reduced coord)
  -0.49743  -0.43830   0.05610   0.09125   0.10870   0.34403   0.38451   0.39084
   0.61954
 kpt#  21, nband=  9, wtk=  0.03125, kpt=  0.0000  0.5000  0.2500 (reduced coord)
  -0.49737  -0.43921   0.05468   0.09242   0.11159   0.34299   0.38770   0.39671
   0.66930
 kpt#  22, nband=  9, wtk=  0.03125, kpt=  0.2500  0.5000  0.5000 (reduced coord)
  -0.50154  -0.43682   0.05441   0.09104   0.10884   0.34225   0.38438   0.39382
   0.61744
 kpt#  23, nband=  9, wtk=  0.03125, kpt=  0.5000  0.5000 -0.2500 (reduced coord)
  -0.49561  -0.43777   0.05498   0.09167   0.11125   0.34022   0.38847   0.39815
   0.61682
 kpt#  24, nband=  9, wtk=  0.03125, kpt=  0.0000 -0.2500  0.5000 (reduced coord)
  -0.50081  -0.43828   0.05912   0.09162   0.10745   0.33981   0.38502   0.39162
   0.61990
 kpt#  25, nband=  9, wtk=  0.03125, kpt=  0.2500 -0.2500 -0.2500 (reduced coord)
  -0.49845  -0.43891   0.05503   0.09590   0.10843   0.34122   0.38539   0.39702
   0.62027
 kpt#  26, nband=  9, wtk=  0.03125, kpt=  0.0000  0.0000  0.2500 (reduced coord)
  -0.52994  -0.41590   0.10817   0.12960   0.13315   0.31836   0.38968   0.39454
   0.57516
 kpt#  27, nband=  9, wtk=  0.03125, kpt=  0.2500  0.0000  0.5000 (reduced coord)
  -0.49682  -0.43516   0.05729   0.09376   0.10921   0.34071   0.38547   0.39868
   0.61317
 kpt#  28, nband=  9, wtk=  0.03125, kpt=  0.5000  0.0000 -0.2500 (reduced coord)
  -0.50221  -0.43922   0.05987   0.09134   0.10750   0.33944   0.38522   0.39123
   0.62356
 kpt#  29, nband=  9, wtk=  0.03125, kpt=  0.0000  0.2500  0.5000 (reduced coord)
  -0.50320  -0.43870   0.05408   0.09187   0.10726   0.33927   0.38462   0.39150
   0.61348
 kpt#  30, nband=  9, wtk=  0.03125, kpt=  0.2500  0.2500 -0.2500 (reduced coord)
  -0.49639  -0.43814   0.05362   0.09235   0.10857   0.34463   0.38653   0.40187
   0.62783
 kpt#  31, nband=  9, wtk=  0.03125, kpt=  0.0000  0.5000 -0.2500 (reduced coord)
  -0.50243  -0.43633   0.05444   0.09216   0.10834   0.34216   0.38501   0.39044
   0.62141
 kpt#  32, nband=  9, wtk=  0.03125, kpt=  0.0000  0.0000 -0.2500 (reduced coord)
  -0.53285  -0.41687   0.10780   0.12926   0.13141   0.30572   0.38643   0.38850
   0.64460
 Total charge density [el/Bohr^3]
,     Maximum=    1.2892E+00  at reduced coord.    0.0400    0.9800    0.9800
,Next maximum=    1.2892E+00  at reduced coord.    0.0000    0.9800    0.9800
,     Minimum=    1.4075E-02  at reduced coord.    0.2400    0.2600    0.2600
,Next minimum=    1.4075E-02  at reduced coord.    0.7400    0.7600    0.7600

--------------------------------------------------------------------------------
 Components of total free energy (in Hartree) :

    Kinetic energy  =  1.84307647855492E+01
    Hartree energy  =  3.86265356086168E+01
    XC energy       = -1.41228519784002E+01
    Ewald energy    = -4.19984027657600E+01
    PspCore energy  =  8.20417311467292E-01
    Loc. psp. energy= -1.06626165586716E+02
    Spherical terms =  9.89651710731896E+00
    >>>>>>>>> Etotal= -9.49731855179240E+01

 "Double-counting" decomposition of free energy:
    Band energy     =  9.19778650577532E-01
    Ewald energy    = -4.19984027657600E+01
    PspCore energy  =  8.20417311467292E-01
    Dble-C XC-energy= -3.41699581542375E+01
    Spherical terms = -2.10959993832441E+00
    >>>> Etotal (DC)= -7.65377648962771E+01

  >Total energy in eV           = -2.58435180753522E+03
  >Total DC energy in eV        = -2.08269850037903E+03
--------------------------------------------------------------------------------

 Cartesian components of stress tensor (hartree/bohr^3)
  sigma(1 1)=  2.38239035E-01  sigma(3 2)=  0.00000000E+00
  sigma(2 2)=  2.38203768E-01  sigma(3 1)=  0.00000000E+00
  sigma(3 3)=  2.38203768E-01  sigma(2 1)=  0.00000000E+00

-Cartesian components of stress tensor (GPa)         [Pressure= -7.0085E+03 GPa]
- sigma(1 1)=  7.00923322E+03  sigma(3 2)=  0.00000000E+00
- sigma(2 2)=  7.00819565E+03  sigma(3 1)=  0.00000000E+00
- sigma(3 3)=  7.00819565E+03  sigma(2 1)=  0.00000000E+00

== END DATASET(S) ==============================================================
================================================================================
  
 -outvars: echo values of variables after computation  --------
     acell    8.7305347339E+00  8.7305347339E+00  8.7305347339E+00 Bohr
       amu    2.29897680E+01  1.89984032E+01
  berryopt        -1
      ecut    4.00000000E+01 Hartree
    etotal   -7.6537764896E+01
     fcart    3.5948065410E-01  2.1684043450E-19 -2.1684043450E-19
             -3.5948065410E-01 -2.1684043450E-19  2.1684043450E-19
       ixc         7
       kpt   -2.50000000E-01  5.00000000E-01  0.00000000E+00
              5.00000000E-01 -2.50000000E-01  0.00000000E+00
             -2.50000000E-01 -2.50000000E-01  2.50000000E-01
             -2.50000000E-01  0.00000000E+00  0.00000000E+00
              5.00000000E-01  2.50000000E-01  0.00000000E+00
             -2.50000000E-01  2.50000000E-01  2.50000000E-01
              2.50000000E-01  5.00000000E-01  0.00000000E+00
              5.00000000E-01  5.00000000E-01  2.50000000E-01
             -2.50000000E-01  5.00000000E-01  5.00000000E-01
              0.00000000E+00 -2.50000000E-01  0.00000000E+00
              2.50000000E-01 -2.50000000E-01  2.50000000E-01
              5.00000000E-01 -2.50000000E-01  5.00000000E-01
             -2.50000000E-01 -2.50000000E-01 -2.50000000E-01
              2.50000000E-01  0.00000000E+00  0.00000000E+00
              5.00000000E-01  0.00000000E+00  2.50000000E-01
             -2.50000000E-01  0.00000000E+00  5.00000000E-01
              0.00000000E+00  2.50000000E-01  0.00000000E+00
              2.50000000E-01  2.50000000E-01  2.50000000E-01
              5.00000000E-01  2.50000000E-01  5.00000000E-01
             -2.50000000E-01  2.50000000E-01 -2.50000000E-01
              0.00000000E+00  5.00000000E-01  2.50000000E-01
              2.50000000E-01  5.00000000E-01  5.00000000E-01
              5.00000000E-01  5.00000000E-01 -2.50000000E-01
              0.00000000E+00 -2.50000000E-01  5.00000000E-01
              2.50000000E-01 -2.50000000E-01 -2.50000000E-01
              0.00000000E+00  0.00000000E+00  2.50000000E-01
              2.50000000E-01  0.00000000E+00  5.00000000E-01
              5.00000000E-01  0.00000000E+00 -2.50000000E-01
              0.00000000E+00  2.50000000E-01  5.00000000E-01
              2.50000000E-01  2.50000000E-01 -2.50000000E-01
              0.00000000E+00  5.00000000E-01 -2.50000000E-01
              0.00000000E+00  0.00000000E+00 -2.50000000E-01
   kptrlen    1.74610695E+01
    kptopt         3
  kptrlatt    2 -2  2  -2  2  2  -2 -2  2
P    mkmem        32
     natom         2
     nband         9
     ngfft        36      36      36
   ngfftdg        50      50      50
      nkpt        32
     nstep         1
      nsym         8
    ntypat         2
       occ    2.000000  2.000000  2.000000  2.000000  2.000000  2.000000
              2.000000  2.000000  0.000000
 pawecutdg    8.00000000E+01 Hartree
     rprim    0.0000000000E+00  5.0000000000E-01  5.0000000000E-01
              5.0000000000E-01  0.0000000000E+00  5.0000000000E-01
              5.0000000000E-01  5.0000000000E-01  0.0000000000E+00
    shiftk    5.00000000E-01  5.00000000E-01  5.00000000E-01
    strten    2.3823903487E-01  2.3820376847E-01  2.3820376847E-01
              0.0000000000E+00  0.0000000000E+00  0.0000000000E+00
    symrel    1  0  0   0  1  0   0  0  1       0  1 -1   0  1  0  -1  1  0
             -1  0  0  -1  0  1  -1  1  0       0 -1  1  -1  0  1   0  0  1
             -1  0  0  -1  1  0  -1  0  1       0  1 -1  -1  1  0   0  1  0
              1  0  0   0  0  1   0  1  0       0 -1  1   0  0  1  -1  0  1
    toldfe    1.00000000E-12 Hartree
     typat    1  2
    useylm         1
       wtk      0.03125    0.03125    0.03125    0.03125    0.03125    0.03125
                0.03125    0.03125    0.03125    0.03125    0.03125    0.03125
                0.03125    0.03125    0.03125    0.03125    0.03125    0.03125
                0.03125    0.03125    0.03125    0.03125    0.03125    0.03125
                0.03125    0.03125    0.03125    0.03125    0.03125    0.03125
                0.03125    0.03125
    xangst    5.2917720859E-03  0.0000000000E+00  0.0000000000E+00
              2.3099999903E+00  2.3100000000E+00  2.3100000000E+00
     xcart    1.0000000000E-02  0.0000000000E+00  0.0000000000E+00
              4.3652673487E+00  4.3652673670E+00  4.3652673670E+00
      xred   -1.1454052134E-03  1.1454052134E-03  1.1454052134E-03
              5.0000000209E-01  4.9999999791E-01  4.9999999791E-01
     znucl     11.00000    9.00000

================================================================================

- Total cpu        time (s,m,h):         16.1        0.27      0.004
- Total wall clock time (s,m,h):         16.1        0.27      0.004

- For major independent code sections, cpu and wall times (sec),
- as well as % of the total time and number of calls 

- routine                 cpu     %       wall     %      number of calls 
-                                                          (-1=no count)
- fourwf(pot)            8.019  49.9      8.016  49.8           2822
- nonlop(apply)          1.742  10.8      1.834  11.4           2822
- pspini                 1.068   6.6      1.069   6.6              1
- projbd                 0.501   3.1      0.485   3.0           2246
- fourwf(den)            0.392   2.4      0.415   2.6            256
- nonlop(forstr)         0.323   2.0      0.338   2.1            256
- vtowfk(ssdiag)         0.257   1.6      0.259   1.6             -1
- timing timab           0.148   0.9      0.148   0.9              9
- nonlop(forces)         0.141   0.9      0.116   0.7            288
- getghc-other           0.138   0.9      0.122   0.8             -1
- forces                 0.113   0.7      0.113   0.7              1
- invars2                0.109   0.7      0.108   0.7              1
- 58   others            0.502   3.1      0.505   3.1

- subtotal              13.453  83.7     13.528  84.1

================================================================================

 Suggested references for the acknowledgment of ABINIT usage.

 The users of ABINIT have little formal obligations with respect to the ABINIT group
 (those specified in the GNU General Public License, http://www.gnu.org/copyleft/gpl.txt).
 However, it is common practice in the scientific literature,
 to acknowledge the efforts of people that have made the research possible.
 In this spirit, please find below suggested citations of work written by ABINIT developers,
 corresponding to implementations inside of ABINIT that you have used in the present run.
 Note also that it will be of great value to readers of publications presenting these results,
 to read papers enabling them to understand the theoretical formalism and details
 of the ABINIT implementation.
 For information on why they are suggested, see also https://docs.abinit.org/theory/acknowledgments.

 [1] Implementation of the Projector Augmented-Wave Method in the ABINIT code.
 M. Torrent, F. Jollet, F. Bottin, G. Zerah, and X. Gonze Comput. Mat. Science 42, 337, (2008).
 Comment : PAW calculations. Strong suggestion to cite this paper.

 [2] A brief introduction to the ABINIT software package.
 X. Gonze, G.-M. Rignanese, M. Verstraete, J.-M. Beuken, Y. Pouillon, R. Caracas, F. Jollet,
 M. Torrent, G. Zerah, M. Mikami, Ph. Ghosez, M. Veithen, J.-Y. Raty, V. Olevano, F. Bruneval,
 L. Reining, R. Godby, G. Onida, D.R. Hamann, and D.C. Allan.
 Z. Kristallogr. 220, 558-562 (2005).
 Comment : the second generic paper describing the ABINIT project. Note that this paper
 should be cited, especially if you are using the GW part of ABINIT, as the authors
 of this part are not in the list of authors of the first paper.
 The .pdf of the latter paper is available at https://www.abinit.org/about/zfk_0505-06_558-562.pdf.
 Note that it should not redistributed (Copyright by Oldenburg Wissenshaftverlag,
 the licence allows the authors to put it on the Web).

 [3] First-principles computation of material properties : the ABINIT software project. 
 X. Gonze, J.-M. Beuken, R. Caracas, F. Detraux, M. Fuchs, G.-M. Rignanese, L. Sindic,
 M. Verstraete, G. Zerah, F. Jollet, M. Torrent, A. Roy, M. Mikami, Ph. Ghosez, J.-Y. Raty, D.C. Allan.
 Computational Materials Science 25, 478-492 (2002). http://dx.doi.org/10.1016/S0927-0256(02)00325-7
 Comment : the original paper describing the ABINIT project.


 And optionally :

 [4] Fast radix 2, 3, 4 and 5 kernels for Fast Fourier Transformations
 on computers with overlapping multiply-add instructions.
 S. Goedecker, SIAM J. on Scientific Computing 18, 1605 (1997).

 [5] Iterative minimization techniques for ab initio total-energy calculations:
 molecular dynamics and conjugate gradients.
 M.C. Payne, M.P. Teter, D.C. Allan, T.A. Arias and J.D. Joannopoulos, Rev. Mod. Phys. 64, 1045 (1992).

================================================================================

 Calculation completed.
.Delivered    2 WARNINGs and   1 COMMENTs to log file.
+Overall time at end (sec) : cpu=         16.1  wall=         16.1
