
.Version 5.8.2  of ABINIT 
.(sequential version, prepared for a x86_64_linux_gnu4.3 computer) 

.Copyright (C) 1998-2020 ABINIT group . 
 ABINIT comes with ABSOLUTELY NO WARRANTY.
 It is free software, and you are welcome to redistribute it
 under certain conditions (GNU General Public License,
 see ~abinit/COPYING or http://www.gnu.org/copyleft/gpl.txt).

 ABINIT is a project of the Universite Catholique de Louvain,
 Corning Inc. and other collaborators, see ~abinit/doc/developers/contributors.txt .
 Please read https://docs.abinit.org/theory/acknowledgments for suggested
 acknowledgments of the ABINIT effort.
 For more information, see https://www.abinit.org .

.Starting date : Wed 13 May 2009.
  
- input  file    -> /home/gonze/ABINIT/ABINITv5.8.2/5.8.2-private/tests/v5/Input/t13.in
- output file    -> t13.out
- root for input  files -> t13i
- root for output files -> t13o


 Symmetries : the space group has not been recognized
================================================================================
 Values of the parameters that define the memory need of the present run
   intxc =         0  ionmov =         0    iscf =        17 xclevel =         2
  lmnmax =         8   lnmax =         4   mband =         5  mffmem =         1
P  mgfft =        45   mkmem =        32 mpssoang=         2     mpw =      3705
  mqgrid =      3001   natom =         2    nfft =     91125    nkpt =        32
  nloalg =         4  nspden =         1 nspinor =         1  nsppol =         1
    nsym =         4  n1xccc =         1  ntypat =         2  occopt =         1
 PAW method is used; the additional fine FFT grid is defined by:
   mgfftf=        64    nfftf =    262144
================================================================================
P This job should need less than                     106.197 Mbytes of memory.
  Rough estimation (10% accuracy) of disk space for files :
  WF disk file :      9.047 Mbytes ; DEN or POT disk file :      2.002 Mbytes.
================================================================================

 -outvars: echo values of preprocessed input variables --------
     acell    1.0695849912E+01  1.0695849912E+01  1.0695849912E+01 Bohr
       amu    2.69815390E+01  7.49215900E+01
  berryopt        -1
      ecut    4.00000000E+01 Hartree
       ixc        11
       kpt   -2.50000000E-01  5.00000000E-01  0.00000000E+00
              5.00000000E-01 -2.50000000E-01  0.00000000E+00
             -2.50000000E-01 -2.50000000E-01  2.50000000E-01
             -2.50000000E-01  0.00000000E+00  0.00000000E+00
              5.00000000E-01  2.50000000E-01  0.00000000E+00
             -2.50000000E-01  2.50000000E-01  2.50000000E-01
              2.50000000E-01  5.00000000E-01  0.00000000E+00
              5.00000000E-01  5.00000000E-01  2.50000000E-01
             -2.50000000E-01  5.00000000E-01  5.00000000E-01
              0.00000000E+00 -2.50000000E-01  0.00000000E+00
              2.50000000E-01 -2.50000000E-01  2.50000000E-01
              5.00000000E-01 -2.50000000E-01  5.00000000E-01
             -2.50000000E-01 -2.50000000E-01 -2.50000000E-01
              2.50000000E-01  0.00000000E+00  0.00000000E+00
              5.00000000E-01  0.00000000E+00  2.50000000E-01
             -2.50000000E-01  0.00000000E+00  5.00000000E-01
              0.00000000E+00  2.50000000E-01  0.00000000E+00
              2.50000000E-01  2.50000000E-01  2.50000000E-01
              5.00000000E-01  2.50000000E-01  5.00000000E-01
             -2.50000000E-01  2.50000000E-01 -2.50000000E-01
              0.00000000E+00  5.00000000E-01  2.50000000E-01
              2.50000000E-01  5.00000000E-01  5.00000000E-01
              5.00000000E-01  5.00000000E-01 -2.50000000E-01
              0.00000000E+00 -2.50000000E-01  5.00000000E-01
              2.50000000E-01 -2.50000000E-01 -2.50000000E-01
              0.00000000E+00  0.00000000E+00  2.50000000E-01
              2.50000000E-01  0.00000000E+00  5.00000000E-01
              5.00000000E-01  0.00000000E+00 -2.50000000E-01
              0.00000000E+00  2.50000000E-01  5.00000000E-01
              2.50000000E-01  2.50000000E-01 -2.50000000E-01
              0.00000000E+00  5.00000000E-01 -2.50000000E-01
              0.00000000E+00  0.00000000E+00 -2.50000000E-01
   kptrlen    2.13916998E+01
    kptopt         3
  kptrlatt    2 -2  2  -2  2  2  -2 -2  2
P    mkmem        32
     natom         2
     nband         5
     ngfft        45      45      45
   ngfftdg        64      64      64
      nkpt        32
     nstep         1
      nsym         4
    ntypat         2
       occ    2.000000  2.000000  2.000000  2.000000  0.000000
 pawecutdg    8.00000000E+01 Hartree
     rprim    0.0000000000E+00  5.0000000000E-01  5.0000000000E-01
              5.0000000000E-01  0.0000000000E+00  5.0000000000E-01
              5.0000000000E-01  5.0000000000E-01  0.0000000000E+00
    shiftk    5.00000000E-01  5.00000000E-01  5.00000000E-01
    symrel    1  0  0   0  1  0   0  0  1      -1  0  0  -1  0  1  -1  1  0
             -1  0  0  -1  1  0  -1  0  1       1  0  0   0  0  1   0  1  0
    toldfe    1.00000000E-12 Hartree
     typat    1  2
    useylm         1
       wtk      0.03125    0.03125    0.03125    0.03125    0.03125    0.03125
                0.03125    0.03125    0.03125    0.03125    0.03125    0.03125
                0.03125    0.03125    0.03125    0.03125    0.03125    0.03125
                0.03125    0.03125    0.03125    0.03125    0.03125    0.03125
                0.03125    0.03125    0.03125    0.03125    0.03125    0.03125
                0.03125    0.03125
    xangst    5.2917720859E-03  0.0000000000E+00  0.0000000000E+00
              1.4149999941E+00  1.4149999941E+00  1.4149999941E+00
     xcart    1.0000000000E-02  0.0000000000E+00  0.0000000000E+00
              2.6739624669E+00  2.6739624669E+00  2.6739624669E+00
      xred   -9.3494206465E-04  9.3494206465E-04  9.3494206465E-04
              2.4999999896E-01  2.4999999896E-01  2.4999999896E-01
     znucl     13.00000   33.00000

================================================================================

 chkinp: Checking input parameters for consistency.

================================================================================
== DATASET  1 ==================================================================

 Real(R)+Recip(G) space primitive vectors, cartesian coordinates (Bohr,Bohr^-1):
 R(1)=  0.0000000  5.3479250  5.3479250  G(1)= -0.0934942  0.0934942  0.0934942
 R(2)=  5.3479250  0.0000000  5.3479250  G(2)=  0.0934942 -0.0934942  0.0934942
 R(3)=  5.3479250  5.3479250  0.0000000  G(3)=  0.0934942  0.0934942 -0.0934942
 Unit cell volume ucvol=  3.0590453E+02 bohr^3
 Angles (23,13,12)=  6.00000000E+01  6.00000000E+01  6.00000000E+01 degrees

 Coarse grid specifications (used for wave-functions):

 getcut: wavevector=  0.0000  0.0000  0.0000  ngfft=  45  45  45
         ecut(hartree)=     40.000   => boxcut(ratio)=   2.04342

 Fine grid specifications (used for densities):

 getcut: wavevector=  0.0000  0.0000  0.0000  ngfft=  64  64  64
         ecut(hartree)=     80.000   => boxcut(ratio)=   2.10169

--- Pseudopotential description ------------------------------------------------
- pspini: atom type   1  psp file is /home/gonze/ABINIT/ABINITv5.8.2/5.8.2-private/tests/Psps_for_tests/Al.gga.uspp.paw
- pspatm: opening atomic psp file    /home/gonze/ABINIT/ABINITv5.8.2/5.8.2-private/tests/Psps_for_tests/Al.gga.uspp.paw
- Paw atomic data extracted from US-psp (D.Vanderbilt): Aluminium
  13.00000   3.00000  20050712                znucl, zion, pspdat
    7   11    1    0       604   0.00000      pspcod,pspxc,lmax,lloc,mmax,r2well
 Pseudopotential format is: paw3
 basis_size (lnmax)=  4 (lmn_size=  8), orbitals=   0   0   1   1
 Spheres core radius: rc_sph= 1.62418712
 4 radial meshes are used:
  - mesh 1: r(i)=AA*[exp(BB*(i-1))-1], size= 604 , AA= 0.70145E-04 BB= 0.16667E-01
  - mesh 2: r(i)=AA*[exp(BB*(i-1))-1], size= 636 , AA= 0.70145E-04 BB= 0.16667E-01
  - mesh 3: r(i)=AA*[exp(BB*(i-1))-1], size= 662 , AA= 0.70145E-04 BB= 0.16667E-01
  - mesh 4: r(i)=AA*[exp(BB*(i-1))-1], size= 713 , AA= 0.70145E-04 BB= 0.16667E-01
 Shapefunction is SIN type: shapef(r)=[sin(pi*r/rshp)/(pi*r/rshp)]**2
 Radius for shape functions = sphere core radius
 Radial grid used for partial waves is grid 1
 Radial grid used for projectors is grid 2
 Radial grid used for (t)core density is grid 3
 Radial grid used for Vloc is grid 4
 Compensation charge density is taken into account in XC energy/potential
 pspatm: atomic psp has been read  and splines computed

- pspini: atom type   2  psp file is /home/gonze/ABINIT/ABINITv5.8.2/5.8.2-private/tests/Psps_for_tests/As_ps.abinit.paw
- pspatm: opening atomic psp file    /home/gonze/ABINIT/ABINITv5.8.2/5.8.2-private/tests/Psps_for_tests/As_ps.abinit.paw
 arsenic ( 4elec) - PAW data extracted from US-psp (D.Vanderbilt) - generated by USpp2Abinit v2.2.1
  33.00000   5.00000  20070607                znucl, zion, pspdat
    7   11    1    0       613   0.00000      pspcod,pspxc,lmax,lloc,mmax,r2well
 Pseudopotential format is: paw3
 basis_size (lnmax)=  4 (lmn_size=  8), orbitals=   0   0   1   1
 Spheres core radius: rc_sph= 2.20691143
 4 radial meshes are used:
  - mesh 1: r(i)=AA*[exp(BB*(i-1))-1], size= 613 , AA= 0.75114E-04 BB= 0.16949E-01
  - mesh 2: r(i)=AA*[exp(BB*(i-1))-1], size= 609 , AA= 0.75114E-04 BB= 0.16949E-01
  - mesh 3: r(i)=AA*[exp(BB*(i-1))-1], size= 665 , AA= 0.75114E-04 BB= 0.16949E-01
  - mesh 4: r(i)=AA*[exp(BB*(i-1))-1], size= 697 , AA= 0.75114E-04 BB= 0.16949E-01
 Shapefunction is BESSEL type: shapef(r,l)=aa(1,l)*jl(q(1,l)*r)+aa(2,l)*jl(q(2,l)*r)
 Radius for shape functions = sphere core radius
 Radial grid used for partial waves is grid 1
 Radial grid used for projectors is grid 2
 Radial grid used for (t)core density is grid 3
 Radial grid used for Vloc is grid 4
 Compensation charge density is taken into account in XC energy/potential
 pspatm: atomic psp has been read  and splines computed

   3.33677592E+02                                ecore*ucvol(ha*bohr**3)
--------------------------------------------------------------------------------

P newkpt: treating      5 bands with npw=    3695 for ikpt=   1
P newkpt: treating      5 bands with npw=    3695 for ikpt=   2
P newkpt: treating      5 bands with npw=    3695 for ikpt=   3
P newkpt: treating      5 bands with npw=    3705 for ikpt=   4
P newkpt: treating      5 bands with npw=    3695 for ikpt=   5
P newkpt: treating      5 bands with npw=    3695 for ikpt=   6
P newkpt: treating      5 bands with npw=    3695 for ikpt=   7
P newkpt: treating      5 bands with npw=    3695 for ikpt=   8
P newkpt: treating      5 bands with npw=    3695 for ikpt=   9
P newkpt: treating      5 bands with npw=    3705 for ikpt=  10
P newkpt: treating      5 bands with npw=    3695 for ikpt=  11
P newkpt: treating      5 bands with npw=    3695 for ikpt=  12
P newkpt: treating      5 bands with npw=    3705 for ikpt=  13
P newkpt: treating      5 bands with npw=    3705 for ikpt=  14
P newkpt: treating      5 bands with npw=    3695 for ikpt=  15
P newkpt: treating      5 bands with npw=    3695 for ikpt=  16
P newkpt: treating      5 bands with npw=    3705 for ikpt=  17
P newkpt: treating      5 bands with npw=    3705 for ikpt=  18
P newkpt: treating      5 bands with npw=    3695 for ikpt=  19
P newkpt: treating      5 bands with npw=    3695 for ikpt=  20
P newkpt: treating      5 bands with npw=    3695 for ikpt=  21
P newkpt: treating      5 bands with npw=    3695 for ikpt=  22
P newkpt: treating      5 bands with npw=    3695 for ikpt=  23
P newkpt: treating      5 bands with npw=    3695 for ikpt=  24
P newkpt: treating      5 bands with npw=    3695 for ikpt=  25
P newkpt: treating      5 bands with npw=    3705 for ikpt=  26
P newkpt: treating      5 bands with npw=    3695 for ikpt=  27
P newkpt: treating      5 bands with npw=    3695 for ikpt=  28
P newkpt: treating      5 bands with npw=    3695 for ikpt=  29
P newkpt: treating      5 bands with npw=    3695 for ikpt=  30
P newkpt: treating      5 bands with npw=    3695 for ikpt=  31
P newkpt: treating      5 bands with npw=    3705 for ikpt=  32

 setup2: Arith. and geom. avg. npw (full set) are    3697.500    3697.497
  initberry: for direction 1, nkstr =   2, nstr =  16
  initberry: for direction 2, nkstr =   2, nstr =  16
  initberry: for direction 3, nkstr =   2, nstr =  16

================================================================================

     iter   Etot(hartree)      deltaE(h)  residm     nres2    diffor    maxfor
 ETOT  1  -8.5207139297127    -8.521E+00 1.699E-01 2.824E+01 4.111E-04 4.111E-04

 Computing the polarization (Berry phase) for reciprocal vector:
  0.50000  0.00000  0.00000 (in reduced coordinates)
 -0.04675  0.04675  0.04675 (in cartesian coordinates - atomic units)
 Number of strings:    16
 Number of k points in string:    2

 Summary of the results
 Electronic Berry phase    -3.032552151E-02
            Ionic phase    -7.528048210E-01
            Total phase    -7.831303425E-01
    Remapping in [-1,1]    -7.831303425E-01

           Polarization    -1.580894232E-02 (a.u. of charge)/bohr^2
           Polarization    -9.045048639E-01 C/m^2


 Computing the polarization (Berry phase) for reciprocal vector:
  0.00000  0.50000  0.00000 (in reduced coordinates)
  0.04675 -0.04675  0.04675 (in cartesian coordinates - atomic units)
 Number of strings:    16
 Number of k points in string:    2

 Summary of the results
 Electronic Berry phase    -3.242211233E-02
            Ionic phase    -7.471951790E-01
            Total phase    -7.796172913E-01
    Remapping in [-1,1]    -7.796172913E-01

           Polarization    -1.573802485E-02 (a.u. of charge)/bohr^2
           Polarization    -9.004473377E-01 C/m^2


 Computing the polarization (Berry phase) for reciprocal vector:
  0.00000  0.00000  0.50000 (in reduced coordinates)
  0.04675  0.04675 -0.04675 (in cartesian coordinates - atomic units)
 Number of strings:    16
 Number of k points in string:    2

 Summary of the results
 Electronic Berry phase    -1.822354650E-02
            Ionic phase    -7.471951790E-01
            Total phase    -7.654187255E-01
    Remapping in [-1,1]    -7.654187255E-01

           Polarization    -1.545140039E-02 (a.u. of charge)/bohr^2
           Polarization    -8.840481878E-01 C/m^2


 Polarization in cartesian coordinates (a.u.):
 (the sum of the electronic and ionic Berry phase has been fold into [-1, 1])
     Electronic berry phase:       -0.885404287E-03  -0.848750988E-03  -0.109697505E-02  
     Expectation value (PAW only):  0.803138119E-06   0.000000000E+00   0.000000000E+00  
     Ionic:                        -0.261254303E-01  -0.262234999E-01  -0.262234999E-01  
     Total:                        -0.270100314E-01  -0.270722509E-01  -0.273204750E-01

 Polarization in cartesian coordinates (C/m^2):
 (the sum of the electronic and ionic Berry phase has been fold into [-1, 1])
     Electronic berry phase:       -0.506581951E-01  -0.485610853E-01  -0.627631657E-01  
     Expectation value (PAW only):  0.459513559E-04   0.000000000E+00   0.000000000E+00  
     Ionic:                        -0.149476026E+01  -0.150037129E+01  -0.150037129E+01  
     Total:                        -0.154537251E+01  -0.154893238E+01  -0.156313446E+01

 Cartesian components of stress tensor (hartree/bohr^3)
  sigma(1 1)= -8.20480586E-04  sigma(3 2)=  4.88542749E-05
  sigma(2 2)= -7.49030735E-04  sigma(3 1)=  0.00000000E+00
  sigma(3 3)= -7.49030735E-04  sigma(2 1)=  0.00000000E+00


 scprqt:  WARNING -
  nstep=    1 was not enough SCF cycles to converge;
  maximum energy difference=  8.521E+00 exceeds toldfe=  1.000E-12


 PAW TEST:
 ==== Compensation charge inside spheres ============
 The following values must be close to each other ...
 Compensation charge over spherical meshes =     -0.461863338635734
 Compensation charge over fine fft grid    =     -0.372546538583941

 ==== Results concerning PAW augmentation regions ====

 Total pseudopotential strength Dij (hartree):
 Atom #  1
   0.12429   0.15566   0.00000   0.00000  -0.00000   0.00000   0.00000  -0.00000
   0.15566   0.19272   0.00000   0.00000  -0.00000   0.00000   0.00000  -0.00000
   0.00000   0.00000   0.04989   0.00000   0.00000   0.05837   0.00000   0.00000
   0.00000   0.00000   0.00000   0.04989   0.00000   0.00000   0.05837   0.00000
  -0.00000  -0.00000   0.00000   0.00000   0.04989   0.00000   0.00000   0.05837
   0.00000   0.00000   0.05837   0.00000   0.00000   0.06721   0.00000   0.00000
   0.00000   0.00000   0.00000   0.05837   0.00000   0.00000   0.06721   0.00000
  -0.00000  -0.00000   0.00000   0.00000   0.05837   0.00000   0.00000   0.06721
 Atom #  2
  -0.05973  -0.18659   0.00000   0.00000  -0.00001   0.00000   0.00000  -0.00006
  -0.18659  -0.61843   0.00000   0.00000  -0.00004   0.00000   0.00000  -0.00018
   0.00000   0.00000  -0.08255   0.00000   0.00000  -0.36576   0.00001   0.00000
   0.00000   0.00000   0.00000  -0.08255   0.00000   0.00001  -0.36576   0.00000
  -0.00001  -0.00004   0.00000   0.00000  -0.08255   0.00000   0.00000  -0.36576
   0.00000   0.00000  -0.36576   0.00001   0.00000  -1.75253   0.00007   0.00000
   0.00000   0.00000   0.00001  -0.36576   0.00000   0.00007  -1.75253   0.00000
  -0.00006  -0.00018   0.00000   0.00000  -0.36576   0.00000   0.00000  -1.75253


 Augmentation waves occupancies Rhoij:
 Atom #  1
   1.59293  -0.31689   0.00000   0.00000  -0.07706   0.00000   0.00000   0.04296
  -0.31689   0.18511   0.00000   0.00000   0.05905   0.00000   0.00000  -0.02471
   0.00000   0.00000   1.52089   0.01151   0.00000  -0.41788  -0.00394   0.00000
   0.00000   0.00000   0.01151   1.52089   0.00000  -0.00394  -0.41788   0.00000
  -0.07706   0.05905   0.00000   0.00000   1.57356   0.00000   0.00000  -0.42878
   0.00000   0.00000  -0.41788  -0.00394   0.00000   0.14330   0.00258   0.00000
   0.00000   0.00000  -0.00394  -0.41788   0.00000   0.00258   0.14330   0.00000
   0.04296  -0.02471   0.00000   0.00000  -0.42878   0.00000   0.00000   0.14366
 Atom #  2
   3.36196  -0.37499   0.00000   0.00000   0.03948   0.00000   0.00000  -0.00301
  -0.37499   0.05334   0.00000   0.00000  -0.01441   0.00000   0.00000   0.00102
   0.00000   0.00000   1.94388  -0.00384   0.00000  -0.07181   0.00394   0.00000
   0.00000   0.00000  -0.00384   1.94388   0.00000   0.00394  -0.07181   0.00000
   0.03948  -0.01441   0.00000   0.00000   1.96260   0.00000   0.00000  -0.07326
   0.00000   0.00000  -0.07181   0.00394   0.00000   0.00418  -0.00009   0.00000
   0.00000   0.00000   0.00394  -0.07181   0.00000  -0.00009   0.00418   0.00000
  -0.00301   0.00102   0.00000   0.00000  -0.07326   0.00000   0.00000   0.00430


================================================================================

 ----iterations are completed or convergence reached----

 Mean square residual over all n,k,spin=   1.9577E-02; max=  1.6995E-01
  -0.2500  0.5000  0.0000    1  7.48973E-02 kpt; spin; max resid(k); each band:
 1.15E-02 2.19E-02 2.17E-02 7.49E-02 1.95E-02
   0.5000 -0.2500  0.0000    1  2.58395E-02 kpt; spin; max resid(k); each band:
 1.82E-02 7.11E-03 6.35E-03 1.58E-02 2.58E-02
  -0.2500 -0.2500  0.2500    1  3.64501E-02 kpt; spin; max resid(k); each band:
 3.38E-02 3.65E-02 2.84E-02 3.27E-02 1.83E-02
  -0.2500  0.0000  0.0000    1  5.65361E-02 kpt; spin; max resid(k); each band:
 5.65E-02 2.93E-02 3.42E-02 4.99E-02 1.94E-02
   0.5000  0.2500  0.0000    1  1.74821E-02 kpt; spin; max resid(k); each band:
 9.15E-03 1.27E-02 3.93E-03 1.75E-02 1.31E-02
  -0.2500  0.2500  0.2500    1  1.19946E-01 kpt; spin; max resid(k); each band:
 6.77E-02 2.64E-02 1.20E-01 3.49E-02 3.96E-02
   0.2500  0.5000  0.0000    1  1.77705E-02 kpt; spin; max resid(k); each band:
 7.33E-03 9.66E-03 4.14E-03 6.76E-03 1.78E-02
   0.5000  0.5000  0.2500    1  1.61628E-02 kpt; spin; max resid(k); each band:
 3.47E-03 5.95E-03 9.75E-03 1.40E-02 1.62E-02
  -0.2500  0.5000  0.5000    1  1.01151E-01 kpt; spin; max resid(k); each band:
 5.44E-02 9.10E-03 1.55E-02 1.01E-01 2.74E-02
   0.0000 -0.2500  0.0000    1  3.18105E-02 kpt; spin; max resid(k); each band:
 3.18E-02 2.11E-02 1.02E-02 1.81E-02 1.75E-02
   0.2500 -0.2500  0.2500    1  3.17787E-02 kpt; spin; max resid(k); each band:
 1.42E-02 8.23E-03 7.92E-03 2.22E-02 3.18E-02
   0.5000 -0.2500  0.5000    1  1.69948E-01 kpt; spin; max resid(k); each band:
 1.03E-02 5.23E-02 1.94E-02 1.70E-01 3.27E-02
  -0.2500 -0.2500 -0.2500    1  5.49297E-02 kpt; spin; max resid(k); each band:
 5.49E-02 2.48E-02 2.35E-02 2.44E-02 1.56E-02
   0.2500  0.0000  0.0000    1  2.17730E-02 kpt; spin; max resid(k); each band:
 1.35E-02 7.02E-03 4.36E-03 7.66E-03 2.18E-02
   0.5000  0.0000  0.2500    1  1.43170E-02 kpt; spin; max resid(k); each band:
 1.43E-02 1.01E-02 8.45E-03 1.31E-02 1.41E-02
  -0.2500  0.0000  0.5000    1  1.08111E-02 kpt; spin; max resid(k); each band:
 7.26E-03 1.08E-02 2.14E-03 4.47E-03 8.31E-03
   0.0000  0.2500  0.0000    1  3.87183E-02 kpt; spin; max resid(k); each band:
 3.87E-02 1.24E-02 2.01E-02 3.27E-02 2.20E-02
   0.2500  0.2500  0.2500    1  2.85238E-02 kpt; spin; max resid(k); each band:
 6.56E-03 1.00E-02 3.49E-03 2.85E-02 1.91E-02
   0.5000  0.2500  0.5000    1  1.43786E-02 kpt; spin; max resid(k); each band:
 1.44E-02 8.34E-03 1.01E-02 1.67E-03 1.25E-02
  -0.2500  0.2500 -0.2500    1  1.85096E-02 kpt; spin; max resid(k); each band:
 9.89E-03 7.55E-03 3.45E-03 1.26E-02 1.85E-02
   0.0000  0.5000  0.2500    1  1.69962E-02 kpt; spin; max resid(k); each band:
 1.70E-02 7.95E-03 2.66E-03 1.13E-02 6.40E-03
   0.2500  0.5000  0.5000    1  1.48996E-02 kpt; spin; max resid(k); each band:
 1.18E-02 3.76E-03 4.56E-03 1.43E-02 1.49E-02
   0.5000  0.5000 -0.2500    1  1.67008E-02 kpt; spin; max resid(k); each band:
 1.36E-02 3.14E-03 3.76E-03 7.08E-03 1.67E-02
   0.0000 -0.2500  0.5000    1  9.05212E-03 kpt; spin; max resid(k); each band:
 7.94E-03 6.21E-03 3.77E-03 7.12E-03 9.05E-03
   0.2500 -0.2500 -0.2500    1  4.00205E-02 kpt; spin; max resid(k); each band:
 2.61E-02 1.01E-02 4.00E-02 3.71E-02 2.69E-02
   0.0000  0.0000  0.2500    1  5.00017E-02 kpt; spin; max resid(k); each band:
 5.00E-02 2.33E-02 2.27E-02 1.51E-02 1.91E-02
   0.2500  0.0000  0.5000    1  2.20384E-02 kpt; spin; max resid(k); each band:
 1.79E-02 8.14E-03 7.25E-03 3.68E-03 2.20E-02
   0.5000  0.0000 -0.2500    1  1.21885E-02 kpt; spin; max resid(k); each band:
 8.82E-03 4.14E-03 3.14E-03 1.22E-02 1.17E-02
   0.0000  0.2500  0.5000    1  1.11167E-02 kpt; spin; max resid(k); each band:
 8.55E-03 9.39E-03 2.01E-03 8.89E-03 1.11E-02
   0.2500  0.2500 -0.2500    1  1.77797E-02 kpt; spin; max resid(k); each band:
 8.37E-03 9.18E-03 8.04E-03 3.34E-03 1.78E-02
   0.0000  0.5000 -0.2500    1  1.79888E-02 kpt; spin; max resid(k); each band:
 1.80E-02 7.25E-03 3.13E-03 5.53E-03 1.44E-02
   0.0000  0.0000 -0.2500    1  7.18214E-02 kpt; spin; max resid(k); each band:
 7.18E-02 1.77E-02 2.36E-02 5.49E-02 2.67E-02
 reduced coordinates (array xred) for    2 atoms
      -0.000934942065      0.000934942065      0.000934942065
       0.250000001041      0.249999998959      0.249999998959
 rms dE/dt=  7.5161E-03; max dE/dt=  0.0000E+00; dE/dt below (all hartree)
    1       0.000000000000     -0.011137274638     -0.011137274638
    2       0.000000000000     -0.006740569833     -0.006740569833

 cartesian coordinates (angstrom) at end:
    1      0.00529177208590     0.00000000000000     0.00000000000000
    2      1.41499999410857     1.41500000000000     1.41500000000000

 cartesian forces (hartree/bohr) at end:
    1      0.00041106642680     0.00000000000000    -0.00000000000000
    2     -0.00041106642680    -0.00000000000000     0.00000000000000
 frms,max,avg= 2.3732931E-04 4.1106643E-04   1.671E-03  0.000E+00  0.000E+00 h/b

 cartesian forces (eV/Angstrom) at end:
    1      0.02113788377490     0.00000000000000    -0.00000000000000
    2     -0.02113788377490    -0.00000000000000     0.00000000000000
 frms,max,avg= 1.2203963E-02 2.1137884E-02   8.595E-02  0.000E+00  0.000E+00 e/A
 length scales= 10.695849912133 10.695849912133 10.695849912133 bohr
              =  5.660000000000  5.660000000000  5.660000000000 angstroms
 prteigrs : about to open file t13o_EIG
 Fermi (or HOMO) energy (hartree) =   0.03956   Average Vxc (hartree)=  -0.34980
 Eigenvalues (hartree) for nkpt=  32  k points:
 kpt#   1, nband=  5, wtk=  0.03125, kpt= -0.2500  0.5000  0.0000 (reduced coord)
  -0.34578  -0.14308  -0.06790  -0.03039   0.14452
 kpt#   2, nband=  5, wtk=  0.03125, kpt=  0.5000 -0.2500  0.0000 (reduced coord)
  -0.33650  -0.15047  -0.07027  -0.02563   0.14580
 kpt#   3, nband=  5, wtk=  0.03125, kpt= -0.2500 -0.2500  0.2500 (reduced coord)
  -0.33872  -0.14284  -0.06905  -0.02877   0.14568
 kpt#   4, nband=  5, wtk=  0.03125, kpt= -0.2500  0.0000  0.0000 (reduced coord)
  -0.36688  -0.08569   0.00986   0.03956   0.18647
 kpt#   5, nband=  5, wtk=  0.03125, kpt=  0.5000  0.2500  0.0000 (reduced coord)
  -0.34451  -0.14553  -0.06835  -0.03053   0.14086
 kpt#   6, nband=  5, wtk=  0.03125, kpt= -0.2500  0.2500  0.2500 (reduced coord)
  -0.32684  -0.11793  -0.06945  -0.01501   0.18021
 kpt#   7, nband=  5, wtk=  0.03125, kpt=  0.2500  0.5000  0.0000 (reduced coord)
  -0.34821  -0.14269  -0.07092  -0.03299   0.19312
 kpt#   8, nband=  5, wtk=  0.03125, kpt=  0.5000  0.5000  0.2500 (reduced coord)
  -0.34908  -0.14417  -0.06496  -0.02960   0.14681
 kpt#   9, nband=  5, wtk=  0.03125, kpt= -0.2500  0.5000  0.5000 (reduced coord)
  -0.32985  -0.13929  -0.07073  -0.02947   0.15676
 kpt#  10, nband=  5, wtk=  0.03125, kpt=  0.0000 -0.2500  0.0000 (reduced coord)
  -0.38136  -0.08306   0.00672   0.01364   0.16435
 kpt#  11, nband=  5, wtk=  0.03125, kpt=  0.2500 -0.2500  0.2500 (reduced coord)
  -0.34126  -0.15138  -0.06538  -0.02166   0.14392
 kpt#  12, nband=  5, wtk=  0.03125, kpt=  0.5000 -0.2500  0.5000 (reduced coord)
  -0.34711  -0.12934  -0.07082  -0.02991   0.16359
 kpt#  13, nband=  5, wtk=  0.03125, kpt= -0.2500 -0.2500 -0.2500 (reduced coord)
  -0.37326  -0.08925   0.00967   0.01793   0.14759
 kpt#  14, nband=  5, wtk=  0.03125, kpt=  0.2500  0.0000  0.0000 (reduced coord)
  -0.38002  -0.09203   0.00737   0.01355   0.14235
 kpt#  15, nband=  5, wtk=  0.03125, kpt=  0.5000  0.0000  0.2500 (reduced coord)
  -0.33906  -0.14694  -0.06482  -0.03049   0.13875
 kpt#  16, nband=  5, wtk=  0.03125, kpt= -0.2500  0.0000  0.5000 (reduced coord)
  -0.34647  -0.14868  -0.07212  -0.03233   0.13406
 kpt#  17, nband=  5, wtk=  0.03125, kpt=  0.0000  0.2500  0.0000 (reduced coord)
  -0.37902  -0.08727   0.01016   0.01966   0.16192
 kpt#  18, nband=  5, wtk=  0.03125, kpt=  0.2500  0.2500  0.2500 (reduced coord)
  -0.38554  -0.08143   0.00928   0.01954   0.17178
 kpt#  19, nband=  5, wtk=  0.03125, kpt=  0.5000  0.2500  0.5000 (reduced coord)
  -0.34224  -0.14927  -0.06828  -0.03275   0.13537
 kpt#  20, nband=  5, wtk=  0.03125, kpt= -0.2500  0.2500 -0.2500 (reduced coord)
  -0.34594  -0.14972  -0.06982  -0.02504   0.14141
 kpt#  21, nband=  5, wtk=  0.03125, kpt=  0.0000  0.5000  0.2500 (reduced coord)
  -0.34248  -0.15159  -0.06484  -0.03393   0.13720
 kpt#  22, nband=  5, wtk=  0.03125, kpt=  0.2500  0.5000  0.5000 (reduced coord)
  -0.34349  -0.15126  -0.06517  -0.02594   0.14488
 kpt#  23, nband=  5, wtk=  0.03125, kpt=  0.5000  0.5000 -0.2500 (reduced coord)
  -0.34400  -0.15282  -0.06833  -0.02934   0.14610
 kpt#  24, nband=  5, wtk=  0.03125, kpt=  0.0000 -0.2500  0.5000 (reduced coord)
  -0.34621  -0.15022  -0.07141  -0.03009   0.13988
 kpt#  25, nband=  5, wtk=  0.03125, kpt=  0.2500 -0.2500 -0.2500 (reduced coord)
  -0.34348  -0.14242  -0.06871  -0.01711   0.16401
 kpt#  26, nband=  5, wtk=  0.03125, kpt=  0.0000  0.0000  0.2500 (reduced coord)
  -0.37538  -0.08050   0.00779   0.01571   0.16838
 kpt#  27, nband=  5, wtk=  0.03125, kpt=  0.2500  0.0000  0.5000 (reduced coord)
  -0.33886  -0.15136  -0.06878  -0.03057   0.16626
 kpt#  28, nband=  5, wtk=  0.03125, kpt=  0.5000  0.0000 -0.2500 (reduced coord)
  -0.34729  -0.15085  -0.06710  -0.03051   0.16947
 kpt#  29, nband=  5, wtk=  0.03125, kpt=  0.0000  0.2500  0.5000 (reduced coord)
  -0.34630  -0.14707  -0.07149  -0.03148   0.13385
 kpt#  30, nband=  5, wtk=  0.03125, kpt=  0.2500  0.2500 -0.2500 (reduced coord)
  -0.34540  -0.14680  -0.06983  -0.03234   0.13950
 kpt#  31, nband=  5, wtk=  0.03125, kpt=  0.0000  0.5000 -0.2500 (reduced coord)
  -0.34023  -0.15206  -0.07071  -0.03114   0.14072
 kpt#  32, nband=  5, wtk=  0.03125, kpt=  0.0000  0.0000 -0.2500 (reduced coord)
  -0.36166  -0.07775   0.00830   0.01775   0.19043
 Total charge density [el/Bohr^3]
,     Maximum=    1.0438E-01  at reduced coord.    0.4844    0.1719    0.1719
,Next maximum=    1.0438E-01  at reduced coord.    0.1719    0.1719    0.1719
,     Minimum=    2.1958E-03  at reduced coord.    0.7500    0.7500    0.7500
,Next minimum=    2.2099E-03  at reduced coord.    0.7344    0.7656    0.7500

--------------------------------------------------------------------------------
 Components of total free energy (in Hartree) :

    Kinetic energy  =  3.28755430441585E+00
    Hartree energy  =  6.43877700621526E-01
    XC energy       = -1.58715479822864E+01
    Ewald energy    = -8.41182194081202E+00
    PspCore energy  =  1.09078996437970E+00
    Loc. psp. energy= -1.74213526282997E+00
    Spherical terms =  1.25910930340368E+01
    >>>>>>>>> Etotal= -8.41219018247447E+00

 "Double-counting" decomposition of free energy:
    Band energy     = -1.09418553886316E+00
    Ewald energy    = -8.41182194081202E+00
    PspCore energy  =  1.09078996437970E+00
    Dble-C XC-energy= -1.29256675601483E+01
    Spherical terms =  1.28201711457311E+01
    >>>> Etotal (DC)= -8.52071392971269E+00

  >Total energy in eV           = -2.28907336158636E+02
  >Total DC energy in eV        = -2.31860417502661E+02
--------------------------------------------------------------------------------

 Cartesian components of stress tensor (hartree/bohr^3)
  sigma(1 1)= -8.20480586E-04  sigma(3 2)=  4.88542749E-05
  sigma(2 2)= -7.49030735E-04  sigma(3 1)=  0.00000000E+00
  sigma(3 3)= -7.49030735E-04  sigma(2 1)=  0.00000000E+00

-Cartesian components of stress tensor (GPa)         [Pressure=  2.2738E+01 GPa]
- sigma(1 1)= -2.41393682E+01  sigma(3 2)=  1.43734215E+00
- sigma(2 2)= -2.20372414E+01  sigma(3 1)=  0.00000000E+00
- sigma(3 3)= -2.20372414E+01  sigma(2 1)=  0.00000000E+00

== END DATASET(S) ==============================================================
================================================================================
  
 -outvars: echo values of variables after computation  --------
     acell    1.0695849912E+01  1.0695849912E+01  1.0695849912E+01 Bohr
       amu    2.69815390E+01  7.49215900E+01
  berryopt        -1
      ecut    4.00000000E+01 Hartree
    etotal   -8.5207139297E+00
     fcart    4.1106642680E-04  1.0842021725E-19 -1.0842021725E-19
             -4.1106642680E-04 -1.0842021725E-19  1.0842021725E-19
       ixc        11
       kpt   -2.50000000E-01  5.00000000E-01  0.00000000E+00
              5.00000000E-01 -2.50000000E-01  0.00000000E+00
             -2.50000000E-01 -2.50000000E-01  2.50000000E-01
             -2.50000000E-01  0.00000000E+00  0.00000000E+00
              5.00000000E-01  2.50000000E-01  0.00000000E+00
             -2.50000000E-01  2.50000000E-01  2.50000000E-01
              2.50000000E-01  5.00000000E-01  0.00000000E+00
              5.00000000E-01  5.00000000E-01  2.50000000E-01
             -2.50000000E-01  5.00000000E-01  5.00000000E-01
              0.00000000E+00 -2.50000000E-01  0.00000000E+00
              2.50000000E-01 -2.50000000E-01  2.50000000E-01
              5.00000000E-01 -2.50000000E-01  5.00000000E-01
             -2.50000000E-01 -2.50000000E-01 -2.50000000E-01
              2.50000000E-01  0.00000000E+00  0.00000000E+00
              5.00000000E-01  0.00000000E+00  2.50000000E-01
             -2.50000000E-01  0.00000000E+00  5.00000000E-01
              0.00000000E+00  2.50000000E-01  0.00000000E+00
              2.50000000E-01  2.50000000E-01  2.50000000E-01
              5.00000000E-01  2.50000000E-01  5.00000000E-01
             -2.50000000E-01  2.50000000E-01 -2.50000000E-01
              0.00000000E+00  5.00000000E-01  2.50000000E-01
              2.50000000E-01  5.00000000E-01  5.00000000E-01
              5.00000000E-01  5.00000000E-01 -2.50000000E-01
              0.00000000E+00 -2.50000000E-01  5.00000000E-01
              2.50000000E-01 -2.50000000E-01 -2.50000000E-01
              0.00000000E+00  0.00000000E+00  2.50000000E-01
              2.50000000E-01  0.00000000E+00  5.00000000E-01
              5.00000000E-01  0.00000000E+00 -2.50000000E-01
              0.00000000E+00  2.50000000E-01  5.00000000E-01
              2.50000000E-01  2.50000000E-01 -2.50000000E-01
              0.00000000E+00  5.00000000E-01 -2.50000000E-01
              0.00000000E+00  0.00000000E+00 -2.50000000E-01
   kptrlen    2.13916998E+01
    kptopt         3
  kptrlatt    2 -2  2  -2  2  2  -2 -2  2
P    mkmem        32
     natom         2
     nband         5
     ngfft        45      45      45
   ngfftdg        64      64      64
      nkpt        32
     nstep         1
      nsym         4
    ntypat         2
       occ    2.000000  2.000000  2.000000  2.000000  0.000000
 pawecutdg    8.00000000E+01 Hartree
     rprim    0.0000000000E+00  5.0000000000E-01  5.0000000000E-01
              5.0000000000E-01  0.0000000000E+00  5.0000000000E-01
              5.0000000000E-01  5.0000000000E-01  0.0000000000E+00
    shiftk    5.00000000E-01  5.00000000E-01  5.00000000E-01
    strten   -8.2048058551E-04 -7.4903073526E-04 -7.4903073526E-04
              4.8854274947E-05  0.0000000000E+00  0.0000000000E+00
    symrel    1  0  0   0  1  0   0  0  1      -1  0  0  -1  0  1  -1  1  0
             -1  0  0  -1  1  0  -1  0  1       1  0  0   0  0  1   0  1  0
    toldfe    1.00000000E-12 Hartree
     typat    1  2
    useylm         1
       wtk      0.03125    0.03125    0.03125    0.03125    0.03125    0.03125
                0.03125    0.03125    0.03125    0.03125    0.03125    0.03125
                0.03125    0.03125    0.03125    0.03125    0.03125    0.03125
                0.03125    0.03125    0.03125    0.03125    0.03125    0.03125
                0.03125    0.03125    0.03125    0.03125    0.03125    0.03125
                0.03125    0.03125
    xangst    5.2917720859E-03  0.0000000000E+00  0.0000000000E+00
              1.4149999941E+00  1.4150000000E+00  1.4150000000E+00
     xcart    1.0000000000E-02  0.0000000000E+00  0.0000000000E+00
              2.6739624669E+00  2.6739624780E+00  2.6739624780E+00
      xred   -9.3494206465E-04  9.3494206465E-04  9.3494206465E-04
              2.5000000104E-01  2.4999999896E-01  2.4999999896E-01
     znucl     13.00000   33.00000

================================================================================

- Total cpu        time (s,m,h):         22.1        0.37      0.006
- Total wall clock time (s,m,h):         22.1        0.37      0.006

- For major independent code sections, cpu and wall times (sec),
- as well as % of the total time and number of calls 

- routine                 cpu     %       wall     %      number of calls 
-                                                          (-1=no count)
- fourwf(pot)            9.414  42.5      9.419  42.6           1592
- nonlop(apply)          2.292  10.4      2.235  10.1           1592
- pspini                 1.557   7.0      1.557   7.0              1
- fourwf(den)            0.413   1.9      0.423   1.9            128
- nonlop(forstr)         0.348   1.6      0.351   1.6            128
- projbd                 0.277   1.3      0.327   1.5           1272
- xc:pot/=fourdp         0.247   1.1      0.247   1.1              8
- fourdp                 0.235   1.1      0.228   1.0             22
- vtowfk(ssdiag)         0.175   0.8      0.168   0.8             -1
- forces                 0.154   0.7      0.154   0.7              1
- nonlop(forces)         0.149   0.7      0.148   0.7            160
- nhatgrid               0.147   0.7      0.148   0.7              1
- timing timab           0.146   0.7      0.147   0.7              9
- getghc-other           0.143   0.6      0.108   0.5             -1
- 56   others            0.614   2.8      0.608   2.7

- subtotal              16.311  73.7     16.268  73.5

================================================================================

 Suggested references for the acknowledgment of ABINIT usage.

 The users of ABINIT have little formal obligations with respect to the ABINIT group
 (those specified in the GNU General Public License, http://www.gnu.org/copyleft/gpl.txt).
 However, it is common practice in the scientific literature,
 to acknowledge the efforts of people that have made the research possible.
 In this spirit, please find below suggested citations of work written by ABINIT developers,
 corresponding to implementations inside of ABINIT that you have used in the present run.
 Note also that it will be of great value to readers of publications presenting these results,
 to read papers enabling them to understand the theoretical formalism and details
 of the ABINIT implementation.
 For information on why they are suggested, see also https://docs.abinit.org/theory/acknowledgments.

 [1] Implementation of the Projector Augmented-Wave Method in the ABINIT code.
 M. Torrent, F. Jollet, F. Bottin, G. Zerah, and X. Gonze Comput. Mat. Science 42, 337, (2008).
 Comment : PAW calculations. Strong suggestion to cite this paper.

 [2] A brief introduction to the ABINIT software package.
 X. Gonze, G.-M. Rignanese, M. Verstraete, J.-M. Beuken, Y. Pouillon, R. Caracas, F. Jollet,
 M. Torrent, G. Zerah, M. Mikami, Ph. Ghosez, M. Veithen, J.-Y. Raty, V. Olevano, F. Bruneval,
 L. Reining, R. Godby, G. Onida, D.R. Hamann, and D.C. Allan.
 Z. Kristallogr. 220, 558-562 (2005).
 Comment : the second generic paper describing the ABINIT project. Note that this paper
 should be cited, especially if you are using the GW part of ABINIT, as the authors
 of this part are not in the list of authors of the first paper.
 The .pdf of the latter paper is available at https://www.abinit.org/about/zfk_0505-06_558-562.pdf.
 Note that it should not redistributed (Copyright by Oldenburg Wissenshaftverlag,
 the licence allows the authors to put it on the Web).

 [3] First-principles computation of material properties : the ABINIT software project. 
 X. Gonze, J.-M. Beuken, R. Caracas, F. Detraux, M. Fuchs, G.-M. Rignanese, L. Sindic,
 M. Verstraete, G. Zerah, F. Jollet, M. Torrent, A. Roy, M. Mikami, Ph. Ghosez, J.-Y. Raty, D.C. Allan.
 Computational Materials Science 25, 478-492 (2002). http://dx.doi.org/10.1016/S0927-0256(02)00325-7
 Comment : the original paper describing the ABINIT project.


 And optionally :

 [4] Fast radix 2, 3, 4 and 5 kernels for Fast Fourier Transformations
 on computers with overlapping multiply-add instructions.
 S. Goedecker, SIAM J. on Scientific Computing 18, 1605 (1997).

 [5] Iterative minimization techniques for ab initio total-energy calculations:
 molecular dynamics and conjugate gradients.
 M.C. Payne, M.P. Teter, D.C. Allan, T.A. Arias and J.D. Joannopoulos, Rev. Mod. Phys. 64, 1045 (1992).

================================================================================

 Calculation completed.
.Delivered    2 WARNINGs and   1 COMMENTs to log file.
+Overall time at end (sec) : cpu=         22.1  wall=         22.1
