
.Version 8.0.3 of ABINIT 
.(MPI version, prepared for a x86_64_linux_gnu5.3 computer) 

.Copyright (C) 1998-2018 ABINIT group . 
 ABINIT comes with ABSOLUTELY NO WARRANTY.
 It is free software, and you are welcome to redistribute it
 under certain conditions (GNU General Public License,
 see ~abinit/COPYING or http://www.gnu.org/copyleft/gpl.txt).

 ABINIT is a project of the Universite Catholique de Louvain,
 Corning Inc. and other collaborators, see ~abinit/doc/developers/contributors.txt .
 Please read ~abinit/doc/users/acknowledgments.html for suggested
 acknowledgments of the ABINIT effort.
 For more information, see https://www.abinit.org .

.Starting date : Mon  4 Apr 2016.
- ( at 11h59 )
  
- input  file    -> t48.in
- output file    -> t48.out
- root for input  files -> t48i
- root for output files -> t48o


 DATASET    1 : space group Pm m 2 (# 25); Bravais oP (primitive ortho.)
================================================================================
 Values of the parameters that define the memory need for DATASET  1.
     intxc =       0    ionmov =       0      iscf =       7    lmnmax =       1
     lnmax =       1     mgfft =      24  mpssoang =       1    mqgrid =    3001
     natom =       2  nloc_mem =       1    nspden =       1   nspinor =       1
    nsppol =       1      nsym =       4    n1xccc =       0    ntypat =       1
    occopt =       1   xclevel =       2
-    mband =           1        mffmem =           1         mkmem =           1
       mpw =         280          nfft =        9600          nkpt =           1
================================================================================
P This job should need less than                       3.330 Mbytes of memory.
  Rough estimation (10% accuracy) of disk space for files :
_ WF disk file :      0.006 Mbytes ; DEN or POT disk file :      0.075 Mbytes.
================================================================================


 DATASET    2 : space group Pm m 2 (# 25); Bravais oP (primitive ortho.)
================================================================================
 Values of the parameters that define the memory need for DATASET  2.
     intxc =       0    ionmov =       0      iscf =       7    lmnmax =       1
     lnmax =       1     mgfft =      24  mpssoang =       1    mqgrid =    3001
     natom =       2  nloc_mem =       1    nspden =       1   nspinor =       1
    nsppol =       1      nsym =       4    n1xccc =       0    ntypat =       1
    occopt =       1   xclevel =       2
-    mband =           1        mffmem =           1         mkmem =           1
       mpw =         280          nfft =        9600          nkpt =           1
================================================================================
P This job should need less than                       3.330 Mbytes of memory.
  Rough estimation (10% accuracy) of disk space for files :
_ WF disk file :      0.006 Mbytes ; DEN or POT disk file :      0.075 Mbytes.
================================================================================


 DATASET    3 : space group Pm m 2 (# 25); Bravais oP (primitive ortho.)
================================================================================
 Values of the parameters that define the memory need for DATASET  3.
     intxc =       0    ionmov =       0      iscf =       7    lmnmax =       1
     lnmax =       1     mgfft =      24  mpssoang =       1    mqgrid =    3001
     natom =       2  nloc_mem =       1    nspden =       1   nspinor =       1
    nsppol =       1      nsym =       4    n1xccc =       0    ntypat =       1
    occopt =       1   xclevel =       2
-    mband =           1        mffmem =           1         mkmem =           1
       mpw =         280          nfft =        9600          nkpt =           1
================================================================================
P This job should need less than                       3.330 Mbytes of memory.
  Rough estimation (10% accuracy) of disk space for files :
_ WF disk file :      0.006 Mbytes ; DEN or POT disk file :      0.075 Mbytes.
================================================================================


 DATASET    4 : space group Pm m 2 (# 25); Bravais oP (primitive ortho.)
================================================================================
 Values of the parameters that define the memory need for DATASET  4.
     intxc =       0    ionmov =       0      iscf =       7    lmnmax =       1
     lnmax =       1     mgfft =      24  mpssoang =       1    mqgrid =    3001
     natom =       2  nloc_mem =       1    nspden =       1   nspinor =       1
    nsppol =       1      nsym =       4    n1xccc =       0    ntypat =       1
    occopt =       1   xclevel =       2
-    mband =           1        mffmem =           1         mkmem =           1
       mpw =         280          nfft =        9600          nkpt =           1
================================================================================
P This job should need less than                       3.330 Mbytes of memory.
  Rough estimation (10% accuracy) of disk space for files :
_ WF disk file :      0.006 Mbytes ; DEN or POT disk file :      0.075 Mbytes.
================================================================================


 DATASET    5 : space group Pm m 2 (# 25); Bravais oP (primitive ortho.)
================================================================================
 Values of the parameters that define the memory need for DATASET  5.
     intxc =       0    ionmov =       0      iscf =       7    lmnmax =       1
     lnmax =       1     mgfft =      24  mpssoang =       1    mqgrid =    3001
     natom =       2  nloc_mem =       1    nspden =       1   nspinor =       1
    nsppol =       1      nsym =       4    n1xccc =       0    ntypat =       1
    occopt =       1   xclevel =       2
-    mband =           1        mffmem =           1         mkmem =           1
       mpw =         280          nfft =        9600          nkpt =           1
================================================================================
P This job should need less than                       3.330 Mbytes of memory.
  Rough estimation (10% accuracy) of disk space for files :
_ WF disk file :      0.006 Mbytes ; DEN or POT disk file :      0.075 Mbytes.
================================================================================

--------------------------------------------------------------------------------
------------- Echo of variables that govern the present computation ------------
--------------------------------------------------------------------------------
-
- outvars: echo of selected default values                                      
-   accesswff0 =  0 , fftalg0 =312 , wfoptalg0 =  0
-
- outvars: echo of global parameters not present in the input file              
-  max_nthreads =    0
-
 -outvars: echo values of preprocessed input variables --------
            acell      1.2000000000E+01  1.0000000000E+01  1.0000000000E+01 Bohr
              amu      1.00800000E+00
           diemac      1.00000000E+00
           diemix      5.00000000E-01
             ecut      4.50000000E+00 Hartree
-          fftalg         312
           getwfk          -1
           istwfk        2
              ixc          23
           jdtset        1    2    3    4    5
           kptopt           0
P           mkmem           1
            natom           2
            nband           1
           ndtset           5
            ngfft          24      20      20
             nkpt           1
            nline           3
             nsym           4
           ntypat           1
              occ      2.000000
          spgroup          25
           symrel      1  0  0   0  1  0   0  0  1       1  0  0   0  1  0   0  0 -1
                       1  0  0   0 -1  0   0  0  1       1  0  0   0 -1  0   0  0 -1
           tolvrs      1.00000000E-16
            typat      1  1
           xangst1    -2.9845594564E-01  0.0000000000E+00  0.0000000000E+00
                       2.9782093299E-01  0.0000000000E+00  0.0000000000E+00
           xangst2    -2.9845594564E-01  0.0000000000E+00  0.0000000000E+00
                       2.9813843932E-01  0.0000000000E+00  0.0000000000E+00
           xangst3    -2.9845594564E-01  0.0000000000E+00  0.0000000000E+00
                       2.9845594564E-01  0.0000000000E+00  0.0000000000E+00
           xangst4    -2.9845594564E-01  0.0000000000E+00  0.0000000000E+00
                       2.9877345197E-01  0.0000000000E+00  0.0000000000E+00
           xangst5    -2.9845594564E-01  0.0000000000E+00  0.0000000000E+00
                       2.9909095830E-01  0.0000000000E+00  0.0000000000E+00
            xcart1    -5.6400000000E-01  0.0000000000E+00  0.0000000000E+00
                       5.6280000000E-01  0.0000000000E+00  0.0000000000E+00
            xcart2    -5.6400000000E-01  0.0000000000E+00  0.0000000000E+00
                       5.6340000000E-01  0.0000000000E+00  0.0000000000E+00
            xcart3    -5.6400000000E-01  0.0000000000E+00  0.0000000000E+00
                       5.6400000000E-01  0.0000000000E+00  0.0000000000E+00
            xcart4    -5.6400000000E-01  0.0000000000E+00  0.0000000000E+00
                       5.6460000000E-01  0.0000000000E+00  0.0000000000E+00
            xcart5    -5.6400000000E-01  0.0000000000E+00  0.0000000000E+00
                       5.6520000000E-01  0.0000000000E+00  0.0000000000E+00
             xred1    -4.7000000000E-02  0.0000000000E+00  0.0000000000E+00
                       4.6900000000E-02  0.0000000000E+00  0.0000000000E+00
             xred2    -4.7000000000E-02  0.0000000000E+00  0.0000000000E+00
                       4.6950000000E-02  0.0000000000E+00  0.0000000000E+00
             xred3    -4.7000000000E-02  0.0000000000E+00  0.0000000000E+00
                       4.7000000000E-02  0.0000000000E+00  0.0000000000E+00
             xred4    -4.7000000000E-02  0.0000000000E+00  0.0000000000E+00
                       4.7050000000E-02  0.0000000000E+00  0.0000000000E+00
             xred5    -4.7000000000E-02  0.0000000000E+00  0.0000000000E+00
                       4.7100000000E-02  0.0000000000E+00  0.0000000000E+00
            znucl        1.00000

================================================================================

 chkinp: Checking input parameters for consistency, jdtset=   1.

 chkinp: Checking input parameters for consistency, jdtset=   2.

 chkinp: Checking input parameters for consistency, jdtset=   3.

 chkinp: Checking input parameters for consistency, jdtset=   4.

 chkinp: Checking input parameters for consistency, jdtset=   5.

================================================================================
== DATASET  1 ==================================================================
-   nproc =    1

 Exchange-correlation functional for the present dataset will be:
  GGA: Wu Cohen functional - ixc=23
 Citation for XC functional:
  Z. Wu and R. E. Cohen, PRB 73, 235116 (2006)

 Real(R)+Recip(G) space primitive vectors, cartesian coordinates (Bohr,Bohr^-1):
 R(1)= 12.0000000  0.0000000  0.0000000  G(1)=  0.0833333  0.0000000  0.0000000
 R(2)=  0.0000000 10.0000000  0.0000000  G(2)=  0.0000000  0.1000000  0.0000000
 R(3)=  0.0000000  0.0000000 10.0000000  G(3)=  0.0000000  0.0000000  0.1000000
 Unit cell volume ucvol=  1.2000000E+03 bohr^3
 Angles (23,13,12)=  9.00000000E+01  9.00000000E+01  9.00000000E+01 degrees

 getcut: wavevector=  0.0000  0.0000  0.0000  ngfft=  24  20  20
         ecut(hartree)=      4.500   => boxcut(ratio)=   2.09440

--- Pseudopotential description ------------------------------------------------
- pspini: atom type   1  psp file is /home/buildbot/bb/ABINIT/abiref_gnu_5.3_openmpi/gonze_8.0.3-public/tests/Psps_for_tests/01h_WC.fhi
- pspatm: opening atomic psp file    /home/buildbot/bb/ABINIT/abiref_gnu_5.3_openmpi/gonze_8.0.3-public/tests/Psps_for_tests/01h_WC.fhi
- OPIUM generated H potential
-  1.00000   1.00000     70427                znucl, zion, pspdat
    6   23    0    0      1045   0.00000      pspcod,pspxc,lmax,lloc,mmax,r2well
    0.00000000000000    0.00000000000000    0.00000000000000   rchrg,fchrg,qchrg
  1.013085          amesh (Hamman grid)
 Note: local psp for atom with Z=  1.0
 pspatm : epsatm=   -0.01219614
         --- l  ekb(1:nproj) -->
 pspatm: atomic psp has been read  and splines computed

  -4.87845523E-02                                ecore*ucvol(ha*bohr**3)
--------------------------------------------------------------------------------

_setup2: Arith. and geom. avg. npw (full set) are     559.000     559.000

================================================================================

     iter   Etot(hartree)      deltaE(h)  residm     vres2
 ETOT  1  -1.0352412077754    -1.035E+00 4.155E-04 5.322E+00
 ETOT  2  -1.0362902205296    -1.049E-03 5.053E-10 1.464E+00
 ETOT  3  -1.0364876007601    -1.974E-04 4.790E-07 2.503E-01
 ETOT  4  -1.0364890119845    -1.411E-06 1.064E-09 7.512E-02
 ETOT  5  -1.0364897292372    -7.173E-07 2.640E-09 1.309E-04
 ETOT  6  -1.0364897335961    -4.359E-09 3.898E-12 3.689E-05
 ETOT  7  -1.0364897342822    -6.862E-10 2.209E-12 5.423E-07
 ETOT  8  -1.0364897343104    -2.810E-11 5.119E-14 4.431E-08
 ETOT  9  -1.0364897343111    -7.785E-13 2.203E-15 1.934E-09
 ETOT 10  -1.0364897343111     8.882E-16 6.118E-18 2.594E-11
 ETOT 11  -1.0364897343111     4.530E-14 4.050E-18 1.174E-12
 ETOT 12  -1.0364897343111    -3.597E-14 7.089E-20 4.046E-13
 ETOT 13  -1.0364897343111    -1.998E-15 5.995E-21 1.831E-15
 ETOT 14  -1.0364897343111     5.107E-15 1.651E-22 2.880E-17

 At SCF step   14       vres2   =  2.88E-17 < tolvrs=  1.00E-16 =>converged.

 Cartesian components of stress tensor (hartree/bohr^3)
  sigma(1 1)= -2.41132672E-04  sigma(3 2)=  0.00000000E+00
  sigma(2 2)=  1.02185355E-04  sigma(3 1)=  0.00000000E+00
  sigma(3 3)=  1.02185355E-04  sigma(2 1)=  0.00000000E+00

 Integrated electronic density in atomic spheres:
 ------------------------------------------------
 Atom  Sphere_radius  Integrated_density
    1        2.00000          1.57889340
    2        2.00000          1.57684275
================================================================================

 ----iterations are completed or convergence reached----

 Mean square residual over all n,k,spin=   1.6508E-22; max=  1.6508E-22
 reduced coordinates (array xred) for    2 atoms
      -0.047000000000      0.000000000000      0.000000000000
       0.046900000000      0.000000000000      0.000000000000
 rms dE/dt=  2.0140E+00; max dE/dt=  3.4884E+00; dE/dt below (all hartree)
    1       3.488422128132      0.000000000000      0.000000000000
    2      -3.488422564115      0.000000000000      0.000000000000

 cartesian coordinates (angstrom) at end:
    1     -0.29845594564476     0.00000000000000     0.00000000000000
    2      0.29782093299445     0.00000000000000     0.00000000000000

 cartesian forces (hartree/bohr) at end:
    1     -0.29070186217696    -0.00000000000000    -0.00000000000000
    2      0.29070186217696    -0.00000000000000    -0.00000000000000
 frms,max,avg= 1.6783680E-01 2.9070186E-01   1.817E-08  0.000E+00  0.000E+00 h/b

 cartesian forces (eV/Angstrom) at end:
    1    -14.94848952696088    -0.00000000000000    -0.00000000000000
    2     14.94848952696088    -0.00000000000000    -0.00000000000000
 frms,max,avg= 8.6305145E+00 1.4948490E+01   9.341E-07  0.000E+00  0.000E+00 e/A
 length scales= 12.000000000000 10.000000000000 10.000000000000 bohr
              =  6.350126503080  5.291772085900  5.291772085900 angstroms
 prteigrs : about to open file t48o_DS1_EIG
 Fermi (or HOMO) energy (hartree) =  -0.38702   Average Vxc (hartree)=  -0.06022
 Eigenvalues (hartree) for nkpt=   1  k points:
 kpt#   1, nband=  1, wtk=  1.00000, kpt=  0.0000  0.0000  0.0000 (reduced coord)
  -0.38702

--------------------------------------------------------------------------------
 Components of total free energy (in Hartree) :

    Kinetic energy  =  1.07665381969147E+00
    Hartree energy  =  8.22550315392616E-01
    XC energy       = -6.82796154077040E-01
    Ewald energy    =  3.60683130499491E-01
    PspCore energy  = -4.06537935549375E-05
    Loc. psp. energy= -2.61354019202410E+00
    NL   psp  energy=  0.00000000000000E+00
    >>>>>>>>> Etotal= -1.03648973431112E+00

 Other information on the energy :
    Total energy(eV)= -2.82043200272892E+01 ; Band energy (Ha)=  -7.7404736886E-01
--------------------------------------------------------------------------------

 Cartesian components of stress tensor (hartree/bohr^3)
  sigma(1 1)= -2.41132672E-04  sigma(3 2)=  0.00000000E+00
  sigma(2 2)=  1.02185355E-04  sigma(3 1)=  0.00000000E+00
  sigma(3 3)=  1.02185355E-04  sigma(2 1)=  0.00000000E+00

-Cartesian components of stress tensor (GPa)         [Pressure=  3.6052E-01 GPa]
- sigma(1 1)= -7.09436694E+00  sigma(3 2)=  0.00000000E+00
- sigma(2 2)=  3.00639642E+00  sigma(3 1)=  0.00000000E+00
- sigma(3 3)=  3.00639642E+00  sigma(2 1)=  0.00000000E+00

================================================================================
== DATASET  2 ==================================================================
-   nproc =    1

 mkfilename : getwfk/=0, take file _WFK from output of DATASET   1.

 Exchange-correlation functional for the present dataset will be:
  GGA: Wu Cohen functional - ixc=23
 Citation for XC functional:
  Z. Wu and R. E. Cohen, PRB 73, 235116 (2006)

 Real(R)+Recip(G) space primitive vectors, cartesian coordinates (Bohr,Bohr^-1):
 R(1)= 12.0000000  0.0000000  0.0000000  G(1)=  0.0833333  0.0000000  0.0000000
 R(2)=  0.0000000 10.0000000  0.0000000  G(2)=  0.0000000  0.1000000  0.0000000
 R(3)=  0.0000000  0.0000000 10.0000000  G(3)=  0.0000000  0.0000000  0.1000000
 Unit cell volume ucvol=  1.2000000E+03 bohr^3
 Angles (23,13,12)=  9.00000000E+01  9.00000000E+01  9.00000000E+01 degrees

 getcut: wavevector=  0.0000  0.0000  0.0000  ngfft=  24  20  20
         ecut(hartree)=      4.500   => boxcut(ratio)=   2.09440
--------------------------------------------------------------------------------

-inwffil : will read wavefunctions from disk file t48o_DS1_WFK
_setup2: Arith. and geom. avg. npw (full set) are     559.000     559.000

================================================================================

     iter   Etot(hartree)      deltaE(h)  residm     vres2
 ETOT  1  -1.0366639057362    -1.037E+00 9.202E-13 2.686E-04
 ETOT  2  -1.0366639165398    -1.080E-08 2.139E-14 3.214E-05
 ETOT  3  -1.0366639177830    -1.243E-09 7.664E-12 8.659E-07
 ETOT  4  -1.0366639177842    -1.201E-12 7.748E-15 9.573E-09
 ETOT  5  -1.0366639177842    -5.773E-15 1.532E-16 1.070E-09
 ETOT  6  -1.0366639177843    -4.441E-14 1.432E-16 1.395E-11
 ETOT  7  -1.0366639177843     1.332E-15 1.546E-18 2.457E-12
 ETOT  8  -1.0366639177843    -2.487E-14 9.784E-20 7.430E-14
 ETOT  9  -1.0366639177843     3.975E-14 2.423E-21 1.885E-15
 ETOT 10  -1.0366639177843    -1.332E-15 1.006E-22 8.305E-18

 At SCF step   10       vres2   =  8.31E-18 < tolvrs=  1.00E-16 =>converged.

 Cartesian components of stress tensor (hartree/bohr^3)
  sigma(1 1)= -2.40595033E-04  sigma(3 2)=  0.00000000E+00
  sigma(2 2)=  1.02109205E-04  sigma(3 1)=  0.00000000E+00
  sigma(3 3)=  1.02109205E-04  sigma(2 1)=  0.00000000E+00

 Integrated electronic density in atomic spheres:
 ------------------------------------------------
 Atom  Sphere_radius  Integrated_density
    1        2.00000          1.57863446
    2        2.00000          1.57674425
================================================================================

 ----iterations are completed or convergence reached----

 Mean square residual over all n,k,spin=   1.0058E-22; max=  1.0058E-22
 reduced coordinates (array xred) for    2 atoms
      -0.047000000000      0.000000000000      0.000000000000
       0.046950000000      0.000000000000      0.000000000000
 rms dE/dt=  2.0086E+00; max dE/dt=  3.4789E+00; dE/dt below (all hartree)
    1       3.478919301689      0.000000000000      0.000000000000
    2      -3.478919514974      0.000000000000      0.000000000000

 cartesian coordinates (angstrom) at end:
    1     -0.29845594564476     0.00000000000000     0.00000000000000
    2      0.29813843931961     0.00000000000000     0.00000000000000

 cartesian forces (hartree/bohr) at end:
    1     -0.28990995069426    -0.00000000000000    -0.00000000000000
    2      0.28990995069426    -0.00000000000000    -0.00000000000000
 frms,max,avg= 1.6737959E-01 2.8990995E-01   8.887E-09  0.000E+00  0.000E+00 h/b

 cartesian forces (eV/Angstrom) at end:
    1    -14.90776780465502    -0.00000000000000    -0.00000000000000
    2     14.90776780465502    -0.00000000000000    -0.00000000000000
 frms,max,avg= 8.6070038E+00 1.4907768E+01   4.570E-07  0.000E+00  0.000E+00 e/A
 length scales= 12.000000000000 10.000000000000 10.000000000000 bohr
              =  6.350126503080  5.291772085900  5.291772085900 angstroms
 prteigrs : about to open file t48o_DS2_EIG
 Fermi (or HOMO) energy (hartree) =  -0.38696   Average Vxc (hartree)=  -0.06023
 Eigenvalues (hartree) for nkpt=   1  k points:
 kpt#   1, nband=  1, wtk=  1.00000, kpt=  0.0000  0.0000  0.0000 (reduced coord)
  -0.38696

--------------------------------------------------------------------------------
 Components of total free energy (in Hartree) :

    Kinetic energy  =  1.07635074695895E+00
    Hartree energy  =  8.22361011598490E-01
    XC energy       = -6.82703304496149E-01
    Ewald energy    =  3.60211990582588E-01
    PspCore energy  = -4.06537935549375E-05
    Loc. psp. energy= -2.61284370863459E+00
    NL   psp  energy=  0.00000000000000E+00
    >>>>>>>>> Etotal= -1.03666391778426E+00

 Other information on the energy :
    Total energy(eV)= -2.82090598006391E+01 ; Band energy (Ha)=  -7.7391291508E-01
--------------------------------------------------------------------------------

 Cartesian components of stress tensor (hartree/bohr^3)
  sigma(1 1)= -2.40595033E-04  sigma(3 2)=  0.00000000E+00
  sigma(2 2)=  1.02109205E-04  sigma(3 1)=  0.00000000E+00
  sigma(3 3)=  1.02109205E-04  sigma(2 1)=  0.00000000E+00

-Cartesian components of stress tensor (GPa)         [Pressure=  3.5675E-01 GPa]
- sigma(1 1)= -7.07854906E+00  sigma(3 2)=  0.00000000E+00
- sigma(2 2)=  3.00415604E+00  sigma(3 1)=  0.00000000E+00
- sigma(3 3)=  3.00415604E+00  sigma(2 1)=  0.00000000E+00

================================================================================
== DATASET  3 ==================================================================
-   nproc =    1

 mkfilename : getwfk/=0, take file _WFK from output of DATASET   2.

 Exchange-correlation functional for the present dataset will be:
  GGA: Wu Cohen functional - ixc=23
 Citation for XC functional:
  Z. Wu and R. E. Cohen, PRB 73, 235116 (2006)

 Real(R)+Recip(G) space primitive vectors, cartesian coordinates (Bohr,Bohr^-1):
 R(1)= 12.0000000  0.0000000  0.0000000  G(1)=  0.0833333  0.0000000  0.0000000
 R(2)=  0.0000000 10.0000000  0.0000000  G(2)=  0.0000000  0.1000000  0.0000000
 R(3)=  0.0000000  0.0000000 10.0000000  G(3)=  0.0000000  0.0000000  0.1000000
 Unit cell volume ucvol=  1.2000000E+03 bohr^3
 Angles (23,13,12)=  9.00000000E+01  9.00000000E+01  9.00000000E+01 degrees

 getcut: wavevector=  0.0000  0.0000  0.0000  ngfft=  24  20  20
         ecut(hartree)=      4.500   => boxcut(ratio)=   2.09440
--------------------------------------------------------------------------------

-inwffil : will read wavefunctions from disk file t48o_DS2_WFK
_setup2: Arith. and geom. avg. npw (full set) are     559.000     559.000

================================================================================

     iter   Etot(hartree)      deltaE(h)  residm     vres2
 ETOT  1  -1.0368376145257    -1.037E+00 9.230E-13 2.630E-04
 ETOT  2  -1.0368376253334    -1.081E-08 2.146E-14 3.267E-05
 ETOT  3  -1.0368376265762    -1.243E-09 7.820E-12 8.377E-07
 ETOT  4  -1.0368376265777    -1.491E-12 1.606E-14 9.587E-09
 ETOT  5  -1.0368376265776     3.064E-14 1.055E-16 9.769E-10
 ETOT  6  -1.0368376265777    -5.862E-14 1.422E-16 1.678E-11
 ETOT  7  -1.0368376265777     2.442E-14 1.387E-18 2.313E-12
 ETOT  8  -1.0368376265777    -1.910E-14 8.866E-20 8.905E-14
 ETOT  9  -1.0368376265777     6.883E-15 1.635E-21 2.239E-15
 ETOT 10  -1.0368376265777     2.021E-14 1.425E-22 1.601E-17

 At SCF step   10       vres2   =  1.60E-17 < tolvrs=  1.00E-16 =>converged.

 Cartesian components of stress tensor (hartree/bohr^3)
  sigma(1 1)= -2.40057941E-04  sigma(3 2)=  0.00000000E+00
  sigma(2 2)=  1.02033112E-04  sigma(3 1)=  0.00000000E+00
  sigma(3 3)=  1.02033112E-04  sigma(2 1)=  0.00000000E+00

 Integrated electronic density in atomic spheres:
 ------------------------------------------------
 Atom  Sphere_radius  Integrated_density
    1        2.00000          1.57837539
    2        2.00000          1.57837539
================================================================================

 ----iterations are completed or convergence reached----

 Mean square residual over all n,k,spin=   1.4249E-22; max=  1.4249E-22
 reduced coordinates (array xred) for    2 atoms
      -0.047000000000      0.000000000000      0.000000000000
       0.047000000000      0.000000000000      0.000000000000
 rms dE/dt=  2.0031E+00; max dE/dt=  3.4694E+00; dE/dt below (all hartree)
    1       3.469435369382      0.000000000000      0.000000000000
    2      -3.469435369420      0.000000000000      0.000000000000

 cartesian coordinates (angstrom) at end:
    1     -0.29845594564476     0.00000000000000     0.00000000000000
    2      0.29845594564476     0.00000000000000     0.00000000000000

 cartesian forces (hartree/bohr) at end:
    1     -0.28911961411676    -0.00000000000000    -0.00000000000000
    2      0.28911961411676    -0.00000000000000    -0.00000000000000
 frms,max,avg= 1.6692329E-01 2.8911961E-01   1.610E-12  0.000E+00  0.000E+00 h/b

 cartesian forces (eV/Angstrom) at end:
    1    -14.86712706722347    -0.00000000000000    -0.00000000000000
    2     14.86712706722347    -0.00000000000000    -0.00000000000000
 frms,max,avg= 8.5835398E+00 1.4867127E+01   8.277E-11  0.000E+00  0.000E+00 e/A
 length scales= 12.000000000000 10.000000000000 10.000000000000 bohr
              =  6.350126503080  5.291772085900  5.291772085900 angstroms
 prteigrs : about to open file t48o_DS3_EIG
 Fermi (or HOMO) energy (hartree) =  -0.38689   Average Vxc (hartree)=  -0.06024
 Eigenvalues (hartree) for nkpt=   1  k points:
 kpt#   1, nband=  1, wtk=  1.00000, kpt=  0.0000  0.0000  0.0000 (reduced coord)
  -0.38689

--------------------------------------------------------------------------------
 Components of total free energy (in Hartree) :

    Kinetic energy  =  1.07604772826775E+00
    Hartree energy  =  8.22171693980692E-01
    XC energy       = -6.82610450789326E-01
    Ewald energy    =  3.59741353824815E-01
    PspCore energy  = -4.06537935549375E-05
    Loc. psp. energy= -2.61214729806803E+00
    NL   psp  energy=  0.00000000000000E+00
    >>>>>>>>> Etotal= -1.03683762657765E+00

 Other information on the energy :
    Total energy(eV)= -2.82137866572958E+01 ; Band energy (Ha)=  -7.7377850303E-01
--------------------------------------------------------------------------------

 Cartesian components of stress tensor (hartree/bohr^3)
  sigma(1 1)= -2.40057941E-04  sigma(3 2)=  0.00000000E+00
  sigma(2 2)=  1.02033112E-04  sigma(3 1)=  0.00000000E+00
  sigma(3 3)=  1.02033112E-04  sigma(2 1)=  0.00000000E+00

-Cartesian components of stress tensor (GPa)         [Pressure=  3.5297E-01 GPa]
- sigma(1 1)= -7.06274729E+00  sigma(3 2)=  0.00000000E+00
- sigma(2 2)=  3.00191729E+00  sigma(3 1)=  0.00000000E+00
- sigma(3 3)=  3.00191729E+00  sigma(2 1)=  0.00000000E+00

================================================================================
== DATASET  4 ==================================================================
-   nproc =    1

 mkfilename : getwfk/=0, take file _WFK from output of DATASET   3.

 Exchange-correlation functional for the present dataset will be:
  GGA: Wu Cohen functional - ixc=23
 Citation for XC functional:
  Z. Wu and R. E. Cohen, PRB 73, 235116 (2006)

 Real(R)+Recip(G) space primitive vectors, cartesian coordinates (Bohr,Bohr^-1):
 R(1)= 12.0000000  0.0000000  0.0000000  G(1)=  0.0833333  0.0000000  0.0000000
 R(2)=  0.0000000 10.0000000  0.0000000  G(2)=  0.0000000  0.1000000  0.0000000
 R(3)=  0.0000000  0.0000000 10.0000000  G(3)=  0.0000000  0.0000000  0.1000000
 Unit cell volume ucvol=  1.2000000E+03 bohr^3
 Angles (23,13,12)=  9.00000000E+01  9.00000000E+01  9.00000000E+01 degrees

 getcut: wavevector=  0.0000  0.0000  0.0000  ngfft=  24  20  20
         ecut(hartree)=      4.500   => boxcut(ratio)=   2.09440
--------------------------------------------------------------------------------

-inwffil : will read wavefunctions from disk file t48o_DS3_WFK
_setup2: Arith. and geom. avg. npw (full set) are     559.000     559.000

================================================================================

     iter   Etot(hartree)      deltaE(h)  residm     vres2
 ETOT  1  -1.0370108495799    -1.037E+00 9.257E-13 2.457E-04
 ETOT  2  -1.0370108603915    -1.081E-08 2.154E-14 3.175E-05
 ETOT  3  -1.0370108616338    -1.242E-09 7.961E-12 8.177E-07
 ETOT  4  -1.0370108616357    -1.875E-12 2.498E-14 1.023E-08
 ETOT  5  -1.0370108616357    -1.243E-14 9.381E-17 8.998E-10
 ETOT  6  -1.0370108616357    -5.107E-15 1.418E-16 2.172E-11
 ETOT  7  -1.0370108616357    -3.086E-14 1.342E-18 2.178E-12
 ETOT  8  -1.0370108616357     5.462E-14 8.590E-20 9.316E-14
 ETOT  9  -1.0370108616357    -5.551E-15 1.480E-21 3.442E-15
 ETOT 10  -1.0370108616357    -1.577E-14 1.638E-22 2.264E-17

 At SCF step   10       vres2   =  2.26E-17 < tolvrs=  1.00E-16 =>converged.

 Cartesian components of stress tensor (hartree/bohr^3)
  sigma(1 1)= -2.39521397E-04  sigma(3 2)=  0.00000000E+00
  sigma(2 2)=  1.01957074E-04  sigma(3 1)=  0.00000000E+00
  sigma(3 3)=  1.01957074E-04  sigma(2 1)=  0.00000000E+00

 Integrated electronic density in atomic spheres:
 ------------------------------------------------
 Atom  Sphere_radius  Integrated_density
    1        2.00000          1.57811618
    2        2.00000          1.57827923
================================================================================

 ----iterations are completed or convergence reached----

 Mean square residual over all n,k,spin=   1.6380E-22; max=  1.6380E-22
 reduced coordinates (array xred) for    2 atoms
      -0.047000000000      0.000000000000      0.000000000000
       0.047050000000      0.000000000000      0.000000000000
 rms dE/dt=  1.9976E+00; max dE/dt=  3.4600E+00; dE/dt below (all hartree)
    1       3.459970296035      0.000000000000      0.000000000000
    2      -3.459970092942      0.000000000000      0.000000000000

 cartesian coordinates (angstrom) at end:
    1     -0.29845594564476     0.00000000000000     0.00000000000000
    2      0.29877345196991     0.00000000000000     0.00000000000000

 cartesian forces (hartree/bohr) at end:
    1     -0.28833084954070    -0.00000000000000    -0.00000000000000
    2      0.28833084954070    -0.00000000000000    -0.00000000000000
 frms,max,avg= 1.6646789E-01 2.8833085E-01  -8.462E-09  0.000E+00  0.000E+00 h/b

 cartesian forces (eV/Angstrom) at end:
    1    -14.82656716534991    -0.00000000000000    -0.00000000000000
    2     14.82656716534991    -0.00000000000000    -0.00000000000000
 frms,max,avg= 8.5601225E+00 1.4826567E+01  -4.351E-07  0.000E+00  0.000E+00 e/A
 length scales= 12.000000000000 10.000000000000 10.000000000000 bohr
              =  6.350126503080  5.291772085900  5.291772085900 angstroms
 prteigrs : about to open file t48o_DS4_EIG
 Fermi (or HOMO) energy (hartree) =  -0.38682   Average Vxc (hartree)=  -0.06025
 Eigenvalues (hartree) for nkpt=   1  k points:
 kpt#   1, nband=  1, wtk=  1.00000, kpt=  0.0000  0.0000  0.0000 (reduced coord)
  -0.38682

--------------------------------------------------------------------------------
 Components of total free energy (in Hartree) :

    Kinetic energy  =  1.07574476360821E+00
    Hartree energy  =  8.21982362478629E-01
    XC energy       = -6.82517592937819E-01
    Ewald energy    =  3.59271219424895E-01
    PspCore energy  = -4.06537935549375E-05
    Loc. psp. energy= -2.61145096041606E+00
    NL   psp  energy=  0.00000000000000E+00
    >>>>>>>>> Etotal= -1.03701086163569E+00

 Other information on the energy :
    Total energy(eV)= -2.82185006229582E+01 ; Band energy (Ha)=  -7.7364413285E-01
--------------------------------------------------------------------------------

 Cartesian components of stress tensor (hartree/bohr^3)
  sigma(1 1)= -2.39521397E-04  sigma(3 2)=  0.00000000E+00
  sigma(2 2)=  1.01957074E-04  sigma(3 1)=  0.00000000E+00
  sigma(3 3)=  1.01957074E-04  sigma(2 1)=  0.00000000E+00

-Cartesian components of stress tensor (GPa)         [Pressure=  3.4920E-01 GPa]
- sigma(1 1)= -7.04696162E+00  sigma(3 2)=  0.00000000E+00
- sigma(2 2)=  2.99968018E+00  sigma(3 1)=  0.00000000E+00
- sigma(3 3)=  2.99968018E+00  sigma(2 1)=  0.00000000E+00

================================================================================
== DATASET  5 ==================================================================
-   nproc =    1

 mkfilename : getwfk/=0, take file _WFK from output of DATASET   4.

 Exchange-correlation functional for the present dataset will be:
  GGA: Wu Cohen functional - ixc=23
 Citation for XC functional:
  Z. Wu and R. E. Cohen, PRB 73, 235116 (2006)

 Real(R)+Recip(G) space primitive vectors, cartesian coordinates (Bohr,Bohr^-1):
 R(1)= 12.0000000  0.0000000  0.0000000  G(1)=  0.0833333  0.0000000  0.0000000
 R(2)=  0.0000000 10.0000000  0.0000000  G(2)=  0.0000000  0.1000000  0.0000000
 R(3)=  0.0000000  0.0000000 10.0000000  G(3)=  0.0000000  0.0000000  0.1000000
 Unit cell volume ucvol=  1.2000000E+03 bohr^3
 Angles (23,13,12)=  9.00000000E+01  9.00000000E+01  9.00000000E+01 degrees

 getcut: wavevector=  0.0000  0.0000  0.0000  ngfft=  24  20  20
         ecut(hartree)=      4.500   => boxcut(ratio)=   2.09440
--------------------------------------------------------------------------------

-inwffil : will read wavefunctions from disk file t48o_DS4_WFK
_setup2: Arith. and geom. avg. npw (full set) are     559.000     559.000

================================================================================

     iter   Etot(hartree)      deltaE(h)  residm     vres2
 ETOT  1  -1.0371836118412    -1.037E+00 9.285E-13 2.202E-04
 ETOT  2  -1.0371836226569    -1.082E-08 2.161E-14 2.963E-05
 ETOT  3  -1.0371836238985    -1.242E-09 8.071E-12 8.137E-07
 ETOT  4  -1.0371836239009    -2.339E-12 3.219E-14 1.181E-08
 ETOT  5  -1.0371836239009    -8.882E-15 1.023E-16 8.965E-10
 ETOT  6  -1.0371836239009     1.554E-15 1.436E-16 2.853E-11
 ETOT  7  -1.0371836239009     4.219E-15 1.392E-18 2.250E-12
 ETOT  8  -1.0371836239009     1.776E-14 8.580E-20 1.030E-13
 ETOT  9  -1.0371836239009    -1.377E-14 1.549E-21 4.747E-15
 ETOT 10  -1.0371836239009    -1.643E-14 1.794E-22 2.441E-17

 At SCF step   10       vres2   =  2.44E-17 < tolvrs=  1.00E-16 =>converged.

 Cartesian components of stress tensor (hartree/bohr^3)
  sigma(1 1)= -2.38985399E-04  sigma(3 2)=  0.00000000E+00
  sigma(2 2)=  1.01881092E-04  sigma(3 1)=  0.00000000E+00
  sigma(3 3)=  1.01881092E-04  sigma(2 1)=  0.00000000E+00

 Integrated electronic density in atomic spheres:
 ------------------------------------------------
 Atom  Sphere_radius  Integrated_density
    1        2.00000          1.57785683
    2        2.00000          1.57818298
================================================================================

 ----iterations are completed or convergence reached----

 Mean square residual over all n,k,spin=   1.7942E-22; max=  1.7942E-22
 reduced coordinates (array xred) for    2 atoms
      -0.047000000000      0.000000000000      0.000000000000
       0.047100000000      0.000000000000      0.000000000000
 rms dE/dt=  1.9922E+00; max dE/dt=  3.4505E+00; dE/dt below (all hartree)
    1       3.450524046542      0.000000000000      0.000000000000
    2      -3.450523650442      0.000000000000      0.000000000000

 cartesian coordinates (angstrom) at end:
    1     -0.29845594564476     0.00000000000000     0.00000000000000
    2      0.29909095829507     0.00000000000000     0.00000000000000

 cartesian forces (hartree/bohr) at end:
    1     -0.28754365404101    -0.00000000000000    -0.00000000000000
    2      0.28754365404101    -0.00000000000000    -0.00000000000000
 frms,max,avg= 1.6601341E-01 2.8754365E-01  -1.650E-08  0.000E+00  0.000E+00 h/b

 cartesian forces (eV/Angstrom) at end:
    1    -14.78608794862018    -0.00000000000000    -0.00000000000000
    2     14.78608794862018    -0.00000000000000    -0.00000000000000
 frms,max,avg= 8.5367519E+00 1.4786088E+01  -8.487E-07  0.000E+00  0.000E+00 e/A
 length scales= 12.000000000000 10.000000000000 10.000000000000 bohr
              =  6.350126503080  5.291772085900  5.291772085900 angstroms
 prteigrs : about to open file t48o_DS5_EIG
 Fermi (or HOMO) energy (hartree) =  -0.38675   Average Vxc (hartree)=  -0.06026
 Eigenvalues (hartree) for nkpt=   1  k points:
 kpt#   1, nband=  1, wtk=  1.00000, kpt=  0.0000  0.0000  0.0000 (reduced coord)
  -0.38675

--------------------------------------------------------------------------------
 Components of total free energy (in Hartree) :

    Kinetic energy  =  1.07544185302193E+00
    Hartree energy  =  8.21793017071229E-01
    XC energy       = -6.82424730941787E-01
    Ewald energy    =  3.58801586583330E-01
    PspCore energy  = -4.06537935549375E-05
    Loc. psp. energy= -2.61075469584205E+00
    NL   psp  energy=  0.00000000000000E+00
    >>>>>>>>> Etotal= -1.03718362390090E+00

 Other information on the energy :
    Total energy(eV)= -2.82232017232733E+01 ; Band energy (Ha)=  -7.7350980470E-01
--------------------------------------------------------------------------------

 Cartesian components of stress tensor (hartree/bohr^3)
  sigma(1 1)= -2.38985399E-04  sigma(3 2)=  0.00000000E+00
  sigma(2 2)=  1.01881092E-04  sigma(3 1)=  0.00000000E+00
  sigma(3 3)=  1.01881092E-04  sigma(2 1)=  0.00000000E+00

-Cartesian components of stress tensor (GPa)         [Pressure=  3.4543E-01 GPa]
- sigma(1 1)= -7.03119201E+00  sigma(3 2)=  0.00000000E+00
- sigma(2 2)=  2.99744471E+00  sigma(3 1)=  0.00000000E+00
- sigma(3 3)=  2.99744471E+00  sigma(2 1)=  0.00000000E+00

== END DATASET(S) ==============================================================
================================================================================
  
 -outvars: echo values of variables after computation  --------
            acell      1.2000000000E+01  1.0000000000E+01  1.0000000000E+01 Bohr
              amu      1.00800000E+00
           diemac      1.00000000E+00
           diemix      5.00000000E-01
             ecut      4.50000000E+00 Hartree
           etotal1    -1.0364897343E+00
           etotal2    -1.0366639178E+00
           etotal3    -1.0368376266E+00
           etotal4    -1.0370108616E+00
           etotal5    -1.0371836239E+00
            fcart1    -2.9070186218E-01 -0.0000000000E+00 -0.0000000000E+00
                       2.9070186218E-01 -0.0000000000E+00 -0.0000000000E+00
            fcart2    -2.8990995069E-01 -0.0000000000E+00 -0.0000000000E+00
                       2.8990995069E-01 -0.0000000000E+00 -0.0000000000E+00
            fcart3    -2.8911961412E-01 -0.0000000000E+00 -0.0000000000E+00
                       2.8911961412E-01 -0.0000000000E+00 -0.0000000000E+00
            fcart4    -2.8833084954E-01 -0.0000000000E+00 -0.0000000000E+00
                       2.8833084954E-01 -0.0000000000E+00 -0.0000000000E+00
            fcart5    -2.8754365404E-01 -0.0000000000E+00 -0.0000000000E+00
                       2.8754365404E-01 -0.0000000000E+00 -0.0000000000E+00
-          fftalg         312
           getwfk          -1
           istwfk        2
              ixc          23
           jdtset        1    2    3    4    5
           kptopt           0
P           mkmem           1
            natom           2
            nband           1
           ndtset           5
            ngfft          24      20      20
             nkpt           1
            nline           3
             nsym           4
           ntypat           1
              occ      2.000000
          spgroup          25
           strten1    -2.4113267174E-04  1.0218535470E-04  1.0218535470E-04
                       0.0000000000E+00  0.0000000000E+00  0.0000000000E+00
           strten2    -2.4059503273E-04  1.0210920547E-04  1.0210920546E-04
                       0.0000000000E+00  0.0000000000E+00  0.0000000000E+00
           strten3    -2.4005794149E-04  1.0203311196E-04  1.0203311195E-04
                       0.0000000000E+00  0.0000000000E+00  0.0000000000E+00
           strten4    -2.3952139722E-04  1.0195707419E-04  1.0195707419E-04
                       0.0000000000E+00  0.0000000000E+00  0.0000000000E+00
           strten5    -2.3898539917E-04  1.0188109217E-04  1.0188109217E-04
                       0.0000000000E+00  0.0000000000E+00  0.0000000000E+00
           symrel      1  0  0   0  1  0   0  0  1       1  0  0   0  1  0   0  0 -1
                       1  0  0   0 -1  0   0  0  1       1  0  0   0 -1  0   0  0 -1
           tolvrs      1.00000000E-16
            typat      1  1
           xangst1    -2.9845594564E-01  0.0000000000E+00  0.0000000000E+00
                       2.9782093299E-01  0.0000000000E+00  0.0000000000E+00
           xangst2    -2.9845594564E-01  0.0000000000E+00  0.0000000000E+00
                       2.9813843932E-01  0.0000000000E+00  0.0000000000E+00
           xangst3    -2.9845594564E-01  0.0000000000E+00  0.0000000000E+00
                       2.9845594564E-01  0.0000000000E+00  0.0000000000E+00
           xangst4    -2.9845594564E-01  0.0000000000E+00  0.0000000000E+00
                       2.9877345197E-01  0.0000000000E+00  0.0000000000E+00
           xangst5    -2.9845594564E-01  0.0000000000E+00  0.0000000000E+00
                       2.9909095830E-01  0.0000000000E+00  0.0000000000E+00
            xcart1    -5.6400000000E-01  0.0000000000E+00  0.0000000000E+00
                       5.6280000000E-01  0.0000000000E+00  0.0000000000E+00
            xcart2    -5.6400000000E-01  0.0000000000E+00  0.0000000000E+00
                       5.6340000000E-01  0.0000000000E+00  0.0000000000E+00
            xcart3    -5.6400000000E-01  0.0000000000E+00  0.0000000000E+00
                       5.6400000000E-01  0.0000000000E+00  0.0000000000E+00
            xcart4    -5.6400000000E-01  0.0000000000E+00  0.0000000000E+00
                       5.6460000000E-01  0.0000000000E+00  0.0000000000E+00
            xcart5    -5.6400000000E-01  0.0000000000E+00  0.0000000000E+00
                       5.6520000000E-01  0.0000000000E+00  0.0000000000E+00
             xred1    -4.7000000000E-02  0.0000000000E+00  0.0000000000E+00
                       4.6900000000E-02  0.0000000000E+00  0.0000000000E+00
             xred2    -4.7000000000E-02  0.0000000000E+00  0.0000000000E+00
                       4.6950000000E-02  0.0000000000E+00  0.0000000000E+00
             xred3    -4.7000000000E-02  0.0000000000E+00  0.0000000000E+00
                       4.7000000000E-02  0.0000000000E+00  0.0000000000E+00
             xred4    -4.7000000000E-02  0.0000000000E+00  0.0000000000E+00
                       4.7050000000E-02  0.0000000000E+00  0.0000000000E+00
             xred5    -4.7000000000E-02  0.0000000000E+00  0.0000000000E+00
                       4.7100000000E-02  0.0000000000E+00  0.0000000000E+00
            znucl        1.00000

================================================================================


- Timing analysis has been suppressed with timopt=0



================================================================================

 Suggested references for the acknowledgment of ABINIT usage.

 The users of ABINIT have little formal obligations with respect to the ABINIT group
 (those specified in the GNU General Public License, http://www.gnu.org/copyleft/gpl.txt).
 However, it is common practice in the scientific literature,
 to acknowledge the efforts of people that have made the research possible.
 In this spirit, please find below suggested citations of work written by ABINIT developers,
 corresponding to implementations inside of ABINIT that you have used in the present run.
 Note also that it will be of great value to readers of publications presenting these results,
 to read papers enabling them to understand the theoretical formalism and details
 of the ABINIT implementation.
 For information on why they are suggested, see also https://www.abinit.org/about/?text=acknowledgments.
-
- [1] Ab initio pseudopotentials for electronic structure calculations of poly-atomic systems, 
- using density-functional theory.
- M. Fuchs, M. Scheffler, Comput. Phys. Commun. 119, 67 (1999).
- Comment : Some pseudopotential generated using the FHI code were used.
-
- [2] ABINIT : First-principles approach of materials and nanosystem properties.
- X. Gonze, B. Amadon, P.-M. Anglade, J.-M. Beuken, F. Bottin, P. Boulanger, F. Bruneval,
- D. Caliste, R. Caracas, M. Cote, T. Deutsch, L. Genovese, Ph. Ghosez, M. Giantomassi
- S. Goedecker, D.R. Hamann, P. Hermet, F. Jollet, G. Jomard, S. Leroux, M. Mancini, S. Mazevet,
- M.J.T. Oliveira, G. Onida, Y. Pouillon, T. Rangel, G.-M. Rignanese, D. Sangalli, R. Shaltaf,
- M. Torrent, M.J. Verstraete, G. Zerah, J.W. Zwanziger
- Computer Phys. Comm. 180, 2582-2615 (2009).
- Comment : the third generic paper describing the ABINIT project.
- Note that a version of this paper, that is not formatted for Computer Phys. Comm. 
- is available at https://www.abinit.org/about/ABINIT_CPC_v10.pdf .
- The licence allows the authors to put it on the Web.
-
- [3] A brief introduction to the ABINIT software package.
- X. Gonze, G.-M. Rignanese, M. Verstraete, J.-M. Beuken, Y. Pouillon, R. Caracas, F. Jollet,
- M. Torrent, G. Zerah, M. Mikami, Ph. Ghosez, M. Veithen, J.-Y. Raty, V. Olevano, F. Bruneval,
- L. Reining, R. Godby, G. Onida, D.R. Hamann, and D.C. Allan.
- Z. Kristallogr. 220, 558-562 (2005).
- Comment : the second generic paper describing the ABINIT project. Note that this paper
- should be cited especially if you are using the GW part of ABINIT, as several authors
- of this part are not in the list of authors of the first or third paper.
- The .pdf of the latter paper is available at https://www.abinit.org/about/zfk_0505-06_558-562.pdf.
- Note that it should not redistributed (Copyright by Oldenburg Wissenshaftverlag,
- the licence allows the authors to put it on the Web).
-
- And optionally:
-
- [4] First-principles computation of material properties : the ABINIT software project. 
- X. Gonze, J.-M. Beuken, R. Caracas, F. Detraux, M. Fuchs, G.-M. Rignanese, L. Sindic,
- M. Verstraete, G. Zerah, F. Jollet, M. Torrent, A. Roy, M. Mikami, Ph. Ghosez, J.-Y. Raty, D.C. Allan.
- Computational Materials Science 25, 478-492 (2002). http://dx.doi.org/10.1016/S0927-0256(02)00325-7
- Comment : the original paper describing the ABINIT project.
-
- [5] Fast radix 2, 3, 4 and 5 kernels for Fast Fourier Transformations
- on computers with overlapping multiply-add instructions.
- S. Goedecker, SIAM J. on Scientific Computing 18, 1605 (1997).
-
- Proc.   0 individual time (sec): cpu=          1.2  wall=          1.8

================================================================================

 Calculation completed.
.Delivered   6 WARNINGs and   6 COMMENTs to log file.
+Overall time at end (sec) : cpu=          1.2  wall=          1.8
