
.Version 8.11.12 of ABINIT 
.(MPI version, prepared for a x86_64_linux_gnu9.2 computer) 

.Copyright (C) 1998-2020 ABINIT group . 
 ABINIT comes with ABSOLUTELY NO WARRANTY.
 It is free software, and you are welcome to redistribute it
 under certain conditions (GNU General Public License,
 see ~abinit/COPYING or http://www.gnu.org/copyleft/gpl.txt).

 ABINIT is a project of the Universite Catholique de Louvain,
 Corning Inc. and other collaborators, see ~abinit/doc/developers/contributors.txt .
 Please read https://docs.abinit.org/theory/acknowledgments for suggested
 acknowledgments of the ABINIT effort.
 For more information, see https://www.abinit.org .

.Starting date : Mon 25 Nov 2019.
- ( at 08h29 )
  
- input  file    -> t58.in
- output file    -> t58.out
- root for input  files -> t58i
- root for output files -> t58o


 Symmetries : space group P4 m m (# 99); Bravais tP (primitive tetrag.)
================================================================================
 Values of the parameters that define the memory need of the present run
     intxc =       0    ionmov =       2      iscf =       7    lmnmax =       2
     lnmax =       2     mgfft =      48  mpssoang =       3    mqgrid =    3001
     natom =       1  nloc_mem =       1    nspden =       1   nspinor =       1
    nsppol =       1      nsym =       8    n1xccc =    2501    ntypat =       1
    occopt =       4   xclevel =       1
-    mband =           3        mffmem =           1         mkmem =          42
       mpw =         662          nfft =       12288          nkpt =          42
================================================================================
P This job should need less than                       6.416 Mbytes of memory.
  Rough estimation (10% accuracy) of disk space for files :
_ WF disk file :      1.275 Mbytes ; DEN or POT disk file :      0.096 Mbytes.
================================================================================

--------------------------------------------------------------------------------
------------- Echo of variables that govern the present computation ------------
--------------------------------------------------------------------------------
-
- outvars: echo of selected default values                                      
-   iomode0 =  0 , fftalg0 =312 , wfoptalg0 =  0
-
- outvars: echo of global parameters not present in the input file              
-  max_nthreads =    0
-
 -outvars: echo values of preprocessed input variables --------
            acell      7.4000000000E+00  7.4000000000E+00  2.2200000000E+01 Bohr
              amu      2.29897680E+01
           diemac      7.00000000E+00
           diemix      7.00000000E-01
             ecut      5.00000000E+00 Hartree
-          fftalg         312
           ionmov           2
         jellslab           1
              kpt      4.16666667E-02  4.16666667E-02  1.25000000E-01
                       1.25000000E-01  4.16666667E-02  1.25000000E-01
                       2.08333333E-01  4.16666667E-02  1.25000000E-01
                       2.91666667E-01  4.16666667E-02  1.25000000E-01
                       3.75000000E-01  4.16666667E-02  1.25000000E-01
                       4.58333333E-01  4.16666667E-02  1.25000000E-01
                       1.25000000E-01  1.25000000E-01  1.25000000E-01
                       2.08333333E-01  1.25000000E-01  1.25000000E-01
                       2.91666667E-01  1.25000000E-01  1.25000000E-01
                       3.75000000E-01  1.25000000E-01  1.25000000E-01
                       4.58333333E-01  1.25000000E-01  1.25000000E-01
                       2.08333333E-01  2.08333333E-01  1.25000000E-01
                       2.91666667E-01  2.08333333E-01  1.25000000E-01
                       3.75000000E-01  2.08333333E-01  1.25000000E-01
                       4.58333333E-01  2.08333333E-01  1.25000000E-01
                       2.91666667E-01  2.91666667E-01  1.25000000E-01
                       3.75000000E-01  2.91666667E-01  1.25000000E-01
                       4.58333333E-01  2.91666667E-01  1.25000000E-01
                       3.75000000E-01  3.75000000E-01  1.25000000E-01
                       4.58333333E-01  3.75000000E-01  1.25000000E-01
                       4.58333333E-01  4.58333333E-01  1.25000000E-01
                       4.16666667E-02  4.16666667E-02  3.75000000E-01
                       1.25000000E-01  4.16666667E-02  3.75000000E-01
                       2.08333333E-01  4.16666667E-02  3.75000000E-01
                       2.91666667E-01  4.16666667E-02  3.75000000E-01
                       3.75000000E-01  4.16666667E-02  3.75000000E-01
                       4.58333333E-01  4.16666667E-02  3.75000000E-01
                       1.25000000E-01  1.25000000E-01  3.75000000E-01
                       2.08333333E-01  1.25000000E-01  3.75000000E-01
                       2.91666667E-01  1.25000000E-01  3.75000000E-01
                       3.75000000E-01  1.25000000E-01  3.75000000E-01
                       4.58333333E-01  1.25000000E-01  3.75000000E-01
                       2.08333333E-01  2.08333333E-01  3.75000000E-01
                       2.91666667E-01  2.08333333E-01  3.75000000E-01
                       3.75000000E-01  2.08333333E-01  3.75000000E-01
                       4.58333333E-01  2.08333333E-01  3.75000000E-01
                       2.91666667E-01  2.91666667E-01  3.75000000E-01
                       3.75000000E-01  2.91666667E-01  3.75000000E-01
                       4.58333333E-01  2.91666667E-01  3.75000000E-01
                       3.75000000E-01  3.75000000E-01  3.75000000E-01
                       4.58333333E-01  3.75000000E-01  3.75000000E-01
                       4.58333333E-01  4.58333333E-01  3.75000000E-01
         kptrlatt       12    0    0      0   12    0      0    0    4
          kptrlen      8.88000000E+01
P           mkmem          42
            natom           1
            nband           3
            ngfft          16      16      48
             nkpt          42
             nsym           8
            ntime           5
           ntypat           1
              occ      2.000000  1.883080  0.000000
                       2.000000  1.883080  0.000000
                       2.000000  1.883080  0.000000
                       2.000000  1.883080  0.000000
                       2.000000  1.883080  0.000000
                       2.000000  1.883080  0.000000
                       2.000000  1.883080  0.000000
                       2.000000  1.883080  0.000000
                       2.000000  1.883080  0.000000
                       2.000000  1.883080  0.000000
                       2.000000  1.883080  0.000000
                       2.000000  1.883080  0.000000
                       2.000000  1.883080  0.000000
                       2.000000  1.883080  0.000000
                       2.000000  1.883080  0.000000
                       2.000000  1.883080  0.000000
                       2.000000  1.883080  0.000000
                       2.000000  1.883080  0.000000
                       2.000000  1.883080  0.000000
                       2.000000  1.883080  0.000000
                       2.000000  1.883080  0.000000
                       2.000000  1.883080  0.000000
                       2.000000  1.883080  0.000000
                       2.000000  1.883080  0.000000
                       2.000000  1.883080  0.000000
                       2.000000  1.883080  0.000000
                       2.000000  1.883080  0.000000
                       2.000000  1.883080  0.000000
                       2.000000  1.883080  0.000000
                       2.000000  1.883080  0.000000
                       2.000000  1.883080  0.000000
                       2.000000  1.883080  0.000000
                       2.000000  1.883080  0.000000
                       2.000000  1.883080  0.000000
                       2.000000  1.883080  0.000000
                       2.000000  1.883080  0.000000
                       2.000000  1.883080  0.000000
                       2.000000  1.883080  0.000000
                       2.000000  1.883080  0.000000
                       2.000000  1.883080  0.000000
                       2.000000  1.883080  0.000000
                       2.000000  1.883080  0.000000
           occopt           4
        optforces           1
           prtden           0
            prtwf           0
           shiftk      5.00000000E-01  5.00000000E-01  5.00000000E-01
        slabwsrad      2.56000000E+00
         slabzbeg      7.40000000E+00
         slabzend      1.11000000E+01
          spgroup          99
           symrel      1  0  0   0  1  0   0  0  1       1  0  0   0 -1  0   0  0  1
                      -1  0  0   0 -1  0   0  0  1      -1  0  0   0  1  0   0  0  1
                       0  1  0   1  0  0   0  0  1       0  1  0  -1  0  0   0  0  1
                       0 -1  0  -1  0  0   0  0  1       0 -1  0   1  0  0   0  0  1
           toldff      1.00000000E-06
            typat      1
              wtk        0.01389    0.02778    0.02778    0.02778    0.02778    0.02778
                         0.01389    0.02778    0.02778    0.02778    0.02778    0.01389
                         0.02778    0.02778    0.02778    0.01389    0.02778    0.02778
                         0.01389    0.02778    0.01389    0.01389    0.02778    0.02778
                         0.02778    0.02778    0.02778    0.01389    0.02778    0.02778
                         0.02778    0.02778    0.01389    0.02778    0.02778    0.02778
                         0.01389    0.02778    0.02778    0.01389    0.02778    0.01389
           xangst      0.0000000000E+00  0.0000000000E+00  2.1082314155E+00
            xcart      0.0000000000E+00  0.0000000000E+00  3.9839800000E+00
             xred      0.0000000000E+00  0.0000000000E+00  1.7945855856E-01
            znucl       11.00000

================================================================================

 chkinp: Checking input parameters for consistency.

================================================================================
== DATASET  1 ==================================================================
-   nproc =    1

 Exchange-correlation functional for the present dataset will be:
  LDA: new Teter (4/93) with spin-polarized option - ixc=1
 Citation for XC functional:
  S. Goedecker, M. Teter, J. Huetter, PRB 54, 1703 (1996)

 Real(R)+Recip(G) space primitive vectors, cartesian coordinates (Bohr,Bohr^-1):
 R(1)=  7.4000000  0.0000000  0.0000000  G(1)=  0.1351351  0.0000000  0.0000000
 R(2)=  0.0000000  7.4000000  0.0000000  G(2)=  0.0000000  0.1351351  0.0000000
 R(3)=  0.0000000  0.0000000 22.2000000  G(3)=  0.0000000  0.0000000  0.0450450
 Unit cell volume ucvol=  1.2156720E+03 bohr^3
 Angles (23,13,12)=  9.00000000E+01  9.00000000E+01  9.00000000E+01 degrees

 getcut: wavevector=  0.0000  0.0000  0.0000  ngfft=  16  16  48
         ecut(hartree)=      5.000   => boxcut(ratio)=   2.14802

--- Pseudopotential description ------------------------------------------------
- pspini: atom type   1  psp file is /home/buildbot/bb/ABINIT/abiref_gnu_9.2_openmpi/trunk__gonze3/tests/Psps_for_tests/11na.pspnc
- pspatm: opening atomic psp file    /home/buildbot/bb/ABINIT/abiref_gnu_9.2_openmpi/trunk__gonze3/tests/Psps_for_tests/11na.pspnc
-  Troullier-Martins psp for element  Na        Mon Oct 31 11:14:49 EST 1994
- 11.00000   1.00000    940714                znucl, zion, pspdat
    1    1    2    2      2001   0.00000      pspcod,pspxc,lmax,lloc,mmax,r2well
    0   2.613   6.900    1   2.9359409        l,e99.0,e99.9,nproj,rcpsp
   0.00000000   0.00000000   0.00000000   0.00000000     rms, ekb1, ekb2, epsatm
    1   0.769   1.167    1   3.1646217        l,e99.0,e99.9,nproj,rcpsp
   0.00000000   0.00000000   0.00000000   0.00000000     rms, ekb1, ekb2, epsatm
    2   0.991   2.977    0   2.9359409        l,e99.0,e99.9,nproj,rcpsp
   0.00000000   0.00000000   0.00000000   0.00000000     rms, ekb1, ekb2, epsatm
    2.09488187080490    1.31996662950249   10.58981932283911   rchrg,fchrg,qchrg
  pspatm : epsatm=   10.64390676
         --- l  ekb(1:nproj) -->
             0    1.300581
             1    0.590411
 pspatm: atomic psp has been read  and splines computed

   1.06439068E+01                                ecore*ucvol(ha*bohr**3)
--------------------------------------------------------------------------------

_setup2: Arith. and geom. avg. npw (full set) are     649.569     649.559

================================================================================

=== [ionmov= 2] Broyden-Fletcher-Goldfard-Shanno method (forces)            
================================================================================

--- Iteration: (1/5) Internal Cycle: (1/1)
--------------------------------------------------------------------------------

---SELF-CONSISTENT-FIELD CONVERGENCE--------------------------------------------

     iter   Etot(hartree)      deltaE(h)  residm     vres2    diffor    maxfor
 ETOT  1  -6.5073568856918    -6.507E+00 7.255E-04 9.121E+02 1.482E-01 1.482E-01
 ETOT  2  -6.8011276008891    -2.938E-01 1.775E-04 4.001E+00 1.474E-01 7.910E-04
 ETOT  3  -6.8020017459759    -8.741E-04 3.023E-05 1.155E+00 1.426E-05 8.053E-04
 ETOT  4  -6.8022794006364    -2.777E-04 4.591E-06 3.965E-01 1.204E-03 3.983E-04
 ETOT  5  -6.8023041749097    -2.477E-05 5.467E-07 1.847E-01 2.421E-04 1.562E-04
 ETOT  6  -6.8023172756928    -1.310E-05 2.118E-07 2.018E-02 2.386E-05 1.323E-04
 ETOT  7  -6.8023202414982    -2.966E-06 2.195E-07 9.819E-04 1.254E-04 6.950E-06
 ETOT  8  -6.8023204411725    -1.997E-07 1.521E-07 6.813E-05 2.285E-05 2.980E-05
 ETOT  9  -6.8023204543109    -1.314E-08 1.563E-07 8.477E-06 5.598E-06 2.421E-05
 ETOT 10  -6.8023204561032    -1.792E-09 9.802E-08 4.953E-07 1.111E-05 1.310E-05
 ETOT 11  -6.8023204562334    -1.301E-10 1.085E-07 6.787E-08 3.848E-06 1.694E-05
 ETOT 12  -6.8023204562407    -7.311E-12 6.770E-08 2.573E-08 2.474E-11 1.694E-05
 ETOT 13  -6.8023204562443    -3.649E-12 7.569E-08 3.406E-09 1.042E-07 1.684E-05

 At SCF step   13, forces are converged : 
  for the second time, max diff in force=  1.042E-07 < toldff=  1.000E-06

 Cartesian components of stress tensor (hartree/bohr^3)
  sigma(1 1)=  8.91299863E-04  sigma(3 2)=  0.00000000E+00
  sigma(2 2)=  8.91299863E-04  sigma(3 1)=  0.00000000E+00
  sigma(3 3)=  2.63476361E-03  sigma(2 1)=  0.00000000E+00

 Integrated electronic density in atomic spheres:
 ------------------------------------------------
 Atom  Sphere_radius  Integrated_density
    1        2.00000          0.06848687

---OUTPUT-----------------------------------------------------------------------

 Cartesian coordinates (xcart) [bohr]
  0.00000000000000E+00  0.00000000000000E+00  3.98398000000000E+00
 Reduced coordinates (xred)
  0.00000000000000E+00  0.00000000000000E+00  1.79458558558559E-01
 Cartesian forces (fcart) [Ha/bohr]; max,rms= 1.68407E-05 9.72299E-06 (free atoms)
 -0.00000000000000E+00 -0.00000000000000E+00 -1.68407153951937E-05
 Reduced forces (fred)
  0.00000000000000E+00  0.00000000000000E+00  3.73863881773299E-04
 Total energy (etotal) [Ha]= -6.80232045624432E+00

 At Broyd/MD step   1, gradients are converged : 
  max grad (force/stress) = 1.6841E-05 < tolmxf= 5.0000E-05 ha/bohr (free atoms)

================================================================================

 ----iterations are completed or convergence reached----

 Mean square residual over all n,k,spin=   10.853E-10; max=  75.691E-09
 reduced coordinates (array xred) for    1 atoms
       0.000000000000      0.000000000000      0.179458558559
 rms dE/dt=  2.1585E-04; max dE/dt=  3.7386E-04; dE/dt below (all hartree)
    1       0.000000000000      0.000000000000      0.000373863882

 cartesian coordinates (angstrom) at end:
    1      0.00000000000000     0.00000000000000     2.10823141547839

 cartesian forces (hartree/bohr) at end:
    1     -0.00000000000000    -0.00000000000000     0.00000000000000
 frms,max,avg= 0.0000000E+00 0.0000000E+00   0.000E+00  0.000E+00 -1.684E-05 h/b

 cartesian forces (eV/Angstrom) at end:
    1     -0.00000000000000    -0.00000000000000     0.00000000000000
 frms,max,avg= 0.0000000E+00 0.0000000E+00   0.000E+00  0.000E+00 -8.660E-04 e/A
 length scales=  7.400000000000  7.400000000000 22.200000000000 bohr
              =  3.915911343566  3.915911343566 11.747734030698 angstroms
 prteigrs : about to open file t58o_EIG
 Fermi (or HOMO) energy (hartree) =  -0.07615   Average Vxc (hartree)=  -0.16262
 Eigenvalues (hartree) for nkpt=  42  k points:
 kpt#   1, nband=  3, wtk=  0.01389, kpt=  0.0417  0.0417  0.1250 (reduced coord)
  -0.25107   -0.12593   -0.05345
      occupation numbers for kpt#   1
   2.00000    2.00000    0.00247
 prteigrs : prtvol=0 or 1, do not print more k-points.


--------------------------------------------------------------------------------
 Components of total free energy (in Hartree) :

    Kinetic energy  =  4.56148975939268E-01
    Hartree energy  =  1.10824023514939E+00
    XC energy       = -7.16794204326201E+00
    Ewald energy    =  1.11142301731156E+00
    PspCore energy  =  8.75557449704134E-03
    Loc. psp. energy= -2.37231799145190E+00
    NL   psp  energy=  5.35846300095333E-02
    >>>>> Internal E= -6.80210760180712E+00

    -kT*entropy     = -2.12854437200040E-04
    >>>>>>>>> Etotal= -6.80232045624432E+00

 Other information on the energy :
    Total energy(eV)= -1.85100553073595E+02 ; Band energy (Ha)=  -5.8896211872E-01
--------------------------------------------------------------------------------



 Cartesian components of stress tensor (hartree/bohr^3)
  sigma(1 1)=  8.91299863E-04  sigma(3 2)=  0.00000000E+00
  sigma(2 2)=  8.91299863E-04  sigma(3 1)=  0.00000000E+00
  sigma(3 3)=  2.63476361E-03  sigma(2 1)=  0.00000000E+00

-Cartesian components of stress tensor (GPa)         [Pressure= -4.3321E+01 GPa]
- sigma(1 1)=  2.62229429E+01  sigma(3 2)=  0.00000000E+00
- sigma(2 2)=  2.62229429E+01  sigma(3 1)=  0.00000000E+00
- sigma(3 3)=  7.75174086E+01  sigma(2 1)=  0.00000000E+00

== END DATASET(S) ==============================================================
================================================================================
  
 -outvars: echo values of variables after computation  --------
            acell      7.4000000000E+00  7.4000000000E+00  2.2200000000E+01 Bohr
              amu      2.29897680E+01
           diemac      7.00000000E+00
           diemix      7.00000000E-01
             ecut      5.00000000E+00 Hartree
           etotal     -6.8023204562E+00
            fcart     -0.0000000000E+00 -0.0000000000E+00 -1.6840715395E-05
-          fftalg         312
           ionmov           2
         jellslab           1
              kpt      4.16666667E-02  4.16666667E-02  1.25000000E-01
                       1.25000000E-01  4.16666667E-02  1.25000000E-01
                       2.08333333E-01  4.16666667E-02  1.25000000E-01
                       2.91666667E-01  4.16666667E-02  1.25000000E-01
                       3.75000000E-01  4.16666667E-02  1.25000000E-01
                       4.58333333E-01  4.16666667E-02  1.25000000E-01
                       1.25000000E-01  1.25000000E-01  1.25000000E-01
                       2.08333333E-01  1.25000000E-01  1.25000000E-01
                       2.91666667E-01  1.25000000E-01  1.25000000E-01
                       3.75000000E-01  1.25000000E-01  1.25000000E-01
                       4.58333333E-01  1.25000000E-01  1.25000000E-01
                       2.08333333E-01  2.08333333E-01  1.25000000E-01
                       2.91666667E-01  2.08333333E-01  1.25000000E-01
                       3.75000000E-01  2.08333333E-01  1.25000000E-01
                       4.58333333E-01  2.08333333E-01  1.25000000E-01
                       2.91666667E-01  2.91666667E-01  1.25000000E-01
                       3.75000000E-01  2.91666667E-01  1.25000000E-01
                       4.58333333E-01  2.91666667E-01  1.25000000E-01
                       3.75000000E-01  3.75000000E-01  1.25000000E-01
                       4.58333333E-01  3.75000000E-01  1.25000000E-01
                       4.58333333E-01  4.58333333E-01  1.25000000E-01
                       4.16666667E-02  4.16666667E-02  3.75000000E-01
                       1.25000000E-01  4.16666667E-02  3.75000000E-01
                       2.08333333E-01  4.16666667E-02  3.75000000E-01
                       2.91666667E-01  4.16666667E-02  3.75000000E-01
                       3.75000000E-01  4.16666667E-02  3.75000000E-01
                       4.58333333E-01  4.16666667E-02  3.75000000E-01
                       1.25000000E-01  1.25000000E-01  3.75000000E-01
                       2.08333333E-01  1.25000000E-01  3.75000000E-01
                       2.91666667E-01  1.25000000E-01  3.75000000E-01
                       3.75000000E-01  1.25000000E-01  3.75000000E-01
                       4.58333333E-01  1.25000000E-01  3.75000000E-01
                       2.08333333E-01  2.08333333E-01  3.75000000E-01
                       2.91666667E-01  2.08333333E-01  3.75000000E-01
                       3.75000000E-01  2.08333333E-01  3.75000000E-01
                       4.58333333E-01  2.08333333E-01  3.75000000E-01
                       2.91666667E-01  2.91666667E-01  3.75000000E-01
                       3.75000000E-01  2.91666667E-01  3.75000000E-01
                       4.58333333E-01  2.91666667E-01  3.75000000E-01
                       3.75000000E-01  3.75000000E-01  3.75000000E-01
                       4.58333333E-01  3.75000000E-01  3.75000000E-01
                       4.58333333E-01  4.58333333E-01  3.75000000E-01
         kptrlatt       12    0    0      0   12    0      0    0    4
          kptrlen      8.88000000E+01
P           mkmem          42
            natom           1
            nband           3
            ngfft          16      16      48
             nkpt          42
             nsym           8
            ntime           5
           ntypat           1
              occ      2.000000  2.000000  0.002474
                       2.000000  2.000000  0.000440
                       2.000000  2.000035  0.000002
                       2.000000  2.043055  0.195293
                       2.000000  2.000029  0.725733
                       2.000000  2.000000  0.000966
                       2.000000  2.000001  0.000039
                       2.000000  2.000677  0.000000
                       2.000000  2.123513  0.008078
                       2.000000  2.000559  0.147516
                       2.000000  2.000000  0.000109
                       2.000000  2.043212  0.000000
                       2.000000  1.580583  0.004404
                       2.000000  2.037637  0.004170
                       2.000000  2.000000  0.000000
                       2.000000  0.003463  0.000012
                       2.000000  1.667883  0.000110
                       2.000000  2.000001  0.000000
                       2.000000  0.002820  0.003780
                       2.000000  2.038761  0.000000
                       2.005223  0.222947  0.171169
                       2.000000  2.000000  0.000399
                       2.000000  2.000000  0.000035
                       2.000000  2.000025  0.000000
                       2.000000  2.037061  0.194649
                       2.000000  2.000029  0.809803
                       2.000000  2.000000  0.001161
                       2.000000  2.000001  0.000002
                       2.000000  2.000515  0.000000
                       2.000000  2.115587  0.008004
                       2.000000  2.000561  0.183308
                       2.000000  2.000000  0.000141
                       2.000000  2.037208  0.000000
                       2.000000  1.656501  0.004399
                       2.000000  2.037703  0.003557
                       2.000000  2.000000  0.000000
                       2.000000  0.006807  0.000012
                       2.000000  1.667029  0.000142
                       2.000000  2.000001  0.000000
                       2.000000  0.002829  0.003787
                       2.000000  2.038832  0.000000
                       2.005237  0.222374  0.170754
           occopt           4
        optforces           1
           prtden           0
            prtwf           0
           shiftk      5.00000000E-01  5.00000000E-01  5.00000000E-01
        slabwsrad      2.56000000E+00
         slabzbeg      7.40000000E+00
         slabzend      1.11000000E+01
          spgroup          99
           strten      8.9129986276E-04  8.9129986276E-04  2.6347636090E-03
                       0.0000000000E+00  0.0000000000E+00  0.0000000000E+00
           symrel      1  0  0   0  1  0   0  0  1       1  0  0   0 -1  0   0  0  1
                      -1  0  0   0 -1  0   0  0  1      -1  0  0   0  1  0   0  0  1
                       0  1  0   1  0  0   0  0  1       0  1  0  -1  0  0   0  0  1
                       0 -1  0  -1  0  0   0  0  1       0 -1  0   1  0  0   0  0  1
           toldff      1.00000000E-06
            typat      1
              wtk        0.01389    0.02778    0.02778    0.02778    0.02778    0.02778
                         0.01389    0.02778    0.02778    0.02778    0.02778    0.01389
                         0.02778    0.02778    0.02778    0.01389    0.02778    0.02778
                         0.01389    0.02778    0.01389    0.01389    0.02778    0.02778
                         0.02778    0.02778    0.02778    0.01389    0.02778    0.02778
                         0.02778    0.02778    0.01389    0.02778    0.02778    0.02778
                         0.01389    0.02778    0.02778    0.01389    0.02778    0.01389
           xangst      0.0000000000E+00  0.0000000000E+00  2.1082314155E+00
            xcart      0.0000000000E+00  0.0000000000E+00  3.9839800000E+00
             xred      0.0000000000E+00  0.0000000000E+00  1.7945855856E-01
            znucl       11.00000

================================================================================


- Timing analysis has been suppressed with timopt=0



================================================================================

 Suggested references for the acknowledgment of ABINIT usage.

 The users of ABINIT have little formal obligations with respect to the ABINIT group
 (those specified in the GNU General Public License, http://www.gnu.org/copyleft/gpl.txt).
 However, it is common practice in the scientific literature,
 to acknowledge the efforts of people that have made the research possible.
 In this spirit, please find below suggested citations of work written by ABINIT developers,
 corresponding to implementations inside of ABINIT that you have used in the present run.
 Note also that it will be of great value to readers of publications presenting these results,
 to read papers enabling them to understand the theoretical formalism and details
 of the ABINIT implementation.
 For information on why they are suggested, see also https://docs.abinit.org/theory/acknowledgments.
-
- [1] Recent developments in the ABINIT software package.
- Computer Phys. Comm. 205, 106 (2016).
- X.Gonze, F.Jollet, F.Abreu Araujo, D.Adams, B.Amadon, T.Applencourt,
- C.Audouze, J.-M.Beuken, J.Bieder, A.Bokhanchuk, E.Bousquet, F.Bruneval
- D.Caliste, M.Cote, F.Dahm, F.Da Pieve, M.Delaveau, M.Di Gennaro,
- B.Dorado, C.Espejo, G.Geneste, L.Genovese, A.Gerossier, M.Giantomassi,
- Y.Gillet, D.R.Hamann, L.He, G.Jomard, J.Laflamme Janssen, S.Le Roux,
- A.Levitt, A.Lherbier, F.Liu, I.Lukacevic, A.Martin, C.Martins,
- M.J.T.Oliveira, S.Ponce, Y.Pouillon, T.Rangel, G.-M.Rignanese,
- A.H.Romero, B.Rousseau, O.Rubel, A.A.Shukri, M.Stankovski, M.Torrent,
- M.J.Van Setten, B.Van Troeye, M.J.Verstraete, D.Waroquier, J.Wiktor,
- B.Xu, A.Zhou, J.W.Zwanziger.
- Comment: the fourth generic paper describing the ABINIT project.
- Note that a version of this paper, that is not formatted for Computer Phys. Comm. 
- is available at https://www.abinit.org/about/ABINIT16.pdf .
- The licence allows the authors to put it on the Web.
- DOI and bibtex: see https://docs.abinit.org/theory/bibliography/#gonze2016
-
- [2] ABINIT: First-principles approach of materials and nanosystem properties.
- Computer Phys. Comm. 180, 2582-2615 (2009).
- X. Gonze, B. Amadon, P.-M. Anglade, J.-M. Beuken, F. Bottin, P. Boulanger, F. Bruneval,
- D. Caliste, R. Caracas, M. Cote, T. Deutsch, L. Genovese, Ph. Ghosez, M. Giantomassi
- S. Goedecker, D.R. Hamann, P. Hermet, F. Jollet, G. Jomard, S. Leroux, M. Mancini, S. Mazevet,
- M.J.T. Oliveira, G. Onida, Y. Pouillon, T. Rangel, G.-M. Rignanese, D. Sangalli, R. Shaltaf,
- M. Torrent, M.J. Verstraete, G. Zerah, J.W. Zwanziger
- Comment: the third generic paper describing the ABINIT project.
- Note that a version of this paper, that is not formatted for Computer Phys. Comm. 
- is available at https://www.abinit.org/about/ABINIT_CPC_v10.pdf .
- The licence allows the authors to put it on the Web.
- DOI and bibtex: see https://docs.abinit.org/theory/bibliography/#gonze2009
-
- [3] A brief introduction to the ABINIT software package.
- Z. Kristallogr. 220, 558-562 (2005).
- X. Gonze, G.-M. Rignanese, M. Verstraete, J.-M. Beuken, Y. Pouillon, R. Caracas, F. Jollet,
- M. Torrent, G. Zerah, M. Mikami, Ph. Ghosez, M. Veithen, J.-Y. Raty, V. Olevano, F. Bruneval,
- L. Reining, R. Godby, G. Onida, D.R. Hamann, and D.C. Allan.
- Comment: the second generic paper describing the ABINIT project. Note that this paper
- should be cited especially if you are using the GW part of ABINIT, as several authors
- of this part are not in the list of authors of the first or third paper.
- The .pdf of the latter paper is available at https://www.abinit.org/about/zfk_0505-06_558-562.pdf.
- Note that it should not redistributed (Copyright by Oldenburg Wissenshaftverlag,
- the licence allows the authors to put it on the Web).
- DOI and bibtex: see https://docs.abinit.org/theory/bibliography/#gonze2005
-
- And optionally:
-
- [4] First-principles computation of material properties: the ABINIT software project. 
- X. Gonze, J.-M. Beuken, R. Caracas, F. Detraux, M. Fuchs, G.-M. Rignanese, L. Sindic,
- M. Verstraete, G. Zerah, F. Jollet, M. Torrent, A. Roy, M. Mikami, Ph. Ghosez, J.-Y. Raty, D.C. Allan.
- Computational Materials Science 25, 478-492 (2002). http://dx.doi.org/10.1016/S0927-0256(02)00325-7
- Comment: the original paper describing the ABINIT project.
- DOI and bibtex : see https://docs.abinit.org/theory/bibliography/#gonze2002
-
- Proc.   0 individual time (sec): cpu=          5.1  wall=          6.8

================================================================================

 Calculation completed.
.Delivered   6 WARNINGs and   1 COMMENTs to log file.
+Overall time at end (sec) : cpu=          5.1  wall=          6.8
