
.Version 8.11.12 of ABINIT 
.(MPI version, prepared for a x86_64_linux_gnu9.2 computer) 

.Copyright (C) 1998-2019 ABINIT group . 
 ABINIT comes with ABSOLUTELY NO WARRANTY.
 It is free software, and you are welcome to redistribute it
 under certain conditions (GNU General Public License,
 see ~abinit/COPYING or http://www.gnu.org/copyleft/gpl.txt).

 ABINIT is a project of the Universite Catholique de Louvain,
 Corning Inc. and other collaborators, see ~abinit/doc/developers/contributors.txt .
 Please read https://docs.abinit.org/theory/acknowledgments for suggested
 acknowledgments of the ABINIT effort.
 For more information, see https://www.abinit.org .

.Starting date : Mon 25 Nov 2019.
- ( at 08h29 )
  
- input  file    -> t60.in
- output file    -> t60.out
- root for input  files -> t60i
- root for output files -> t60o


 DATASET    1 : space group Fd -3 m (#227); Bravais cF (face-center cubic)
================================================================================
 Values of the parameters that define the memory need for DATASET  1.
     intxc =       0    ionmov =       0      iscf =       7    lmnmax =       2
     lnmax =       2     mgfft =      20  mpssoang =       3    mqgrid =    3001
     natom =       2  nloc_mem =       1    nspden =       1   nspinor =       1
    nsppol =       1      nsym =      48    n1xccc =    2501    ntypat =       1
    occopt =       1   xclevel =       1
-    mband =           5        mffmem =           1         mkmem =           2
       mpw =         289          nfft =        8000          nkpt =           2
================================================================================
P This job should need less than                       2.870 Mbytes of memory.
  Rough estimation (10% accuracy) of disk space for files :
_ WF disk file :      0.046 Mbytes ; DEN or POT disk file :      0.063 Mbytes.
================================================================================


 DATASET    2 : space group Fd -3 m (#227); Bravais cF (face-center cubic)
================================================================================
 Values of the parameters that define the memory need for DATASET  2.
     intxc =       0    ionmov =       0      iscf =      -3    lmnmax =       2
     lnmax =       2     mgfft =      20  mpssoang =       3    mqgrid =    3001
     natom =       2  nloc_mem =       1    nspden =       1   nspinor =       1
    nsppol =       1      nsym =      48    n1xccc =    2501    ntypat =       1
    occopt =       1   xclevel =       1
-    mband =           5        mffmem =           1         mkmem =           2
       mpw =         289          nfft =        8000          nkpt =           2
================================================================================
P This job should need less than                       1.894 Mbytes of memory.
  Rough estimation (10% accuracy) of disk space for files :
_ WF disk file :      0.046 Mbytes ; DEN or POT disk file :      0.063 Mbytes.
================================================================================


 DATASET    3 : space group Fd -3 m (#227); Bravais cF (face-center cubic)
================================================================================
 Values of the parameters that define the memory need for DATASET  3.
     intxc =       0    ionmov =       0      iscf =      -3    lmnmax =       2
     lnmax =       2     mgfft =      20  mpssoang =       3    mqgrid =    3001
     natom =       2  nloc_mem =       1    nspden =       1   nspinor =       1
    nsppol =       1      nsym =      48    n1xccc =    2501    ntypat =       1
    occopt =       1   xclevel =       1
-    mband =           5        mffmem =           1         mkmem =          10
       mpw =         293          nfft =        8000          nkpt =          10
================================================================================
P This job should need less than                       2.107 Mbytes of memory.
  Rough estimation (10% accuracy) of disk space for files :
_ WF disk file :      0.226 Mbytes ; DEN or POT disk file :      0.063 Mbytes.
================================================================================


 DATASET    4 : space group Fd -3 m (#227); Bravais cF (face-center cubic)
================================================================================
 Values of the parameters that define the memory need for DATASET  4.
     intxc =       0    ionmov =       0      iscf =      -3    lmnmax =       2
     lnmax =       2     mgfft =      20  mpssoang =       3    mqgrid =    3001
     natom =       2  nloc_mem =       1    nspden =       1   nspinor =       1
    nsppol =       1      nsym =      48    n1xccc =    2501    ntypat =       1
    occopt =       1   xclevel =       1
-    mband =           5        mffmem =           1         mkmem =          28
       mpw =         295          nfft =        8000          nkpt =          28
================================================================================
P This job should need less than                       2.588 Mbytes of memory.
  Rough estimation (10% accuracy) of disk space for files :
_ WF disk file :      0.632 Mbytes ; DEN or POT disk file :      0.063 Mbytes.
================================================================================


 DATASET    5 : space group Fd -3 m (#227); Bravais cF (face-center cubic)
================================================================================
 Values of the parameters that define the memory need for DATASET  5.
     intxc =       0    ionmov =       0      iscf =       7    lmnmax =       2
     lnmax =       2     mgfft =      20  mpssoang =       3    mqgrid =    3001
     natom =       2  nloc_mem =       1    nspden =       1   nspinor =       1
    nsppol =       1      nsym =      48    n1xccc =    2501    ntypat =       1
    occopt =       1   xclevel =       1
-    mband =           5        mffmem =           1         mkmem =          10
       mpw =         293          nfft =        8000          nkpt =          10
================================================================================
P This job should need less than                       3.083 Mbytes of memory.
  Rough estimation (10% accuracy) of disk space for files :
_ WF disk file :      0.226 Mbytes ; DEN or POT disk file :      0.063 Mbytes.
================================================================================

--------------------------------------------------------------------------------
------------- Echo of variables that govern the present computation ------------
--------------------------------------------------------------------------------
-
- outvars: echo of selected default values                                      
-   iomode0 =  0 , fftalg0 =312 , wfoptalg0 =  0
-
- outvars: echo of global parameters not present in the input file              
-  max_nthreads =    0
-
 -outvars: echo values of preprocessed input variables --------
            acell      1.0180000000E+01  1.0180000000E+01  1.0180000000E+01 Bohr
              amu      2.80855000E+01
           diemac      1.20000000E+01
             ecut      8.00000000E+00 Hartree
-          fftalg         312
           getden1          0
           getden2          1
           getden3          1
           getden4          1
           getden5          1
           getwfk1          0
           getwfk2          0
           getwfk3          0
           getwfk4          3
           getwfk5          3
             iscf1          7
             iscf2         -3
             iscf3         -3
             iscf4         -3
             iscf5          7
           jdtset        1    2    3    4    5
              kpt1    -2.50000000E-01  5.00000000E-01  0.00000000E+00
                      -2.50000000E-01  0.00000000E+00  0.00000000E+00
              kpt2    -2.50000000E-01  5.00000000E-01  0.00000000E+00
                      -2.50000000E-01  0.00000000E+00  0.00000000E+00
              kpt3    -1.25000000E-01 -2.50000000E-01  0.00000000E+00
                      -1.25000000E-01  5.00000000E-01  0.00000000E+00
                      -2.50000000E-01 -3.75000000E-01  0.00000000E+00
                      -1.25000000E-01 -3.75000000E-01  1.25000000E-01
                      -1.25000000E-01  2.50000000E-01  0.00000000E+00
                      -2.50000000E-01  3.75000000E-01  0.00000000E+00
                      -3.75000000E-01  5.00000000E-01  0.00000000E+00
                      -2.50000000E-01  5.00000000E-01  1.25000000E-01
                      -1.25000000E-01  0.00000000E+00  0.00000000E+00
                      -3.75000000E-01  0.00000000E+00  0.00000000E+00
              kpt4    -8.33333333E-02 -1.66666667E-01  0.00000000E+00
                      -8.33333333E-02 -3.33333333E-01  0.00000000E+00
                      -1.66666667E-01 -2.50000000E-01  0.00000000E+00
                      -8.33333333E-02 -2.50000000E-01  8.33333333E-02
                      -8.33333333E-02  5.00000000E-01  0.00000000E+00
                      -1.66666667E-01 -4.16666667E-01  0.00000000E+00
                      -8.33333333E-02 -4.16666667E-01  8.33333333E-02
                      -2.50000000E-01 -3.33333333E-01  0.00000000E+00
                      -1.66666667E-01 -3.33333333E-01  8.33333333E-02
                      -8.33333333E-02 -3.33333333E-01  1.66666667E-01
                      -8.33333333E-02  3.33333333E-01  0.00000000E+00
                      -1.66666667E-01  4.16666667E-01  0.00000000E+00
                      -2.50000000E-01  5.00000000E-01  0.00000000E+00
                      -1.66666667E-01  5.00000000E-01  8.33333333E-02
                      -3.33333333E-01 -4.16666667E-01  0.00000000E+00
                      -2.50000000E-01 -4.16666667E-01  8.33333333E-02
                      -1.66666667E-01 -4.16666667E-01  1.66666667E-01
                      -8.33333333E-02 -4.16666667E-01  2.50000000E-01
                      -8.33333333E-02  1.66666667E-01  0.00000000E+00
                      -1.66666667E-01  2.50000000E-01  0.00000000E+00
                      -2.50000000E-01  3.33333333E-01  0.00000000E+00
                      -3.33333333E-01  4.16666667E-01  0.00000000E+00
                      -4.16666667E-01  5.00000000E-01  0.00000000E+00
                      -3.33333333E-01  5.00000000E-01  8.33333333E-02
                      -2.50000000E-01  5.00000000E-01  1.66666667E-01
                      -8.33333333E-02  0.00000000E+00  0.00000000E+00
                      -2.50000000E-01  0.00000000E+00  0.00000000E+00
                      -4.16666667E-01  0.00000000E+00  0.00000000E+00
              kpt5    -1.25000000E-01 -2.50000000E-01  0.00000000E+00
                      -1.25000000E-01  5.00000000E-01  0.00000000E+00
                      -2.50000000E-01 -3.75000000E-01  0.00000000E+00
                      -1.25000000E-01 -3.75000000E-01  1.25000000E-01
                      -1.25000000E-01  2.50000000E-01  0.00000000E+00
                      -2.50000000E-01  3.75000000E-01  0.00000000E+00
                      -3.75000000E-01  5.00000000E-01  0.00000000E+00
                      -2.50000000E-01  5.00000000E-01  1.25000000E-01
                      -1.25000000E-01  0.00000000E+00  0.00000000E+00
                      -3.75000000E-01  0.00000000E+00  0.00000000E+00
         kptrlatt1       2   -2    2     -2    2    2     -2   -2    2
         kptrlatt2       2   -2    2     -2    2    2     -2   -2    2
         kptrlatt3       4   -4    4     -4    4    4     -4   -4    4
         kptrlatt4       6   -6    6     -6    6    6     -6   -6    6
         kptrlatt5       4   -4    4     -4    4    4     -4   -4    4
          kptrlen1     2.03600000E+01
          kptrlen2     2.03600000E+01
          kptrlen3     4.07200000E+01
          kptrlen4     6.10800000E+01
          kptrlen5     4.07200000E+01
P           mkmem1          2
P           mkmem2          2
P           mkmem3         10
P           mkmem4         28
P           mkmem5         10
            natom           2
            nband1          5
            nband2          5
            nband3          5
            nband4          5
            nband5          5
           nbdbuf1          0
           nbdbuf2          2
           nbdbuf3          2
           nbdbuf4          2
           nbdbuf5          0
           ndtset           5
            ngfft          20      20      20
             nkpt1          2
             nkpt2          2
             nkpt3         10
             nkpt4         28
             nkpt5         10
           nnsclo1          0
           nnsclo2          0
           nnsclo3          0
           nnsclo4          0
           nnsclo5         10
            nstep1         12
            nstep2         12
            nstep3         12
            nstep4         12
            nstep5          1
             nsym          48
           ntypat           1
              occ1     2.000000  2.000000  2.000000  2.000000  0.000000
              occ2     2.000000  2.000000  2.000000  2.000000  0.000000
              occ3     2.000000  2.000000  2.000000  2.000000  0.000000
              occ4     2.000000  2.000000  2.000000  2.000000  0.000000
              occ5     2.000000  2.000000  2.000000  2.000000  0.000000
            rprim      0.0000000000E+00  5.0000000000E-01  5.0000000000E-01
                       5.0000000000E-01  0.0000000000E+00  5.0000000000E-01
                       5.0000000000E-01  5.0000000000E-01  0.0000000000E+00
           shiftk      5.00000000E-01  5.00000000E-01  5.00000000E-01
          spgroup         227
           symrel      1  0  0   0  1  0   0  0  1      -1  0  0   0 -1  0   0  0 -1
                       0 -1  1   0 -1  0   1 -1  0       0  1 -1   0  1  0  -1  1  0
                      -1  0  0  -1  0  1  -1  1  0       1  0  0   1  0 -1   1 -1  0
                       0  1 -1   1  0 -1   0  0 -1       0 -1  1  -1  0  1   0  0  1
                      -1  0  0  -1  1  0  -1  0  1       1  0  0   1 -1  0   1  0 -1
                       0 -1  1   1 -1  0   0 -1  0       0  1 -1  -1  1  0   0  1  0
                       1  0  0   0  0  1   0  1  0      -1  0  0   0  0 -1   0 -1  0
                       0  1 -1   0  0 -1   1  0 -1       0 -1  1   0  0  1  -1  0  1
                      -1  0  1  -1  1  0  -1  0  0       1  0 -1   1 -1  0   1  0  0
                       0 -1  0   1 -1  0   0 -1  1       0  1  0  -1  1  0   0  1 -1
                       1  0 -1   0  0 -1   0  1 -1      -1  0  1   0  0  1   0 -1  1
                       0  1  0   0  0  1   1  0  0       0 -1  0   0  0 -1  -1  0  0
                       1  0 -1   0  1 -1   0  0 -1      -1  0  1   0 -1  1   0  0  1
                       0 -1  0   0 -1  1   1 -1  0       0  1  0   0  1 -1  -1  1  0
                      -1  0  1  -1  0  0  -1  1  0       1  0 -1   1  0  0   1 -1  0
                       0  1  0   1  0  0   0  0  1       0 -1  0  -1  0  0   0  0 -1
                       0  0 -1   0  1 -1   1  0 -1       0  0  1   0 -1  1  -1  0  1
                       1 -1  0   0 -1  1   0 -1  0      -1  1  0   0  1 -1   0  1  0
                       0  0  1   1  0  0   0  1  0       0  0 -1  -1  0  0   0 -1  0
                      -1  1  0  -1  0  0  -1  0  1       1 -1  0   1  0  0   1  0 -1
                       0  0  1   0  1  0   1  0  0       0  0 -1   0 -1  0  -1  0  0
                       1 -1  0   0 -1  0   0 -1  1      -1  1  0   0  1  0   0  1 -1
                       0  0 -1   1  0 -1   0  1 -1       0  0  1  -1  0  1   0 -1  1
                      -1  1  0  -1  0  1  -1  0  0       1 -1  0   1  0 -1   1  0  0
            tnons      0.0000000  0.0000000  0.0000000     0.2500000  0.2500000  0.2500000
                       0.0000000  0.0000000  0.0000000     0.2500000  0.2500000  0.2500000
                       0.0000000  0.0000000  0.0000000     0.2500000  0.2500000  0.2500000
                       0.0000000  0.0000000  0.0000000     0.2500000  0.2500000  0.2500000
                       0.0000000  0.0000000  0.0000000     0.2500000  0.2500000  0.2500000
                       0.0000000  0.0000000  0.0000000     0.2500000  0.2500000  0.2500000
                       0.0000000  0.0000000  0.0000000     0.2500000  0.2500000  0.2500000
                       0.0000000  0.0000000  0.0000000     0.2500000  0.2500000  0.2500000
                       0.0000000  0.0000000  0.0000000     0.2500000  0.2500000  0.2500000
                       0.0000000  0.0000000  0.0000000     0.2500000  0.2500000  0.2500000
                       0.0000000  0.0000000  0.0000000     0.2500000  0.2500000  0.2500000
                       0.0000000  0.0000000  0.0000000     0.2500000  0.2500000  0.2500000
                       0.0000000  0.0000000  0.0000000     0.2500000  0.2500000  0.2500000
                       0.0000000  0.0000000  0.0000000     0.2500000  0.2500000  0.2500000
                       0.0000000  0.0000000  0.0000000     0.2500000  0.2500000  0.2500000
                       0.0000000  0.0000000  0.0000000     0.2500000  0.2500000  0.2500000
                       0.0000000  0.0000000  0.0000000     0.2500000  0.2500000  0.2500000
                       0.0000000  0.0000000  0.0000000     0.2500000  0.2500000  0.2500000
                       0.0000000  0.0000000  0.0000000     0.2500000  0.2500000  0.2500000
                       0.0000000  0.0000000  0.0000000     0.2500000  0.2500000  0.2500000
                       0.0000000  0.0000000  0.0000000     0.2500000  0.2500000  0.2500000
                       0.0000000  0.0000000  0.0000000     0.2500000  0.2500000  0.2500000
                       0.0000000  0.0000000  0.0000000     0.2500000  0.2500000  0.2500000
                       0.0000000  0.0000000  0.0000000     0.2500000  0.2500000  0.2500000
           toldfe1     1.00000000E-08 Hartree
           toldfe2     0.00000000E+00 Hartree
           toldfe3     0.00000000E+00 Hartree
           toldfe4     0.00000000E+00 Hartree
           toldfe5     0.00000000E+00 Hartree
           tolwfr1     0.00000000E+00
           tolwfr2     1.00000000E-14
           tolwfr3     1.00000000E-14
           tolwfr4     1.00000000E-14
           tolwfr5     1.00000000E-14
            typat      1  1
              wtk1       0.75000    0.25000
              wtk2       0.75000    0.25000
              wtk3       0.09375    0.09375    0.09375    0.18750    0.09375    0.09375
                         0.09375    0.18750    0.03125    0.03125
              wtk4       0.02778    0.02778    0.02778    0.05556    0.02778    0.02778
                         0.05556    0.02778    0.05556    0.05556    0.02778    0.02778
                         0.02778    0.05556    0.02778    0.05556    0.05556    0.05556
                         0.02778    0.02778    0.02778    0.02778    0.02778    0.05556
                         0.05556    0.00926    0.00926    0.00926
              wtk5       0.09375    0.09375    0.09375    0.18750    0.09375    0.09375
                         0.09375    0.18750    0.03125    0.03125
           xangst      0.0000000000E+00  0.0000000000E+00  0.0000000000E+00
                       1.3467559959E+00  1.3467559959E+00  1.3467559959E+00
            xcart      0.0000000000E+00  0.0000000000E+00  0.0000000000E+00
                       2.5450000000E+00  2.5450000000E+00  2.5450000000E+00
             xred      0.0000000000E+00  0.0000000000E+00  0.0000000000E+00
                       2.5000000000E-01  2.5000000000E-01  2.5000000000E-01
            znucl       14.00000

================================================================================

 chkinp: Checking input parameters for consistency, jdtset=   1.

 chkinp: Checking input parameters for consistency, jdtset=   2.

 chkinp: Checking input parameters for consistency, jdtset=   3.

 chkinp: Checking input parameters for consistency, jdtset=   4.

 chkinp: Checking input parameters for consistency, jdtset=   5.

================================================================================
== DATASET  1 ==================================================================
-   nproc =    1

 Exchange-correlation functional for the present dataset will be:
  LDA: new Teter (4/93) with spin-polarized option - ixc=1
 Citation for XC functional:
  S. Goedecker, M. Teter, J. Huetter, PRB 54, 1703 (1996)

 Real(R)+Recip(G) space primitive vectors, cartesian coordinates (Bohr,Bohr^-1):
 R(1)=  0.0000000  5.0900000  5.0900000  G(1)= -0.0982318  0.0982318  0.0982318
 R(2)=  5.0900000  0.0000000  5.0900000  G(2)=  0.0982318 -0.0982318  0.0982318
 R(3)=  5.0900000  5.0900000  0.0000000  G(3)=  0.0982318  0.0982318 -0.0982318
 Unit cell volume ucvol=  2.6374446E+02 bohr^3
 Angles (23,13,12)=  6.00000000E+01  6.00000000E+01  6.00000000E+01 degrees

 getcut: wavevector=  0.0000  0.0000  0.0000  ngfft=  20  20  20
         ecut(hartree)=      8.000   => boxcut(ratio)=   2.18216

--- Pseudopotential description ------------------------------------------------
- pspini: atom type   1  psp file is /home/buildbot/bb/ABINIT/abiref_gnu_9.2_openmpi/trunk__gonze3/tests/Psps_for_tests/14si.pspnc
- pspatm: opening atomic psp file    /home/buildbot/bb/ABINIT/abiref_gnu_9.2_openmpi/trunk__gonze3/tests/Psps_for_tests/14si.pspnc
-  Troullier-Martins psp for element  Si        Thu Oct 27 17:31:21 EDT 1994
- 14.00000   4.00000    940714                znucl, zion, pspdat
    1    1    2    2      2001   0.00000      pspcod,pspxc,lmax,lloc,mmax,r2well
    0   5.907  14.692    1   2.0872718        l,e99.0,e99.9,nproj,rcpsp
   0.00000000   0.00000000   0.00000000   0.00000000     rms, ekb1, ekb2, epsatm
    1   2.617   4.181    1   2.0872718        l,e99.0,e99.9,nproj,rcpsp
   0.00000000   0.00000000   0.00000000   0.00000000     rms, ekb1, ekb2, epsatm
    2   0.000   0.000    0   2.0872718        l,e99.0,e99.9,nproj,rcpsp
   0.00000000   0.00000000   0.00000000   0.00000000     rms, ekb1, ekb2, epsatm
    1.80626423934776    0.22824404341771    1.17378968127746   rchrg,fchrg,qchrg
  pspatm : epsatm=    1.43386982
         --- l  ekb(1:nproj) -->
             0    3.287949
             1    1.849886
 pspatm: atomic psp has been read  and splines computed

   2.29419171E+01                                ecore*ucvol(ha*bohr**3)
--------------------------------------------------------------------------------

_setup2: Arith. and geom. avg. npw (full set) are     284.500     284.488

================================================================================

     iter   Etot(hartree)      deltaE(h)  residm     vres2
 ETOT  1  -8.8611673348304    -8.861E+00 1.404E-03 6.305E+00
 ETOT  2  -8.8661434670639    -4.976E-03 8.033E-07 1.677E-01
 ETOT  3  -8.8662229341311    -7.947E-05 9.947E-07 3.183E-03
 ETOT  4  -8.8662238905499    -9.564E-07 1.695E-08 1.262E-05
 ETOT  5  -8.8662238959753    -5.425E-09 2.572E-10 1.890E-08
 ETOT  6  -8.8662238959868    -1.151E-11 4.163E-13 1.501E-10

 At SCF step    6, etot is converged : 
  for the second time, diff in etot=  1.151E-11 < toldfe=  1.000E-08

 Cartesian components of stress tensor (hartree/bohr^3)
  sigma(1 1)= -1.90688396E-05  sigma(3 2)=  0.00000000E+00
  sigma(2 2)= -1.90688396E-05  sigma(3 1)=  0.00000000E+00
  sigma(3 3)= -1.90688396E-05  sigma(2 1)=  0.00000000E+00

 Integrated electronic density in atomic spheres:
 ------------------------------------------------
 Atom  Sphere_radius  Integrated_density
    1        2.00000          1.70910088
    2        2.00000          1.70910088
================================================================================

 ----iterations are completed or convergence reached----

 Mean square residual over all n,k,spin=   10.521E-14; max=  41.629E-14
 reduced coordinates (array xred) for    2 atoms
       0.000000000000      0.000000000000      0.000000000000
       0.250000000000      0.250000000000      0.250000000000
 rms dE/dt=  0.0000E+00; max dE/dt=  0.0000E+00; dE/dt below (all hartree)
    1       0.000000000000      0.000000000000      0.000000000000
    2       0.000000000000      0.000000000000      0.000000000000

 cartesian coordinates (angstrom) at end:
    1      0.00000000000000     0.00000000000000     0.00000000000000
    2      1.34675599586155     1.34675599586155     1.34675599586155

 cartesian forces (hartree/bohr) at end:
    1     -0.00000000000000    -0.00000000000000    -0.00000000000000
    2     -0.00000000000000    -0.00000000000000    -0.00000000000000
 frms,max,avg= 0.0000000E+00 0.0000000E+00   0.000E+00  0.000E+00  0.000E+00 h/b

 cartesian forces (eV/Angstrom) at end:
    1     -0.00000000000000    -0.00000000000000    -0.00000000000000
    2     -0.00000000000000    -0.00000000000000    -0.00000000000000
 frms,max,avg= 0.0000000E+00 0.0000000E+00   0.000E+00  0.000E+00  0.000E+00 e/A
 length scales= 10.180000000000 10.180000000000 10.180000000000 bohr
              =  5.387023983446  5.387023983446  5.387023983446 angstroms
 prteigrs : about to open file t60o_DS1_EIG
 Fermi (or HOMO) energy (hartree) =   0.19383   Average Vxc (hartree)=  -0.35554
 Eigenvalues (hartree) for nkpt=   2  k points:
 kpt#   1, nband=  5, wtk=  0.75000, kpt= -0.2500  0.5000  0.0000 (reduced coord)
  -0.12170   -0.01539    0.08809    0.13896    0.27407
 prteigrs : prtvol=0 or 1, do not print more k-points.


--------------------------------------------------------------------------------
 Components of total free energy (in Hartree) :

    Kinetic energy  =  3.06072824977433E+00
    Hartree energy  =  5.42787478863893E-01
    XC energy       = -3.54910513337161E+00
    Ewald energy    = -8.46648022654903E+00
    PspCore energy  =  8.69853998687012E-02
    Loc. psp. energy= -2.41963765147285E+00
    NL   psp  energy=  1.87849798689979E+00
    >>>>>>>>> Etotal= -8.86622389598678E+00

 Other information on the energy :
    Total energy(eV)= -2.41262221822401E+02 ; Band energy (Ha)=   2.6931890575E-01
--------------------------------------------------------------------------------



 Cartesian components of stress tensor (hartree/bohr^3)
  sigma(1 1)= -1.90688396E-05  sigma(3 2)=  0.00000000E+00
  sigma(2 2)= -1.90688396E-05  sigma(3 1)=  0.00000000E+00
  sigma(3 3)= -1.90688396E-05  sigma(2 1)=  0.00000000E+00

-Cartesian components of stress tensor (GPa)         [Pressure=  5.6102E-01 GPa]
- sigma(1 1)= -5.61024536E-01  sigma(3 2)=  0.00000000E+00
- sigma(2 2)= -5.61024536E-01  sigma(3 1)=  0.00000000E+00
- sigma(3 3)= -5.61024536E-01  sigma(2 1)=  0.00000000E+00

================================================================================
== DATASET  2 ==================================================================
-   nproc =    1

 mkfilename : getden/=0, take file _DEN from output of DATASET   1.

 Exchange-correlation functional for the present dataset will be:
  LDA: new Teter (4/93) with spin-polarized option - ixc=1
 Citation for XC functional:
  S. Goedecker, M. Teter, J. Huetter, PRB 54, 1703 (1996)

 Real(R)+Recip(G) space primitive vectors, cartesian coordinates (Bohr,Bohr^-1):
 R(1)=  0.0000000  5.0900000  5.0900000  G(1)= -0.0982318  0.0982318  0.0982318
 R(2)=  5.0900000  0.0000000  5.0900000  G(2)=  0.0982318 -0.0982318  0.0982318
 R(3)=  5.0900000  5.0900000  0.0000000  G(3)=  0.0982318  0.0982318 -0.0982318
 Unit cell volume ucvol=  2.6374446E+02 bohr^3
 Angles (23,13,12)=  6.00000000E+01  6.00000000E+01  6.00000000E+01 degrees

 getcut: wavevector=  0.0000  0.0000  0.0000  ngfft=  20  20  20
         ecut(hartree)=      8.000   => boxcut(ratio)=   2.18216
--------------------------------------------------------------------------------


================================================================================

     iter   Etot(hartree)      deltaE(h)  residm     vres2
 prteigrs : about to open file t60o_DS2_EIG
 Non-SCF case, kpt    1 ( -0.25000  0.50000  0.00000), residuals and eigenvalues=
  3.60E-15  2.94E-15  7.50E-15  3.45E-15  3.64E-13
 -1.2170E-01 -1.5389E-02  8.8092E-02  1.3896E-01  2.7407E-01
  prteigrs : nnsclo,ikpt=   12    1 max resid (incl. the buffer)=  3.63562E-13
 prteigrs : prtvol=0 or 1, do not print more k-points.

  prteigrs : nnsclo,ikpt=   12    2 max resid (incl. the buffer)=  2.86569E-10

 Integrated electronic density in atomic spheres:
 ------------------------------------------------
 Atom  Sphere_radius  Integrated_density
    1        2.00000          0.00000000
    2        2.00000          0.00000000
================================================================================

 ----iterations are completed or convergence reached----

 Mean square residual over all n,k,spin=   28.697E-12; max=  36.356E-14
 reduced coordinates (array xred) for    2 atoms
       0.000000000000      0.000000000000      0.000000000000
       0.250000000000      0.250000000000      0.250000000000

 cartesian coordinates (angstrom) at end:
    1      0.00000000000000     0.00000000000000     0.00000000000000
    2      1.34675599586155     1.34675599586155     1.34675599586155
 length scales= 10.180000000000 10.180000000000 10.180000000000 bohr
              =  5.387023983446  5.387023983446  5.387023983446 angstroms
 prteigrs : about to open file t60o_DS2_EIG
 Eigenvalues (hartree) for nkpt=   2  k points:
 kpt#   1, nband=  5, wtk=  0.75000, kpt= -0.2500  0.5000  0.0000 (reduced coord)
  -0.12170   -0.01539    0.08809    0.13896    0.27407
 prteigrs : prtvol=0 or 1, do not print more k-points.


--------------------------------------------------------------------------------
 Components of total free energy (in Hartree) :

    Kinetic energy  =  3.06072785722415E+00
    Hartree energy  =  5.42787478863893E-01
    XC energy       = -3.54910513337161E+00
    Ewald energy    = -8.46648022654903E+00
    PspCore energy  =  8.69853998687012E-02
    Loc. psp. energy= -2.41963765147285E+00
    NL   psp  energy=  1.87849758848321E+00
    >>>>>>>>> Etotal= -8.86622468695354E+00

 "Double-counting" decomposition of free energy:
    Band energy     =  2.69320562752239E-01
    Ewald energy    =-8.46648022654903E+00
    PspCore energy  =  8.69853998687012E-02
    Dble-C XC-energy= -7.56049632058764E-01
    >>>> Etotal (DC)= -8.86622389598686E+00
--------------------------------------------------------------------------------



================================================================================
== DATASET  3 ==================================================================
-   nproc =    1

 mkfilename : getden/=0, take file _DEN from output of DATASET   1.

 Exchange-correlation functional for the present dataset will be:
  LDA: new Teter (4/93) with spin-polarized option - ixc=1
 Citation for XC functional:
  S. Goedecker, M. Teter, J. Huetter, PRB 54, 1703 (1996)

 Real(R)+Recip(G) space primitive vectors, cartesian coordinates (Bohr,Bohr^-1):
 R(1)=  0.0000000  5.0900000  5.0900000  G(1)= -0.0982318  0.0982318  0.0982318
 R(2)=  5.0900000  0.0000000  5.0900000  G(2)=  0.0982318 -0.0982318  0.0982318
 R(3)=  5.0900000  5.0900000  0.0000000  G(3)=  0.0982318  0.0982318 -0.0982318
 Unit cell volume ucvol=  2.6374446E+02 bohr^3
 Angles (23,13,12)=  6.00000000E+01  6.00000000E+01  6.00000000E+01 degrees

 getcut: wavevector=  0.0000  0.0000  0.0000  ngfft=  20  20  20
         ecut(hartree)=      8.000   => boxcut(ratio)=   2.18216
--------------------------------------------------------------------------------


================================================================================

     iter   Etot(hartree)      deltaE(h)  residm     vres2
 prteigrs : about to open file t60o_DS3_EIG
 Non-SCF case, kpt    1 ( -0.12500 -0.25000  0.00000), residuals and eigenvalues=
  1.51E-15  8.69E-15  9.31E-16  1.41E-15  5.01E-10
 -1.9652E-01  1.0240E-01  1.7235E-01  1.7551E-01  2.9883E-01
  prteigrs : nnsclo,ikpt=   12    1 max resid (incl. the buffer)=  5.01212E-10
 prteigrs : prtvol=0 or 1, do not print more k-points.

  prteigrs : nnsclo,ikpt=   12    2 max resid (incl. the buffer)=  9.31142E-10
  prteigrs : nnsclo,ikpt=   12    3 max resid (incl. the buffer)=  3.36823E-10
  prteigrs : nnsclo,ikpt=   12    4 max resid (incl. the buffer)=  3.78017E-07
  prteigrs : nnsclo,ikpt=   12    5 max resid (incl. the buffer)=  9.82283E-08
  prteigrs : nnsclo,ikpt=   12    6 max resid (incl. the buffer)=  8.22573E-14
  prteigrs : nnsclo,ikpt=   12    7 max resid (incl. the buffer)=  5.96501E-12
  prteigrs : nnsclo,ikpt=   12    8 max resid (incl. the buffer)=  1.41759E-11
  prteigrs : nnsclo,ikpt=   12    9 max resid (incl. the buffer)=  3.18997E-07
  prteigrs : nnsclo,ikpt=   12   10 max resid (incl. the buffer)=  1.99957E-13

 Integrated electronic density in atomic spheres:
 ------------------------------------------------
 Atom  Sphere_radius  Integrated_density
    1        2.00000          0.00000000
    2        2.00000          0.00000000
================================================================================

 ----iterations are completed or convergence reached----

 Mean square residual over all n,k,spin=   15.941E-09; max=  37.802E-08
 reduced coordinates (array xred) for    2 atoms
       0.000000000000      0.000000000000      0.000000000000
       0.250000000000      0.250000000000      0.250000000000

 cartesian coordinates (angstrom) at end:
    1      0.00000000000000     0.00000000000000     0.00000000000000
    2      1.34675599586155     1.34675599586155     1.34675599586155
 length scales= 10.180000000000 10.180000000000 10.180000000000 bohr
              =  5.387023983446  5.387023983446  5.387023983446 angstroms
 prteigrs : about to open file t60o_DS3_EIG
 Eigenvalues (hartree) for nkpt=  10  k points:
 kpt#   1, nband=  5, wtk=  0.09375, kpt= -0.1250 -0.2500  0.0000 (reduced coord)
  -0.19652    0.10240    0.17235    0.17551    0.29883
 prteigrs : prtvol=0 or 1, do not print more k-points.


--------------------------------------------------------------------------------
 Components of total free energy (in Hartree) :

    Kinetic energy  =  3.03560431212983E+00
    Hartree energy  =  5.42787478863893E-01
    XC energy       = -3.54910513337161E+00
    Ewald energy    = -8.46648022654903E+00
    PspCore energy  =  8.69853998687012E-02
    Loc. psp. energy= -2.41963765147285E+00
    NL   psp  energy=  1.88374261626115E+00
    >>>>>>>>> Etotal= -8.88610320426993E+00

 "Double-counting" decomposition of free energy:
    Band energy     =  2.63026418530447E-01
    Ewald energy    =-8.46648022654903E+00
    PspCore energy  =  8.69853998687012E-02
    Dble-C XC-energy= -7.56049632058764E-01
    >>>> Etotal (DC)= -8.87251804020865E+00
--------------------------------------------------------------------------------



================================================================================
== DATASET  4 ==================================================================
-   nproc =    1

 mkfilename : getwfk/=0, take file _WFK from output of DATASET   3.

 mkfilename : getden/=0, take file _DEN from output of DATASET   1.

 Exchange-correlation functional for the present dataset will be:
  LDA: new Teter (4/93) with spin-polarized option - ixc=1
 Citation for XC functional:
  S. Goedecker, M. Teter, J. Huetter, PRB 54, 1703 (1996)

 Real(R)+Recip(G) space primitive vectors, cartesian coordinates (Bohr,Bohr^-1):
 R(1)=  0.0000000  5.0900000  5.0900000  G(1)= -0.0982318  0.0982318  0.0982318
 R(2)=  5.0900000  0.0000000  5.0900000  G(2)=  0.0982318 -0.0982318  0.0982318
 R(3)=  5.0900000  5.0900000  0.0000000  G(3)=  0.0982318  0.0982318 -0.0982318
 Unit cell volume ucvol=  2.6374446E+02 bohr^3
 Angles (23,13,12)=  6.00000000E+01  6.00000000E+01  6.00000000E+01 degrees

 getcut: wavevector=  0.0000  0.0000  0.0000  ngfft=  20  20  20
         ecut(hartree)=      8.000   => boxcut(ratio)=   2.18216
--------------------------------------------------------------------------------

-inwffil : will read wavefunctions from disk file t60o_DS3_WFK

================================================================================

     iter   Etot(hartree)      deltaE(h)  residm     vres2
 prteigrs : about to open file t60o_DS4_EIG
 Non-SCF case, kpt    1 ( -0.08333 -0.16667  0.00000), residuals and eigenvalues=
  9.51E-15  5.26E-15  4.81E-15  4.60E-14  9.76E-10
 -2.1195E-01  1.5072E-01  1.9228E-01  1.9982E-01  3.0524E-01
  prteigrs : nnsclo,ikpt=   12    1 max resid (incl. the buffer)=  9.75528E-10
 prteigrs : prtvol=0 or 1, do not print more k-points.

  prteigrs : nnsclo,ikpt=   12    2 max resid (incl. the buffer)=  2.02340E-07
  prteigrs : nnsclo,ikpt=   12    3 max resid (incl. the buffer)=  1.01248E-12
  prteigrs : nnsclo,ikpt=   12    4 max resid (incl. the buffer)=  4.16259E-09
  prteigrs : nnsclo,ikpt=   12    5 max resid (incl. the buffer)=  3.76427E-14
  prteigrs : nnsclo,ikpt=   12    6 max resid (incl. the buffer)=  3.28756E-12
  prteigrs : nnsclo,ikpt=   12    7 max resid (incl. the buffer)=  4.04206E-09
  prteigrs : nnsclo,ikpt=   12    8 max resid (incl. the buffer)=  2.05715E-13
  prteigrs : nnsclo,ikpt=   12    9 max resid (incl. the buffer)=  7.65703E-12
  prteigrs : nnsclo,ikpt=   12   10 max resid (incl. the buffer)=  6.99670E-07
  prteigrs : nnsclo,ikpt=   12   11 max resid (incl. the buffer)=  1.08246E-12
  prteigrs : nnsclo,ikpt=   12   12 max resid (incl. the buffer)=  3.95200E-12
  prteigrs : nnsclo,ikpt=   12   13 max resid (incl. the buffer)=  2.02565E-13
  prteigrs : nnsclo,ikpt=   12   14 max resid (incl. the buffer)=  2.26896E-10
  prteigrs : nnsclo,ikpt=   12   15 max resid (incl. the buffer)=  6.02498E-10
  prteigrs : nnsclo,ikpt=   12   16 max resid (incl. the buffer)=  5.11541E-12
  prteigrs : nnsclo,ikpt=   12   17 max resid (incl. the buffer)=  4.44746E-07
  prteigrs : nnsclo,ikpt=   12   18 max resid (incl. the buffer)=  1.50766E-13
  prteigrs : nnsclo,ikpt=   12   19 max resid (incl. the buffer)=  3.20504E-09
  prteigrs : nnsclo,ikpt=   12   20 max resid (incl. the buffer)=  1.92325E-10
  prteigrs : nnsclo,ikpt=   12   23 max resid (incl. the buffer)=  1.06634E-09
  prteigrs : nnsclo,ikpt=   12   24 max resid (incl. the buffer)=  4.55826E-12
  prteigrs : nnsclo,ikpt=   12   25 max resid (incl. the buffer)=  7.43607E-11
  prteigrs : nnsclo,ikpt=   12   26 max resid (incl. the buffer)=  2.13074E-09
  prteigrs : nnsclo,ikpt=   12   27 max resid (incl. the buffer)=  1.53174E-11

 Integrated electronic density in atomic spheres:
 ------------------------------------------------
 Atom  Sphere_radius  Integrated_density
    1        2.00000          0.00000000
    2        2.00000          0.00000000
================================================================================

 ----iterations are completed or convergence reached----

 Mean square residual over all n,k,spin=   97.391E-10; max=  69.967E-08
 reduced coordinates (array xred) for    2 atoms
       0.000000000000      0.000000000000      0.000000000000
       0.250000000000      0.250000000000      0.250000000000

 cartesian coordinates (angstrom) at end:
    1      0.00000000000000     0.00000000000000     0.00000000000000
    2      1.34675599586155     1.34675599586155     1.34675599586155
 length scales= 10.180000000000 10.180000000000 10.180000000000 bohr
              =  5.387023983446  5.387023983446  5.387023983446 angstroms
 prteigrs : about to open file t60o_DS4_EIG
 Eigenvalues (hartree) for nkpt=  28  k points:
 kpt#   1, nband=  5, wtk=  0.02778, kpt= -0.0833 -0.1667  0.0000 (reduced coord)
  -0.21195    0.15072    0.19228    0.19982    0.30524
 prteigrs : prtvol=0 or 1, do not print more k-points.


--------------------------------------------------------------------------------
 Components of total free energy (in Hartree) :

    Kinetic energy  =  3.03486137919551E+00
    Hartree energy  =  5.42787478863893E-01
    XC energy       = -3.54910513337161E+00
    Ewald energy    = -8.46648022654903E+00
    PspCore energy  =  8.69853998687012E-02
    Loc. psp. energy= -2.41963765147285E+00
    NL   psp  energy=  1.88401565747203E+00
    >>>>>>>>> Etotal= -8.88657309599336E+00

 "Double-counting" decomposition of free energy:
    Band energy     =  2.62913861018820E-01
    Ewald energy    =-8.46648022654903E+00
    PspCore energy  =  8.69853998687012E-02
    Dble-C XC-energy= -7.56049632058764E-01
    >>>> Etotal (DC)= -8.87263059772027E+00
--------------------------------------------------------------------------------



================================================================================
== DATASET  5 ==================================================================
-   nproc =    1

 mkfilename : getwfk/=0, take file _WFK from output of DATASET   3.

 mkfilename : getden/=0, take file _DEN from output of DATASET   1.

 Exchange-correlation functional for the present dataset will be:
  LDA: new Teter (4/93) with spin-polarized option - ixc=1
 Citation for XC functional:
  S. Goedecker, M. Teter, J. Huetter, PRB 54, 1703 (1996)

 Real(R)+Recip(G) space primitive vectors, cartesian coordinates (Bohr,Bohr^-1):
 R(1)=  0.0000000  5.0900000  5.0900000  G(1)= -0.0982318  0.0982318  0.0982318
 R(2)=  5.0900000  0.0000000  5.0900000  G(2)=  0.0982318 -0.0982318  0.0982318
 R(3)=  5.0900000  5.0900000  0.0000000  G(3)=  0.0982318  0.0982318 -0.0982318
 Unit cell volume ucvol=  2.6374446E+02 bohr^3
 Angles (23,13,12)=  6.00000000E+01  6.00000000E+01  6.00000000E+01 degrees

 getcut: wavevector=  0.0000  0.0000  0.0000  ngfft=  20  20  20
         ecut(hartree)=      8.000   => boxcut(ratio)=   2.18216
--------------------------------------------------------------------------------

-inwffil : will read wavefunctions from disk file t60o_DS3_WFK
_setup2: Arith. and geom. avg. npw (full set) are     284.719     284.689

================================================================================

     iter   Etot(hartree)      deltaE(h)  residm     vres2
 ETOT  1  -8.8724800177310    -8.872E+00 9.618E-15 1.239E-02

 At SCF step    1   max residual=  9.62E-15 < tolwfr=  1.00E-14 =>converged.

 Cartesian components of stress tensor (hartree/bohr^3)
  sigma(1 1)=  1.05533582E-05  sigma(3 2)=  0.00000000E+00
  sigma(2 2)=  1.05533582E-05  sigma(3 1)=  0.00000000E+00
  sigma(3 3)=  1.05533582E-05  sigma(2 1)=  0.00000000E+00

 Integrated electronic density in atomic spheres:
 ------------------------------------------------
 Atom  Sphere_radius  Integrated_density
    1        2.00000          1.70364610
    2        2.00000          1.70364610
================================================================================

 ----iterations are completed or convergence reached----

 Mean square residual over all n,k,spin=   42.793E-16; max=  96.185E-16
 reduced coordinates (array xred) for    2 atoms
       0.000000000000      0.000000000000      0.000000000000
       0.250000000000      0.250000000000      0.250000000000
 rms dE/dt=  0.0000E+00; max dE/dt=  0.0000E+00; dE/dt below (all hartree)
    1       0.000000000000      0.000000000000      0.000000000000
    2       0.000000000000      0.000000000000      0.000000000000

 cartesian coordinates (angstrom) at end:
    1      0.00000000000000     0.00000000000000     0.00000000000000
    2      1.34675599586155     1.34675599586155     1.34675599586155

 cartesian forces (hartree/bohr) at end:
    1     -0.00000000000000    -0.00000000000000    -0.00000000000000
    2     -0.00000000000000    -0.00000000000000    -0.00000000000000
 frms,max,avg= 0.0000000E+00 0.0000000E+00   0.000E+00  0.000E+00  0.000E+00 h/b

 cartesian forces (eV/Angstrom) at end:
    1     -0.00000000000000    -0.00000000000000    -0.00000000000000
    2     -0.00000000000000    -0.00000000000000    -0.00000000000000
 frms,max,avg= 0.0000000E+00 0.0000000E+00   0.000E+00  0.000E+00  0.000E+00 e/A
 length scales= 10.180000000000 10.180000000000 10.180000000000 bohr
              =  5.387023983446  5.387023983446  5.387023983446 angstroms
 prteigrs : about to open file t60o_DS5_EIG
 Fermi (or HOMO) energy (hartree) =   0.21168   Average Vxc (hartree)=  -0.35615
 Eigenvalues (hartree) for nkpt=  10  k points:
 kpt#   1, nband=  5, wtk=  0.09375, kpt= -0.1250 -0.2500  0.0000 (reduced coord)
  -0.19652    0.10240    0.17235    0.17551    0.29883
 prteigrs : prtvol=0 or 1, do not print more k-points.


--------------------------------------------------------------------------------
 Components of total free energy (in Hartree) :

    Kinetic energy  =  3.03560431213858E+00
    Hartree energy  =  5.30196412703462E-01
    XC energy       = -3.54378096079880E+00
    Ewald energy    = -8.46648022654903E+00
    PspCore energy  =  8.69853998687012E-02
    Loc. psp. energy= -2.39874757135589E+00
    NL   psp  energy=  1.88374261626195E+00
    >>>>>>>>> Etotal= -8.87248001773103E+00

 Other information on the energy :
    Total energy(eV)= -2.41432459552659E+02 ; Band energy (Ha)=   2.6302641853E-01
--------------------------------------------------------------------------------



 Cartesian components of stress tensor (hartree/bohr^3)
  sigma(1 1)=  1.05533582E-05  sigma(3 2)=  0.00000000E+00
  sigma(2 2)=  1.05533582E-05  sigma(3 1)=  0.00000000E+00
  sigma(3 3)=  1.05533582E-05  sigma(2 1)=  0.00000000E+00

-Cartesian components of stress tensor (GPa)         [Pressure= -3.1049E-01 GPa]
- sigma(1 1)=  3.10490466E-01  sigma(3 2)=  0.00000000E+00
- sigma(2 2)=  3.10490466E-01  sigma(3 1)=  0.00000000E+00
- sigma(3 3)=  3.10490466E-01  sigma(2 1)=  0.00000000E+00

== END DATASET(S) ==============================================================
================================================================================
  
 -outvars: echo values of variables after computation  --------
            acell      1.0180000000E+01  1.0180000000E+01  1.0180000000E+01 Bohr
              amu      2.80855000E+01
           diemac      1.20000000E+01
             ecut      8.00000000E+00 Hartree
           etotal1    -8.8662238960E+00
           etotal2    -8.8662238960E+00
           etotal3    -8.8662238960E+00
           etotal4    -8.8662238960E+00
           etotal5    -8.8724800177E+00
            fcart1    -0.0000000000E+00 -0.0000000000E+00 -0.0000000000E+00
                      -0.0000000000E+00 -0.0000000000E+00 -0.0000000000E+00
            fcart5    -0.0000000000E+00 -0.0000000000E+00 -0.0000000000E+00
                      -0.0000000000E+00 -0.0000000000E+00 -0.0000000000E+00
-          fftalg         312
           getden1          0
           getden2          1
           getden3          1
           getden4          1
           getden5          1
           getwfk1          0
           getwfk2          0
           getwfk3          0
           getwfk4          3
           getwfk5          3
             iscf1          7
             iscf2         -3
             iscf3         -3
             iscf4         -3
             iscf5          7
           jdtset        1    2    3    4    5
              kpt1    -2.50000000E-01  5.00000000E-01  0.00000000E+00
                      -2.50000000E-01  0.00000000E+00  0.00000000E+00
              kpt2    -2.50000000E-01  5.00000000E-01  0.00000000E+00
                      -2.50000000E-01  0.00000000E+00  0.00000000E+00
              kpt3    -1.25000000E-01 -2.50000000E-01  0.00000000E+00
                      -1.25000000E-01  5.00000000E-01  0.00000000E+00
                      -2.50000000E-01 -3.75000000E-01  0.00000000E+00
                      -1.25000000E-01 -3.75000000E-01  1.25000000E-01
                      -1.25000000E-01  2.50000000E-01  0.00000000E+00
                      -2.50000000E-01  3.75000000E-01  0.00000000E+00
                      -3.75000000E-01  5.00000000E-01  0.00000000E+00
                      -2.50000000E-01  5.00000000E-01  1.25000000E-01
                      -1.25000000E-01  0.00000000E+00  0.00000000E+00
                      -3.75000000E-01  0.00000000E+00  0.00000000E+00
              kpt4    -8.33333333E-02 -1.66666667E-01  0.00000000E+00
                      -8.33333333E-02 -3.33333333E-01  0.00000000E+00
                      -1.66666667E-01 -2.50000000E-01  0.00000000E+00
                      -8.33333333E-02 -2.50000000E-01  8.33333333E-02
                      -8.33333333E-02  5.00000000E-01  0.00000000E+00
                      -1.66666667E-01 -4.16666667E-01  0.00000000E+00
                      -8.33333333E-02 -4.16666667E-01  8.33333333E-02
                      -2.50000000E-01 -3.33333333E-01  0.00000000E+00
                      -1.66666667E-01 -3.33333333E-01  8.33333333E-02
                      -8.33333333E-02 -3.33333333E-01  1.66666667E-01
                      -8.33333333E-02  3.33333333E-01  0.00000000E+00
                      -1.66666667E-01  4.16666667E-01  0.00000000E+00
                      -2.50000000E-01  5.00000000E-01  0.00000000E+00
                      -1.66666667E-01  5.00000000E-01  8.33333333E-02
                      -3.33333333E-01 -4.16666667E-01  0.00000000E+00
                      -2.50000000E-01 -4.16666667E-01  8.33333333E-02
                      -1.66666667E-01 -4.16666667E-01  1.66666667E-01
                      -8.33333333E-02 -4.16666667E-01  2.50000000E-01
                      -8.33333333E-02  1.66666667E-01  0.00000000E+00
                      -1.66666667E-01  2.50000000E-01  0.00000000E+00
                      -2.50000000E-01  3.33333333E-01  0.00000000E+00
                      -3.33333333E-01  4.16666667E-01  0.00000000E+00
                      -4.16666667E-01  5.00000000E-01  0.00000000E+00
                      -3.33333333E-01  5.00000000E-01  8.33333333E-02
                      -2.50000000E-01  5.00000000E-01  1.66666667E-01
                      -8.33333333E-02  0.00000000E+00  0.00000000E+00
                      -2.50000000E-01  0.00000000E+00  0.00000000E+00
                      -4.16666667E-01  0.00000000E+00  0.00000000E+00
              kpt5    -1.25000000E-01 -2.50000000E-01  0.00000000E+00
                      -1.25000000E-01  5.00000000E-01  0.00000000E+00
                      -2.50000000E-01 -3.75000000E-01  0.00000000E+00
                      -1.25000000E-01 -3.75000000E-01  1.25000000E-01
                      -1.25000000E-01  2.50000000E-01  0.00000000E+00
                      -2.50000000E-01  3.75000000E-01  0.00000000E+00
                      -3.75000000E-01  5.00000000E-01  0.00000000E+00
                      -2.50000000E-01  5.00000000E-01  1.25000000E-01
                      -1.25000000E-01  0.00000000E+00  0.00000000E+00
                      -3.75000000E-01  0.00000000E+00  0.00000000E+00
         kptrlatt1       2   -2    2     -2    2    2     -2   -2    2
         kptrlatt2       2   -2    2     -2    2    2     -2   -2    2
         kptrlatt3       4   -4    4     -4    4    4     -4   -4    4
         kptrlatt4       6   -6    6     -6    6    6     -6   -6    6
         kptrlatt5       4   -4    4     -4    4    4     -4   -4    4
          kptrlen1     2.03600000E+01
          kptrlen2     2.03600000E+01
          kptrlen3     4.07200000E+01
          kptrlen4     6.10800000E+01
          kptrlen5     4.07200000E+01
P           mkmem1          2
P           mkmem2          2
P           mkmem3         10
P           mkmem4         28
P           mkmem5         10
            natom           2
            nband1          5
            nband2          5
            nband3          5
            nband4          5
            nband5          5
           nbdbuf1          0
           nbdbuf2          2
           nbdbuf3          2
           nbdbuf4          2
           nbdbuf5          0
           ndtset           5
            ngfft          20      20      20
             nkpt1          2
             nkpt2          2
             nkpt3         10
             nkpt4         28
             nkpt5         10
           nnsclo1          0
           nnsclo2          0
           nnsclo3          0
           nnsclo4          0
           nnsclo5         10
            nstep1         12
            nstep2         12
            nstep3         12
            nstep4         12
            nstep5          1
             nsym          48
           ntypat           1
              occ1     2.000000  2.000000  2.000000  2.000000  0.000000
              occ2     2.000000  2.000000  2.000000  2.000000  0.000000
              occ3     2.000000  2.000000  2.000000  2.000000  0.000000
              occ4     2.000000  2.000000  2.000000  2.000000  0.000000
              occ5     2.000000  2.000000  2.000000  2.000000  0.000000
            rprim      0.0000000000E+00  5.0000000000E-01  5.0000000000E-01
                       5.0000000000E-01  0.0000000000E+00  5.0000000000E-01
                       5.0000000000E-01  5.0000000000E-01  0.0000000000E+00
           shiftk      5.00000000E-01  5.00000000E-01  5.00000000E-01
          spgroup         227
           strten1    -1.9068839600E-05 -1.9068839600E-05 -1.9068839600E-05
                       0.0000000000E+00  0.0000000000E+00  0.0000000000E+00
           strten5     1.0553358198E-05  1.0553358198E-05  1.0553358198E-05
                       0.0000000000E+00  0.0000000000E+00  0.0000000000E+00
           symrel      1  0  0   0  1  0   0  0  1      -1  0  0   0 -1  0   0  0 -1
                       0 -1  1   0 -1  0   1 -1  0       0  1 -1   0  1  0  -1  1  0
                      -1  0  0  -1  0  1  -1  1  0       1  0  0   1  0 -1   1 -1  0
                       0  1 -1   1  0 -1   0  0 -1       0 -1  1  -1  0  1   0  0  1
                      -1  0  0  -1  1  0  -1  0  1       1  0  0   1 -1  0   1  0 -1
                       0 -1  1   1 -1  0   0 -1  0       0  1 -1  -1  1  0   0  1  0
                       1  0  0   0  0  1   0  1  0      -1  0  0   0  0 -1   0 -1  0
                       0  1 -1   0  0 -1   1  0 -1       0 -1  1   0  0  1  -1  0  1
                      -1  0  1  -1  1  0  -1  0  0       1  0 -1   1 -1  0   1  0  0
                       0 -1  0   1 -1  0   0 -1  1       0  1  0  -1  1  0   0  1 -1
                       1  0 -1   0  0 -1   0  1 -1      -1  0  1   0  0  1   0 -1  1
                       0  1  0   0  0  1   1  0  0       0 -1  0   0  0 -1  -1  0  0
                       1  0 -1   0  1 -1   0  0 -1      -1  0  1   0 -1  1   0  0  1
                       0 -1  0   0 -1  1   1 -1  0       0  1  0   0  1 -1  -1  1  0
                      -1  0  1  -1  0  0  -1  1  0       1  0 -1   1  0  0   1 -1  0
                       0  1  0   1  0  0   0  0  1       0 -1  0  -1  0  0   0  0 -1
                       0  0 -1   0  1 -1   1  0 -1       0  0  1   0 -1  1  -1  0  1
                       1 -1  0   0 -1  1   0 -1  0      -1  1  0   0  1 -1   0  1  0
                       0  0  1   1  0  0   0  1  0       0  0 -1  -1  0  0   0 -1  0
                      -1  1  0  -1  0  0  -1  0  1       1 -1  0   1  0  0   1  0 -1
                       0  0  1   0  1  0   1  0  0       0  0 -1   0 -1  0  -1  0  0
                       1 -1  0   0 -1  0   0 -1  1      -1  1  0   0  1  0   0  1 -1
                       0  0 -1   1  0 -1   0  1 -1       0  0  1  -1  0  1   0 -1  1
                      -1  1  0  -1  0  1  -1  0  0       1 -1  0   1  0 -1   1  0  0
            tnons      0.0000000  0.0000000  0.0000000     0.2500000  0.2500000  0.2500000
                       0.0000000  0.0000000  0.0000000     0.2500000  0.2500000  0.2500000
                       0.0000000  0.0000000  0.0000000     0.2500000  0.2500000  0.2500000
                       0.0000000  0.0000000  0.0000000     0.2500000  0.2500000  0.2500000
                       0.0000000  0.0000000  0.0000000     0.2500000  0.2500000  0.2500000
                       0.0000000  0.0000000  0.0000000     0.2500000  0.2500000  0.2500000
                       0.0000000  0.0000000  0.0000000     0.2500000  0.2500000  0.2500000
                       0.0000000  0.0000000  0.0000000     0.2500000  0.2500000  0.2500000
                       0.0000000  0.0000000  0.0000000     0.2500000  0.2500000  0.2500000
                       0.0000000  0.0000000  0.0000000     0.2500000  0.2500000  0.2500000
                       0.0000000  0.0000000  0.0000000     0.2500000  0.2500000  0.2500000
                       0.0000000  0.0000000  0.0000000     0.2500000  0.2500000  0.2500000
                       0.0000000  0.0000000  0.0000000     0.2500000  0.2500000  0.2500000
                       0.0000000  0.0000000  0.0000000     0.2500000  0.2500000  0.2500000
                       0.0000000  0.0000000  0.0000000     0.2500000  0.2500000  0.2500000
                       0.0000000  0.0000000  0.0000000     0.2500000  0.2500000  0.2500000
                       0.0000000  0.0000000  0.0000000     0.2500000  0.2500000  0.2500000
                       0.0000000  0.0000000  0.0000000     0.2500000  0.2500000  0.2500000
                       0.0000000  0.0000000  0.0000000     0.2500000  0.2500000  0.2500000
                       0.0000000  0.0000000  0.0000000     0.2500000  0.2500000  0.2500000
                       0.0000000  0.0000000  0.0000000     0.2500000  0.2500000  0.2500000
                       0.0000000  0.0000000  0.0000000     0.2500000  0.2500000  0.2500000
                       0.0000000  0.0000000  0.0000000     0.2500000  0.2500000  0.2500000
                       0.0000000  0.0000000  0.0000000     0.2500000  0.2500000  0.2500000
           toldfe1     1.00000000E-08 Hartree
           toldfe2     0.00000000E+00 Hartree
           toldfe3     0.00000000E+00 Hartree
           toldfe4     0.00000000E+00 Hartree
           toldfe5     0.00000000E+00 Hartree
           tolwfr1     0.00000000E+00
           tolwfr2     1.00000000E-14
           tolwfr3     1.00000000E-14
           tolwfr4     1.00000000E-14
           tolwfr5     1.00000000E-14
            typat      1  1
              wtk1       0.75000    0.25000
              wtk2       0.75000    0.25000
              wtk3       0.09375    0.09375    0.09375    0.18750    0.09375    0.09375
                         0.09375    0.18750    0.03125    0.03125
              wtk4       0.02778    0.02778    0.02778    0.05556    0.02778    0.02778
                         0.05556    0.02778    0.05556    0.05556    0.02778    0.02778
                         0.02778    0.05556    0.02778    0.05556    0.05556    0.05556
                         0.02778    0.02778    0.02778    0.02778    0.02778    0.05556
                         0.05556    0.00926    0.00926    0.00926
              wtk5       0.09375    0.09375    0.09375    0.18750    0.09375    0.09375
                         0.09375    0.18750    0.03125    0.03125
           xangst      0.0000000000E+00  0.0000000000E+00  0.0000000000E+00
                       1.3467559959E+00  1.3467559959E+00  1.3467559959E+00
            xcart      0.0000000000E+00  0.0000000000E+00  0.0000000000E+00
                       2.5450000000E+00  2.5450000000E+00  2.5450000000E+00
             xred      0.0000000000E+00  0.0000000000E+00  0.0000000000E+00
                       2.5000000000E-01  2.5000000000E-01  2.5000000000E-01
            znucl       14.00000

================================================================================


- Timing analysis has been suppressed with timopt=0



================================================================================

 Suggested references for the acknowledgment of ABINIT usage.

 The users of ABINIT have little formal obligations with respect to the ABINIT group
 (those specified in the GNU General Public License, http://www.gnu.org/copyleft/gpl.txt).
 However, it is common practice in the scientific literature,
 to acknowledge the efforts of people that have made the research possible.
 In this spirit, please find below suggested citations of work written by ABINIT developers,
 corresponding to implementations inside of ABINIT that you have used in the present run.
 Note also that it will be of great value to readers of publications presenting these results,
 to read papers enabling them to understand the theoretical formalism and details
 of the ABINIT implementation.
 For information on why they are suggested, see also https://docs.abinit.org/theory/acknowledgments.
-
- [1] Recent developments in the ABINIT software package.
- Computer Phys. Comm. 205, 106 (2016).
- X.Gonze, F.Jollet, F.Abreu Araujo, D.Adams, B.Amadon, T.Applencourt,
- C.Audouze, J.-M.Beuken, J.Bieder, A.Bokhanchuk, E.Bousquet, F.Bruneval
- D.Caliste, M.Cote, F.Dahm, F.Da Pieve, M.Delaveau, M.Di Gennaro,
- B.Dorado, C.Espejo, G.Geneste, L.Genovese, A.Gerossier, M.Giantomassi,
- Y.Gillet, D.R.Hamann, L.He, G.Jomard, J.Laflamme Janssen, S.Le Roux,
- A.Levitt, A.Lherbier, F.Liu, I.Lukacevic, A.Martin, C.Martins,
- M.J.T.Oliveira, S.Ponce, Y.Pouillon, T.Rangel, G.-M.Rignanese,
- A.H.Romero, B.Rousseau, O.Rubel, A.A.Shukri, M.Stankovski, M.Torrent,
- M.J.Van Setten, B.Van Troeye, M.J.Verstraete, D.Waroquier, J.Wiktor,
- B.Xu, A.Zhou, J.W.Zwanziger.
- Comment: the fourth generic paper describing the ABINIT project.
- Note that a version of this paper, that is not formatted for Computer Phys. Comm. 
- is available at https://www.abinit.org/about/ABINIT16.pdf .
- The licence allows the authors to put it on the Web.
- DOI and bibtex: see https://docs.abinit.org/theory/bibliography/#gonze2016
-
- [2] ABINIT: First-principles approach of materials and nanosystem properties.
- Computer Phys. Comm. 180, 2582-2615 (2009).
- X. Gonze, B. Amadon, P.-M. Anglade, J.-M. Beuken, F. Bottin, P. Boulanger, F. Bruneval,
- D. Caliste, R. Caracas, M. Cote, T. Deutsch, L. Genovese, Ph. Ghosez, M. Giantomassi
- S. Goedecker, D.R. Hamann, P. Hermet, F. Jollet, G. Jomard, S. Leroux, M. Mancini, S. Mazevet,
- M.J.T. Oliveira, G. Onida, Y. Pouillon, T. Rangel, G.-M. Rignanese, D. Sangalli, R. Shaltaf,
- M. Torrent, M.J. Verstraete, G. Zerah, J.W. Zwanziger
- Comment: the third generic paper describing the ABINIT project.
- Note that a version of this paper, that is not formatted for Computer Phys. Comm. 
- is available at https://www.abinit.org/about/ABINIT_CPC_v10.pdf .
- The licence allows the authors to put it on the Web.
- DOI and bibtex: see https://docs.abinit.org/theory/bibliography/#gonze2009
-
- [3] A brief introduction to the ABINIT software package.
- Z. Kristallogr. 220, 558-562 (2005).
- X. Gonze, G.-M. Rignanese, M. Verstraete, J.-M. Beuken, Y. Pouillon, R. Caracas, F. Jollet,
- M. Torrent, G. Zerah, M. Mikami, Ph. Ghosez, M. Veithen, J.-Y. Raty, V. Olevano, F. Bruneval,
- L. Reining, R. Godby, G. Onida, D.R. Hamann, and D.C. Allan.
- Comment: the second generic paper describing the ABINIT project. Note that this paper
- should be cited especially if you are using the GW part of ABINIT, as several authors
- of this part are not in the list of authors of the first or third paper.
- The .pdf of the latter paper is available at https://www.abinit.org/about/zfk_0505-06_558-562.pdf.
- Note that it should not redistributed (Copyright by Oldenburg Wissenshaftverlag,
- the licence allows the authors to put it on the Web).
- DOI and bibtex: see https://docs.abinit.org/theory/bibliography/#gonze2005
-
- And optionally:
-
- [4] First-principles computation of material properties: the ABINIT software project. 
- X. Gonze, J.-M. Beuken, R. Caracas, F. Detraux, M. Fuchs, G.-M. Rignanese, L. Sindic,
- M. Verstraete, G. Zerah, F. Jollet, M. Torrent, A. Roy, M. Mikami, Ph. Ghosez, J.-Y. Raty, D.C. Allan.
- Computational Materials Science 25, 478-492 (2002). http://dx.doi.org/10.1016/S0927-0256(02)00325-7
- Comment: the original paper describing the ABINIT project.
- DOI and bibtex : see https://docs.abinit.org/theory/bibliography/#gonze2002
-
- Proc.   0 individual time (sec): cpu=          2.4  wall=          4.6

================================================================================

 Calculation completed.
.Delivered   0 WARNINGs and  11 COMMENTs to log file.
+Overall time at end (sec) : cpu=          2.4  wall=          4.6
