
.Version 8.0.3 of ABINIT 
.(MPI version, prepared for a x86_64_linux_gnu5.3 computer) 

.Copyright (C) 1998-2018 ABINIT group . 
 ABINIT comes with ABSOLUTELY NO WARRANTY.
 It is free software, and you are welcome to redistribute it
 under certain conditions (GNU General Public License,
 see ~abinit/COPYING or http://www.gnu.org/copyleft/gpl.txt).

 ABINIT is a project of the Universite Catholique de Louvain,
 Corning Inc. and other collaborators, see ~abinit/doc/developers/contributors.txt .
 Please read ~abinit/doc/users/acknowledgments.html for suggested
 acknowledgments of the ABINIT effort.
 For more information, see https://www.abinit.org .

.Starting date : Mon  4 Apr 2016.
- ( at 12h00 )
  
- input  file    -> t77.in
- output file    -> t77.out
- root for input  files -> t77i
- root for output files -> t77o


 DATASET    1 : space group I4_1/a m d (#141); Bravais tI (body-center tetrag.)
================================================================================
 Values of the parameters that define the memory need for DATASET  1.
     intxc =       0    ionmov =       2      iscf =      17    lmnmax =      18
     lnmax =       6     mgfft =      27  mpssoang =       3    mqgrid =    3001
     natom =       2  nloc_mem =       2    nspden =       1   nspinor =       1
    nsppol =       1      nsym =      16    n1xccc =       1    ntypat =       1
    occopt =       7   xclevel =       2
-    mband =          15        mffmem =           1         mkmem =           8
       mpw =         661          nfft =       19683          nkpt =           8
 PAW method is used; the additional fine FFT grid is defined by:
   mgfftf=        30    nfftf =     27000
================================================================================
P This job should need less than                      14.967 Mbytes of memory.
  Rough estimation (10% accuracy) of disk space for files :
_ WF disk file :      1.212 Mbytes ; DEN or POT disk file :      0.208 Mbytes.
================================================================================


 DATASET    2 : space group I4_1/a m d (#141); Bravais tI (body-center tetrag.)
================================================================================
 Values of the parameters that define the memory need for DATASET  2.
     intxc =       0    ionmov =       2      iscf =      17    lmnmax =      18
     lnmax =       6     mgfft =      27  mpssoang =       3    mqgrid =    3001
     natom =       2  nloc_mem =       2    nspden =       1   nspinor =       1
    nsppol =       1      nsym =      16    n1xccc =       1    ntypat =       1
    occopt =       7   xclevel =       2
-    mband =          15        mffmem =           1         mkmem =           8
       mpw =         661          nfft =       19683          nkpt =           8
 PAW method is used; the additional fine FFT grid is defined by:
   mgfftf=        30    nfftf =     27000
================================================================================
P This job should need less than                      14.967 Mbytes of memory.
  Rough estimation (10% accuracy) of disk space for files :
_ WF disk file :      1.212 Mbytes ; DEN or POT disk file :      0.208 Mbytes.
================================================================================

--------------------------------------------------------------------------------
------------- Echo of variables that govern the present computation ------------
--------------------------------------------------------------------------------
-
- outvars: echo of selected default values                                      
-   accesswff0 =  0 , fftalg0 =312 , wfoptalg0 = 10
-
- outvars: echo of global parameters not present in the input file              
-  max_nthreads =    0
-
 -outvars: echo values of preprocessed input variables --------
            acell      1.0000000000E+00  1.0000000000E+00  1.0000000000E+00 Bohr
              amu      1.18710000E+02
          dilatmx      1.10000000E+00
             ecut      9.00000000E+00 Hartree
           ecutsm      5.00000000E-01 Hartree
-          fftalg         312
           ionmov           2
              ixc          11
           jdtset        1    2
              kpt     -6.25000000E-02 -6.25000000E-02 -1.04166667E-01
                      -6.25000000E-02 -6.25000000E-02 -4.37500000E-01
                      -2.08333333E-02 -3.54166667E-01 -1.45833333E-01
                      -1.87500000E-01 -1.87500000E-01 -3.12500000E-01
                      -2.08333333E-02 -3.54166667E-01  1.87500000E-01
                      -1.45833333E-01 -4.79166667E-01  3.12500000E-01
                      -1.04166667E-01  2.29166667E-01 -3.95833333E-01
                      -2.70833333E-01  3.95833333E-01  4.37500000E-01
         kptrlatt        0    3    3     -3    0   -3     -4   -4    0
          kptrlen      2.41884945E+01
P           mkmem           8
            natom           2
            nband          15
           ndtset           2
            ngfft          27      27      27
          ngfftdg          30      30      30
             nkpt           8
            nstep           6
             nsym          16
            ntime           5
           ntypat           1
              occ      2.000000  2.000000  2.000000  2.000000  2.000000  2.000000
                       2.000000  2.000000  2.000000  2.000000  2.000000  2.000000
                       2.000000  2.000000  0.000000
                       2.000000  2.000000  2.000000  2.000000  2.000000  2.000000
                       2.000000  2.000000  2.000000  2.000000  2.000000  2.000000
                       2.000000  2.000000  0.000000
                       2.000000  2.000000  2.000000  2.000000  2.000000  2.000000
                       2.000000  2.000000  2.000000  2.000000  2.000000  2.000000
                       2.000000  2.000000  0.000000
                       2.000000  2.000000  2.000000  2.000000  2.000000  2.000000
                       2.000000  2.000000  2.000000  2.000000  2.000000  2.000000
                       2.000000  2.000000  0.000000
                       2.000000  2.000000  2.000000  2.000000  2.000000  2.000000
                       2.000000  2.000000  2.000000  2.000000  2.000000  2.000000
                       2.000000  2.000000  0.000000
                       2.000000  2.000000  2.000000  2.000000  2.000000  2.000000
                       2.000000  2.000000  2.000000  2.000000  2.000000  2.000000
                       2.000000  2.000000  0.000000
                       2.000000  2.000000  2.000000  2.000000  2.000000  2.000000
                       2.000000  2.000000  2.000000  2.000000  2.000000  2.000000
                       2.000000  2.000000  0.000000
                       2.000000  2.000000  2.000000  2.000000  2.000000  2.000000
                       2.000000  2.000000  2.000000  2.000000  2.000000  2.000000
                       2.000000  2.000000  0.000000
           occopt           7
          optcell           2
        pawecutdg      1.20000000E+01 Hartree
           prtden           0
           prteig           0
            prtwf           0
            rprim     -5.6124866147E+00  5.6124866147E+00  3.0235618126E+00
                       5.6124866147E+00 -5.6124866147E+00  3.0235618126E+00
                       5.6124866147E+00  5.6124866147E+00 -3.0235618126E+00
           shiftk      5.00000000E-01  5.00000000E-01  5.00000000E-01
          spgroup         141
           symrel      1  0  0   0  1  0   0  0  1       0  1  0   1  0  0  -1 -1 -1
                       0  0 -1   1  1  1   0 -1  0       1  1  1   0  0 -1  -1  0  0
                       0  0  1  -1 -1 -1   1  0  0      -1  0  0   0 -1  0   0  0 -1
                      -1 -1 -1   0  0  1   0  1  0       0 -1  0  -1  0  0   1  1  1
                       0 -1  0  -1  0  0   0  0 -1       0  0  1  -1 -1 -1   0  1  0
                      -1  0  0   0 -1  0   1  1  1      -1 -1 -1   0  0  1   1  0  0
                       0  0 -1   1  1  1  -1  0  0       1  1  1   0  0 -1   0 -1  0
                       0  1  0   1  0  0   0  0  1       1  0  0   0  1  0  -1 -1 -1
            tnons      0.0000000  0.0000000  0.0000000     0.0000000  0.0000000 -0.0000000
                      -0.2500000  0.2500000  0.5000000    -0.2500000  0.2500000  0.5000000
                      -0.2500000  0.2500000  0.5000000    -0.2500000  0.2500000  0.5000000
                      -0.2500000  0.2500000  0.5000000    -0.2500000  0.2500000  0.5000000
                       0.0000000  0.0000000  0.0000000     0.0000000  0.0000000 -0.0000000
                       0.0000000  0.0000000 -0.0000000     0.0000000  0.0000000  0.0000000
                       0.0000000  0.0000000 -0.0000000     0.0000000  0.0000000  0.0000000
                      -0.2500000  0.2500000  0.5000000    -0.2500000  0.2500000  0.5000000
           tolmxf      2.00000000E-07
           tolvrs      1.00000000E-12
           tsmear      1.00000000E-03 Hartree
            typat      1  1
           useylm           1
              wtk        0.11111    0.05556    0.22222    0.05556    0.11111    0.11111
                         0.22222    0.11111
           xangst      0.0000000000E+00  0.0000000000E+00  0.0000000000E+00
                       7.0133769277E-17  2.9700000000E+00  8.0000000000E-01
            xcart      0.0000000000E+00  0.0000000000E+00  0.0000000000E+00
                       1.3253361660E-16  5.6124866147E+00  1.5117809063E+00
             xred      0.0000000000E+00  0.0000000000E+00  0.0000000000E+00
                       7.5000000000E-01  2.5000000000E-01  5.0000000000E-01
            znucl       50.00000

================================================================================

 chkinp: Checking input parameters for consistency, jdtset=   1.

 chkinp: Checking input parameters for consistency, jdtset=   2.

================================================================================
== DATASET  1 ==================================================================
-   nproc =    1

 Exchange-correlation functional for the present dataset will be:
  GGA: Perdew-Burke-Ernzerhof functional - ixc=11
 Citation for XC functional:
  J.P.Perdew, K.Burke, M.Ernzerhof, PRL 77, 3865 (1996)

 Real(R)+Recip(G) space primitive vectors, cartesian coordinates (Bohr,Bohr^-1):
 R(1)= -5.6124866  5.6124866  3.0235618  G(1)=  0.0000000  0.0890871  0.1653679
 R(2)=  5.6124866 -5.6124866  3.0235618  G(2)=  0.0890871  0.0000000  0.1653679
 R(3)=  5.6124866  5.6124866 -3.0235618  G(3)=  0.0890871  0.0890871  0.0000000
 Unit cell volume ucvol=  3.8096886E+02 bohr^3
 Angles (23,13,12)=  9.72801743E+01  9.72801743E+01  1.38293029E+02 degrees

 Coarse grid specifications (used for wave-functions):

 getcut: wavevector=  0.0000  0.0000  0.0000  ngfft=  27  27  27
         ecut(hartree)=     10.890   => boxcut(ratio)=   2.06357

 Fine grid specifications (used for densities):

 getcut: wavevector=  0.0000  0.0000  0.0000  ngfft=  30  30  30
         ecut(hartree)=     14.520   => boxcut(ratio)=   2.05951

--- Pseudopotential description ------------------------------------------------
- pspini: atom type   1  psp file is /home/buildbot/bb/ABINIT/abiref_gnu_5.3_openmpi/gonze_8.0.3-public/tests/Psps_for_tests/50sn.paw
- pspatm: opening atomic psp file    /home/buildbot/bb/ABINIT/abiref_gnu_5.3_openmpi/gonze_8.0.3-public/tests/Psps_for_tests/50sn.paw
- Paw atomic data for element Sn - Generated by AtomPAW + AtomPAW2Abinit v3.2.0
- 50.00000  14.00000  20081122                znucl, zion, pspdat
    7   11    2    0      1505   0.00000      pspcod,pspxc,lmax,lloc,mmax,r2well
 Pseudopotential format is: paw4
 basis_size (lnmax)=  6 (lmn_size= 18), orbitals=   0   0   1   1   2   2
 Spheres core radius: rc_sph= 2.40000000
 4 radial meshes are used:
  - mesh 1: r(i)=AA*[exp(BB*(i-1))-1], size=1505 , AA= 0.13097E-03 BB= 0.65484E-02
  - mesh 2: r(i)=AA*[exp(BB*(i-1))-1], size=1521 , AA= 0.13097E-03 BB= 0.65484E-02
  - mesh 3: r(i)=AA*[exp(BB*(i-1))-1], size=1597 , AA= 0.13097E-03 BB= 0.65484E-02
  - mesh 4: r(i)=AA*[exp(BB*(i-1))-1], size=1718 , AA= 0.13097E-03 BB= 0.65484E-02
 Shapefunction is BESSEL type: shapef(r,l)=aa(1,l)*jl(q(1,l)*r)+aa(2,l)*jl(q(2,l)*r)
 Radius for shape functions = sphere core radius
 Radial grid used for partial waves is grid 1
 Radial grid used for projectors is grid  2
 Radial grid used for (t)core density is grid 3
 Radial grid used for Vloc is grid 4
 Radial grid used for pseudo valence density is grid 4
 Compensation charge density is taken into account in XC energy/potential
 pspatm: atomic psp has been read  and splines computed

   2.11742944E+03                                ecore*ucvol(ha*bohr**3)
--------------------------------------------------------------------------------

_setup2: Arith. and geom. avg. npw (full set) are     654.556     654.528

================================================================================

=== [ionmov= 2] Broyden-Fletcher-Goldfard-Shanno method (forces)            
================================================================================

--- Iteration: (1/5) Internal Cycle: (1/1)
--------------------------------------------------------------------------------

---SELF-CONSISTENT-FIELD CONVERGENCE--------------------------------------------

     iter   Etot(hartree)      deltaE(h)  residm     nres2
 ETOT  1  -138.78803448436    -1.388E+02 9.403E-02 1.873E+00
 ETOT  2  -138.81555358163    -2.752E-02 1.735E-03 7.739E-02
 ETOT  3  -138.81524627391     3.073E-04 8.074E-04 7.631E-03
 ETOT  4  -138.81522877830     1.750E-05 7.251E-05 9.126E-05
 ETOT  5  -138.81522919364    -4.153E-07 1.969E-05 1.807E-06
 ETOT  6  -138.81522915793     3.571E-08 8.376E-06 1.388E-07

 Cartesian components of stress tensor (hartree/bohr^3)
  sigma(1 1)=  3.73028087E-04  sigma(3 2)=  0.00000000E+00
  sigma(2 2)=  3.73028087E-04  sigma(3 1)=  0.00000000E+00
  sigma(3 3)=  2.14589358E-04  sigma(2 1)=  0.00000000E+00


 scprqt:  WARNING -
  nstep=    6 was not enough SCF cycles to converge;
  density residual=  1.388E-07 exceeds tolvrs=  1.000E-12

 Integrated electronic density in atomic spheres:
 ------------------------------------------------
 Atom  Sphere_radius  Integrated_density
    1        2.40000         11.63068250
    2        2.40000         11.62836149

 PAW TEST:
 ==== Compensation charge inside spheres ============
 The following values must be close to each other ...
 Compensation charge over spherical meshes =     10.997766629255946
 Compensation charge over fine fft grid    =     10.997647837676213

 ==== Results concerning PAW augmentation regions ====

 Total pseudopotential strength Dij (hartree):
 Atom #  1
   0.29966   0.63865   0.00000   0.00000   0.00000   0.00000   0.00000   0.00000   0.00000   0.00000  -0.00012   0.00000 ...
   0.63865   1.36228   0.00000   0.00000   0.00000   0.00000   0.00000   0.00000   0.00000   0.00000  -0.00024   0.00000 ...
   0.00000   0.00000   0.15882   0.00000   0.00000   0.21269   0.00000   0.00000   0.00000  -0.00002   0.00000   0.00000 ...
   0.00000   0.00000   0.00000   0.15877   0.00000   0.00000   0.21262   0.00000   0.00000   0.00000   0.00000   0.00000 ...
   0.00000   0.00000   0.00000   0.00000   0.15882   0.00000   0.00000   0.21269   0.00000   0.00000   0.00000   0.00002 ...
   0.00000   0.00000   0.21269   0.00000   0.00000   0.28435   0.00000   0.00000   0.00000  -0.00003   0.00000   0.00000 ...
   0.00000   0.00000   0.00000   0.21262   0.00000   0.00000   0.28426   0.00000   0.00000   0.00000   0.00000   0.00000 ...
   0.00000   0.00000   0.00000   0.00000   0.21269   0.00000   0.00000   0.28435   0.00000   0.00000   0.00000   0.00003 ...
   0.00000   0.00000   0.00000   0.00000   0.00000   0.00000   0.00000   0.00000  -1.02147   0.00000   0.00000   0.00000 ...
   0.00000   0.00000  -0.00002   0.00000   0.00000  -0.00003   0.00000   0.00000   0.00000  -1.02098   0.00000   0.00000 ...
  -0.00012  -0.00024   0.00000   0.00000   0.00000   0.00000   0.00000   0.00000   0.00000   0.00000  -1.02082   0.00000 ...
   0.00000   0.00000   0.00000   0.00000   0.00002   0.00000   0.00000   0.00003   0.00000   0.00000   0.00000  -1.02098 ...
   ...  only 12  components have been written...
 Atom #  2
   0.29966   0.63865   0.00000   0.00000   0.00000   0.00000   0.00000   0.00000   0.00000   0.00000  -0.00012   0.00000 ...
   0.63865   1.36228   0.00000   0.00000   0.00000   0.00000   0.00000   0.00000   0.00000   0.00000  -0.00024   0.00000 ...
   0.00000   0.00000   0.15882   0.00000   0.00000   0.21269   0.00000   0.00000   0.00000   0.00002   0.00000   0.00000 ...
   0.00000   0.00000   0.00000   0.15877   0.00000   0.00000   0.21262   0.00000   0.00000   0.00000   0.00000   0.00000 ...
   0.00000   0.00000   0.00000   0.00000   0.15882   0.00000   0.00000   0.21269   0.00000   0.00000   0.00000  -0.00002 ...
   0.00000   0.00000   0.21269   0.00000   0.00000   0.28435   0.00000   0.00000   0.00000   0.00003   0.00000   0.00000 ...
   0.00000   0.00000   0.00000   0.21262   0.00000   0.00000   0.28426   0.00000   0.00000   0.00000   0.00000   0.00000 ...
   0.00000   0.00000   0.00000   0.00000   0.21269   0.00000   0.00000   0.28435   0.00000   0.00000   0.00000  -0.00003 ...
   0.00000   0.00000   0.00000   0.00000   0.00000   0.00000   0.00000   0.00000  -1.02147   0.00000   0.00000   0.00000 ...
   0.00000   0.00000   0.00002   0.00000   0.00000   0.00003   0.00000   0.00000   0.00000  -1.02098   0.00000   0.00000 ...
  -0.00012  -0.00024   0.00000   0.00000   0.00000   0.00000   0.00000   0.00000   0.00000   0.00000  -1.02082   0.00000 ...
   0.00000   0.00000   0.00000   0.00000  -0.00002   0.00000   0.00000  -0.00003   0.00000   0.00000   0.00000  -1.02098 ...
   ...  only 12  components have been written...


 Augmentation waves occupancies Rhoij:
 Atom #  1
   1.38535   0.05015   0.00000   0.00000   0.00000   0.00000   0.00000   0.00000   0.00000   0.00000   0.00736   0.00000 ...
   0.05015   0.08660   0.00000   0.00000   0.00000   0.00000   0.00000   0.00000   0.00000   0.00000  -0.00394   0.00000 ...
   0.00000   0.00000   0.55409   0.00000   0.00000  -0.02304   0.00000   0.00000   0.00000  -0.01277   0.00000   0.00000 ...
   0.00000   0.00000   0.00000   0.60131   0.00000   0.00000   0.01712   0.00000   0.00000   0.00000   0.00000   0.00000 ...
   0.00000   0.00000   0.00000   0.00000   0.55409   0.00000   0.00000  -0.02304   0.00000   0.00000   0.00000   0.01277 ...
   0.00000   0.00000  -0.02304   0.00000   0.00000   0.14394   0.00000   0.00000   0.00000   0.00781   0.00000   0.00000 ...
   0.00000   0.00000   0.00000   0.01712   0.00000   0.00000   0.11206   0.00000   0.00000   0.00000   0.00000   0.00000 ...
   0.00000   0.00000   0.00000   0.00000  -0.02304   0.00000   0.00000   0.14394   0.00000   0.00000   0.00000  -0.00781 ...
   0.00000   0.00000   0.00000   0.00000   0.00000   0.00000   0.00000   0.00000   2.08676   0.00000   0.00000   0.00000 ...
   0.00000   0.00000  -0.01277   0.00000   0.00000   0.00781   0.00000   0.00000   0.00000   2.08602   0.00000   0.00000 ...
   0.00736  -0.00394   0.00000   0.00000   0.00000   0.00000   0.00000   0.00000   0.00000   0.00000   2.08523   0.00000 ...
   0.00000   0.00000   0.00000   0.00000   0.01277   0.00000   0.00000  -0.00781   0.00000   0.00000   0.00000   2.08602 ...
   ...  only 12  components have been written...
 Atom #  2
   1.38535   0.05015   0.00000   0.00000   0.00000   0.00000   0.00000   0.00000   0.00000   0.00000   0.00736   0.00000 ...
   0.05015   0.08660   0.00000   0.00000   0.00000   0.00000   0.00000   0.00000   0.00000   0.00000  -0.00394   0.00000 ...
   0.00000   0.00000   0.55409   0.00000   0.00000  -0.02304   0.00000   0.00000   0.00000   0.01277   0.00000   0.00000 ...
   0.00000   0.00000   0.00000   0.60131   0.00000   0.00000   0.01712   0.00000   0.00000   0.00000   0.00000   0.00000 ...
   0.00000   0.00000   0.00000   0.00000   0.55409   0.00000   0.00000  -0.02304   0.00000   0.00000   0.00000  -0.01277 ...
   0.00000   0.00000  -0.02304   0.00000   0.00000   0.14394   0.00000   0.00000   0.00000  -0.00781   0.00000   0.00000 ...
   0.00000   0.00000   0.00000   0.01712   0.00000   0.00000   0.11206   0.00000   0.00000   0.00000   0.00000   0.00000 ...
   0.00000   0.00000   0.00000   0.00000  -0.02304   0.00000   0.00000   0.14394   0.00000   0.00000   0.00000   0.00781 ...
   0.00000   0.00000   0.00000   0.00000   0.00000   0.00000   0.00000   0.00000   2.08676   0.00000   0.00000   0.00000 ...
   0.00000   0.00000   0.01277   0.00000   0.00000  -0.00781   0.00000   0.00000   0.00000   2.08602   0.00000   0.00000 ...
   0.00736  -0.00394   0.00000   0.00000   0.00000   0.00000   0.00000   0.00000   0.00000   0.00000   2.08523   0.00000 ...
   0.00000   0.00000   0.00000   0.00000  -0.01277   0.00000   0.00000   0.00781   0.00000   0.00000   0.00000   2.08602 ...
   ...  only 12  components have been written...



---OUTPUT-----------------------------------------------------------------------

 Cartesian coordinates (xcart) [bohr]
  0.00000000000000E+00  0.00000000000000E+00  0.00000000000000E+00
  1.32533616599686E-16  5.61248661467036E+00  1.51178090630852E+00
 Reduced coordinates (xred)
  0.00000000000000E+00  0.00000000000000E+00  0.00000000000000E+00
  7.50000000000000E-01  2.50000000000000E-01  5.00000000000000E-01
 Cartesian forces (fcart) [Ha/bohr]; max,rms= 1.06866E-27 6.60298E-28 (free atoms)
  2.98151480811746E-28 -2.77560229455743E-28 -1.06866486218403E-27
 -2.98151480811746E-28  2.77560229455743E-28  1.06866486218403E-27
 Reduced forces (fred)
  1.29246970711411E-26  0.00000000000000E+00  1.63136435199705E-27
  0.00000000000000E+00  0.00000000000000E+00  8.32484913279734E-27
 Scale of Primitive Cell (acell) [bohr]
  1.00000000000000E+00  1.00000000000000E+00  1.00000000000000E+00
 Real space primitive translations (rprimd) [bohr]
 -5.61248661467036E+00  5.61248661467036E+00  3.02356181261703E+00
  5.61248661467036E+00 -5.61248661467036E+00  3.02356181261703E+00
  5.61248661467036E+00  5.61248661467036E+00 -3.02356181261703E+00
 Unitary Cell Volume (ucvol) [Bohr^3]=  3.80968860953463E+02
 Angles (23,13,12)= [degrees]
  9.72801742588706E+01  9.72801742588706E+01  1.38293028761536E+02
 Lengths [Bohr]
  8.49364103517590E+00  8.49364103517590E+00  8.49364103517590E+00
 Stress tensor in cartesian coordinates (strten) [Ha/bohr^3]
  3.73028087419725E-04  0.00000000000000E+00  0.00000000000000E+00
  0.00000000000000E+00  3.73028087419729E-04  0.00000000000000E+00
  0.00000000000000E+00  0.00000000000000E+00  2.14589358066761E-04
 Total energy (etotal) [Ha]= -1.38815229157933E+02

--- Iteration: (2/5) Internal Cycle: (1/1)
--------------------------------------------------------------------------------

---SELF-CONSISTENT-FIELD CONVERGENCE--------------------------------------------

     iter   Etot(hartree)      deltaE(h)  residm     nres2
 ETOT  1  -138.82630903821    -1.388E+02 3.292E-04 4.743E-01
 ETOT  2  -138.81881806016     7.491E-03 2.708E-06 3.643E-02
 ETOT  3  -138.81803398226     7.841E-04 3.268E-06 5.235E-03
 ETOT  4  -138.81789656003     1.374E-04 3.218E-06 2.406E-04
 ETOT  5  -138.81789281422     3.746E-06 1.734E-07 2.402E-05
 ETOT  6  -138.81789299025    -1.760E-07 8.021E-08 5.901E-07

 Cartesian components of stress tensor (hartree/bohr^3)
  sigma(1 1)=  7.92879716E-05  sigma(3 2)=  0.00000000E+00
  sigma(2 2)=  7.92879716E-05  sigma(3 1)=  0.00000000E+00
  sigma(3 3)= -1.23808344E-04  sigma(2 1)=  0.00000000E+00


 scprqt:  WARNING -
  nstep=    6 was not enough SCF cycles to converge;
  density residual=  5.901E-07 exceeds tolvrs=  1.000E-12

 Integrated electronic density in atomic spheres:
 ------------------------------------------------
 Atom  Sphere_radius  Integrated_density
    1        2.40000         11.64811942
    2        2.40000         11.65289067

 PAW TEST:
 ==== Compensation charge inside spheres ============
 The following values must be close to each other ...
 Compensation charge over spherical meshes =     10.998104701673926
 Compensation charge over fine fft grid    =     10.998007911401629

 ==== Results concerning PAW augmentation regions ====

 Total pseudopotential strength Dij (hartree):
 Atom #  1
   0.29967   0.63860   0.00000   0.00000   0.00000   0.00000   0.00000   0.00000   0.00000   0.00000  -0.00011   0.00000 ...
   0.63860   1.36203   0.00000   0.00000   0.00000   0.00000   0.00000   0.00000   0.00000   0.00000  -0.00022   0.00000 ...
   0.00000   0.00000   0.15877   0.00000   0.00000   0.21265   0.00000   0.00000   0.00000  -0.00002   0.00000   0.00000 ...
   0.00000   0.00000   0.00000   0.15871   0.00000   0.00000   0.21258   0.00000   0.00000   0.00000   0.00000   0.00000 ...
   0.00000   0.00000   0.00000   0.00000   0.15877   0.00000   0.00000   0.21265   0.00000   0.00000   0.00000   0.00002 ...
   0.00000   0.00000   0.21265   0.00000   0.00000   0.28435   0.00000   0.00000   0.00000  -0.00003   0.00000   0.00000 ...
   0.00000   0.00000   0.00000   0.21258   0.00000   0.00000   0.28426   0.00000   0.00000   0.00000   0.00000   0.00000 ...
   0.00000   0.00000   0.00000   0.00000   0.21265   0.00000   0.00000   0.28435   0.00000   0.00000   0.00000   0.00003 ...
   0.00000   0.00000   0.00000   0.00000   0.00000   0.00000   0.00000   0.00000  -1.01513   0.00000   0.00000   0.00000 ...
   0.00000   0.00000  -0.00002   0.00000   0.00000  -0.00003   0.00000   0.00000   0.00000  -1.01468   0.00000   0.00000 ...
  -0.00011  -0.00022   0.00000   0.00000   0.00000   0.00000   0.00000   0.00000   0.00000   0.00000  -1.01452   0.00000 ...
   0.00000   0.00000   0.00000   0.00000   0.00002   0.00000   0.00000   0.00003   0.00000   0.00000   0.00000  -1.01468 ...
   ...  only 12  components have been written...
 Atom #  2
   0.29967   0.63860   0.00000   0.00000   0.00000   0.00000   0.00000   0.00000   0.00000   0.00000  -0.00011   0.00000 ...
   0.63860   1.36203   0.00000   0.00000   0.00000   0.00000   0.00000   0.00000   0.00000   0.00000  -0.00022   0.00000 ...
   0.00000   0.00000   0.15877   0.00000   0.00000   0.21265   0.00000   0.00000   0.00000   0.00002   0.00000   0.00000 ...
   0.00000   0.00000   0.00000   0.15871   0.00000   0.00000   0.21258   0.00000   0.00000   0.00000   0.00000   0.00000 ...
   0.00000   0.00000   0.00000   0.00000   0.15877   0.00000   0.00000   0.21265   0.00000   0.00000   0.00000  -0.00002 ...
   0.00000   0.00000   0.21265   0.00000   0.00000   0.28435   0.00000   0.00000   0.00000   0.00003   0.00000   0.00000 ...
   0.00000   0.00000   0.00000   0.21258   0.00000   0.00000   0.28426   0.00000   0.00000   0.00000   0.00000   0.00000 ...
   0.00000   0.00000   0.00000   0.00000   0.21265   0.00000   0.00000   0.28435   0.00000   0.00000   0.00000  -0.00003 ...
   0.00000   0.00000   0.00000   0.00000   0.00000   0.00000   0.00000   0.00000  -1.01513   0.00000   0.00000   0.00000 ...
   0.00000   0.00000   0.00002   0.00000   0.00000   0.00003   0.00000   0.00000   0.00000  -1.01468   0.00000   0.00000 ...
  -0.00011  -0.00022   0.00000   0.00000   0.00000   0.00000   0.00000   0.00000   0.00000   0.00000  -1.01452   0.00000 ...
   0.00000   0.00000   0.00000   0.00000  -0.00002   0.00000   0.00000  -0.00003   0.00000   0.00000   0.00000  -1.01468 ...
   ...  only 12  components have been written...


 Augmentation waves occupancies Rhoij:
 Atom #  1
   1.41648   0.03804   0.00000   0.00000   0.00000   0.00000   0.00000   0.00000   0.00000   0.00000   0.00541   0.00000 ...
   0.03804   0.08925   0.00000   0.00000   0.00000   0.00000   0.00000   0.00000   0.00000   0.00000  -0.00298   0.00000 ...
   0.00000   0.00000   0.56086   0.00000   0.00000  -0.02618   0.00000   0.00000   0.00000  -0.01312   0.00000   0.00000 ...
   0.00000   0.00000   0.00000   0.61319   0.00000   0.00000   0.00628   0.00000   0.00000   0.00000   0.00000   0.00000 ...
   0.00000   0.00000   0.00000   0.00000   0.56086   0.00000   0.00000  -0.02618   0.00000   0.00000   0.00000   0.01312 ...
   0.00000   0.00000  -0.02618   0.00000   0.00000   0.15468   0.00000   0.00000   0.00000   0.00799   0.00000   0.00000 ...
   0.00000   0.00000   0.00000   0.00628   0.00000   0.00000   0.12660   0.00000   0.00000   0.00000   0.00000   0.00000 ...
   0.00000   0.00000   0.00000   0.00000  -0.02618   0.00000   0.00000   0.15468   0.00000   0.00000   0.00000  -0.00799 ...
   0.00000   0.00000   0.00000   0.00000   0.00000   0.00000   0.00000   0.00000   2.08670   0.00000   0.00000   0.00000 ...
   0.00000   0.00000  -0.01312   0.00000   0.00000   0.00799   0.00000   0.00000   0.00000   2.08608   0.00000   0.00000 ...
   0.00541  -0.00298   0.00000   0.00000   0.00000   0.00000   0.00000   0.00000   0.00000   0.00000   2.08489   0.00000 ...
   0.00000   0.00000   0.00000   0.00000   0.01312   0.00000   0.00000  -0.00799   0.00000   0.00000   0.00000   2.08608 ...
   ...  only 12  components have been written...
 Atom #  2
   1.41648   0.03804   0.00000   0.00000   0.00000   0.00000   0.00000   0.00000   0.00000   0.00000   0.00541   0.00000 ...
   0.03804   0.08925   0.00000   0.00000   0.00000   0.00000   0.00000   0.00000   0.00000   0.00000  -0.00298   0.00000 ...
   0.00000   0.00000   0.56086   0.00000   0.00000  -0.02618   0.00000   0.00000   0.00000   0.01312   0.00000   0.00000 ...
   0.00000   0.00000   0.00000   0.61319   0.00000   0.00000   0.00628   0.00000   0.00000   0.00000   0.00000   0.00000 ...
   0.00000   0.00000   0.00000   0.00000   0.56086   0.00000   0.00000  -0.02618   0.00000   0.00000   0.00000  -0.01312 ...
   0.00000   0.00000  -0.02618   0.00000   0.00000   0.15468   0.00000   0.00000   0.00000  -0.00799   0.00000   0.00000 ...
   0.00000   0.00000   0.00000   0.00628   0.00000   0.00000   0.12660   0.00000   0.00000   0.00000   0.00000   0.00000 ...
   0.00000   0.00000   0.00000   0.00000  -0.02618   0.00000   0.00000   0.15468   0.00000   0.00000   0.00000   0.00799 ...
   0.00000   0.00000   0.00000   0.00000   0.00000   0.00000   0.00000   0.00000   2.08670   0.00000   0.00000   0.00000 ...
   0.00000   0.00000   0.01312   0.00000   0.00000  -0.00799   0.00000   0.00000   0.00000   2.08608   0.00000   0.00000 ...
   0.00541  -0.00298   0.00000   0.00000   0.00000   0.00000   0.00000   0.00000   0.00000   0.00000   2.08489   0.00000 ...
   0.00000   0.00000   0.00000   0.00000  -0.01312   0.00000   0.00000   0.00799   0.00000   0.00000   0.00000   2.08608 ...
   ...  only 12  components have been written...



---OUTPUT-----------------------------------------------------------------------

 Cartesian coordinates (xcart) [bohr]
  2.94814914512289E-28 -2.74454096609613E-28 -1.06178513898109E-27
  1.91237702561219E-15  5.54967816024418E+00  1.50204854348184E+00
 Reduced coordinates (xred)
 -2.01449868403620E-28 -1.50161397731579E-28  1.83441429527686E-30
  7.50000000000000E-01  2.50000000000000E-01  5.00000000000000E-01
 Cartesian forces (fcart) [Ha/bohr]; max,rms= 3.53587E-29 2.88702E-29 (free atoms)
  3.53586540530294E-29  3.53586540530294E-29 -9.26821431102149E-46
 -3.53586540530294E-29 -3.53586540530294E-29  9.26821431102149E-46
 Reduced forces (fred)
  0.00000000000000E+00  0.00000000000000E+00 -5.31692250118962E-28
  0.00000000000000E+00  0.00000000000000E+00  2.53224350575945E-28
 Scale of Primitive Cell (acell) [bohr]
  8.40371671776757E+00  8.40371671776757E+00  8.40371671776758E+00
 Real space primitive translations (rprimd) [bohr]
 -5.54967816024418E+00  5.54967816024418E+00  3.00409708696369E+00
  5.54967816024418E+00 -5.54967816024418E+00  3.00409708696369E+00
  5.54967816024418E+00  5.54967816024418E+00 -3.00409708696369E+00
 Unitary Cell Volume (ucvol) [Bohr^3]=  3.70091875727906E+02
 Angles (23,13,12)= [degrees]
  9.73417037316155E+01  9.73417037316155E+01  1.38109898852665E+02
 Lengths [Bohr]
  8.40371671776757E+00  8.40371671776757E+00  8.40371671776758E+00
 Stress tensor in cartesian coordinates (strten) [Ha/bohr^3]
  7.92879716150028E-05  0.00000000000000E+00  0.00000000000000E+00
  0.00000000000000E+00  7.92879716150011E-05  0.00000000000000E+00
  0.00000000000000E+00  0.00000000000000E+00 -1.23808343571332E-04
 Total energy (etotal) [Ha]= -1.38817892990246E+02

 Difference of energy with previous step (new-old):
           Absolute (Ha)=-2.66383E-03
           Relative     =-1.91896E-05

--- Iteration: (3/5) Internal Cycle: (1/1)
--------------------------------------------------------------------------------

---SELF-CONSISTENT-FIELD CONVERGENCE--------------------------------------------

     iter   Etot(hartree)      deltaE(h)  residm     nres2
 ETOT  1  -138.81865211884    -1.388E+02 3.453E-05 3.214E-02
 ETOT  2  -138.81818367149     4.684E-04 7.612E-08 3.172E-03
 ETOT  3  -138.81812735769     5.631E-05 1.347E-06 9.501E-05
 ETOT  4  -138.81812569012     1.668E-06 7.978E-08 5.222E-06
 ETOT  5  -138.81812564732     4.280E-08 1.020E-08 6.242E-07
 ETOT  6  -138.81812564284     4.482E-09 7.378E-09 8.461E-09

 Cartesian components of stress tensor (hartree/bohr^3)
  sigma(1 1)= -1.09066265E-05  sigma(3 2)=  0.00000000E+00
  sigma(2 2)= -1.09066265E-05  sigma(3 1)=  0.00000000E+00
  sigma(3 3)= -6.71242643E-05  sigma(2 1)=  0.00000000E+00


 scprqt:  WARNING -
  nstep=    6 was not enough SCF cycles to converge;
  density residual=  8.461E-09 exceeds tolvrs=  1.000E-12

 Integrated electronic density in atomic spheres:
 ------------------------------------------------
 Atom  Sphere_radius  Integrated_density
    1        2.40000         11.65295864
    2        2.40000         11.64098254

 PAW TEST:
 ==== Compensation charge inside spheres ============
 The following values must be close to each other ...
 Compensation charge over spherical meshes =     10.997966229976159
 Compensation charge over fine fft grid    =     10.997983687241577

 ==== Results concerning PAW augmentation regions ====

 Total pseudopotential strength Dij (hartree):
 Atom #  1
   0.29967   0.63860   0.00000   0.00000   0.00000   0.00000   0.00000   0.00000   0.00000   0.00000  -0.00010   0.00000 ...
   0.63860   1.36199   0.00000   0.00000   0.00000   0.00000   0.00000   0.00000   0.00000   0.00000  -0.00020   0.00000 ...
   0.00000   0.00000   0.15876   0.00000   0.00000   0.21265   0.00000   0.00000   0.00000  -0.00002   0.00000   0.00000 ...
   0.00000   0.00000   0.00000   0.15871   0.00000   0.00000   0.21258   0.00000   0.00000   0.00000   0.00000   0.00000 ...
   0.00000   0.00000   0.00000   0.00000   0.15876   0.00000   0.00000   0.21265   0.00000   0.00000   0.00000   0.00002 ...
   0.00000   0.00000   0.21265   0.00000   0.00000   0.28435   0.00000   0.00000   0.00000  -0.00003   0.00000   0.00000 ...
   0.00000   0.00000   0.00000   0.21258   0.00000   0.00000   0.28427   0.00000   0.00000   0.00000   0.00000   0.00000 ...
   0.00000   0.00000   0.00000   0.00000   0.21265   0.00000   0.00000   0.28435   0.00000   0.00000   0.00000   0.00003 ...
   0.00000   0.00000   0.00000   0.00000   0.00000   0.00000   0.00000   0.00000  -1.01433   0.00000   0.00000   0.00000 ...
   0.00000   0.00000  -0.00002   0.00000   0.00000  -0.00003   0.00000   0.00000   0.00000  -1.01391   0.00000   0.00000 ...
  -0.00010  -0.00020   0.00000   0.00000   0.00000   0.00000   0.00000   0.00000   0.00000   0.00000  -1.01377   0.00000 ...
   0.00000   0.00000   0.00000   0.00000   0.00002   0.00000   0.00000   0.00003   0.00000   0.00000   0.00000  -1.01391 ...
   ...  only 12  components have been written...
 Atom #  2
   0.29967   0.63860   0.00000   0.00000   0.00000   0.00000   0.00000   0.00000   0.00000   0.00000  -0.00010   0.00000 ...
   0.63860   1.36199   0.00000   0.00000   0.00000   0.00000   0.00000   0.00000   0.00000   0.00000  -0.00020   0.00000 ...
   0.00000   0.00000   0.15876   0.00000   0.00000   0.21265   0.00000   0.00000   0.00000   0.00002   0.00000   0.00000 ...
   0.00000   0.00000   0.00000   0.15871   0.00000   0.00000   0.21258   0.00000   0.00000   0.00000   0.00000   0.00000 ...
   0.00000   0.00000   0.00000   0.00000   0.15876   0.00000   0.00000   0.21265   0.00000   0.00000   0.00000  -0.00002 ...
   0.00000   0.00000   0.21265   0.00000   0.00000   0.28435   0.00000   0.00000   0.00000   0.00003   0.00000   0.00000 ...
   0.00000   0.00000   0.00000   0.21258   0.00000   0.00000   0.28427   0.00000   0.00000   0.00000   0.00000   0.00000 ...
   0.00000   0.00000   0.00000   0.00000   0.21265   0.00000   0.00000   0.28435   0.00000   0.00000   0.00000  -0.00003 ...
   0.00000   0.00000   0.00000   0.00000   0.00000   0.00000   0.00000   0.00000  -1.01433   0.00000   0.00000   0.00000 ...
   0.00000   0.00000   0.00002   0.00000   0.00000   0.00003   0.00000   0.00000   0.00000  -1.01391   0.00000   0.00000 ...
  -0.00010  -0.00020   0.00000   0.00000   0.00000   0.00000   0.00000   0.00000   0.00000   0.00000  -1.01377   0.00000 ...
   0.00000   0.00000   0.00000   0.00000  -0.00002   0.00000   0.00000  -0.00003   0.00000   0.00000   0.00000  -1.01391 ...
   ...  only 12  components have been written...


 Augmentation waves occupancies Rhoij:
 Atom #  1
   1.42019   0.03625   0.00000   0.00000   0.00000   0.00000   0.00000   0.00000   0.00000   0.00000   0.00424   0.00000 ...
   0.03625   0.08993   0.00000   0.00000   0.00000   0.00000   0.00000   0.00000   0.00000   0.00000  -0.00237   0.00000 ...
   0.00000   0.00000   0.56426   0.00000   0.00000  -0.02612   0.00000   0.00000   0.00000  -0.01316   0.00000   0.00000 ...
   0.00000   0.00000   0.00000   0.59982   0.00000   0.00000   0.01156   0.00000   0.00000   0.00000   0.00000   0.00000 ...
   0.00000   0.00000   0.00000   0.00000   0.56426   0.00000   0.00000  -0.02612   0.00000   0.00000   0.00000   0.01316 ...
   0.00000   0.00000  -0.02612   0.00000   0.00000   0.15643   0.00000   0.00000   0.00000   0.00799   0.00000   0.00000 ...
   0.00000   0.00000   0.00000   0.01156   0.00000   0.00000   0.12228   0.00000   0.00000   0.00000   0.00000   0.00000 ...
   0.00000   0.00000   0.00000   0.00000  -0.02612   0.00000   0.00000   0.15643   0.00000   0.00000   0.00000  -0.00799 ...
   0.00000   0.00000   0.00000   0.00000   0.00000   0.00000   0.00000   0.00000   2.08679   0.00000   0.00000   0.00000 ...
   0.00000   0.00000  -0.01316   0.00000   0.00000   0.00799   0.00000   0.00000   0.00000   2.08609   0.00000   0.00000 ...
   0.00424  -0.00237   0.00000   0.00000   0.00000   0.00000   0.00000   0.00000   0.00000   0.00000   2.08493   0.00000 ...
   0.00000   0.00000   0.00000   0.00000   0.01316   0.00000   0.00000  -0.00799   0.00000   0.00000   0.00000   2.08609 ...
   ...  only 12  components have been written...
 Atom #  2
   1.42019   0.03625   0.00000   0.00000   0.00000   0.00000   0.00000   0.00000   0.00000   0.00000   0.00424   0.00000 ...
   0.03625   0.08993   0.00000   0.00000   0.00000   0.00000   0.00000   0.00000   0.00000   0.00000  -0.00237   0.00000 ...
   0.00000   0.00000   0.56426   0.00000   0.00000  -0.02612   0.00000   0.00000   0.00000   0.01316   0.00000   0.00000 ...
   0.00000   0.00000   0.00000   0.59982   0.00000   0.00000   0.01156   0.00000   0.00000   0.00000   0.00000   0.00000 ...
   0.00000   0.00000   0.00000   0.00000   0.56426   0.00000   0.00000  -0.02612   0.00000   0.00000   0.00000  -0.01316 ...
   0.00000   0.00000  -0.02612   0.00000   0.00000   0.15643   0.00000   0.00000   0.00000  -0.00799   0.00000   0.00000 ...
   0.00000   0.00000   0.00000   0.01156   0.00000   0.00000   0.12228   0.00000   0.00000   0.00000   0.00000   0.00000 ...
   0.00000   0.00000   0.00000   0.00000  -0.02612   0.00000   0.00000   0.15643   0.00000   0.00000   0.00000   0.00799 ...
   0.00000   0.00000   0.00000   0.00000   0.00000   0.00000   0.00000   0.00000   2.08679   0.00000   0.00000   0.00000 ...
   0.00000   0.00000   0.01316   0.00000   0.00000  -0.00799   0.00000   0.00000   0.00000   2.08609   0.00000   0.00000 ...
   0.00424  -0.00237   0.00000   0.00000   0.00000   0.00000   0.00000   0.00000   0.00000   0.00000   2.08493   0.00000 ...
   0.00000   0.00000   0.00000   0.00000  -0.01316   0.00000   0.00000   0.00799   0.00000   0.00000   0.00000   2.08609 ...
   ...  only 12  components have been written...



---OUTPUT-----------------------------------------------------------------------

 Cartesian coordinates (xcart) [bohr]
  3.57780208307174E-28 -2.59360609913093E-28 -1.15920669274211E-27
  1.02530318444844E-15  5.52977984230490E+00  1.50723690710033E+00
 Reduced coordinates (xred)
 -2.15724731977943E-28 -1.59923159779815E-28  8.89905215042505E-30
  7.50000000000000E-01  2.50000000000000E-01  5.00000000000000E-01
 Cartesian forces (fcart) [Ha/bohr]; max,rms= 1.42300E-29 1.16188E-29 (free atoms)
  1.42300195558956E-29  1.42300195558956E-29 -1.69039592212458E-46
 -1.42300195558956E-29 -1.42300195558956E-29  1.69039592212458E-46
 Reduced forces (fred)
  0.00000000000000E+00  0.00000000000000E+00 -3.21855249330173E-28
  0.00000000000000E+00  0.00000000000000E+00 -7.09974814698911E-30
 Scale of Primitive Cell (acell) [bohr]
  8.38116833056255E+00  8.38116833056255E+00  8.38116833056256E+00
 Real space primitive translations (rprimd) [bohr]
 -5.52977984230490E+00  5.52977984230490E+00  3.01447381420067E+00
  5.52977984230490E+00 -5.52977984230490E+00  3.01447381420067E+00
  5.52977984230490E+00  5.52977984230490E+00 -3.01447381420067E+00
 Unitary Cell Volume (ucvol) [Bohr^3]=  3.68711929342187E+02
 Angles (23,13,12)= [degrees]
  9.74328499380643E+01  9.74328499380643E+01  1.37839859615622E+02
 Lengths [Bohr]
  8.38116833056255E+00  8.38116833056255E+00  8.38116833056256E+00
 Stress tensor in cartesian coordinates (strten) [Ha/bohr^3]
 -1.09066264968819E-05  0.00000000000000E+00  0.00000000000000E+00
  0.00000000000000E+00 -1.09066264968802E-05  0.00000000000000E+00
  0.00000000000000E+00  0.00000000000000E+00 -6.71242643242691E-05
 Total energy (etotal) [Ha]= -1.38818125642838E+02

 Difference of energy with previous step (new-old):
           Absolute (Ha)=-2.32653E-04
           Relative     =-1.67595E-06

--- Iteration: (4/5) Internal Cycle: (1/1)
--------------------------------------------------------------------------------

---SELF-CONSISTENT-FIELD CONVERGENCE--------------------------------------------

     iter   Etot(hartree)      deltaE(h)  residm     nres2
 ETOT  1  -138.81822676632    -1.388E+02 1.144E-06 4.841E-03
 ETOT  2  -138.81815467287     7.209E-05 9.601E-08 4.554E-04
 ETOT  3  -138.81814631545     8.357E-06 1.370E-07 2.808E-05
 ETOT  4  -138.81814573052     5.849E-07 7.424E-08 1.699E-06
 ETOT  5  -138.81814571769     1.283E-08 6.257E-10 2.329E-07
 ETOT  6  -138.81814571805    -3.602E-10 9.416E-10 3.793E-09

 Cartesian components of stress tensor (hartree/bohr^3)
  sigma(1 1)=  7.04464065E-06  sigma(3 2)=  0.00000000E+00
  sigma(2 2)=  7.04464065E-06  sigma(3 1)=  0.00000000E+00
  sigma(3 3)=  1.83875018E-05  sigma(2 1)=  0.00000000E+00


 scprqt:  WARNING -
  nstep=    6 was not enough SCF cycles to converge;
  density residual=  3.793E-09 exceeds tolvrs=  1.000E-12

 Integrated electronic density in atomic spheres:
 ------------------------------------------------
 Atom  Sphere_radius  Integrated_density
    1        2.40000         11.65551104
    2        2.40000         11.64359365

 PAW TEST:
 ==== Compensation charge inside spheres ============
 The following values must be close to each other ...
 Compensation charge over spherical meshes =     10.997991271508987
 Compensation charge over fine fft grid    =     10.998022425172797

 ==== Results concerning PAW augmentation regions ====

 Total pseudopotential strength Dij (hartree):
 Atom #  1
   0.29967   0.63860   0.00000   0.00000   0.00000   0.00000   0.00000   0.00000   0.00000   0.00000  -0.00009   0.00000 ...
   0.63860   1.36202   0.00000   0.00000   0.00000   0.00000   0.00000   0.00000   0.00000   0.00000  -0.00019   0.00000 ...
   0.00000   0.00000   0.15876   0.00000   0.00000   0.21265   0.00000   0.00000   0.00000  -0.00002   0.00000   0.00000 ...
   0.00000   0.00000   0.00000   0.15872   0.00000   0.00000   0.21259   0.00000   0.00000   0.00000   0.00000   0.00000 ...
   0.00000   0.00000   0.00000   0.00000   0.15876   0.00000   0.00000   0.21265   0.00000   0.00000   0.00000   0.00002 ...
   0.00000   0.00000   0.21265   0.00000   0.00000   0.28435   0.00000   0.00000   0.00000  -0.00003   0.00000   0.00000 ...
   0.00000   0.00000   0.00000   0.21259   0.00000   0.00000   0.28427   0.00000   0.00000   0.00000   0.00000   0.00000 ...
   0.00000   0.00000   0.00000   0.00000   0.21265   0.00000   0.00000   0.28435   0.00000   0.00000   0.00000   0.00003 ...
   0.00000   0.00000   0.00000   0.00000   0.00000   0.00000   0.00000   0.00000  -1.01475   0.00000   0.00000   0.00000 ...
   0.00000   0.00000  -0.00002   0.00000   0.00000  -0.00003   0.00000   0.00000   0.00000  -1.01435   0.00000   0.00000 ...
  -0.00009  -0.00019   0.00000   0.00000   0.00000   0.00000   0.00000   0.00000   0.00000   0.00000  -1.01421   0.00000 ...
   0.00000   0.00000   0.00000   0.00000   0.00002   0.00000   0.00000   0.00003   0.00000   0.00000   0.00000  -1.01435 ...
   ...  only 12  components have been written...
 Atom #  2
   0.29967   0.63860   0.00000   0.00000   0.00000   0.00000   0.00000   0.00000   0.00000   0.00000  -0.00009   0.00000 ...
   0.63860   1.36202   0.00000   0.00000   0.00000   0.00000   0.00000   0.00000   0.00000   0.00000  -0.00019   0.00000 ...
   0.00000   0.00000   0.15876   0.00000   0.00000   0.21265   0.00000   0.00000   0.00000   0.00002   0.00000   0.00000 ...
   0.00000   0.00000   0.00000   0.15872   0.00000   0.00000   0.21259   0.00000   0.00000   0.00000   0.00000   0.00000 ...
   0.00000   0.00000   0.00000   0.00000   0.15876   0.00000   0.00000   0.21265   0.00000   0.00000   0.00000  -0.00002 ...
   0.00000   0.00000   0.21265   0.00000   0.00000   0.28435   0.00000   0.00000   0.00000   0.00003   0.00000   0.00000 ...
   0.00000   0.00000   0.00000   0.21259   0.00000   0.00000   0.28427   0.00000   0.00000   0.00000   0.00000   0.00000 ...
   0.00000   0.00000   0.00000   0.00000   0.21265   0.00000   0.00000   0.28435   0.00000   0.00000   0.00000  -0.00003 ...
   0.00000   0.00000   0.00000   0.00000   0.00000   0.00000   0.00000   0.00000  -1.01475   0.00000   0.00000   0.00000 ...
   0.00000   0.00000   0.00002   0.00000   0.00000   0.00003   0.00000   0.00000   0.00000  -1.01435   0.00000   0.00000 ...
  -0.00009  -0.00019   0.00000   0.00000   0.00000   0.00000   0.00000   0.00000   0.00000   0.00000  -1.01421   0.00000 ...
   0.00000   0.00000   0.00000   0.00000  -0.00002   0.00000   0.00000  -0.00003   0.00000   0.00000   0.00000  -1.01435 ...
   ...  only 12  components have been written...


 Augmentation waves occupancies Rhoij:
 Atom #  1
   1.41819   0.03701   0.00000   0.00000   0.00000   0.00000   0.00000   0.00000   0.00000   0.00000   0.00384   0.00000 ...
   0.03701   0.08978   0.00000   0.00000   0.00000   0.00000   0.00000   0.00000   0.00000   0.00000  -0.00216   0.00000 ...
   0.00000   0.00000   0.56586   0.00000   0.00000  -0.02653   0.00000   0.00000   0.00000  -0.01319   0.00000   0.00000 ...
   0.00000   0.00000   0.00000   0.59278   0.00000   0.00000   0.01496   0.00000   0.00000   0.00000   0.00000   0.00000 ...
   0.00000   0.00000   0.00000   0.00000   0.56586   0.00000   0.00000  -0.02653   0.00000   0.00000   0.00000   0.01319 ...
   0.00000   0.00000  -0.02653   0.00000   0.00000   0.15647   0.00000   0.00000   0.00000   0.00801   0.00000   0.00000 ...
   0.00000   0.00000   0.00000   0.01496   0.00000   0.00000   0.11890   0.00000   0.00000   0.00000   0.00000   0.00000 ...
   0.00000   0.00000   0.00000   0.00000  -0.02653   0.00000   0.00000   0.15647   0.00000   0.00000   0.00000  -0.00801 ...
   0.00000   0.00000   0.00000   0.00000   0.00000   0.00000   0.00000   0.00000   2.08680   0.00000   0.00000   0.00000 ...
   0.00000   0.00000  -0.01319   0.00000   0.00000   0.00801   0.00000   0.00000   0.00000   2.08606   0.00000   0.00000 ...
   0.00384  -0.00216   0.00000   0.00000   0.00000   0.00000   0.00000   0.00000   0.00000   0.00000   2.08498   0.00000 ...
   0.00000   0.00000   0.00000   0.00000   0.01319   0.00000   0.00000  -0.00801   0.00000   0.00000   0.00000   2.08606 ...
   ...  only 12  components have been written...
 Atom #  2
   1.41819   0.03701   0.00000   0.00000   0.00000   0.00000   0.00000   0.00000   0.00000   0.00000   0.00384   0.00000 ...
   0.03701   0.08978   0.00000   0.00000   0.00000   0.00000   0.00000   0.00000   0.00000   0.00000  -0.00216   0.00000 ...
   0.00000   0.00000   0.56586   0.00000   0.00000  -0.02653   0.00000   0.00000   0.00000   0.01319   0.00000   0.00000 ...
   0.00000   0.00000   0.00000   0.59278   0.00000   0.00000   0.01496   0.00000   0.00000   0.00000   0.00000   0.00000 ...
   0.00000   0.00000   0.00000   0.00000   0.56586   0.00000   0.00000  -0.02653   0.00000   0.00000   0.00000  -0.01319 ...
   0.00000   0.00000  -0.02653   0.00000   0.00000   0.15647   0.00000   0.00000   0.00000  -0.00801   0.00000   0.00000 ...
   0.00000   0.00000   0.00000   0.01496   0.00000   0.00000   0.11890   0.00000   0.00000   0.00000   0.00000   0.00000 ...
   0.00000   0.00000   0.00000   0.00000  -0.02653   0.00000   0.00000   0.15647   0.00000   0.00000   0.00000   0.00801 ...
   0.00000   0.00000   0.00000   0.00000   0.00000   0.00000   0.00000   0.00000   2.08680   0.00000   0.00000   0.00000 ...
   0.00000   0.00000   0.01319   0.00000   0.00000  -0.00801   0.00000   0.00000   0.00000   2.08606   0.00000   0.00000 ...
   0.00384  -0.00216   0.00000   0.00000   0.00000   0.00000   0.00000   0.00000   0.00000   0.00000   2.08498   0.00000 ...
   0.00000   0.00000   0.00000   0.00000  -0.01319   0.00000   0.00000   0.00801   0.00000   0.00000   0.00000   2.08606 ...
   ...  only 12  components have been written...



---OUTPUT-----------------------------------------------------------------------

 Cartesian coordinates (xcart) [bohr]
  3.86484542204245E-28 -2.51614457755525E-28 -1.20142305776799E-27
 -1.63918756575692E-15  5.52897804133293E+00  1.51060123295042E+00
 Reduced coordinates (xred)
 -2.21586089862945E-28 -1.63881122038011E-28  1.21966558232347E-29
  7.50000000000000E-01  2.50000000000000E-01  5.00000000000000E-01
 Cartesian forces (fcart) [Ha/bohr]; max,rms= 1.57659E-29 1.21631E-29 (free atoms)
 -1.12001857480556E-29 -1.57658665625496E-29 -8.35546417427717E-30
  1.12001857480556E-29  1.57658665625496E-29  8.35546417427717E-30
 Reduced forces (fred)
  1.00974195868290E-28  0.00000000000000E+00  1.70393955527739E-28
  0.00000000000000E+00  0.00000000000000E+00 -7.73083687116592E-29
 Scale of Primitive Cell (acell) [bohr]
  8.38253307199255E+00  8.38253307199255E+00  8.38253307199254E+00
 Real space primitive translations (rprimd) [bohr]
 -5.52897804133293E+00  5.52897804133293E+00  3.02120246590085E+00
  5.52897804133293E+00 -5.52897804133293E+00  3.02120246590085E+00
  5.52897804133293E+00  5.52897804133293E+00 -3.02120246590085E+00
 Unitary Cell Volume (ucvol) [Bohr^3]=  3.69427781630687E+02
 Angles (23,13,12)= [degrees]
  9.74638130276498E+01  9.74638130276498E+01  1.37748457386845E+02
 Lengths [Bohr]
  8.38253307199255E+00  8.38253307199255E+00  8.38253307199254E+00
 Stress tensor in cartesian coordinates (strten) [Ha/bohr^3]
  7.04464065191639E-06  0.00000000000000E+00  0.00000000000000E+00
  0.00000000000000E+00  7.04464065191465E-06  0.00000000000000E+00
  0.00000000000000E+00  0.00000000000000E+00  1.83875018296246E-05
 Total energy (etotal) [Ha]= -1.38818145718051E+02

 Difference of energy with previous step (new-old):
           Absolute (Ha)=-2.00752E-05
           Relative     =-1.44615E-07

--- Iteration: (5/5) Internal Cycle: (1/1)
--------------------------------------------------------------------------------

---SELF-CONSISTENT-FIELD CONVERGENCE--------------------------------------------

     iter   Etot(hartree)      deltaE(h)  residm     nres2
 ETOT  1  -138.81815175504    -1.388E+02 3.765E-08 2.478E-04
 ETOT  2  -138.81814796278     3.792E-06 3.087E-09 2.058E-05
 ETOT  3  -138.81814755365     4.091E-07 2.965E-09 2.344E-06
 ETOT  4  -138.81814749689     5.676E-08 3.450E-09 1.221E-07
 ETOT  5  -138.81814749507     1.820E-09 1.232E-11 1.468E-08
 ETOT  6  -138.81814749508    -8.669E-12 8.840E-12 2.799E-10

 Cartesian components of stress tensor (hartree/bohr^3)
  sigma(1 1)= -2.94114123E-06  sigma(3 2)=  0.00000000E+00
  sigma(2 2)= -2.94114123E-06  sigma(3 1)=  0.00000000E+00
  sigma(3 3)=  6.40037476E-07  sigma(2 1)=  0.00000000E+00


 scprqt:  WARNING -
  nstep=    6 was not enough SCF cycles to converge;
  density residual=  2.799E-10 exceeds tolvrs=  1.000E-12

 Integrated electronic density in atomic spheres:
 ------------------------------------------------
 Atom  Sphere_radius  Integrated_density
    1        2.40000         11.65474208
    2        2.40000         11.64281495

 PAW TEST:
 ==== Compensation charge inside spheres ============
 The following values must be close to each other ...
 Compensation charge over spherical meshes =     10.997984976662019
 Compensation charge over fine fft grid    =     10.998009672672323

 ==== Results concerning PAW augmentation regions ====

 Total pseudopotential strength Dij (hartree):
 Atom #  1
   0.29967   0.63860   0.00000   0.00000   0.00000   0.00000   0.00000   0.00000   0.00000   0.00000  -0.00009   0.00000 ...
   0.63860   1.36201   0.00000   0.00000   0.00000   0.00000   0.00000   0.00000   0.00000   0.00000  -0.00019   0.00000 ...
   0.00000   0.00000   0.15876   0.00000   0.00000   0.21265   0.00000   0.00000   0.00000  -0.00002   0.00000   0.00000 ...
   0.00000   0.00000   0.00000   0.15871   0.00000   0.00000   0.21259   0.00000   0.00000   0.00000   0.00000   0.00000 ...
   0.00000   0.00000   0.00000   0.00000   0.15876   0.00000   0.00000   0.21265   0.00000   0.00000   0.00000   0.00002 ...
   0.00000   0.00000   0.21265   0.00000   0.00000   0.28435   0.00000   0.00000   0.00000  -0.00003   0.00000   0.00000 ...
   0.00000   0.00000   0.00000   0.21259   0.00000   0.00000   0.28427   0.00000   0.00000   0.00000   0.00000   0.00000 ...
   0.00000   0.00000   0.00000   0.00000   0.21265   0.00000   0.00000   0.28435   0.00000   0.00000   0.00000   0.00003 ...
   0.00000   0.00000   0.00000   0.00000   0.00000   0.00000   0.00000   0.00000  -1.01462   0.00000   0.00000   0.00000 ...
   0.00000   0.00000  -0.00002   0.00000   0.00000  -0.00003   0.00000   0.00000   0.00000  -1.01422   0.00000   0.00000 ...
  -0.00009  -0.00019   0.00000   0.00000   0.00000   0.00000   0.00000   0.00000   0.00000   0.00000  -1.01408   0.00000 ...
   0.00000   0.00000   0.00000   0.00000   0.00002   0.00000   0.00000   0.00003   0.00000   0.00000   0.00000  -1.01422 ...
   ...  only 12  components have been written...
 Atom #  2
   0.29967   0.63860   0.00000   0.00000   0.00000   0.00000   0.00000   0.00000   0.00000   0.00000  -0.00009   0.00000 ...
   0.63860   1.36201   0.00000   0.00000   0.00000   0.00000   0.00000   0.00000   0.00000   0.00000  -0.00019   0.00000 ...
   0.00000   0.00000   0.15876   0.00000   0.00000   0.21265   0.00000   0.00000   0.00000   0.00002   0.00000   0.00000 ...
   0.00000   0.00000   0.00000   0.15871   0.00000   0.00000   0.21259   0.00000   0.00000   0.00000   0.00000   0.00000 ...
   0.00000   0.00000   0.00000   0.00000   0.15876   0.00000   0.00000   0.21265   0.00000   0.00000   0.00000  -0.00002 ...
   0.00000   0.00000   0.21265   0.00000   0.00000   0.28435   0.00000   0.00000   0.00000   0.00003   0.00000   0.00000 ...
   0.00000   0.00000   0.00000   0.21259   0.00000   0.00000   0.28427   0.00000   0.00000   0.00000   0.00000   0.00000 ...
   0.00000   0.00000   0.00000   0.00000   0.21265   0.00000   0.00000   0.28435   0.00000   0.00000   0.00000  -0.00003 ...
   0.00000   0.00000   0.00000   0.00000   0.00000   0.00000   0.00000   0.00000  -1.01462   0.00000   0.00000   0.00000 ...
   0.00000   0.00000   0.00002   0.00000   0.00000   0.00003   0.00000   0.00000   0.00000  -1.01422   0.00000   0.00000 ...
  -0.00009  -0.00019   0.00000   0.00000   0.00000   0.00000   0.00000   0.00000   0.00000   0.00000  -1.01408   0.00000 ...
   0.00000   0.00000   0.00000   0.00000  -0.00002   0.00000   0.00000  -0.00003   0.00000   0.00000   0.00000  -1.01422 ...
   ...  only 12  components have been written...


 Augmentation waves occupancies Rhoij:
 Atom #  1
   1.41885   0.03677   0.00000   0.00000   0.00000   0.00000   0.00000   0.00000   0.00000   0.00000   0.00391   0.00000 ...
   0.03677   0.08983   0.00000   0.00000   0.00000   0.00000   0.00000   0.00000   0.00000   0.00000  -0.00220   0.00000 ...
   0.00000   0.00000   0.56556   0.00000   0.00000  -0.02643   0.00000   0.00000   0.00000  -0.01318   0.00000   0.00000 ...
   0.00000   0.00000   0.00000   0.59399   0.00000   0.00000   0.01433   0.00000   0.00000   0.00000   0.00000   0.00000 ...
   0.00000   0.00000   0.00000   0.00000   0.56556   0.00000   0.00000  -0.02643   0.00000   0.00000   0.00000   0.01318 ...
   0.00000   0.00000  -0.02643   0.00000   0.00000   0.15653   0.00000   0.00000   0.00000   0.00800   0.00000   0.00000 ...
   0.00000   0.00000   0.00000   0.01433   0.00000   0.00000   0.11957   0.00000   0.00000   0.00000   0.00000   0.00000 ...
   0.00000   0.00000   0.00000   0.00000  -0.02643   0.00000   0.00000   0.15653   0.00000   0.00000   0.00000  -0.00800 ...
   0.00000   0.00000   0.00000   0.00000   0.00000   0.00000   0.00000   0.00000   2.08680   0.00000   0.00000   0.00000 ...
   0.00000   0.00000  -0.01318   0.00000   0.00000   0.00800   0.00000   0.00000   0.00000   2.08607   0.00000   0.00000 ...
   0.00391  -0.00220   0.00000   0.00000   0.00000   0.00000   0.00000   0.00000   0.00000   0.00000   2.08497   0.00000 ...
   0.00000   0.00000   0.00000   0.00000   0.01318   0.00000   0.00000  -0.00800   0.00000   0.00000   0.00000   2.08607 ...
   ...  only 12  components have been written...
 Atom #  2
   1.41885   0.03677   0.00000   0.00000   0.00000   0.00000   0.00000   0.00000   0.00000   0.00000   0.00391   0.00000 ...
   0.03677   0.08983   0.00000   0.00000   0.00000   0.00000   0.00000   0.00000   0.00000   0.00000  -0.00220   0.00000 ...
   0.00000   0.00000   0.56556   0.00000   0.00000  -0.02643   0.00000   0.00000   0.00000   0.01318   0.00000   0.00000 ...
   0.00000   0.00000   0.00000   0.59399   0.00000   0.00000   0.01433   0.00000   0.00000   0.00000   0.00000   0.00000 ...
   0.00000   0.00000   0.00000   0.00000   0.56556   0.00000   0.00000  -0.02643   0.00000   0.00000   0.00000  -0.01318 ...
   0.00000   0.00000  -0.02643   0.00000   0.00000   0.15653   0.00000   0.00000   0.00000  -0.00800   0.00000   0.00000 ...
   0.00000   0.00000   0.00000   0.01433   0.00000   0.00000   0.11957   0.00000   0.00000   0.00000   0.00000   0.00000 ...
   0.00000   0.00000   0.00000   0.00000  -0.02643   0.00000   0.00000   0.15653   0.00000   0.00000   0.00000   0.00800 ...
   0.00000   0.00000   0.00000   0.00000   0.00000   0.00000   0.00000   0.00000   2.08680   0.00000   0.00000   0.00000 ...
   0.00000   0.00000   0.01318   0.00000   0.00000  -0.00800   0.00000   0.00000   0.00000   2.08607   0.00000   0.00000 ...
   0.00391  -0.00220   0.00000   0.00000   0.00000   0.00000   0.00000   0.00000   0.00000   0.00000   2.08497   0.00000 ...
   0.00000   0.00000   0.00000   0.00000  -0.01318   0.00000   0.00000   0.00800   0.00000   0.00000   0.00000   2.08607 ...
   ...  only 12  components have been written...



---OUTPUT-----------------------------------------------------------------------

 Cartesian coordinates (xcart) [bohr]
  3.75757487156996E-28 -2.62356808144272E-28 -1.20104163385139E-27
 -3.06895056969455E-16  5.52852985683794E+00  1.50996304610040E+00
 Reduced coordinates (xred)
 -2.22580357433304E-28 -1.64869328296687E-28  1.02559524818759E-29
  7.50000000000000E-01  2.50000000000000E-01  5.00000000000000E-01
 Cartesian forces (fcart) [Ha/bohr]; max,rms= 0.00000E+00 0.00000E+00 (free atoms)
 -0.00000000000000E+00 -0.00000000000000E+00 -0.00000000000000E+00
 -0.00000000000000E+00 -0.00000000000000E+00 -0.00000000000000E+00
 Reduced forces (fred)
  0.00000000000000E+00  0.00000000000000E+00  0.00000000000000E+00
  0.00000000000000E+00  0.00000000000000E+00  0.00000000000000E+00
 Scale of Primitive Cell (acell) [bohr]
  8.38148187125953E+00  8.38148187125953E+00  8.38148187125953E+00
 Real space primitive translations (rprimd) [bohr]
 -5.52852985683794E+00  5.52852985683794E+00  3.01992609220080E+00
  5.52852985683794E+00 -5.52852985683794E+00  3.01992609220080E+00
  5.52852985683794E+00  5.52852985683794E+00 -3.01992609220080E+00
 Unitary Cell Volume (ucvol) [Bohr^3]=  3.69211844063812E+02
 Angles (23,13,12)= [degrees]
  9.74593533722647E+01  9.74593533722647E+01  1.37761611871880E+02
 Lengths [Bohr]
  8.38148187125953E+00  8.38148187125953E+00  8.38148187125953E+00
 Stress tensor in cartesian coordinates (strten) [Ha/bohr^3]
 -2.94114122788118E-06  0.00000000000000E+00  0.00000000000000E+00
  0.00000000000000E+00 -2.94114122787598E-06  0.00000000000000E+00
  0.00000000000000E+00  0.00000000000000E+00  6.40037476405328E-07
 Total energy (etotal) [Ha]= -1.38818147495081E+02

 Difference of energy with previous step (new-old):
           Absolute (Ha)=-1.77703E-06
           Relative     =-1.28011E-08

 fconv : WARNING -
  ntime=    5 was not enough Broyd/MD steps to converge gradients: 
  max grad (force/stress) = 2.9411E-04 > tolmxf= 2.0000E-07 ha/bohr (free atoms)

================================================================================

 ----iterations are completed or convergence reached----

 Mean square residual over all n,k,spin=   5.2958E-13; max=  8.8400E-12
 reduced coordinates (array xred) for    2 atoms
      -0.000000000000     -0.000000000000      0.000000000000
       0.750000000000      0.250000000000      0.500000000000
 rms dE/dt=  0.0000E+00; max dE/dt=  0.0000E+00; dE/dt below (all hartree)
    1       0.000000000000      0.000000000000      0.000000000000
    2       0.000000000000      0.000000000000      0.000000000000

 cartesian coordinates (angstrom) at end:
    1      0.00000000000000    -0.00000000000000    -0.00000000000000
    2     -0.00000000000000     2.92557199724797     0.79903802980946

 cartesian forces (hartree/bohr) at end:
    1     -0.00000000000000    -0.00000000000000    -0.00000000000000
    2     -0.00000000000000    -0.00000000000000    -0.00000000000000
 frms,max,avg= 0.0000000E+00 0.0000000E+00   0.000E+00  0.000E+00  0.000E+00 h/b

 cartesian forces (eV/Angstrom) at end:
    1     -0.00000000000000    -0.00000000000000    -0.00000000000000
    2     -0.00000000000000    -0.00000000000000    -0.00000000000000
 frms,max,avg= 0.0000000E+00 0.0000000E+00   0.000E+00  0.000E+00  0.000E+00 e/A
 length scales=  8.381481871260  8.381481871260  8.381481871260 bohr
              =  4.435289180481  4.435289180481  4.435289180481 angstroms
 Fermi (or HOMO) energy (hartree) =   0.22859   Average Vxc (hartree)=  -0.37997
 Eigenvalues (hartree) for nkpt=   8  k points:
 kpt#   1, nband= 15, wtk=  0.11111, kpt= -0.0625 -0.0625 -0.1042 (reduced coord)
  -0.58732   -0.58538   -0.58325   -0.58041   -0.58005   -0.57836   -0.57772   -0.57637
  -0.57609   -0.57449   -0.16231    0.04399    0.17440    0.20158    0.37039
      occupation numbers for kpt#   1
   2.00000    2.00000    2.00000    2.00000    2.00000    2.00000    2.00000    2.00000
   2.00000    2.00000    2.00000    2.00000    2.00000    2.00000    0.00000
 prteigrs : prtvol=0 or 1, do not print more k-points.


--------------------------------------------------------------------------------
 Components of total free energy (in Hartree) :

    Kinetic energy  =  2.74417112983620E+01
    Hartree energy  =  2.68766949000890E+01
    XC energy       = -1.52218354998641E+01
    Ewald energy    = -9.83878384694377E+01
    PspCore energy  =  5.73499868105206E+00
    Loc. psp. energy= -8.21177323804820E+01
    Spherical terms = -3.14416900353863E+00
    >>>>> Internal E= -1.38818170473819E+02

    -kT*entropy     = -2.64341658278651E-18
    >>>>>>>>> Etotal= -1.38818170473819E+02

 "Double-counting" decomposition of free energy:
    Band energy     = -1.10948226570812E+01
    Ewald energy    = -9.83878384694377E+01
    PspCore energy  =  5.73499868105206E+00
    Dble-C XC-energy= -2.24948044918193E+01
    Spherical terms = -1.25756805577949E+01
    >>>>> Internal E= -1.38818147495081E+02

    -kT*entropy     = -2.64341658278651E-18
    >>>> Etotal (DC)= -1.38818147495081E+02

  >Total energy in eV           = -3.77743452350602E+03
  >Total DC energy in eV        = -3.77743389822275E+03
--------------------------------------------------------------------------------

 Cartesian components of stress tensor (hartree/bohr^3)
  sigma(1 1)= -2.94114123E-06  sigma(3 2)=  0.00000000E+00
  sigma(2 2)= -2.94114123E-06  sigma(3 1)=  0.00000000E+00
  sigma(3 3)=  6.40037476E-07  sigma(2 1)=  0.00000000E+00

-Cartesian components of stress tensor (GPa)         [Pressure=  5.1411E-02 GPa]
- sigma(1 1)= -8.65313478E-02  sigma(3 2)=  0.00000000E+00
- sigma(2 2)= -8.65313478E-02  sigma(3 1)=  0.00000000E+00
- sigma(3 3)=  1.88305495E-02  sigma(2 1)=  0.00000000E+00

================================================================================
== DATASET  2 ==================================================================
-   nproc =    1

 Exchange-correlation functional for the present dataset will be:
  GGA: Perdew-Burke-Ernzerhof functional - ixc=11
 Citation for XC functional:
  J.P.Perdew, K.Burke, M.Ernzerhof, PRL 77, 3865 (1996)

 Real(R)+Recip(G) space primitive vectors, cartesian coordinates (Bohr,Bohr^-1):
 R(1)= -5.6124866  5.6124866  3.0235618  G(1)=  0.0000000  0.0890871  0.1653679
 R(2)=  5.6124866 -5.6124866  3.0235618  G(2)=  0.0890871  0.0000000  0.1653679
 R(3)=  5.6124866  5.6124866 -3.0235618  G(3)=  0.0890871  0.0890871  0.0000000
 Unit cell volume ucvol=  3.8096886E+02 bohr^3
 Angles (23,13,12)=  9.72801743E+01  9.72801743E+01  1.38293029E+02 degrees

 Coarse grid specifications (used for wave-functions):

 getcut: wavevector=  0.0000  0.0000  0.0000  ngfft=  27  27  27
         ecut(hartree)=     10.890   => boxcut(ratio)=   2.06357

 Fine grid specifications (used for densities):

 getcut: wavevector=  0.0000  0.0000  0.0000  ngfft=  30  30  30
         ecut(hartree)=     14.520   => boxcut(ratio)=   2.05951
--------------------------------------------------------------------------------

_setup2: Arith. and geom. avg. npw (full set) are     654.556     654.528

================================================================================

=== [ionmov= 2] Broyden-Fletcher-Goldfard-Shanno method (forces)            
================================================================================

--- Iteration: (1/5) Internal Cycle: (1/1)
--------------------------------------------------------------------------------

---SELF-CONSISTENT-FIELD CONVERGENCE--------------------------------------------

     iter   Etot(hartree)      deltaE(h)  residm     nres2
 ETOT  1  -138.78803448436    -1.388E+02 9.403E-02 1.873E+00
 ETOT  2  -138.81555358163    -2.752E-02 1.735E-03 7.739E-02
 ETOT  3  -138.81524627391     3.073E-04 8.074E-04 7.631E-03
 ETOT  4  -138.81522877830     1.750E-05 7.251E-05 9.126E-05
 ETOT  5  -138.81522919364    -4.153E-07 1.969E-05 1.807E-06
 ETOT  6  -138.81522915793     3.571E-08 8.376E-06 1.388E-07

 Cartesian components of stress tensor (hartree/bohr^3)
  sigma(1 1)=  3.73028087E-04  sigma(3 2)=  0.00000000E+00
  sigma(2 2)=  3.73028087E-04  sigma(3 1)=  0.00000000E+00
  sigma(3 3)=  2.14589358E-04  sigma(2 1)=  0.00000000E+00


 scprqt:  WARNING -
  nstep=    6 was not enough SCF cycles to converge;
  density residual=  1.388E-07 exceeds tolvrs=  1.000E-12

 Integrated electronic density in atomic spheres:
 ------------------------------------------------
 Atom  Sphere_radius  Integrated_density
    1        2.40000         11.63068250
    2        2.40000         11.62836149

 PAW TEST:
 ==== Compensation charge inside spheres ============
 The following values must be close to each other ...
 Compensation charge over spherical meshes =     10.997766629255946
 Compensation charge over fine fft grid    =     10.997647837676213

 ==== Results concerning PAW augmentation regions ====

 Total pseudopotential strength Dij (hartree):
 Atom #  1
   0.29966   0.63865   0.00000   0.00000   0.00000   0.00000   0.00000   0.00000   0.00000   0.00000  -0.00012   0.00000 ...
   0.63865   1.36228   0.00000   0.00000   0.00000   0.00000   0.00000   0.00000   0.00000   0.00000  -0.00024   0.00000 ...
   0.00000   0.00000   0.15882   0.00000   0.00000   0.21269   0.00000   0.00000   0.00000  -0.00002   0.00000   0.00000 ...
   0.00000   0.00000   0.00000   0.15877   0.00000   0.00000   0.21262   0.00000   0.00000   0.00000   0.00000   0.00000 ...
   0.00000   0.00000   0.00000   0.00000   0.15882   0.00000   0.00000   0.21269   0.00000   0.00000   0.00000   0.00002 ...
   0.00000   0.00000   0.21269   0.00000   0.00000   0.28435   0.00000   0.00000   0.00000  -0.00003   0.00000   0.00000 ...
   0.00000   0.00000   0.00000   0.21262   0.00000   0.00000   0.28426   0.00000   0.00000   0.00000   0.00000   0.00000 ...
   0.00000   0.00000   0.00000   0.00000   0.21269   0.00000   0.00000   0.28435   0.00000   0.00000   0.00000   0.00003 ...
   0.00000   0.00000   0.00000   0.00000   0.00000   0.00000   0.00000   0.00000  -1.02147   0.00000   0.00000   0.00000 ...
   0.00000   0.00000  -0.00002   0.00000   0.00000  -0.00003   0.00000   0.00000   0.00000  -1.02098   0.00000   0.00000 ...
  -0.00012  -0.00024   0.00000   0.00000   0.00000   0.00000   0.00000   0.00000   0.00000   0.00000  -1.02082   0.00000 ...
   0.00000   0.00000   0.00000   0.00000   0.00002   0.00000   0.00000   0.00003   0.00000   0.00000   0.00000  -1.02098 ...
   ...  only 12  components have been written...
 Atom #  2
   0.29966   0.63865   0.00000   0.00000   0.00000   0.00000   0.00000   0.00000   0.00000   0.00000  -0.00012   0.00000 ...
   0.63865   1.36228   0.00000   0.00000   0.00000   0.00000   0.00000   0.00000   0.00000   0.00000  -0.00024   0.00000 ...
   0.00000   0.00000   0.15882   0.00000   0.00000   0.21269   0.00000   0.00000   0.00000   0.00002   0.00000   0.00000 ...
   0.00000   0.00000   0.00000   0.15877   0.00000   0.00000   0.21262   0.00000   0.00000   0.00000   0.00000   0.00000 ...
   0.00000   0.00000   0.00000   0.00000   0.15882   0.00000   0.00000   0.21269   0.00000   0.00000   0.00000  -0.00002 ...
   0.00000   0.00000   0.21269   0.00000   0.00000   0.28435   0.00000   0.00000   0.00000   0.00003   0.00000   0.00000 ...
   0.00000   0.00000   0.00000   0.21262   0.00000   0.00000   0.28426   0.00000   0.00000   0.00000   0.00000   0.00000 ...
   0.00000   0.00000   0.00000   0.00000   0.21269   0.00000   0.00000   0.28435   0.00000   0.00000   0.00000  -0.00003 ...
   0.00000   0.00000   0.00000   0.00000   0.00000   0.00000   0.00000   0.00000  -1.02147   0.00000   0.00000   0.00000 ...
   0.00000   0.00000   0.00002   0.00000   0.00000   0.00003   0.00000   0.00000   0.00000  -1.02098   0.00000   0.00000 ...
  -0.00012  -0.00024   0.00000   0.00000   0.00000   0.00000   0.00000   0.00000   0.00000   0.00000  -1.02082   0.00000 ...
   0.00000   0.00000   0.00000   0.00000  -0.00002   0.00000   0.00000  -0.00003   0.00000   0.00000   0.00000  -1.02098 ...
   ...  only 12  components have been written...


 Augmentation waves occupancies Rhoij:
 Atom #  1
   1.38535   0.05015   0.00000   0.00000   0.00000   0.00000   0.00000   0.00000   0.00000   0.00000   0.00736   0.00000 ...
   0.05015   0.08660   0.00000   0.00000   0.00000   0.00000   0.00000   0.00000   0.00000   0.00000  -0.00394   0.00000 ...
   0.00000   0.00000   0.55409   0.00000   0.00000  -0.02304   0.00000   0.00000   0.00000  -0.01277   0.00000   0.00000 ...
   0.00000   0.00000   0.00000   0.60131   0.00000   0.00000   0.01712   0.00000   0.00000   0.00000   0.00000   0.00000 ...
   0.00000   0.00000   0.00000   0.00000   0.55409   0.00000   0.00000  -0.02304   0.00000   0.00000   0.00000   0.01277 ...
   0.00000   0.00000  -0.02304   0.00000   0.00000   0.14394   0.00000   0.00000   0.00000   0.00781   0.00000   0.00000 ...
   0.00000   0.00000   0.00000   0.01712   0.00000   0.00000   0.11206   0.00000   0.00000   0.00000   0.00000   0.00000 ...
   0.00000   0.00000   0.00000   0.00000  -0.02304   0.00000   0.00000   0.14394   0.00000   0.00000   0.00000  -0.00781 ...
   0.00000   0.00000   0.00000   0.00000   0.00000   0.00000   0.00000   0.00000   2.08676   0.00000   0.00000   0.00000 ...
   0.00000   0.00000  -0.01277   0.00000   0.00000   0.00781   0.00000   0.00000   0.00000   2.08602   0.00000   0.00000 ...
   0.00736  -0.00394   0.00000   0.00000   0.00000   0.00000   0.00000   0.00000   0.00000   0.00000   2.08523   0.00000 ...
   0.00000   0.00000   0.00000   0.00000   0.01277   0.00000   0.00000  -0.00781   0.00000   0.00000   0.00000   2.08602 ...
   ...  only 12  components have been written...
 Atom #  2
   1.38535   0.05015   0.00000   0.00000   0.00000   0.00000   0.00000   0.00000   0.00000   0.00000   0.00736   0.00000 ...
   0.05015   0.08660   0.00000   0.00000   0.00000   0.00000   0.00000   0.00000   0.00000   0.00000  -0.00394   0.00000 ...
   0.00000   0.00000   0.55409   0.00000   0.00000  -0.02304   0.00000   0.00000   0.00000   0.01277   0.00000   0.00000 ...
   0.00000   0.00000   0.00000   0.60131   0.00000   0.00000   0.01712   0.00000   0.00000   0.00000   0.00000   0.00000 ...
   0.00000   0.00000   0.00000   0.00000   0.55409   0.00000   0.00000  -0.02304   0.00000   0.00000   0.00000  -0.01277 ...
   0.00000   0.00000  -0.02304   0.00000   0.00000   0.14394   0.00000   0.00000   0.00000  -0.00781   0.00000   0.00000 ...
   0.00000   0.00000   0.00000   0.01712   0.00000   0.00000   0.11206   0.00000   0.00000   0.00000   0.00000   0.00000 ...
   0.00000   0.00000   0.00000   0.00000  -0.02304   0.00000   0.00000   0.14394   0.00000   0.00000   0.00000   0.00781 ...
   0.00000   0.00000   0.00000   0.00000   0.00000   0.00000   0.00000   0.00000   2.08676   0.00000   0.00000   0.00000 ...
   0.00000   0.00000   0.01277   0.00000   0.00000  -0.00781   0.00000   0.00000   0.00000   2.08602   0.00000   0.00000 ...
   0.00736  -0.00394   0.00000   0.00000   0.00000   0.00000   0.00000   0.00000   0.00000   0.00000   2.08523   0.00000 ...
   0.00000   0.00000   0.00000   0.00000  -0.01277   0.00000   0.00000   0.00781   0.00000   0.00000   0.00000   2.08602 ...
   ...  only 12  components have been written...



---OUTPUT-----------------------------------------------------------------------

 Cartesian coordinates (xcart) [bohr]
  0.00000000000000E+00  0.00000000000000E+00  0.00000000000000E+00
  1.32533616599686E-16  5.61248661467036E+00  1.51178090630852E+00
 Reduced coordinates (xred)
  0.00000000000000E+00  0.00000000000000E+00  0.00000000000000E+00
  7.50000000000000E-01  2.50000000000000E-01  5.00000000000000E-01
 Cartesian forces (fcart) [Ha/bohr]; max,rms= 1.06866E-27 6.60298E-28 (free atoms)
  2.98151480811746E-28 -2.77560229455743E-28 -1.06866486218403E-27
 -2.98151480811746E-28  2.77560229455743E-28  1.06866486218403E-27
 Reduced forces (fred)
  1.29246970711411E-26  0.00000000000000E+00  1.63136435199705E-27
  0.00000000000000E+00  0.00000000000000E+00  8.32484913279734E-27
 Scale of Primitive Cell (acell) [bohr]
  1.00000000000000E+00  1.00000000000000E+00  1.00000000000000E+00
 Real space primitive translations (rprimd) [bohr]
 -5.61248661467036E+00  5.61248661467036E+00  3.02356181261703E+00
  5.61248661467036E+00 -5.61248661467036E+00  3.02356181261703E+00
  5.61248661467036E+00  5.61248661467036E+00 -3.02356181261703E+00
 Unitary Cell Volume (ucvol) [Bohr^3]=  3.80968860953463E+02
 Angles (23,13,12)= [degrees]
  9.72801742588706E+01  9.72801742588706E+01  1.38293028761536E+02
 Lengths [Bohr]
  8.49364103517590E+00  8.49364103517590E+00  8.49364103517590E+00
 Stress tensor in cartesian coordinates (strten) [Ha/bohr^3]
  3.73028087419725E-04  0.00000000000000E+00  0.00000000000000E+00
  0.00000000000000E+00  3.73028087419729E-04  0.00000000000000E+00
  0.00000000000000E+00  0.00000000000000E+00  2.14589358066761E-04
 Total energy (etotal) [Ha]= -1.38815229157933E+02

--- Iteration: (2/5) Internal Cycle: (1/1)
--------------------------------------------------------------------------------

---SELF-CONSISTENT-FIELD CONVERGENCE--------------------------------------------

     iter   Etot(hartree)      deltaE(h)  residm     nres2
 ETOT  1  -138.81926510371    -1.388E+02 4.116E-05 1.175E-01
 ETOT  2  -138.81734047745     1.925E-03 1.675E-06 9.025E-03
 ETOT  3  -138.81714335743     1.971E-04 9.154E-07 1.311E-03
 ETOT  4  -138.81710860263     3.475E-05 6.197E-07 6.321E-05
 ETOT  5  -138.81710763839     9.642E-07 2.542E-08 6.426E-06
 ETOT  6  -138.81710769316    -5.477E-08 1.388E-08 1.575E-07

 Cartesian components of stress tensor (hartree/bohr^3)
  sigma(1 1)=  3.26969428E-04  sigma(3 2)=  0.00000000E+00
  sigma(2 2)=  3.26969428E-04  sigma(3 1)=  0.00000000E+00
  sigma(3 3)=  4.19697249E-05  sigma(2 1)=  0.00000000E+00


 scprqt:  WARNING -
  nstep=    6 was not enough SCF cycles to converge;
  density residual=  1.575E-07 exceeds tolvrs=  1.000E-12

 Integrated electronic density in atomic spheres:
 ------------------------------------------------
 Atom  Sphere_radius  Integrated_density
    1        2.40000         11.65622384
    2        2.40000         11.63328015

 PAW TEST:
 ==== Compensation charge inside spheres ============
 The following values must be close to each other ...
 Compensation charge over spherical meshes =     10.998111207378354
 Compensation charge over fine fft grid    =     10.998068123634102

 ==== Results concerning PAW augmentation regions ====

 Total pseudopotential strength Dij (hartree):
 Atom #  1
   0.29967   0.63863   0.00000   0.00000   0.00000   0.00000   0.00000   0.00000   0.00000   0.00000  -0.00011   0.00000 ...
   0.63863   1.36217   0.00000   0.00000   0.00000   0.00000   0.00000   0.00000   0.00000   0.00000  -0.00023   0.00000 ...
   0.00000   0.00000   0.15880   0.00000   0.00000   0.21267   0.00000   0.00000   0.00000  -0.00002   0.00000   0.00000 ...
   0.00000   0.00000   0.00000   0.15874   0.00000   0.00000   0.21260   0.00000   0.00000   0.00000   0.00000   0.00000 ...
   0.00000   0.00000   0.00000   0.00000   0.15880   0.00000   0.00000   0.21267   0.00000   0.00000   0.00000   0.00002 ...
   0.00000   0.00000   0.21267   0.00000   0.00000   0.28435   0.00000   0.00000   0.00000  -0.00003   0.00000   0.00000 ...
   0.00000   0.00000   0.00000   0.21260   0.00000   0.00000   0.28426   0.00000   0.00000   0.00000   0.00000   0.00000 ...
   0.00000   0.00000   0.00000   0.00000   0.21267   0.00000   0.00000   0.28435   0.00000   0.00000   0.00000   0.00003 ...
   0.00000   0.00000   0.00000   0.00000   0.00000   0.00000   0.00000   0.00000  -1.01830   0.00000   0.00000   0.00000 ...
   0.00000   0.00000  -0.00002   0.00000   0.00000  -0.00003   0.00000   0.00000   0.00000  -1.01783   0.00000   0.00000 ...
  -0.00011  -0.00023   0.00000   0.00000   0.00000   0.00000   0.00000   0.00000   0.00000   0.00000  -1.01767   0.00000 ...
   0.00000   0.00000   0.00000   0.00000   0.00002   0.00000   0.00000   0.00003   0.00000   0.00000   0.00000  -1.01783 ...
   ...  only 12  components have been written...
 Atom #  2
   0.29967   0.63863   0.00000   0.00000   0.00000   0.00000   0.00000   0.00000   0.00000   0.00000  -0.00011   0.00000 ...
[...]
   0.00000   0.00000   0.56338   0.00000   0.00000  -0.02743   0.00000   0.00000   0.00000  -0.01312   0.00000   0.00000 ...
   0.00000   0.00000   0.00000   0.59886   0.00000   0.00000   0.01519   0.00000   0.00000   0.00000   0.00000   0.00000 ...
   0.00000   0.00000   0.00000   0.00000   0.56338   0.00000   0.00000  -0.02743   0.00000   0.00000   0.00000   0.01312 ...
   0.00000   0.00000  -0.02743   0.00000   0.00000   0.15205   0.00000   0.00000   0.00000   0.00800   0.00000   0.00000 ...
   0.00000   0.00000   0.00000   0.01519   0.00000   0.00000   0.11634   0.00000   0.00000   0.00000   0.00000   0.00000 ...
   0.00000   0.00000   0.00000   0.00000  -0.02743   0.00000   0.00000   0.15205   0.00000   0.00000   0.00000  -0.00800 ...
   0.00000   0.00000   0.00000   0.00000   0.00000   0.00000   0.00000   0.00000   2.08661   0.00000   0.00000   0.00000 ...
   0.00000   0.00000  -0.01312   0.00000   0.00000   0.00800   0.00000   0.00000   0.00000   2.08600   0.00000   0.00000 ...
   0.00534  -0.00291   0.00000   0.00000   0.00000   0.00000   0.00000   0.00000   0.00000   0.00000   2.08501   0.00000 ...
   0.00000   0.00000   0.00000   0.00000   0.01312   0.00000   0.00000  -0.00800   0.00000   0.00000   0.00000   2.08600 ...
   ...  only 12  components have been written...
 Atom #  2
   1.40189   0.04359   0.00000   0.00000   0.00000   0.00000   0.00000   0.00000   0.00000   0.00000   0.00534   0.00000 ...
   0.04359   0.08811   0.00000   0.00000   0.00000   0.00000   0.00000   0.00000   0.00000   0.00000  -0.00291   0.00000 ...
   0.00000   0.00000   0.56338   0.00000   0.00000  -0.02743   0.00000   0.00000   0.00000   0.01312   0.00000   0.00000 ...
   0.00000   0.00000   0.00000   0.59886   0.00000   0.00000   0.01519   0.00000   0.00000   0.00000   0.00000   0.00000 ...
   0.00000   0.00000   0.00000   0.00000   0.56338   0.00000   0.00000  -0.02743   0.00000   0.00000   0.00000  -0.01312 ...
   0.00000   0.00000  -0.02743   0.00000   0.00000   0.15205   0.00000   0.00000   0.00000  -0.00800   0.00000   0.00000 ...
   0.00000   0.00000   0.00000   0.01519   0.00000   0.00000   0.11634   0.00000   0.00000   0.00000   0.00000   0.00000 ...
   0.00000   0.00000   0.00000   0.00000  -0.02743   0.00000   0.00000   0.15205   0.00000   0.00000   0.00000   0.00800 ...
   0.00000   0.00000   0.00000   0.00000   0.00000   0.00000   0.00000   0.00000   2.08661   0.00000   0.00000   0.00000 ...
   0.00000   0.00000   0.01312   0.00000   0.00000  -0.00800   0.00000   0.00000   0.00000   2.08600   0.00000   0.00000 ...
   0.00534  -0.00291   0.00000   0.00000   0.00000   0.00000   0.00000   0.00000   0.00000   0.00000   2.08501   0.00000 ...
   0.00000   0.00000   0.00000   0.00000  -0.01312   0.00000   0.00000   0.00800   0.00000   0.00000   0.00000   2.08600 ...
   ...  only 12  components have been written...



---OUTPUT-----------------------------------------------------------------------

 Cartesian coordinates (xcart) [bohr]
  4.59313749234336E-28 -4.12391303461689E-28 -1.77291148877240E-27
 -3.09252880269720E-16  5.57100462538386E+00  1.51020292501201E+00
 Reduced coordinates (xred)
 -3.30501243280026E-28 -2.52265349458994E-28  4.21130917382909E-30
  7.50000000000000E-01  2.50000000000000E-01  5.00000000000000E-01
 Cartesian forces (fcart) [Ha/bohr]; max,rms= 3.34307E-29 2.10916E-29 (free atoms)
 -1.41955196712760E-29  3.92943312596419E-30  3.34306715329287E-29
  1.41955196712760E-29 -3.92943312596419E-30 -3.34306715329287E-29
 Reduced forces (fred)
  0.00000000000000E+00  0.00000000000000E+00  4.54383881407303E-28
  4.03896783473158E-28  0.00000000000000E+00  1.38050658413677E-28
 Scale of Primitive Cell (acell) [bohr]
  8.43771512738823E+00  8.43771512738823E+00  8.43771512738823E+00
 Real space primitive translations (rprimd) [bohr]
 -5.57100462538386E+00  5.57100462538386E+00  3.02040585002402E+00
  5.57100462538386E+00 -5.57100462538386E+00  3.02040585002402E+00
  5.57100462538386E+00  5.57100462538386E+00 -3.02040585002402E+00
 Unitary Cell Volume (ucvol) [Bohr^3]=  3.74966381831070E+02
 Angles (23,13,12)= [degrees]
  9.73620579108707E+01  9.73620579108707E+01  1.38049467912596E+02
 Lengths [Bohr]
  8.43771512738823E+00  8.43771512738823E+00  8.43771512738823E+00
 Stress tensor in cartesian coordinates (strten) [Ha/bohr^3]
  2.63933937471171E-04  0.00000000000000E+00  0.00000000000000E+00
  0.00000000000000E+00  2.63933937471171E-04  0.00000000000000E+00
  0.00000000000000E+00  0.00000000000000E+00  1.14087448292274E-04
 Total energy (etotal) [Ha]= -1.38817446462745E+02

 Difference of energy with previous step (new-old):
           Absolute (Ha)= 4.89199E-04
           Relative     = 3.52404E-06

 fconv : WARNING -
  ntime=    5 was not enough Broyd/MD steps to converge gradients: 
  max grad (force/stress) = 2.6393E-02 > tolmxf= 2.0000E-07 ha/bohr (free atoms)

================================================================================

 ----iterations are completed or convergence reached----

 Mean square residual over all n,k,spin=   8.8724E-10; max=  2.4386E-08
 reduced coordinates (array xred) for    2 atoms
      -0.000000000000     -0.000000000000      0.000000000000
       0.750000000000      0.250000000000      0.500000000000
 rms dE/dt=  2.5451E-28; max dE/dt=  4.5438E-28; dE/dt below (all hartree)
    1       0.000000000000      0.000000000000      0.000000000000
    2       0.000000000000      0.000000000000      0.000000000000

 cartesian coordinates (angstrom) at end:
    1      0.00000000000000    -0.00000000000000    -0.00000000000000
    2     -0.00000000000000     2.94804867670261     0.79916496826231

 cartesian forces (hartree/bohr) at end:
    1     -0.00000000000000     0.00000000000000     0.00000000000000
    2      0.00000000000000    -0.00000000000000    -0.00000000000000
 frms,max,avg= 2.1091570E-29 3.3430672E-29   0.000E+00  0.000E+00  0.000E+00 h/b

 cartesian forces (eV/Angstrom) at end:
    1     -0.00000000000000     0.00000000000000     0.00000000000000
    2      0.00000000000000    -0.00000000000000    -0.00000000000000
 frms,max,avg= 1.0845721E-27 1.7190741E-27   0.000E+00  0.000E+00  0.000E+00 e/A
 length scales=  8.437715127388  8.437715127388  8.437715127388 bohr
              =  4.465046537989  4.465046537989  4.465046537989 angstroms
 Fermi (or HOMO) energy (hartree) =   0.22272   Average Vxc (hartree)=  -0.37727
 Eigenvalues (hartree) for nkpt=   8  k points:
 kpt#   1, nband= 15, wtk=  0.11111, kpt= -0.0625 -0.0625 -0.1042 (reduced coord)
  -0.59253   -0.59086   -0.58846   -0.58611   -0.58593   -0.58499   -0.58349   -0.58305
  -0.58303   -0.58021   -0.16433    0.03682    0.16877    0.19373    0.36432
      occupation numbers for kpt#   1
   2.00000    2.00000    2.00000    2.00000    2.00000    2.00000    2.00000    2.00000
   2.00000    2.00000    2.00000    2.00000    2.00000    2.00000    0.00000
 prteigrs : prtvol=0 or 1, do not print more k-points.


--------------------------------------------------------------------------------
 Components of total free energy (in Hartree) :

    Kinetic energy  =  2.74304283451879E+01
    Hartree energy  =  2.71457345853702E+01
    XC energy       = -1.52131931926281E+01
    Ewald energy    = -9.78817299150736E+01
    PspCore energy  =  5.64698474672512E+00
    Loc. psp. energy= -8.27947902113985E+01
    Spherical terms = -3.15005621140124E+00
    >>>>> Internal E= -1.38816621853218E+02

    -kT*entropy     = -2.81581351248331E-18
    >>>>>>>>> Etotal= -1.38816621853218E+02

 "Double-counting" decomposition of free energy:
    Band energy     = -1.12432930865454E+01
    Ewald energy    = -9.78817299150736E+01
    PspCore energy  =  5.64698474672512E+00
    Dble-C XC-energy= -2.27669933279018E+01
    Spherical terms = -1.25724148799497E+01
    >>>>> Internal E= -1.38817446462745E+02

    -kT*entropy     = -2.81581351248331E-18
    >>>> Etotal (DC)= -1.38817446462745E+02

  >Total energy in eV           = -3.77739238339638E+03
  >Total DC energy in eV        = -3.77741482216276E+03
--------------------------------------------------------------------------------

 Cartesian components of stress tensor (hartree/bohr^3)
  sigma(1 1)=  2.63933937E-04  sigma(3 2)=  0.00000000E+00
  sigma(2 2)=  2.63933937E-04  sigma(3 1)=  0.00000000E+00
  sigma(3 3)=  1.14087448E-04  sigma(2 1)=  0.00000000E+00

-Cartesian components of stress tensor (GPa)         [Pressure= -6.2957E+00 GPa]
- sigma(1 1)=  7.76520323E+00  sigma(3 2)=  0.00000000E+00
- sigma(2 2)=  7.76520323E+00  sigma(3 1)=  0.00000000E+00
- sigma(3 3)=  3.35656805E+00  sigma(2 1)=  0.00000000E+00

== END DATASET(S) ==============================================================
================================================================================
  
 -outvars: echo values of variables after computation  --------
            acell1     8.3814818713E+00  8.3814818713E+00  8.3814818713E+00 Bohr
            acell2     8.4377151274E+00  8.4377151274E+00  8.4377151274E+00 Bohr
              amu      1.18710000E+02
          dilatmx      1.10000000E+00
             ecut      9.00000000E+00 Hartree
           ecutsm      5.00000000E-01 Hartree
           etotal1    -1.3881814750E+02
           etotal2    -1.3881744646E+02
            fcart1    -0.0000000000E+00 -0.0000000000E+00 -0.0000000000E+00
                      -0.0000000000E+00 -0.0000000000E+00 -0.0000000000E+00
            fcart2    -1.4195519671E-29  3.9294331260E-30  3.3430671533E-29
                       1.4195519671E-29 -3.9294331260E-30 -3.3430671533E-29
-          fftalg         312
           ionmov           2
              ixc          11
           jdtset        1    2
              kpt     -6.25000000E-02 -6.25000000E-02 -1.04166667E-01
                      -6.25000000E-02 -6.25000000E-02 -4.37500000E-01
                      -2.08333333E-02 -3.54166667E-01 -1.45833333E-01
                      -1.87500000E-01 -1.87500000E-01 -3.12500000E-01
                      -2.08333333E-02 -3.54166667E-01  1.87500000E-01
                      -1.45833333E-01 -4.79166667E-01  3.12500000E-01
                      -1.04166667E-01  2.29166667E-01 -3.95833333E-01
                      -2.70833333E-01  3.95833333E-01  4.37500000E-01
         kptrlatt        0    3    3     -3    0   -3     -4   -4    0
          kptrlen      2.41884945E+01
P           mkmem           8
            natom           2
            nband          15
           ndtset           2
            ngfft          27      27      27
          ngfftdg          30      30      30
             nkpt           8
            nstep           6
             nsym          16
            ntime           5
           ntypat           1
              occ      2.000000  2.000000  2.000000  2.000000  2.000000  2.000000
                       2.000000  2.000000  2.000000  2.000000  2.000000  2.000000
                       2.000000  2.000000  0.000000
                       2.000000  2.000000  2.000000  2.000000  2.000000  2.000000
                       2.000000  2.000000  2.000000  2.000000  2.000000  2.000000
                       0.000000  0.000000  0.000000
                       2.000000  2.000000  2.000000  2.000000  2.000000  2.000000
                       2.000000  2.000000  2.000000  2.000000  2.000000  2.000000
                       2.000000  2.000000  2.000000
                       2.000000  2.000000  2.000000  2.000000  2.000000  2.000000
                       2.000000  2.000000  2.000000  2.000000  2.000000  2.000000
                       2.000000  2.000000  0.000000
                       2.000000  2.000000  2.000000  2.000000  2.000000  2.000000
                       2.000000  2.000000  2.000000  2.000000  2.000000  2.000000
                       2.000000  2.000000  0.000000
                       2.000000  2.000000  2.000000  2.000000  2.000000  2.000000
                       2.000000  2.000000  2.000000  2.000000  2.000000  2.000000
                       2.000000  2.000000  2.000000
                       2.000000  2.000000  2.000000  2.000000  2.000000  2.000000
                       2.000000  2.000000  2.000000  2.000000  2.000000  2.000000
                       2.000000  0.000000  0.000000
                       2.000000  2.000000  2.000000  2.000000  2.000000  2.000000
                       2.000000  2.000000  2.000000  2.000000  2.000000  2.000000
                       2.000000  2.000000  0.000000
           occopt           7
          optcell           2
        pawecutdg      1.20000000E+01 Hartree
           prtden           0
           prteig           0
            prtwf           0
            rprim1    -6.5961245777E-01  6.5961245777E-01  3.6030932699E-01
                       6.5961245777E-01 -6.5961245777E-01  3.6030932699E-01
                       6.5961245777E-01  6.5961245777E-01 -3.6030932699E-01
            rprim2    -6.6025038073E-01  6.6025038073E-01  3.5796489979E-01
                       6.6025038073E-01 -6.6025038073E-01  3.5796489979E-01
                       6.6025038073E-01  6.6025038073E-01 -3.5796489979E-01
           shiftk      5.00000000E-01  5.00000000E-01  5.00000000E-01
          spgroup         141
           strten1    -2.9411412279E-06 -2.9411412279E-06  6.4003747641E-07
                       0.0000000000E+00  0.0000000000E+00  0.0000000000E+00
           strten2     2.6393393747E-04  2.6393393747E-04  1.1408744829E-04
                       0.0000000000E+00  0.0000000000E+00  0.0000000000E+00
           symrel      1  0  0   0  1  0   0  0  1       0  1  0   1  0  0  -1 -1 -1
                       0  0 -1   1  1  1   0 -1  0       1  1  1   0  0 -1  -1  0  0
                       0  0  1  -1 -1 -1   1  0  0      -1  0  0   0 -1  0   0  0 -1
                      -1 -1 -1   0  0  1   0  1  0       0 -1  0  -1  0  0   1  1  1
                       0 -1  0  -1  0  0   0  0 -1       0  0  1  -1 -1 -1   0  1  0
                      -1  0  0   0 -1  0   1  1  1      -1 -1 -1   0  0  1   1  0  0
                       0  0 -1   1  1  1  -1  0  0       1  1  1   0  0 -1   0 -1  0
                       0  1  0   1  0  0   0  0  1       1  0  0   0  1  0  -1 -1 -1
            tnons      0.0000000  0.0000000  0.0000000     0.0000000  0.0000000 -0.0000000
                      -0.2500000  0.2500000  0.5000000    -0.2500000  0.2500000  0.5000000
                      -0.2500000  0.2500000  0.5000000    -0.2500000  0.2500000  0.5000000
                      -0.2500000  0.2500000  0.5000000    -0.2500000  0.2500000  0.5000000
                       0.0000000  0.0000000  0.0000000     0.0000000  0.0000000 -0.0000000
                       0.0000000  0.0000000 -0.0000000     0.0000000  0.0000000  0.0000000
                       0.0000000  0.0000000 -0.0000000     0.0000000  0.0000000  0.0000000
                      -0.2500000  0.2500000  0.5000000    -0.2500000  0.2500000  0.5000000
           tolmxf      2.00000000E-07
           tolvrs      1.00000000E-12
           tsmear      1.00000000E-03 Hartree
            typat      1  1
           useylm           1
              wtk        0.11111    0.05556    0.22222    0.05556    0.11111    0.11111
                         0.22222    0.11111
           xangst1     1.9884229816E-28 -1.3883324339E-28 -6.3556385920E-28
                      -1.6240186958E-16  2.9255719972E+00  7.9903802981E-01
           xangst2     2.4305836769E-28 -2.1822807881E-28 -9.3818435271E-28
                      -1.6364957593E-16  2.9480486767E+00  7.9916496826E-01
            xcart1     3.7575748716E-28 -2.6235680814E-28 -1.2010416339E-27
                      -3.0689505697E-16  5.5285298568E+00  1.5099630461E+00
            xcart2     4.5931374923E-28 -4.1239130346E-28 -1.7729114888E-27
                      -3.0925288027E-16  5.5710046254E+00  1.5102029250E+00
             xred     -2.2258035743E-28 -1.6486932830E-28  1.0255952482E-29
                       7.5000000000E-01  2.5000000000E-01  5.0000000000E-01
            znucl       50.00000

================================================================================


- Timing analysis has been suppressed with timopt=0



================================================================================

 Suggested references for the acknowledgment of ABINIT usage.

 The users of ABINIT have little formal obligations with respect to the ABINIT group
 (those specified in the GNU General Public License, http://www.gnu.org/copyleft/gpl.txt).
 However, it is common practice in the scientific literature,
 to acknowledge the efforts of people that have made the research possible.
 In this spirit, please find below suggested citations of work written by ABINIT developers,
 corresponding to implementations inside of ABINIT that you have used in the present run.
 Note also that it will be of great value to readers of publications presenting these results,
 to read papers enabling them to understand the theoretical formalism and details
 of the ABINIT implementation.
 For information on why they are suggested, see also https://www.abinit.org/about/?text=acknowledgments.
-
- [1] Implementation of the Projector Augmented-Wave Method in the ABINIT code.
- M. Torrent, F. Jollet, F. Bottin, G. Zerah, and X. Gonze Comput. Mat. Science 42, 337, (2008).
- Comment : PAW calculations. Strong suggestion to cite this paper.
-
- [2] ABINIT : First-principles approach of materials and nanosystem properties.
- X. Gonze, B. Amadon, P.-M. Anglade, J.-M. Beuken, F. Bottin, P. Boulanger, F. Bruneval,
- D. Caliste, R. Caracas, M. Cote, T. Deutsch, L. Genovese, Ph. Ghosez, M. Giantomassi
- S. Goedecker, D.R. Hamann, P. Hermet, F. Jollet, G. Jomard, S. Leroux, M. Mancini, S. Mazevet,
- M.J.T. Oliveira, G. Onida, Y. Pouillon, T. Rangel, G.-M. Rignanese, D. Sangalli, R. Shaltaf,
- M. Torrent, M.J. Verstraete, G. Zerah, J.W. Zwanziger
- Computer Phys. Comm. 180, 2582-2615 (2009).
- Comment : the third generic paper describing the ABINIT project.
- Note that a version of this paper, that is not formatted for Computer Phys. Comm. 
- is available at https://www.abinit.org/about/ABINIT_CPC_v10.pdf .
- The licence allows the authors to put it on the Web.
-
- [3] A brief introduction to the ABINIT software package.
- X. Gonze, G.-M. Rignanese, M. Verstraete, J.-M. Beuken, Y. Pouillon, R. Caracas, F. Jollet,
- M. Torrent, G. Zerah, M. Mikami, Ph. Ghosez, M. Veithen, J.-Y. Raty, V. Olevano, F. Bruneval,
- L. Reining, R. Godby, G. Onida, D.R. Hamann, and D.C. Allan.
- Z. Kristallogr. 220, 558-562 (2005).
- Comment : the second generic paper describing the ABINIT project. Note that this paper
- should be cited especially if you are using the GW part of ABINIT, as several authors
- of this part are not in the list of authors of the first or third paper.
- The .pdf of the latter paper is available at https://www.abinit.org/about/zfk_0505-06_558-562.pdf.
- Note that it should not redistributed (Copyright by Oldenburg Wissenshaftverlag,
- the licence allows the authors to put it on the Web).
-
- And optionally:
-
- [4] First-principles computation of material properties : the ABINIT software project. 
- X. Gonze, J.-M. Beuken, R. Caracas, F. Detraux, M. Fuchs, G.-M. Rignanese, L. Sindic,
- M. Verstraete, G. Zerah, F. Jollet, M. Torrent, A. Roy, M. Mikami, Ph. Ghosez, J.-Y. Raty, D.C. Allan.
- Computational Materials Science 25, 478-492 (2002). http://dx.doi.org/10.1016/S0927-0256(02)00325-7
- Comment : the original paper describing the ABINIT project.
-
- [5] Fast radix 2, 3, 4 and 5 kernels for Fast Fourier Transformations
- on computers with overlapping multiply-add instructions.
- S. Goedecker, SIAM J. on Scientific Computing 18, 1605 (1997).
-
- Proc.   0 individual time (sec): cpu=         41.8  wall=         42.0

================================================================================

 Calculation completed.
.Delivered  17 WARNINGs and  11 COMMENTs to log file.
+Overall time at end (sec) : cpu=         41.8  wall=         42.0
