
.Version 8.9.4 of ABINIT 
.(sequential version, prepared for a x86_64_linux_gnu7.3 computer) 

.Copyright (C) 1998-2018 ABINIT group . 
 ABINIT comes with ABSOLUTELY NO WARRANTY.
 It is free software, and you are welcome to redistribute it
 under certain conditions (GNU General Public License,
 see ~abinit/COPYING or http://www.gnu.org/copyleft/gpl.txt).

 ABINIT is a project of the Universite Catholique de Louvain,
 Corning Inc. and other collaborators, see ~abinit/doc/developers/contributors.txt .
 Please read https://docs.abinit.org/theory/acknowledgments for suggested
 acknowledgments of the ABINIT effort.
 For more information, see https://www.abinit.org .

.Starting date : Thu 14 Feb 2019.
- ( at 15h15 )
  
- input  file    -> t03.in
- output file    -> t03_x.out
- root for input  files -> t03_xi
- root for output files -> t03_xo

- inpspheads : Reading pseudopotential header in XML form from ../../../Psps_for_tests/ba.hpc.paw.xml
- inpspheads : Reading pseudopotential header in XML form from ../../../Psps_for_tests/ti.hpc.paw.xml
- inpspheads : Reading pseudopotential header in XML form from ../../../Psps_for_tests/o.hpc.paw.xml

 Symmetries : space group Pm m m (# 47); Bravais oP (primitive ortho.)
================================================================================
 Values of the parameters that define the memory need of the present run
     intxc =       0    ionmov =       0      iscf =      17    lmnmax =      18
     lnmax =       6     mgfft =      60  mpssoang =       3    mqgrid =    3229
     natom =      29  nloc_mem =       2    nspden =       1   nspinor =       1
    nsppol =       1      nsym =       8    n1xccc =       1    ntypat =       3
    occopt =       1   xclevel =       1
-    mband =         128        mffmem =           1         mkmem =           1
       mpw =        1284          nfft =       48000          nkpt =           1
 PAW method is used; the additional fine FFT grid is defined by:
   mgfftf=        72    nfftf =     77760
================================================================================
P This job should need less than                      38.153 Mbytes of memory.
  Rough estimation (10% accuracy) of disk space for files :
_ WF disk file :      2.510 Mbytes ; DEN or POT disk file :      0.595 Mbytes.
================================================================================

--------------------------------------------------------------------------------
------------- Echo of variables that govern the present computation ------------
--------------------------------------------------------------------------------
-
- outvars: echo of selected default values                                      
-   iomode0 =  0 , fftalg0 =112 , wfoptalg0 = 10
-
- outvars: echo of global parameters not present in the input file              
-  max_nthreads =    0
-
 -outvars: echo values of preprocessed input variables --------
            acell      2.2676713595E+01  1.5117809063E+01  7.5589045315E+00 Bohr
              amu      1.37327000E+02  4.78800000E+01  1.59994000E+01
           bandpp         128
      chksymbreak           0
           diemac      3.00000000E+01
             ecut      8.00000000E+00 Hartree
-          fftalg         112
           istwfk        2
              ixc           7
              kpt      5.00000000E-01  5.00000000E-01  5.00000000E-01
         kptrlatt        1    0    0      0    1    0      0    0    1
          kptrlen      7.55890453E+00
P           mkmem           1
            natom          29
            nband         128
           nbdbuf          11
            ngfft          60      40      20
          ngfftdg          72      45      24
             nkpt           1
            nline           6
           nnsclo           1
            nstep          10
             nsym           8
           ntypat           3
              occ      2.000000  2.000000  2.000000  2.000000  2.000000  2.000000
                       2.000000  2.000000  2.000000  2.000000  2.000000  2.000000
                       2.000000  2.000000  2.000000  2.000000  2.000000  2.000000
                       2.000000  2.000000  2.000000  2.000000  2.000000  2.000000
                       2.000000  2.000000  2.000000  2.000000  2.000000  2.000000
                       2.000000  2.000000  2.000000  2.000000  2.000000  2.000000
                       2.000000  2.000000  2.000000  2.000000  2.000000  2.000000
                       2.000000  2.000000  2.000000  2.000000  2.000000  2.000000
                       2.000000  2.000000  2.000000  2.000000  2.000000  2.000000
                       2.000000  2.000000  2.000000  2.000000  2.000000  2.000000
                       2.000000  2.000000  2.000000  2.000000  2.000000  2.000000
                       2.000000  2.000000  2.000000  2.000000  2.000000  2.000000
                       2.000000  2.000000  2.000000  2.000000  2.000000  2.000000
                       2.000000  2.000000  2.000000  2.000000  2.000000  2.000000
                       2.000000  2.000000  2.000000  2.000000  2.000000  2.000000
                       2.000000  2.000000  2.000000  2.000000  2.000000  2.000000
                       2.000000  2.000000  2.000000  2.000000  2.000000  2.000000
                       2.000000  2.000000  2.000000  2.000000  2.000000  2.000000
                       2.000000  2.000000  2.000000  2.000000  2.000000  2.000000
                       2.000000  2.000000  2.000000  0.000000  0.000000  0.000000
                       0.000000  0.000000  0.000000  0.000000  0.000000  0.000000
                       0.000000  0.000000
        pawecutdg      1.00000000E+01 Hartree
           prtden           0
           prteig           0
            prtwf           0
           shiftk      5.00000000E-01  5.00000000E-01  5.00000000E-01
          spgroup          47
           symrel      1  0  0   0  1  0   0  0  1      -1  0  0   0 -1  0   0  0 -1
                      -1  0  0   0  1  0   0  0 -1       1  0  0   0 -1  0   0  0  1
                      -1  0  0   0 -1  0   0  0  1       1  0  0   0  1  0   0  0 -1
                       1  0  0   0 -1  0   0  0 -1      -1  0  0   0  1  0   0  0  1
           timopt          -3
            tnons      0.0000000  0.0000000  0.0000000     0.3333333  0.5000000  0.0000000
                       0.3333333  0.0000000  0.0000000     0.0000000  0.5000000  0.0000000
                       0.3333333  0.5000000  0.0000000     0.0000000  0.0000000  0.0000000
                       0.0000000  0.5000000  0.0000000     0.3333333  0.0000000  0.0000000
           tolvrs      1.00000000E-07
            typat      1  2  3  3  3  1  2  3  3  3  1  2  3  3  3  1  2  3  3  3
                       1  2  3  3  3  1  2  3  3
           useylm           1
         wfoptalg           1
           xangst      0.0000000000E+00  0.0000000000E+00  0.0000000000E+00
                       2.0000000000E+00  2.0000000000E+00  2.0000000000E+00
                       2.0000000000E+00  2.0000000000E+00  0.0000000000E+00
                       2.0000000000E+00  0.0000000000E+00  2.0000000000E+00
                       0.0000000000E+00  2.0000000000E+00  2.0000000000E+00
                       0.0000000000E+00  4.0000000000E+00  0.0000000000E+00
                       2.0000000000E+00  6.0000000000E+00  2.0000000000E+00
                       2.0000000000E+00  6.0000000000E+00  0.0000000000E+00
                       2.0000000000E+00  4.0000000000E+00  2.0000000000E+00
                       0.0000000000E+00  6.0000000000E+00  2.0000000000E+00
                       4.0000000000E+00  0.0000000000E+00  0.0000000000E+00
                       6.0000000000E+00  2.0000000000E+00  2.0000000000E+00
                       6.0000000000E+00  2.0000000000E+00  0.0000000000E+00
                       6.0000000000E+00  0.0000000000E+00  2.0000000000E+00
                       4.0000000000E+00  2.0000000000E+00  2.0000000000E+00
                       4.0000000000E+00  4.0000000000E+00  0.0000000000E+00
                       6.0000000000E+00  6.0000000000E+00  2.0000000000E+00
                       6.0000000000E+00  6.0000000000E+00  0.0000000000E+00
                       6.0000000000E+00  4.0000000000E+00  2.0000000000E+00
                       4.0000000000E+00  6.0000000000E+00  2.0000000000E+00
                       8.0000000000E+00  0.0000000000E+00  0.0000000000E+00
                       1.0000000000E+01  2.0000000000E+00  2.0000000000E+00
                       1.0000000000E+01  2.0000000000E+00  0.0000000000E+00
                       1.0000000000E+01  0.0000000000E+00  2.0000000000E+00
                       8.0000000000E+00  2.0000000000E+00  2.0000000000E+00
                       8.0000000000E+00  4.0000000000E+00  0.0000000000E+00
                       1.0000000000E+01  6.0000000000E+00  2.0000000000E+00
                       1.0000000000E+01  6.0000000000E+00  0.0000000000E+00
                       1.0000000000E+01  4.0000000000E+00  2.0000000000E+00
            xcart      0.0000000000E+00  0.0000000000E+00  0.0000000000E+00
                       3.7794522658E+00  3.7794522658E+00  3.7794522658E+00
                       3.7794522658E+00  3.7794522658E+00  0.0000000000E+00
                       3.7794522658E+00  0.0000000000E+00  3.7794522658E+00
                       0.0000000000E+00  3.7794522658E+00  3.7794522658E+00
                       0.0000000000E+00  7.5589045315E+00  0.0000000000E+00
                       3.7794522658E+00  1.1338356797E+01  3.7794522658E+00
                       3.7794522658E+00  1.1338356797E+01  0.0000000000E+00
                       3.7794522658E+00  7.5589045315E+00  3.7794522658E+00
                       0.0000000000E+00  1.1338356797E+01  3.7794522658E+00
                       7.5589045315E+00  0.0000000000E+00  0.0000000000E+00
                       1.1338356797E+01  3.7794522658E+00  3.7794522658E+00
                       1.1338356797E+01  3.7794522658E+00  0.0000000000E+00
                       1.1338356797E+01  0.0000000000E+00  3.7794522658E+00
                       7.5589045315E+00  3.7794522658E+00  3.7794522658E+00
                       7.5589045315E+00  7.5589045315E+00  0.0000000000E+00
                       1.1338356797E+01  1.1338356797E+01  3.7794522658E+00
                       1.1338356797E+01  1.1338356797E+01  0.0000000000E+00
                       1.1338356797E+01  7.5589045315E+00  3.7794522658E+00
                       7.5589045315E+00  1.1338356797E+01  3.7794522658E+00
                       1.5117809063E+01  0.0000000000E+00  0.0000000000E+00
                       1.8897261329E+01  3.7794522658E+00  3.7794522658E+00
                       1.8897261329E+01  3.7794522658E+00  0.0000000000E+00
                       1.8897261329E+01  0.0000000000E+00  3.7794522658E+00
                       1.5117809063E+01  3.7794522658E+00  3.7794522658E+00
                       1.5117809063E+01  7.5589045315E+00  0.0000000000E+00
                       1.8897261329E+01  1.1338356797E+01  3.7794522658E+00
                       1.8897261329E+01  1.1338356797E+01  0.0000000000E+00
                       1.8897261329E+01  7.5589045315E+00  3.7794522658E+00
             xred      0.0000000000E+00  0.0000000000E+00  0.0000000000E+00
                       1.6666666667E-01  2.5000000000E-01  5.0000000000E-01
                       1.6666666667E-01  2.5000000000E-01  0.0000000000E+00
                       1.6666666667E-01  0.0000000000E+00  5.0000000000E-01
                       0.0000000000E+00  2.5000000000E-01  5.0000000000E-01
                       0.0000000000E+00  5.0000000000E-01  0.0000000000E+00
                       1.6666666667E-01  7.5000000000E-01  5.0000000000E-01
                       1.6666666667E-01  7.5000000000E-01  0.0000000000E+00
                       1.6666666667E-01  5.0000000000E-01  5.0000000000E-01
                       0.0000000000E+00  7.5000000000E-01  5.0000000000E-01
                       3.3333333333E-01  0.0000000000E+00  0.0000000000E+00
                       5.0000000000E-01  2.5000000000E-01  5.0000000000E-01
                       5.0000000000E-01  2.5000000000E-01  0.0000000000E+00
                       5.0000000000E-01  0.0000000000E+00  5.0000000000E-01
                       3.3333333333E-01  2.5000000000E-01  5.0000000000E-01
                       3.3333333333E-01  5.0000000000E-01  0.0000000000E+00
                       5.0000000000E-01  7.5000000000E-01  5.0000000000E-01
                       5.0000000000E-01  7.5000000000E-01  0.0000000000E+00
                       5.0000000000E-01  5.0000000000E-01  5.0000000000E-01
                       3.3333333333E-01  7.5000000000E-01  5.0000000000E-01
                       6.6666666667E-01  0.0000000000E+00  0.0000000000E+00
                       8.3333333333E-01  2.5000000000E-01  5.0000000000E-01
                       8.3333333333E-01  2.5000000000E-01  0.0000000000E+00
                       8.3333333333E-01  0.0000000000E+00  5.0000000000E-01
                       6.6666666667E-01  2.5000000000E-01  5.0000000000E-01
                       6.6666666667E-01  5.0000000000E-01  0.0000000000E+00
                       8.3333333333E-01  7.5000000000E-01  5.0000000000E-01
                       8.3333333333E-01  7.5000000000E-01  0.0000000000E+00
                       8.3333333333E-01  5.0000000000E-01  5.0000000000E-01
            znucl       56.00000   22.00000    8.00000

================================================================================

 chkinp: Checking input parameters for consistency.

================================================================================
== DATASET  1 ==================================================================
-   nproc =    1

 Exchange-correlation functional for the present dataset will be:
  LDA: Perdew-Wang 92 LSD fit to Ceperley-Alder data - ixc=7
 Citation for XC functional:
  J.P.Perdew and Y.Wang, PRB 45, 13244 (1992)

 Real(R)+Recip(G) space primitive vectors, cartesian coordinates (Bohr,Bohr^-1):
 R(1)= 22.6767136  0.0000000  0.0000000  G(1)=  0.0440981  0.0000000  0.0000000
 R(2)=  0.0000000 15.1178091  0.0000000  G(2)=  0.0000000  0.0661472  0.0000000
 R(3)=  0.0000000  0.0000000  7.5589045  G(3)=  0.0000000  0.0000000  0.1322943
 Unit cell volume ucvol=  2.5913605E+03 bohr^3
 Angles (23,13,12)=  9.00000000E+01  9.00000000E+01  9.00000000E+01 degrees

 Coarse grid specifications (used for wave-functions):

 getcut: wavevector=  0.0000  0.0000  0.0000  ngfft=  60  40  20
         ecut(hartree)=      8.000   => boxcut(ratio)=   2.07807

 Fine grid specifications (used for densities):

 getcut: wavevector=  0.0000  0.0000  0.0000  ngfft=  72  45  24
         ecut(hartree)=     10.000   => boxcut(ratio)=   2.04455

--- Pseudopotential description ------------------------------------------------
- pspini: atom type   1  psp file is ../../../Psps_for_tests/ba.hpc.paw.xml
- pspatm: opening atomic psp file    ../../../Psps_for_tests/ba.hpc.paw.xml
- pspatm : Reading pseudopotential header in XML form from ../../../Psps_for_tests/ba.hpc.paw.xml
 Pseudopotential format is: paw10
 basis_size (lnmax)=  6 (lmn_size= 18), orbitals=   0   0   1   1   2   2
 Spheres core radius: rc_sph= 2.31518568
 1 radial meshes are used:
  - mesh 1: r(i)=AA*[exp(BB*(i-1))-1], size=1500 , AA= 0.15658E-03 BB= 0.87685E-02
 Shapefunction is SIN type: shapef(r)=[sin(pi*r/rshp)/(pi*r/rshp)]**2
 Radius for shape functions =  2.01210979
 mmax= 1500
 Radial grid used for partial waves is grid 1
 Radial grid used for projectors is grid 1
 Radial grid used for (t)core density is grid 1
 Radial grid used for Vloc is grid 1
 Radial grid used for pseudo valence density is grid 1
 Mesh size for Vloc has been set to 1341 to avoid numerical noise.
 Compensation charge density is not taken into account in XC energy/potential
 pspatm: atomic psp has been read  and splines computed

- pspini: atom type   2  psp file is ../../../Psps_for_tests/ti.hpc.paw.xml
- pspatm: opening atomic psp file    ../../../Psps_for_tests/ti.hpc.paw.xml
- pspatm : Reading pseudopotential header in XML form from ../../../Psps_for_tests/ti.hpc.paw.xml
 Pseudopotential format is: paw10
 basis_size (lnmax)=  6 (lmn_size= 18), orbitals=   0   0   1   1   2   2
 Spheres core radius: rc_sph= 2.30000000
 1 radial meshes are used:
  - mesh 1: r(i)=AA*[exp(BB*(i-1))-1], size= 899 , AA= 0.64047E-03 BB= 0.14090E-01
 Shapefunction is BESSEL type: shapef(r,l)=aa(1,l)*jl(q(1,l)*r)+aa(2,l)*jl(q(2,l)*r)
 Radius for shape functions =  2.02598965
 mmax=  899
 Radial grid used for partial waves is grid 1
 Radial grid used for projectors is grid 1
 Radial grid used for (t)core density is grid 1
 Radial grid used for Vloc is grid 1
 Radial grid used for pseudo valence density is grid 1
 Mesh size for Vloc has been set to  735 to avoid numerical noise.
 Compensation charge density is not taken into account in XC energy/potential
 pspatm: atomic psp has been read  and splines computed

- pspini: atom type   3  psp file is ../../../Psps_for_tests/o.hpc.paw.xml
- pspatm: opening atomic psp file    ../../../Psps_for_tests/o.hpc.paw.xml
- pspatm : Reading pseudopotential header in XML form from ../../../Psps_for_tests/o.hpc.paw.xml
 Pseudopotential format is: paw10
 basis_size (lnmax)=  4 (lmn_size=  8), orbitals=   0   0   1   1
 Spheres core radius: rc_sph= 1.41465230
 1 radial meshes are used:
  - mesh 1: r(i)=AA*[exp(BB*(i-1))-1], size=2001 , AA= 0.72565E-03 BB= 0.58052E-02
 Shapefunction is SIN type: shapef(r)=[sin(pi*r/rshp)/(pi*r/rshp)]**2
 Radius for shape functions =  1.20231231
 mmax= 2001
 Radial grid used for partial waves is grid 1
 Radial grid used for projectors is grid 1
 Radial grid used for (t)core density is grid 1
 Radial grid used for Vloc is grid 1
 Radial grid used for pseudo valence density is grid 1
 Mesh size for Vloc has been set to 1762 to avoid numerical noise.
 Compensation charge density is not taken into account in XC energy/potential
 pspatm: atomic psp has been read  and splines computed

   1.36968617E+05                                ecore*ucvol(ha*bohr**3)
--------------------------------------------------------------------------------

_setup2: Arith. and geom. avg. npw (full set) are    2567.000    2567.000

================================================================================

     iter   Etot(hartree)      deltaE(h)  residm     nres2
 ETOT  1  -741.88979166517    -7.419E+02 5.994E-01 1.479E+03
 ETOT  2  -742.04417666654    -1.544E-01 4.100E-01 1.700E+02
 ETOT  3  -748.50021431089    -6.456E+00 2.536E-02 6.009E+01
 ETOT  4  -756.76094640777    -8.261E+00 8.002E-02 3.519E+01
 ETOT  5  -755.08177539055     1.679E+00 4.604E-02 1.974E+01
 ETOT  6  -753.99561780973     1.086E+00 3.289E-02 1.121E+01
 ETOT  7  -744.14942890786     9.846E+00 6.985E-02 1.284E+01
 ETOT  8  -745.69829337502    -1.549E+00 2.822E-02 1.626E+01
 ETOT  9  -749.17904943301    -3.481E+00 7.316E-01 1.046E+01
 ETOT 10  -745.38815637832     3.791E+00 7.402E-02 8.157E+00

 Cartesian components of stress tensor (hartree/bohr^3)
  sigma(1 1)= -1.38458961E-02  sigma(3 2)=  0.00000000E+00
  sigma(2 2)= -2.93883431E-02  sigma(3 1)=  0.00000000E+00
  sigma(3 3)= -2.51741971E-02  sigma(2 1)=  0.00000000E+00


 scprqt:  WARNING -
  nstep=   10 was not enough SCF cycles to converge;
  density residual=  8.157E+00 exceeds tolvrs=  1.000E-07

 Integrated electronic density in atomic spheres:
 ------------------------------------------------
 Atom  Sphere_radius  Integrated_density
    1        2.31519         -2.32542333
    2        2.30000          6.79745743
    3        1.41465          0.42037394
    4        1.41465          0.77904283
    5        1.41465          0.85834720
    6        2.31519         -2.32514214
    7        2.30000          6.82781117
    8        1.41465          0.95619515
    9        1.41465          0.77990000
   10        1.41465          0.87551320
   11        2.31519         -2.32542333
   12        2.30000          6.67373229
   13        1.41465          0.84993237
   14        1.41465          0.67099300
   15        1.41465          0.85834720
   16        2.31519         -2.32514214
   17        2.30000          6.08175543
   18        1.41465          0.57490835
   19        1.41465          0.67181843
   20        1.41465          0.87551320
   21        2.31519         -1.34142333
   22        2.30000          6.67373229
   23        1.41465          0.84993237
   24        1.41465          0.67099300
   25        1.41465          1.61563697
   26        2.31519         -1.34118456
   27        2.30000          6.08175543
   28        1.41465          0.57490835
   29        1.41465          0.67181843

 PAW TEST:
 ==== Compensation charge inside spheres ============
 The following values must be close to each other ...
 Compensation charge over spherical meshes =     39.926521735793678
 Compensation charge over fine fft grid    =     39.041053068391996

 ==== Results concerning PAW augmentation regions ====

 Total pseudopotential strength Dij (hartree):
 Atom #  1
   1.72155   0.24578  -0.04113   0.00000   0.00188  -0.00596   0.00000  -0.00023  -0.00194   0.00000  -0.00281   0.00000 ...
   0.24578   0.03998  -0.00857   0.00000   0.00036  -0.00535   0.00000   0.00014  -0.00052   0.00000  -0.00076   0.00000 ...
  -0.04113  -0.00857   0.24617   0.00000  -0.00285  -0.04224   0.00000  -0.00201   0.00024   0.00000   0.00623   0.00000 ...
   0.00000   0.00000   0.00000   0.22834   0.00000   0.00000  -0.05530   0.00000   0.00000  -0.01011   0.00000   0.00052 ...
   0.00188   0.00036  -0.00285   0.00000   0.22488  -0.00201   0.00000  -0.05813  -0.01094   0.00000  -0.00008   0.00000 ...
  -0.00596  -0.00535  -0.04224   0.00000  -0.00201  -0.78948   0.00000  -0.00428   0.00002   0.00000   0.00454   0.00000 ...
   0.00000   0.00000   0.00000  -0.05530   0.00000   0.00000  -0.81755   0.00000   0.00000  -0.00702   0.00000   0.00034 ...
  -0.00023   0.00014  -0.00201   0.00000  -0.05813  -0.00428   0.00000  -0.82372  -0.00797   0.00000   0.00004   0.00000 ...
  -0.00194  -0.00052   0.00024   0.00000  -0.01094   0.00002   0.00000  -0.00797   0.01022   0.00000   0.00057   0.00000 ...
   0.00000   0.00000   0.00000  -0.01011   0.00000   0.00000  -0.00702   0.00000   0.00000   0.01078   0.00000  -0.00042 ...
  -0.00281  -0.00076   0.00623   0.00000  -0.00008   0.00454   0.00000   0.00004   0.00057   0.00000   0.00756   0.00000 ...
   0.00000   0.00000   0.00000   0.00052   0.00000   0.00000   0.00034   0.00000   0.00000  -0.00042   0.00000   0.00662 ...
   ...  only 12  components have been written...
 Atom # 29
   0.76386  -2.31655   0.00109   0.00000  -0.00178  -0.00571   0.00000   0.01185
  -2.31655   7.12641  -0.00353   0.00000   0.00475   0.01887   0.00000  -0.03198
   0.00109  -0.00353  -0.64328   0.00000  -0.00047   2.64260   0.00000   0.00240
   0.00000   0.00000   0.00000  -0.63782   0.00000   0.00000   2.61661   0.00000
  -0.00178   0.00475  -0.00047   0.00000  -0.63733   0.00240   0.00000   2.61420
  -0.00571   0.01887   2.64260   0.00000   0.00240  -8.84291   0.00000  -0.01184
   0.00000   0.00000   0.00000   2.61661   0.00000   0.00000  -8.72558   0.00000
   0.01185  -0.03198   0.00240   0.00000   2.61420  -0.01184   0.00000  -8.71443


 Augmentation waves occupancies Rhoij:
 Atom #  1
   1.57826  -2.31163  -0.42157   0.00000  -0.01991   0.04492   0.00000   0.00589  -0.08924   0.00000   0.32237   0.00000 ...
  -2.31163   4.88263   1.23402   0.00000   0.08494  -0.14677   0.00000  -0.00849   0.03066   0.00000  -0.02051   0.00000 ...
  -0.42157   1.23402   3.08555   0.00000  -0.05907  -0.34054   0.00000   0.01719  -0.00415   0.00000   0.54967   0.00000 ...
   0.00000   0.00000   0.00000   1.37482   0.00000   0.00000  -0.12144   0.00000   0.00000  -0.69712   0.00000  -0.03640 ...
  -0.01991   0.08494  -0.05907   0.00000   1.27506  -0.00789   0.00000  -0.12872  -0.90720   0.00000   0.06805   0.00000 ...
   0.04492  -0.14677  -0.34054   0.00000  -0.00789   0.04963   0.00000  -0.00209  -0.00577   0.00000  -0.06060   0.00000 ...
   0.00000   0.00000   0.00000  -0.12144   0.00000   0.00000   0.02389   0.00000   0.00000   0.14621   0.00000   0.00400 ...
   0.00589  -0.00849   0.01719   0.00000  -0.12872  -0.00209   0.00000   0.02021   0.13532   0.00000  -0.00202   0.00000 ...
  -0.08924   0.03066  -0.00415   0.00000  -0.90720  -0.00577   0.00000   0.13532   8.15578   0.00000   0.77331   0.00000 ...
   0.00000   0.00000   0.00000  -0.69712   0.00000   0.00000   0.14621   0.00000   0.00000   9.07219   0.00000  -0.57749 ...
   0.32237  -0.02051   0.54967   0.00000   0.06805  -0.06060   0.00000  -0.00202   0.77331   0.00000   2.32811   0.00000 ...
   0.00000   0.00000   0.00000  -0.03640   0.00000   0.00000   0.00400   0.00000   0.00000  -0.57749   0.00000   2.03682 ...
   ...  only 12  components have been written...
 Atom # 29
   0.74648  -0.01718   0.08410   0.00000   0.06369   0.00600   0.00000   0.00359
  -0.01718   0.01590  -0.07887   0.00000   0.00962  -0.00357   0.00000   0.00035
   0.08410  -0.07887   2.88185   0.00000  -0.09118   0.11046   0.00000  -0.00244
   0.00000   0.00000   0.00000   1.59812   0.00000   0.00000   0.04708   0.00000
   0.06369   0.00962  -0.09118   0.00000   1.50188   0.00113   0.00000   0.03235
   0.00600  -0.00357   0.11046   0.00000   0.00113   0.00547   0.00000   0.00003
   0.00000   0.00000   0.00000   0.04708   0.00000   0.00000   0.00270   0.00000
   0.00359   0.00035  -0.00244   0.00000   0.03235   0.00003   0.00000   0.00177


================================================================================

 ----iterations are completed or convergence reached----

 Mean square residual over all n,k,spin=   69.216E-05; max=  74.018E-03
 reduced coordinates (array xred) for   29 atoms
       0.000000000000      0.000000000000      0.000000000000
       0.166666666667      0.250000000000      0.500000000000
       0.166666666667      0.250000000000      0.000000000000
       0.166666666667      0.000000000000      0.500000000000
       0.000000000000      0.250000000000      0.500000000000
       0.000000000000      0.500000000000      0.000000000000
       0.166666666667      0.750000000000      0.500000000000
       0.166666666667      0.750000000000      0.000000000000
       0.166666666667      0.500000000000      0.500000000000
       0.000000000000      0.750000000000      0.500000000000
       0.333333333333      0.000000000000      0.000000000000
       0.500000000000      0.250000000000      0.500000000000
       0.500000000000      0.250000000000      0.000000000000
       0.500000000000      0.000000000000      0.500000000000
       0.333333333333      0.250000000000      0.500000000000
       0.333333333333      0.500000000000      0.000000000000
       0.500000000000      0.750000000000      0.500000000000
       0.500000000000      0.750000000000      0.000000000000
       0.500000000000      0.500000000000      0.500000000000
       0.333333333333      0.750000000000      0.500000000000
       0.666666666667      0.000000000000      0.000000000000
       0.833333333333      0.250000000000      0.500000000000
       0.833333333333      0.250000000000      0.000000000000
       0.833333333333      0.000000000000      0.500000000000
       0.666666666667      0.250000000000      0.500000000000
       0.666666666667      0.500000000000      0.000000000000
       0.833333333333      0.750000000000      0.500000000000
       0.833333333333      0.750000000000      0.000000000000
       0.833333333333      0.500000000000      0.500000000000
 rms dE/dt=  1.9604E+01; max dE/dt=  7.7650E+01; dE/dt below (all hartree)
    1      25.578521595064     -5.914361435251      0.000000000000
    2       0.000000000000      0.000000000000      0.000000000000
    3       0.000000000000      0.000000000000      0.000000000000
    4       0.000000000000    -15.329230517290     -0.000000000000
    5      17.843885727499      0.000000000000      0.000000000000
    6      25.578521595064      5.914361435251      0.000000000000
    7       0.000000000000      0.000000000000      0.000000000000
    8       0.000000000000      0.000000000000      0.000000000000
    9      -0.000000000000     15.329230517290     -0.000000000000
   10       8.622317938209      0.000000000000      0.000000000000
   11     -25.578521595064     -5.914361435251      0.000000000000
   12     -44.005482396204      0.000000000000      0.000000000000
   13     -14.741734043780      0.000000000000     -0.000000000000
   14     -30.549927685080      5.568837048982      0.000000000000
   15     -17.843885727499      0.000000000000      0.000000000000
   16     -25.578521595064      5.914361435251      0.000000000000
   17     -77.649611718657      0.000000000000      0.000000000000
   18     -51.542351723352      0.000000000000     -0.000000000000
   19     -30.549927685080     -5.568837048982      0.000000000000
   20      -8.622317938209      0.000000000000      0.000000000000
   21       0.000000000000     44.072778668702     -0.000000000000
   22      44.005482396204      0.000000000000      0.000000000000
   23      14.741734043780      0.000000000000      0.000000000000
   24      30.549927685080      5.568837048982      0.000000000000
   25       0.000000000000      0.000000000000      0.000000000000
   26       0.000000000000    -44.072778668702     -0.000000000000
   27      77.649611718657      0.000000000000      0.000000000000
   28      51.542351723352      0.000000000000      0.000000000000
   29      30.549927685080     -5.568837048982     -0.000000000000

 cartesian coordinates (angstrom) at end:
    1      0.00000000000000     0.00000000000000     0.00000000000000
    2      2.00000000000000     2.00000000000000     2.00000000000000
    3      2.00000000000000     2.00000000000000     0.00000000000000
    4      2.00000000000000     0.00000000000000     2.00000000000000
    5      0.00000000000000     2.00000000000000     2.00000000000000
    6      0.00000000000000     4.00000000000000     0.00000000000000
    7      2.00000000000000     6.00000000000000     2.00000000000000
    8      2.00000000000000     6.00000000000000     0.00000000000000
    9      2.00000000000000     4.00000000000000     2.00000000000000
   10      0.00000000000000     6.00000000000000     2.00000000000000
   11      4.00000000000000     0.00000000000000     0.00000000000000
   12      6.00000000000000     2.00000000000000     2.00000000000000
   13      6.00000000000000     2.00000000000000     0.00000000000000
   14      6.00000000000000     0.00000000000000     2.00000000000000
   15      4.00000000000000     2.00000000000000     2.00000000000000
   16      4.00000000000000     4.00000000000000     0.00000000000000
   17      6.00000000000000     6.00000000000000     2.00000000000000
   18      6.00000000000000     6.00000000000000     0.00000000000000
   19      6.00000000000000     4.00000000000000     2.00000000000000
   20      4.00000000000000     6.00000000000000     2.00000000000000
   21      8.00000000000000     0.00000000000000     0.00000000000000
   22     10.00000000000000     2.00000000000000     2.00000000000000
   23     10.00000000000000     2.00000000000000     0.00000000000000
   24     10.00000000000000     0.00000000000000     2.00000000000000
   25      8.00000000000000     2.00000000000000     2.00000000000000
   26      8.00000000000000     4.00000000000000     0.00000000000000
   27     10.00000000000000     6.00000000000000     2.00000000000000
   28     10.00000000000000     6.00000000000000     0.00000000000000
   29     10.00000000000000     4.00000000000000     2.00000000000000

 cartesian forces (hartree/bohr) at end:
    1     -1.12796422146125     0.39121815936231    -0.00000000000000
    2     -0.00000000000000     0.00000000000000    -0.00000000000000
    3     -0.00000000000000     0.00000000000000    -0.00000000000000
    4     -0.00000000000000     1.01398492687155    -0.00000000000000
    5     -0.78688146997309     0.00000000000000    -0.00000000000000
    6     -1.12796422146125    -0.39121815936231    -0.00000000000000
    7     -0.00000000000000     0.00000000000000    -0.00000000000000
    8     -0.00000000000000     0.00000000000000    -0.00000000000000
    9     -0.00000000000000    -1.01398492687155    -0.00000000000000
   10     -0.38022784484308     0.00000000000000    -0.00000000000000
   11      1.12796422146125     0.39121815936231    -0.00000000000000
   12      1.94055819475664     0.00000000000000    -0.00000000000000
   13      0.65008247258865     0.00000000000000     0.00000000000000
   14      1.34719378791807    -0.36836270558408    -0.00000000000000
   15      0.78688146997309     0.00000000000000    -0.00000000000000
   16      1.12796422146125    -0.39121815936231    -0.00000000000000
   17      3.42420039811468     0.00000000000000    -0.00000000000000
   18      2.27291981742727     0.00000000000000    -0.00000000000000
   19      1.34719378791807     0.36836270558408    -0.00000000000000
   20      0.38022784484308     0.00000000000000    -0.00000000000000
   21     -0.00000000000000    -2.91528874883858     0.00000000000000
   22     -1.94055819475664     0.00000000000000    -0.00000000000000
   23     -0.65008247258865     0.00000000000000    -0.00000000000000
   24     -1.34719378791807    -0.36836270558408    -0.00000000000000
   25     -0.00000000000000     0.00000000000000    -0.00000000000000
   26     -0.00000000000000     2.91528874883858     0.00000000000000
   27     -3.42420039811468     0.00000000000000    -0.00000000000000
   28     -2.27291981742727     0.00000000000000    -0.00000000000000
   29     -1.34719378791807     0.36836270558408    -0.00000000000000
 frms,max,avg= 9.3615096E-01 3.4242004E+00   0.000E+00  0.000E+00  0.000E+00 h/b

 cartesian forces (eV/Angstrom) at end:
    1    -58.00224747454905    20.11724491267458    -0.00000000000000
    2     -0.00000000000000     0.00000000000000    -0.00000000000000
    3     -0.00000000000000     0.00000000000000    -0.00000000000000
    4     -0.00000000000000    52.14119698555203    -0.00000000000000
    5    -40.46306867374700     0.00000000000000    -0.00000000000000
    6    -58.00224747454904   -20.11724491267458    -0.00000000000000
    7     -0.00000000000000     0.00000000000000    -0.00000000000000
    8     -0.00000000000000     0.00000000000000    -0.00000000000000
    9     -0.00000000000000   -52.14119698555203    -0.00000000000000
   10    -19.55210026496422     0.00000000000000    -0.00000000000000
   11     58.00224747454904    20.11724491267458    -0.00000000000000
   12     99.78750611896533     0.00000000000000    -0.00000000000000
   13     33.42858198561108     0.00000000000000     0.00000000000000
   14     69.27548409449564   -18.94197032420347    -0.00000000000000
   15     40.46306867374700     0.00000000000000    -0.00000000000000
   16     58.00224747454905   -20.11724491267458    -0.00000000000000
   17    176.07944925469351     0.00000000000000    -0.00000000000000
   18    116.87822648260459     0.00000000000000    -0.00000000000000
   19     69.27548409449564    18.94197032420347    -0.00000000000000
   20     19.55210026496422     0.00000000000000    -0.00000000000000
   21     -0.00000000000000  -149.91016226635890     0.00000000000000
   22    -99.78750611896533     0.00000000000000    -0.00000000000000
   23    -33.42858198561108     0.00000000000000    -0.00000000000000
   24    -69.27548409449564   -18.94197032420347    -0.00000000000000
   25     -0.00000000000000     0.00000000000000    -0.00000000000000
   26     -0.00000000000000   149.91016226635890     0.00000000000000
   27   -176.07944925469351     0.00000000000000    -0.00000000000000
   28   -116.87822648260459     0.00000000000000    -0.00000000000000
   29    -69.27548409449564    18.94197032420347    -0.00000000000000
 frms,max,avg= 4.8138814E+01 1.7607945E+02   0.000E+00  0.000E+00  0.000E+00 e/A
 length scales= 22.676713594628 15.117809063085  7.558904531543 bohr
              = 12.000000000000  8.000000000000  4.000000000000 angstroms
 Fermi (or HOMO) energy (hartree) =   0.48473   Average Vxc (hartree)=  -0.10112
 Eigenvalues (hartree) for nkpt=   1  k points:
 kpt#   1, nband=128, wtk=  1.00000, kpt=  0.5000  0.5000  0.5000 (reduced coord)
  -2.06273   -2.05987   -1.98984   -1.81368   -1.80307   -1.76998   -1.74115   -1.72954
  -1.68739   -1.66165   -1.65040   -1.58811   -1.58077   -1.55810   -1.51711   -1.48059
  -1.41553   -1.40597   -1.34341   -1.30338   -1.24277   -1.17125   -1.15898   -1.05883
  -0.97204   -0.96768   -0.91480   -0.89765   -0.85793   -0.84113   -0.83632   -0.80936
  -0.75082   -0.71969   -0.71741   -0.69479   -0.63727   -0.61899   -0.60539   -0.59510
  -0.57248   -0.57099   -0.54634   -0.54054   -0.49520   -0.49006   -0.45958   -0.44746
  -0.44573   -0.41045   -0.40646   -0.38716   -0.35396   -0.30508   -0.28205   -0.26910
  -0.25576   -0.23846   -0.22401   -0.18083   -0.17499   -0.17305   -0.14409   -0.11424
  -0.07988   -0.05786   -0.05153   -0.04759   -0.03913   -0.01302   -0.00388    0.00181
   0.02693    0.03208    0.04517    0.06841    0.07415    0.08220    0.08898    0.11388
   0.11774    0.13612    0.14379    0.15973    0.17541    0.18545    0.19795    0.19932
   0.20576    0.21287    0.21680    0.22995    0.23696    0.24944    0.26071    0.26594
   0.29241    0.30146    0.31368    0.32399    0.33112    0.34164    0.34406    0.35790
   0.35969    0.38227    0.38816    0.39452    0.40994    0.42086    0.42660    0.43410
   0.44287    0.45253    0.47219    0.47847    0.48473    0.50747    0.51717    0.52190
   0.53970    0.54340    0.54918    0.55720    0.56303    0.58098    0.59349    0.60295

--------------------------------------------------------------------------------
 Components of total free energy (in Hartree) :

    Kinetic energy  =  3.36272322450142E+02
    Hartree energy  =  9.88721756792456E+01
    XC energy       = -3.25336527560922E+00
    Ewald energy    = -6.00042810902512E+02
    PspCore energy  =  5.28558715010202E+01
    Loc. psp. energy= -2.95427960202472E+02
    Spherical terms =  5.64593567956091E+00
    >>>>>>>>> Etotal= -4.05077831070625E+02

 "Double-counting" decomposition of free energy:
    Band energy     = -9.42614118991108E+01
    Ewald energy    = -6.00042810902512E+02
    PspCore energy  =  5.28558715010202E+01
    Dble-C XC-energy= -1.01001833410144E+02
    Spherical terms = -2.93797166756846E+00
    >>>> Etotal (DC)= -7.45388156378315E+02

  >Total energy in eV           = -1.10227283544390E+04
  >Total DC energy in eV        = -2.02830432479080E+04
--------------------------------------------------------------------------------

 Cartesian components of stress tensor (hartree/bohr^3)
  sigma(1 1)= -1.38458961E-02  sigma(3 2)=  0.00000000E+00
  sigma(2 2)= -2.93883431E-02  sigma(3 1)=  0.00000000E+00
  sigma(3 3)= -2.51741971E-02  sigma(2 1)=  0.00000000E+00

-Cartesian components of stress tensor (GPa)         [Pressure=  6.7088E+02 GPa]
- sigma(1 1)= -4.07360258E+02  sigma(3 2)=  0.00000000E+00
- sigma(2 2)= -8.64634758E+02  sigma(3 1)=  0.00000000E+00
- sigma(3 3)= -7.40650326E+02  sigma(2 1)=  0.00000000E+00

== END DATASET(S) ==============================================================
================================================================================
  
 -outvars: echo values of variables after computation  --------
            acell      2.2676713595E+01  1.5117809063E+01  7.5589045315E+00 Bohr
              amu      1.37327000E+02  4.78800000E+01  1.59994000E+01
           bandpp         128
      chksymbreak           0
           diemac      3.00000000E+01
             ecut      8.00000000E+00 Hartree
           etotal     -7.4538815638E+02
            fcart     -1.1279642215E+00  3.9121815936E-01 -5.5470339440E-25
                      -1.5313421029E-17  3.8283552573E-18 -5.5470339440E-25
                      -1.5313421029E-17  3.8283552573E-18 -5.5470339440E-25
                      -1.5313421029E-17  1.0139849269E+00 -4.4527211251E-25
                      -7.8688146997E-01  3.8283552573E-18 -5.5470339440E-25
                      -1.1279642215E+00 -3.9121815936E-01 -5.5470339440E-25
                      -1.5313421029E-17  3.8283552573E-18 -5.5470339440E-25
                      -1.5313421029E-17  3.8283552573E-18 -5.5470339440E-25
                      -1.5313420737E-17 -1.0139849269E+00 -1.1697826685E-25
                      -3.8022784484E-01  3.8283552573E-18 -5.5470339440E-25
                       1.1279642215E+00  3.9121815936E-01 -5.5470339440E-25
                       1.9405581948E+00  3.8283552573E-18 -5.5470339440E-25
                       6.5008247259E-01  3.8283552573E-18  2.9470976260E-24
                       1.3471937879E+00 -3.6836270558E-01 -5.5470339440E-25
                       7.8688146997E-01  3.8283552573E-18 -5.5470339440E-25
                       1.1279642215E+00 -3.9121815936E-01 -5.5470339440E-25
                       3.4242003981E+00  3.8283552573E-18 -5.6583519721E-23
                       2.2729198174E+00  3.8283552573E-18 -4.4527211251E-25
                       1.3471937879E+00  3.6836270558E-01 -9.3771288100E-25
                       3.8022784484E-01  3.8283552573E-18 -5.5470339440E-25
                      -1.5313421029E-17 -2.9152887488E+00  5.5474112932E-23
                      -1.9405581948E+00  3.8283552573E-18 -5.5470339440E-25
                      -6.5008247259E-01  3.8283552573E-18 -2.3056039046E-24
                      -1.3471937879E+00 -3.6836270558E-01 -5.5470339440E-25
                      -1.5313421029E-17  3.8283552573E-18 -5.5470339440E-25
                      -1.5313421029E-17  2.9152887488E+00  1.3452500687E-23
                      -3.4242003981E+00  3.8283552573E-18 -5.5470339440E-25
                      -2.2729198174E+00  3.8283552573E-18 -6.6413467628E-25
                      -1.3471937879E+00  3.6836270558E-01 -3.9055647156E-25
-          fftalg         112
           istwfk        2
              ixc           7
              kpt      5.00000000E-01  5.00000000E-01  5.00000000E-01
         kptrlatt        1    0    0      0    1    0      0    0    1
          kptrlen      7.55890453E+00
P           mkmem           1
            natom          29
            nband         128
           nbdbuf          11
            ngfft          60      40      20
          ngfftdg          72      45      24
             nkpt           1
            nline           6
           nnsclo           1
            nstep          10
             nsym           8
           ntypat           3
              occ      2.000000  2.000000  2.000000  2.000000  2.000000  2.000000
                       2.000000  2.000000  2.000000  2.000000  2.000000  2.000000
                       2.000000  2.000000  2.000000  2.000000  2.000000  2.000000
                       2.000000  2.000000  2.000000  2.000000  2.000000  2.000000
                       2.000000  2.000000  2.000000  2.000000  2.000000  2.000000
                       2.000000  2.000000  2.000000  2.000000  2.000000  2.000000
                       2.000000  2.000000  2.000000  2.000000  2.000000  2.000000
                       2.000000  2.000000  2.000000  2.000000  2.000000  2.000000
                       2.000000  2.000000  2.000000  2.000000  2.000000  2.000000
                       2.000000  2.000000  2.000000  2.000000  2.000000  2.000000
                       2.000000  2.000000  2.000000  2.000000  2.000000  2.000000
                       2.000000  2.000000  2.000000  2.000000  2.000000  2.000000
                       2.000000  2.000000  2.000000  2.000000  2.000000  2.000000
                       2.000000  2.000000  2.000000  2.000000  2.000000  2.000000
                       2.000000  2.000000  2.000000  2.000000  2.000000  2.000000
                       2.000000  2.000000  2.000000  2.000000  2.000000  2.000000
                       2.000000  2.000000  2.000000  2.000000  2.000000  2.000000
                       2.000000  2.000000  2.000000  2.000000  2.000000  2.000000
                       2.000000  2.000000  2.000000  2.000000  2.000000  2.000000
                       2.000000  2.000000  2.000000  0.000000  0.000000  0.000000
                       0.000000  0.000000  0.000000  0.000000  0.000000  0.000000
                       0.000000  0.000000
        pawecutdg      1.00000000E+01 Hartree
           prtden           0
           prteig           0
            prtwf           0
           shiftk      5.00000000E-01  5.00000000E-01  5.00000000E-01
          spgroup          47
           strten     -1.3845896062E-02 -2.9388343051E-02 -2.5174197150E-02
                       0.0000000000E+00  0.0000000000E+00  0.0000000000E+00
           symrel      1  0  0   0  1  0   0  0  1      -1  0  0   0 -1  0   0  0 -1
                      -1  0  0   0  1  0   0  0 -1       1  0  0   0 -1  0   0  0  1
                      -1  0  0   0 -1  0   0  0  1       1  0  0   0  1  0   0  0 -1
                       1  0  0   0 -1  0   0  0 -1      -1  0  0   0  1  0   0  0  1
           timopt          -3
            tnons      0.0000000  0.0000000  0.0000000     0.3333333  0.5000000  0.0000000
                       0.3333333  0.0000000  0.0000000     0.0000000  0.5000000  0.0000000
                       0.3333333  0.5000000  0.0000000     0.0000000  0.0000000  0.0000000
                       0.0000000  0.5000000  0.0000000     0.3333333  0.0000000  0.0000000
           tolvrs      1.00000000E-07
            typat      1  2  3  3  3  1  2  3  3  3  1  2  3  3  3  1  2  3  3  3
                       1  2  3  3  3  1  2  3  3
           useylm           1
         wfoptalg           1
           xangst      0.0000000000E+00  0.0000000000E+00  0.0000000000E+00
                       2.0000000000E+00  2.0000000000E+00  2.0000000000E+00
                       2.0000000000E+00  2.0000000000E+00  0.0000000000E+00
                       2.0000000000E+00  0.0000000000E+00  2.0000000000E+00
                       0.0000000000E+00  2.0000000000E+00  2.0000000000E+00
                       0.0000000000E+00  4.0000000000E+00  0.0000000000E+00
                       2.0000000000E+00  6.0000000000E+00  2.0000000000E+00
                       2.0000000000E+00  6.0000000000E+00  0.0000000000E+00
                       2.0000000000E+00  4.0000000000E+00  2.0000000000E+00
                       0.0000000000E+00  6.0000000000E+00  2.0000000000E+00
                       4.0000000000E+00  0.0000000000E+00  0.0000000000E+00
                       6.0000000000E+00  2.0000000000E+00  2.0000000000E+00
                       6.0000000000E+00  2.0000000000E+00  0.0000000000E+00
                       6.0000000000E+00  0.0000000000E+00  2.0000000000E+00
                       4.0000000000E+00  2.0000000000E+00  2.0000000000E+00
                       4.0000000000E+00  4.0000000000E+00  0.0000000000E+00
                       6.0000000000E+00  6.0000000000E+00  2.0000000000E+00
                       6.0000000000E+00  6.0000000000E+00  0.0000000000E+00
                       6.0000000000E+00  4.0000000000E+00  2.0000000000E+00
                       4.0000000000E+00  6.0000000000E+00  2.0000000000E+00
                       8.0000000000E+00  0.0000000000E+00  0.0000000000E+00
                       1.0000000000E+01  2.0000000000E+00  2.0000000000E+00
                       1.0000000000E+01  2.0000000000E+00  0.0000000000E+00
                       1.0000000000E+01  0.0000000000E+00  2.0000000000E+00
                       8.0000000000E+00  2.0000000000E+00  2.0000000000E+00
                       8.0000000000E+00  4.0000000000E+00  0.0000000000E+00
                       1.0000000000E+01  6.0000000000E+00  2.0000000000E+00
                       1.0000000000E+01  6.0000000000E+00  0.0000000000E+00
                       1.0000000000E+01  4.0000000000E+00  2.0000000000E+00
            xcart      0.0000000000E+00  0.0000000000E+00  0.0000000000E+00
                       3.7794522658E+00  3.7794522658E+00  3.7794522658E+00
                       3.7794522658E+00  3.7794522658E+00  0.0000000000E+00
                       3.7794522658E+00  0.0000000000E+00  3.7794522658E+00
                       0.0000000000E+00  3.7794522658E+00  3.7794522658E+00
                       0.0000000000E+00  7.5589045315E+00  0.0000000000E+00
                       3.7794522658E+00  1.1338356797E+01  3.7794522658E+00
                       3.7794522658E+00  1.1338356797E+01  0.0000000000E+00
                       3.7794522658E+00  7.5589045315E+00  3.7794522658E+00
                       0.0000000000E+00  1.1338356797E+01  3.7794522658E+00
                       7.5589045315E+00  0.0000000000E+00  0.0000000000E+00
                       1.1338356797E+01  3.7794522658E+00  3.7794522658E+00
                       1.1338356797E+01  3.7794522658E+00  0.0000000000E+00
                       1.1338356797E+01  0.0000000000E+00  3.7794522658E+00
                       7.5589045315E+00  3.7794522658E+00  3.7794522658E+00
                       7.5589045315E+00  7.5589045315E+00  0.0000000000E+00
                       1.1338356797E+01  1.1338356797E+01  3.7794522658E+00
                       1.1338356797E+01  1.1338356797E+01  0.0000000000E+00
                       1.1338356797E+01  7.5589045315E+00  3.7794522658E+00
                       7.5589045315E+00  1.1338356797E+01  3.7794522658E+00
                       1.5117809063E+01  0.0000000000E+00  0.0000000000E+00
                       1.8897261329E+01  3.7794522658E+00  3.7794522658E+00
                       1.8897261329E+01  3.7794522658E+00  0.0000000000E+00
                       1.8897261329E+01  0.0000000000E+00  3.7794522658E+00
                       1.5117809063E+01  3.7794522658E+00  3.7794522658E+00
                       1.5117809063E+01  7.5589045315E+00  0.0000000000E+00
                       1.8897261329E+01  1.1338356797E+01  3.7794522658E+00
                       1.8897261329E+01  1.1338356797E+01  0.0000000000E+00
                       1.8897261329E+01  7.5589045315E+00  3.7794522658E+00
             xred      0.0000000000E+00  0.0000000000E+00  0.0000000000E+00
                       1.6666666667E-01  2.5000000000E-01  5.0000000000E-01
                       1.6666666667E-01  2.5000000000E-01  0.0000000000E+00
                       1.6666666667E-01  0.0000000000E+00  5.0000000000E-01
                       0.0000000000E+00  2.5000000000E-01  5.0000000000E-01
                       0.0000000000E+00  5.0000000000E-01  0.0000000000E+00
                       1.6666666667E-01  7.5000000000E-01  5.0000000000E-01
                       1.6666666667E-01  7.5000000000E-01  0.0000000000E+00
                       1.6666666667E-01  5.0000000000E-01  5.0000000000E-01
                       0.0000000000E+00  7.5000000000E-01  5.0000000000E-01
                       3.3333333333E-01  0.0000000000E+00  0.0000000000E+00
                       5.0000000000E-01  2.5000000000E-01  5.0000000000E-01
                       5.0000000000E-01  2.5000000000E-01  0.0000000000E+00
                       5.0000000000E-01  0.0000000000E+00  5.0000000000E-01
                       3.3333333333E-01  2.5000000000E-01  5.0000000000E-01
                       3.3333333333E-01  5.0000000000E-01  0.0000000000E+00
                       5.0000000000E-01  7.5000000000E-01  5.0000000000E-01
                       5.0000000000E-01  7.5000000000E-01  0.0000000000E+00
                       5.0000000000E-01  5.0000000000E-01  5.0000000000E-01
                       3.3333333333E-01  7.5000000000E-01  5.0000000000E-01
                       6.6666666667E-01  0.0000000000E+00  0.0000000000E+00
                       8.3333333333E-01  2.5000000000E-01  5.0000000000E-01
                       8.3333333333E-01  2.5000000000E-01  0.0000000000E+00
                       8.3333333333E-01  0.0000000000E+00  5.0000000000E-01
                       6.6666666667E-01  2.5000000000E-01  5.0000000000E-01
                       6.6666666667E-01  5.0000000000E-01  0.0000000000E+00
                       8.3333333333E-01  7.5000000000E-01  5.0000000000E-01
                       8.3333333333E-01  7.5000000000E-01  0.0000000000E+00
                       8.3333333333E-01  5.0000000000E-01  5.0000000000E-01
            znucl       56.00000   22.00000    8.00000

================================================================================

 Test the timer : 
  a combined call timab(*,1,tsec) + timab(*,2,tsec) is 
- CPU time =    4.4632E-06 sec,    Wall time =    4.4490E-06 sec

- Total cpu        time (s,m,h):        154.7        2.58      0.043
- Total wall clock time (s,m,h):         48.8        0.81      0.014
-
- For major independent code sections, cpu and wall times (sec),
-  as well as % of the time and number of calls for node 0-
-<BEGIN_TIMER mpi_nprocs = 1, omp_nthreads = 1, mpi_rank = 0>
- cpu_time =          154.7, wall_time =           48.8
-
- routine                        cpu     %       wall     %      number of calls  Gflops    Speedup Efficacity
-                                                                  (-1=no count)
- nonlop(apply)                 87.881  56.8     24.075  49.4            190      -1.00        3.65       3.65
- vtowfk(contrib)                8.726   5.6      0.777   1.6             10      -1.00       11.23      11.23
- fourwf%(pot)                   8.023   5.2      6.979  14.3             70      -1.00        1.15       1.15
- ewald                          5.030   3.3      5.031  10.3              1      -1.00        1.00       1.00
- pspini                         3.320   2.1      3.321   6.8              1      -1.00        1.00       1.00
- stress                         2.600   1.7      2.601   5.3              1      -1.00        1.00       1.00
- ewald2 (+vdw_dftd)             2.583   1.7      2.584   5.3              1      -1.00        1.00       1.00
- pawmkrho                       1.006   0.7      0.101   0.2             10      -1.00        9.96       9.96
- pawinit                        0.713   0.5      0.714   1.5              2      -1.00        1.00       1.00
- fourdp                         0.709   0.5      0.126   0.3             95      -1.00        5.63       5.63
- abinit(2)                      0.604   0.4      0.056   0.1              1      -1.00       10.78      10.78
- nonlop(forstr)                 0.465   0.3      0.465   1.0              1      -1.00        1.00       1.00
- invars2                        0.417   0.3      0.075   0.2              1      -1.00        5.56       5.56
- pawdenpot                      0.396   0.3      0.395   0.8             10      -1.00        1.00       1.00
- pawmkrho:symrhoij              0.367   0.2      0.037   0.1             10      -1.00        9.91       9.91
- symrhg(no FFT)                 0.237   0.2      0.021   0.0             10      -1.00       11.28      11.28
- vtowfk(ssdiag)                 0.191   0.1      0.020   0.0             -1      -1.00        9.54       9.54
- vtorho:pawmkrhoij              0.167   0.1      0.016   0.0             10      -1.00       10.42      10.42
- pawdij/symdij                  0.139   0.1      0.140   0.3             10      -1.00        0.99       0.99
- xc:pot/=fourdp                 0.125   0.1      0.124   0.3             11      -1.00        1.01       1.01
- timing timab                   0.114   0.1      0.114   0.2              9      -1.00        1.00       1.00
- nhatgrid                       0.099   0.1      0.043   0.1              2      -1.00        2.30       2.30
- newkpt(excl. rwwf   )          0.082   0.1      0.082   0.2             -1      -1.00        1.00       1.00
- getghc-other                   0.066   0.0      0.069   0.1             -1      -1.00        0.96       0.96
- fourwf%(den)                   0.060   0.0      0.005   0.0             10      -1.00       12.06      12.06
- forces                         0.044   0.0      0.044   0.1              1      -1.00        1.00       1.00
- setsym                         0.014   0.0      0.014   0.0              1      -1.00        1.00       1.00
- vtowfk  (1)                    0.007   0.0      0.002   0.0             10      -1.00        3.37       3.37
- others (85)                    0.011   0.0      0.000   0.0             -1      -1.00     ******* **********
-<END_TIMER>
-
- subtotal                     124.195  80.3     48.031  98.5                                  2.59       2.59

- For major independent code sections, cpu and wall times (sec),
- as well as % of the total time and number of calls 

-<BEGIN_TIMER mpi_nprocs = 1, omp_nthreads = 1, mpi_rank = world>
- cpu_time =         154.7, wall_time =          48.8
-
- routine                         cpu     %       wall     %      number of calls Gflops    Speedup Efficacity
-                                                                  (-1=no count)
- nonlop(apply)                 87.881  56.8     24.075  49.4            190      -1.00        3.65       3.65
- vtowfk(contrib)                8.726   5.6      0.777   1.6             10      -1.00       11.23      11.23
- fourwf%(pot)                   8.023   5.2      6.979  14.3             70      -1.00        1.15       1.15
- ewald                          5.030   3.3      5.031  10.3              1      -1.00        1.00       1.00
- pspini                         3.320   2.1      3.321   6.8              1      -1.00        1.00       1.00
- stress                         2.600   1.7      2.601   5.3              1      -1.00        1.00       1.00
- ewald2 (+vdw_dftd)             2.583   1.7      2.584   5.3              1      -1.00        1.00       1.00
- pawmkrho                       1.006   0.7      0.101   0.2             10      -1.00        9.96       9.96
- pawinit                        0.713   0.5      0.714   1.5              2      -1.00        1.00       1.00
- fourdp                         0.709   0.5      0.126   0.3             95      -1.00        5.63       5.63
- abinit(2)                      0.604   0.4      0.056   0.1              1      -1.00       10.78      10.78
- nonlop(forstr)                 0.465   0.3      0.465   1.0              1      -1.00        1.00       1.00
- invars2                        0.417   0.3      0.075   0.2              1      -1.00        5.56       5.56
- pawdenpot                      0.396   0.3      0.395   0.8             10      -1.00        1.00       1.00
- pawmkrho:symrhoij              0.367   0.2      0.037   0.1             10      -1.00        9.91       9.91
- symrhg(no FFT)                 0.237   0.2      0.021   0.0             10      -1.00       11.28      11.28
- vtowfk(ssdiag)                 0.191   0.1      0.020   0.0             -1      -1.00        9.54       9.54
- vtorho:pawmkrhoij              0.167   0.1      0.016   0.0             10      -1.00       10.42      10.42
- pawdij/symdij                  0.139   0.1      0.140   0.3             10      -1.00        0.99       0.99
- xc:pot/=fourdp                 0.125   0.1      0.124   0.3             11      -1.00        1.01       1.01
- timing timab                   0.114   0.1      0.114   0.2              9      -1.00        1.00       1.00
- nhatgrid                       0.099   0.1      0.043   0.1              2      -1.00        2.30       2.30
- newkpt(excl. rwwf   )          0.082   0.1      0.082   0.2             -1      -1.00        1.00       1.00
- getghc-other                   0.066   0.0      0.069   0.1             -1      -1.00        0.96       0.96
- fourwf%(den)                   0.060   0.0      0.005   0.0             10      -1.00       12.06      12.06
- forces                         0.044   0.0      0.044   0.1              1      -1.00        1.00       1.00
- setsym                         0.014   0.0      0.014   0.0              1      -1.00        1.00       1.00
- vtowfk  (1)                    0.007   0.0      0.002   0.0             10      -1.00        3.37       3.37
- others (85)                    0.011   0.0      0.000   0.0             -1      -1.00     ******* **********
-<END_TIMER>

- subtotal                     124.195  80.3     48.031  98.5                                  2.59       2.59

 Partitioning of abinit
- abinit                       154.732 100.0     48.762 100.0              1                   3.17       3.17
 
- abinit(1)                      0.139   0.1      0.013   0.0              1                  10.71      10.71
- abinit(2)                      0.604   0.4      0.056   0.1              1                  10.78      10.78
- indefo+macroin+invars2m        0.419   0.3      0.075   0.2              1                   5.59       5.59
- abinit(5)                      0.010   0.0      0.011   0.0              1                   0.94       0.94
- driver                       153.436  99.2     48.483  99.4              1                   3.16       3.16
- timing timab                   0.114   0.1      0.114   0.2              9                   1.00       1.00

- subtotal                     154.732 100.0     48.762 100.0                                  3.17       3.17

 Partitioning of driver
- driver                       153.436  99.2     48.483  99.4              1                   3.16       3.16
 
- gstateimg                    153.435  99.2     48.483  99.4              1                   3.16       3.16

- subtotal                     153.436  99.2     48.483  99.4                                  3.16       3.16

 Partitioning of gstateimg+gstate
- gstateimg                    153.435  99.2     48.483  99.4              1                   3.16       3.16
 
- gstate->kpgsph                 0.100   0.1      0.100   0.2              2                   1.00       1.00
- gstate(pspini)                 3.320   2.1      3.321   6.8              1                   1.00       1.00
- gstate  (2)                    0.399   0.3      0.399   0.8              1                   1.00       1.00
- gstate(...scfcv)             149.612  96.7     44.660  91.6              1                   3.35       3.35

- subtotal                     153.435  99.2     48.483  99.4                                  3.16       3.16

 Partitioning of scfcv_core
- scfcv_core                   149.612  96.7     44.660  91.6              1                   3.35       3.35
 
- scfcv_core(iniloop, setv       5.080   3.3      5.081  10.4             10                   1.00       1.00
- scfcv_core(loop, PAW)          0.536   0.3      0.536   1.1             10                   1.00       1.00
- scfcv_core(vtorho(f))        140.083  90.5     35.649  73.1             10                   3.93       3.93
- scfcv_core(mix den - new       0.521   0.3      0.069   0.1              9                   7.56       7.56
- scfcv_core(rhotov)             0.159   0.1      0.160   0.3              9                   0.99       0.99
- scfcv_core(afterscfloop)       3.211   2.1      3.156   6.5              1                   1.02       1.02

- subtotal                     149.612  96.7     44.660  91.6                                  3.35       3.35

 Partitioning of rhotov
- rhotov                         0.135   0.1      0.135   0.3              9                   1.00       1.00
 
- rhotov(rhotoxc)                0.112   0.1      0.111   0.2              9                   1.01       1.01
- (other)                        0.017   0.0      0.017   0.0             -1                   0.98       0.98

- subtotal                       0.135   0.1      0.135   0.3                                  1.00       1.00

 Partitioning of vtorho
- vtorho                       140.082  90.5     35.649  73.1             10                   3.93       3.93
 
- vtorho(bef. kpt  loop)         0.031   0.0      0.031   0.1             10                   1.00       1.00
- vtorho(bef. vtowfk)            0.239   0.2      0.038   0.1             10                   6.29       6.29
- vtowfk                       138.094  89.2     35.402  72.6             10                   3.90       3.90
- vtorho(mkrho 2)                1.677   1.1      0.167   0.3             20                  10.04      10.04
- mkinvovl                       0.228   0.1      0.027   0.1              1                   8.43       8.43

- subtotal                     140.082  90.5     35.649  73.1                                  3.93       3.93

 Partitioning of vtowfk
- vtowfk                       138.094  89.2     35.402  72.6             10                   3.90       3.90
 
- vtowfk(2)                      0.190   0.1      0.020   0.0             -1                   9.51       9.51
- vtowfk(3)                      8.726   5.6      0.777   1.6             -1                  11.23      11.23
- chebfi                       129.111  83.4     34.598  71.0             10                   3.73       3.73

- subtotal                     138.094  89.2     35.402  72.6                                  3.90       3.90

 Partitioning of getghc
- getghc                        19.592  12.7     18.554  38.1             70                   1.06       1.06
 
- fourwf%getghc                  8.023   5.2      6.979  14.3             70                   1.15       1.15
- nonlop%getghc                 11.503   7.4     11.506  23.6             70                   1.00       1.00
- getghc-other                   0.066   0.0      0.069   0.1             -1                   0.96       0.96

- subtotal                      19.592  12.7     18.554  38.1                                  1.06       1.06

 Partitioning of fourwf (upwards partitioning)
- fourwf                         8.083   5.2      6.984  14.3             80                   1.16       1.16
 
- fourwf%getghc                  8.023   5.2      6.979  14.3             70                   1.15       1.15

- subtotal                       8.083   5.2      6.984  14.3                                  1.16       1.16

 Partitioning of inwffil
- inwffil                        0.082   0.1      0.082   0.2              1                   1.00       1.00
 
- inwffil(call newkpt)           0.082   0.1      0.082   0.2              1                   1.00       1.00

- subtotal                       0.082   0.1      0.082   0.2                                  1.00       1.00

 Partitioning of newkpt
- newkpt                         0.082   0.1      0.082   0.2              1                   1.00       1.00
 
- newkpt(call wfconv)            0.082   0.1      0.082   0.2              1                   1.00       1.00

- subtotal                       0.082   0.1      0.082   0.2                                  1.00       1.00

 Partitioning of newrho
- newrho                         0.521   0.3      0.069   0.1              9                   7.55       7.55
 
- fourdp%newrho                  0.176   0.1      0.027   0.1             18                   6.54       6.54

- subtotal                       0.176   0.1      0.027   0.1                                  6.54       6.54

 Partitioning of  fourdp (upwards partitioning)
- fourdp                         0.709   0.5      0.126   0.3             95                   5.63       5.63
 
- fourdp%(other)                 0.533   0.3      0.099   0.2             77                   5.38       5.38
- fourdp%newrho                  0.176   0.1      0.027   0.1             18                   6.54       6.54

- subtotal                       0.709   0.5      0.126   0.3                                  5.63       5.63

 Partitioning of afterscfloop
- afterscfloop                   3.211   2.1      3.156   6.5              1                   1.02       1.02
 
- afterscfloop(forstr)           3.211   2.1      3.156   6.5              1                   1.02       1.02

- subtotal                       3.211   2.1      3.156   6.5                                  1.02       1.02

 Partitioning of forstr
- forstr                         3.126   2.0      3.127   6.4              1                   1.00       1.00
 
- forstr(forstrnps)              0.470   0.3      0.470   1.0              1                   1.00       1.00
- forstr(forces)                 0.048   0.0      0.048   0.1              1                   0.99       0.99
- forstr(stress)                 2.600   1.7      2.601   5.3              1                   1.00       1.00

- subtotal                       3.126   2.0      3.127   6.4                                  1.00       1.00

 Partitioning of forstrnps
- forstrnps                      0.470   0.3      0.470   1.0              1                   1.00       1.00
 
- forstrnps(nonlop+prep_ba       0.465   0.3      0.465   1.0              1                   1.00       1.00

- subtotal                       0.470   0.3      0.470   1.0                                  1.00       1.00

 Partitioning of outscfcv
- outscfcv                       0.003   0.0      0.002   0.0              1                   1.33       1.33
 

- subtotal                       0.002   0.0      0.002   0.0                                  0.92       0.92

 Partitioning of chebfi
- chebfi                       129.111  83.4     34.598  71.0             10                   3.73       3.73
 
- chebfi(getghc)                19.594  12.7     18.554  38.1             70                   1.06       1.06
- chebfi(opernla)                4.369   2.8      4.371   9.0             60                   1.00       1.00
- chebfi(opernlb)               72.031  46.6      8.219  16.9             60                   8.76       8.76
- chebfi(inv_s)                 28.607  18.5      2.587   5.3             60                  11.06      11.06
- chebfi(subdiago)               2.317   1.5      0.202   0.4             10                  11.47      11.47
- chebfi(subham)                 1.539   1.0      0.146   0.3             10                  10.54      10.54
- chebfi(residuals)              0.102   0.1      0.010   0.0             10                  10.24      10.24
- chebfi(update_eigens)          0.016   0.0      0.016   0.0             10                   1.00       1.00

- subtotal                     128.576  83.1     34.105  69.9                                  3.77       3.77

 Partitioning of mkinvovl
- mkinvovl                       0.228   0.1      0.027   0.1              1                   8.43       8.43
 
- mkinvovl(build_d)              0.038   0.0      0.010   0.0              1                   3.78       3.78
- mkinvovl(build_ptp)            0.190   0.1      0.017   0.0              1                  11.16      11.16

- subtotal                       0.227   0.1      0.027   0.1                                  8.43       8.43

 Additional information
- timana(1)                      0.000   0.0      0.000   0.0              1                ******* **********
- total timab                    0.163   0.1      0.162   0.3          36486                   1.00       1.00
- fourwf                         8.083   5.2      6.984  14.3             80                   1.16       1.16
- status                         0.000   0.0      0.000   0.0              1                ******* **********
- nonlop(forstr)                 0.465   0.3      0.465   1.0              1                   1.00       1.00
- nonlop(total)                 96.879  62.6     25.300  51.9            201                   3.83       3.83

 Additional information about PAW segments
- forces:pawatm2ff               0.017   0.0      0.017   0.0              1                   1.02       1.02
- stress:pawatm2ff               0.016   0.0      0.015   0.0              1                   1.05       1.05
- setvtr:pawatm2ff               0.015   0.0      0.016   0.0              1                   0.97       0.97
- pawinit                        0.713   0.5      0.714   1.5              2                   1.00       1.00
- vtowfk:rhoij                   8.534   5.5      0.760   1.6             10                  11.23      11.23
- vtorho:pawmkrhoij              0.167   0.1      0.016   0.0             10                  10.42      10.42
- pawmkrho                       1.006   0.7      0.101   0.2             10                   9.96       9.96
- scfcv_core:mknhat              0.025   0.0      0.026   0.1             10                   0.95       0.95
- nhatgrid                       0.099   0.1      0.043   0.1              2                   2.30       2.30
- pawdenpot                      0.396   0.3      0.395   0.8             10                   1.00       1.00
- pawdij/symdij                  0.139   0.1      0.140   0.3             10                   0.99       0.99


 Detailed analysis of some time consuming routines 
                                  tcpu    ncalls  tcpu/ncalls    ndata tcpu/ncalls/ndata
                                 (sec)                (msec)              (microsec)
- fourwf%(pot)                   8.023        70     114.613     96000       1.194
- fourwf%(den)                   0.060        10       6.030     48000       0.126
- fourdp                         0.709        95       7.463     48000       0.155
- nonlop(apply)                 87.881       190     462.529     74443       6.213
- nonlop(forces)                 0.000         0
- nonlop(forstr)                 0.465         1     465.424     74443       6.252
- projbd                         0.000         0
- xc:pot/=fourdp                 0.125        11      11.380     48000       0.237

================================================================================

 Suggested references for the acknowledgment of ABINIT usage.

 The users of ABINIT have little formal obligations with respect to the ABINIT group
 (those specified in the GNU General Public License, http://www.gnu.org/copyleft/gpl.txt).
 However, it is common practice in the scientific literature,
 to acknowledge the efforts of people that have made the research possible.
 In this spirit, please find below suggested citations of work written by ABINIT developers,
 corresponding to implementations inside of ABINIT that you have used in the present run.
 Note also that it will be of great value to readers of publications presenting these results,
 to read papers enabling them to understand the theoretical formalism and details
 of the ABINIT implementation.
 For information on why they are suggested, see also https://docs.abinit.org/theory/acknowledgments.
-
- [1] Parallel eigensolvers in plane-wave Density Functional Theory
- A. Levitt and M. Torrent, Computer Phys. Comm. 187, 98-105 (2015).
- Comment : in case Chebyshev Filtering algorithm is used (wfoptalg=1).
- Strong suggestion to cite this paper in your publications.
- DOI and bibtex : see https://docs.abinit.org/theory/bibliography/#levitt2015
-
- [2] Implementation of the Projector Augmented-Wave Method in the ABINIT code.
- M. Torrent, F. Jollet, F. Bottin, G. Zerah, and X. Gonze Comput. Mat. Science 42, 337, (2008).
- Comment : PAW calculations. Strong suggestion to cite this paper.
- DOI and bibtex : see https://docs.abinit.org/theory/bibliography/#torrent2008
-
- [3] Recent developments in the ABINIT software package.
- Computer Phys. Comm. 205, 106 (2016).
- X.Gonze, F.Jollet, F.Abreu Araujo, D.Adams, B.Amadon, T.Applencourt,
- C.Audouze, J.-M.Beuken, J.Bieder, A.Bokhanchuk, E.Bousquet, F.Bruneval
- D.Caliste, M.Cote, F.Dahm, F.Da Pieve, M.Delaveau, M.Di Gennaro,
- B.Dorado, C.Espejo, G.Geneste, L.Genovese, A.Gerossier, M.Giantomassi,
- Y.Gillet, D.R.Hamann, L.He, G.Jomard, J.Laflamme Janssen, S.Le Roux,
- A.Levitt, A.Lherbier, F.Liu, I.Lukacevic, A.Martin, C.Martins,
- M.J.T.Oliveira, S.Ponce, Y.Pouillon, T.Rangel, G.-M.Rignanese,
- A.H.Romero, B.Rousseau, O.Rubel, A.A.Shukri, M.Stankovski, M.Torrent,
- M.J.Van Setten, B.Van Troeye, M.J.Verstraete, D.Waroquier, J.Wiktor,
- B.Xu, A.Zhou, J.W.Zwanziger.
- Comment : the fourth generic paper describing the ABINIT project.
- Note that a version of this paper, that is not formatted for Computer Phys. Comm. 
- is available at https://www.abinit.org/about/ABINIT16.pdf .
- The licence allows the authors to put it on the Web.
- DOI and bibtex : see https://docs.abinit.org/theory/bibliography/#gonze2016
-
- [4] ABINIT : First-principles approach of materials and nanosystem properties.
- Computer Phys. Comm. 180, 2582-2615 (2009).
- X. Gonze, B. Amadon, P.-M. Anglade, J.-M. Beuken, F. Bottin, P. Boulanger, F. Bruneval,
- D. Caliste, R. Caracas, M. Cote, T. Deutsch, L. Genovese, Ph. Ghosez, M. Giantomassi
- S. Goedecker, D.R. Hamann, P. Hermet, F. Jollet, G. Jomard, S. Leroux, M. Mancini, S. Mazevet,
- M.J.T. Oliveira, G. Onida, Y. Pouillon, T. Rangel, G.-M. Rignanese, D. Sangalli, R. Shaltaf,
- M. Torrent, M.J. Verstraete, G. Zerah, J.W. Zwanziger
- Comment : the third generic paper describing the ABINIT project.
- Note that a version of this paper, that is not formatted for Computer Phys. Comm. 
- is available at https://www.abinit.org/about/ABINIT_CPC_v10.pdf .
- The licence allows the authors to put it on the Web.
- DOI and bibtex : see https://docs.abinit.org/theory/bibliography/#gonze2009
-
- [5] A brief introduction to the ABINIT software package.
- Z. Kristallogr. 220, 558-562 (2005).
- X. Gonze, G.-M. Rignanese, M. Verstraete, J.-M. Beuken, Y. Pouillon, R. Caracas, F. Jollet,
- M. Torrent, G. Zerah, M. Mikami, Ph. Ghosez, M. Veithen, J.-Y. Raty, V. Olevano, F. Bruneval,
- L. Reining, R. Godby, G. Onida, D.R. Hamann, and D.C. Allan.
- Comment : the second generic paper describing the ABINIT project. Note that this paper
- should be cited especially if you are using the GW part of ABINIT, as several authors
- of this part are not in the list of authors of the first or third paper.
- The .pdf of the latter paper is available at https://www.abinit.org/about/zfk_0505-06_558-562.pdf.
- Note that it should not redistributed (Copyright by Oldenburg Wissenshaftverlag,
- the licence allows the authors to put it on the Web).
- DOI and bibtex : see https://docs.abinit.org/theory/bibliography/#gonze2005
-
- Proc.   0 individual time (sec): cpu=        154.7  wall=         48.8

================================================================================

 Calculation completed.
.Delivered  10 WARNINGs and   3 COMMENTs to log file.
+Overall time at end (sec) : cpu=        154.7  wall=         48.8
