
.Version 9.3.1 of ABINIT 
.(MPI version, prepared for a x86_64_linux_gnu9.3 computer) 

.Copyright (C) 1998-2020 ABINIT group . 
 ABINIT comes with ABSOLUTELY NO WARRANTY.
 It is free software, and you are welcome to redistribute it
 under certain conditions (GNU General Public License,
 see ~abinit/COPYING or http://www.gnu.org/copyleft/gpl.txt).

 ABINIT is a project of the Universite Catholique de Louvain,
 Corning Inc. and other collaborators, see ~abinit/doc/developers/contributors.txt .
 Please read https://docs.abinit.org/theory/acknowledgments for suggested
 acknowledgments of the ABINIT effort.
 For more information, see https://www.abinit.org .

.Starting date : Tue 10 Nov 2020.
- ( at 22h30 )
  
- input  file    -> /home/buildbot/ABINIT/alps_gnu_9.3_openmpi/trunk_rel2dev/tests/TestBot_MPI1/v7_t05/t05.in
- output file    -> t05.out
- root for input  files -> t05i
- root for output files -> t05o


 DATASET    1 : magnetic group, Shubnikov type III
 Fedorov space group I4/m m m (#139); Bravais tI (body-center tetrag.)
 Magnetic point group 4/m'mm (# 26)
================================================================================
 Values of the parameters that define the memory need for DATASET  1.
     intxc =       0    ionmov =       0      iscf =       7    lmnmax =       2
     lnmax =       2     mgfft =      16  mpssoang =       3    mqgrid =    3001
     natom =       1  nloc_mem =       1    nspden =       4   nspinor =       2
    nsppol =       1      nsym =      16    n1xccc =    2501    ntypat =       1
    occopt =       7   xclevel =       1
-    mband =          14        mffmem =           1         mkmem =           4
       mpw =         164          nfft =        4096          nkpt =           4
================================================================================
P This job should need less than                       4.870 Mbytes of memory.
  Rough estimation (10% accuracy) of disk space for files :
_ WF disk file :      0.142 Mbytes ; DEN or POT disk file :      0.033 Mbytes.
================================================================================


 DATASET    2 : magnetic group, Shubnikov type III
 Fedorov space group I4/m m m (#139); Bravais tI (body-center tetrag.)
 Magnetic point group 4/m'mm (# 26)
================================================================================
 Values of the parameters that define the memory need for DATASET  2.
     intxc =       0    ionmov =       0      iscf =       7    lmnmax =       2
     lnmax =       2     mgfft =      16  mpssoang =       3    mqgrid =    3001
     natom =       1  nloc_mem =       1    nspden =       4   nspinor =       2
    nsppol =       1      nsym =      16    n1xccc =    2501    ntypat =       1
    occopt =       7   xclevel =       1
-    mband =          14        mffmem =           1         mkmem =           4
       mpw =         164          nfft =        4096          nkpt =           4
================================================================================
P This job should need less than                       4.870 Mbytes of memory.
  Rough estimation (10% accuracy) of disk space for files :
_ WF disk file :      0.142 Mbytes ; DEN or POT disk file :      0.033 Mbytes.
================================================================================


 DATASET    3 : magnetic group, Shubnikov type III
 Fedorov space group I4/m m m (#139); Bravais tI (body-center tetrag.)
 Magnetic point group 4/m'mm (# 26)
================================================================================
 Values of the parameters that define the memory need for DATASET  3.
     intxc =       0    ionmov =       0      iscf =       7    lmnmax =       2
     lnmax =       2     mgfft =      16  mpssoang =       3    mqgrid =    3001
     natom =       1  nloc_mem =       1    nspden =       4   nspinor =       2
    nsppol =       1      nsym =      16    n1xccc =    2501    ntypat =       1
    occopt =       7   xclevel =       1
-    mband =          14        mffmem =           1         mkmem =           4
       mpw =         164          nfft =        4096          nkpt =           4
================================================================================
P This job should need less than                       4.870 Mbytes of memory.
  Rough estimation (10% accuracy) of disk space for files :
_ WF disk file :      0.142 Mbytes ; DEN or POT disk file :      0.033 Mbytes.
================================================================================


 DATASET    4 : magnetic group, Shubnikov type III
 Fedorov space group I4/m m m (#139); Bravais tI (body-center tetrag.)
 Magnetic point group 4/m'mm (# 26)
================================================================================
 Values of the parameters that define the memory need for DATASET  4.
     intxc =       0    ionmov =       0      iscf =       7    lmnmax =       2
     lnmax =       2     mgfft =      16  mpssoang =       3    mqgrid =    3001
     natom =       1  nloc_mem =       1    nspden =       4   nspinor =       2
    nsppol =       1      nsym =      16    n1xccc =    2501    ntypat =       1
    occopt =       7   xclevel =       1
-    mband =          14        mffmem =           1         mkmem =           4
       mpw =         164          nfft =        4096          nkpt =           4
================================================================================
P This job should need less than                       4.870 Mbytes of memory.
  Rough estimation (10% accuracy) of disk space for files :
_ WF disk file :      0.142 Mbytes ; DEN or POT disk file :      0.033 Mbytes.
================================================================================


 DATASET    5 : space group Im -3 m (#229); Bravais cI (body-center cubic)
================================================================================
 Values of the parameters that define the memory need for DATASET  5.
     intxc =       0    ionmov =       0      iscf =       7    lmnmax =       2
     lnmax =       2     mgfft =      16  mpssoang =       3    mqgrid =    3001
     natom =       1  nloc_mem =       1    nspden =       2   nspinor =       1
    nsppol =       2      nsym =      48    n1xccc =    2501    ntypat =       1
    occopt =       7   xclevel =       1
-    mband =           6        mffmem =           1         mkmem =           3
       mpw =          82          nfft =        4096          nkpt =           3
================================================================================
P This job should need less than                       3.103 Mbytes of memory.
  Rough estimation (10% accuracy) of disk space for files :
_ WF disk file :      0.047 Mbytes ; DEN or POT disk file :      0.065 Mbytes.
================================================================================


 DATASET    6 : space group Im -3 m (#229); Bravais cI (body-center cubic)
================================================================================
 Values of the parameters that define the memory need for DATASET  6.
     intxc =       0    ionmov =       0      iscf =       7    lmnmax =       2
     lnmax =       2     mgfft =      16  mpssoang =       3    mqgrid =    3001
     natom =       1  nloc_mem =       1    nspden =       2   nspinor =       1
    nsppol =       2      nsym =      48    n1xccc =    2501    ntypat =       1
    occopt =       7   xclevel =       1
-    mband =           6        mffmem =           1         mkmem =           3
       mpw =          82          nfft =        4096          nkpt =           3
================================================================================
P This job should need less than                       3.103 Mbytes of memory.
  Rough estimation (10% accuracy) of disk space for files :
_ WF disk file :      0.047 Mbytes ; DEN or POT disk file :      0.065 Mbytes.
================================================================================


 DATASET    7 : space group Im -3 m (#229); Bravais cI (body-center cubic)
================================================================================
 Values of the parameters that define the memory need for DATASET  7.
     intxc =       0    ionmov =       0      iscf =       7    lmnmax =       2
     lnmax =       2     mgfft =      16  mpssoang =       3    mqgrid =    3001
     natom =       1  nloc_mem =       1    nspden =       2   nspinor =       1
    nsppol =       2      nsym =      48    n1xccc =    2501    ntypat =       1
    occopt =       7   xclevel =       1
-    mband =           6        mffmem =           1         mkmem =           3
       mpw =          82          nfft =        4096          nkpt =           3
================================================================================
P This job should need less than                       3.103 Mbytes of memory.
  Rough estimation (10% accuracy) of disk space for files :
_ WF disk file :      0.047 Mbytes ; DEN or POT disk file :      0.065 Mbytes.
================================================================================

--------------------------------------------------------------------------------
------------- Echo of variables that govern the present computation ------------
--------------------------------------------------------------------------------
-
- outvars: echo of selected default values                                      
-   iomode0 =  0 , fftalg0 =312 , wfoptalg0 =  0
-
- outvars: echo of global parameters not present in the input file              
-  max_nthreads =    0
-
 -outvars: echo values of preprocessed input variables --------
            acell      5.3280000000E+00  5.3280000000E+00  5.3280000000E+00 Bohr
              amu      5.58470000E+01
        bs_loband1          0
        bs_loband2          0
        bs_loband3          0
        bs_loband4          0
        bs_loband5          0       0
        bs_loband6          0       0
        bs_loband7          0       0
             ecut      1.20000000E+01 Hartree
-          fftalg         312
           getwfk1         -1
           getwfk2         -1
           getwfk3         -1
           getwfk4         -1
           getwfk5          0
           getwfk6          0
           getwfk7          0
           istwfk1       1    1    1    1
           istwfk2       1    1    1    1
           istwfk3       1    1    1    1
           istwfk4       1    1    1    1
           istwfk5       2    3    9
           istwfk6       2    3    9
           istwfk7       2    3    9
           jdtset        1    2    3    4    5    6    7
              kpt1     0.00000000E+00  0.00000000E+00  0.00000000E+00
                       5.00000000E-01  0.00000000E+00  0.00000000E+00
                       5.00000000E-01  5.00000000E-01  0.00000000E+00
                       5.00000000E-01  5.00000000E-01  5.00000000E-01
              kpt2     0.00000000E+00  0.00000000E+00  0.00000000E+00
                       5.00000000E-01  0.00000000E+00  0.00000000E+00
                       5.00000000E-01  5.00000000E-01  0.00000000E+00
                       5.00000000E-01  5.00000000E-01  5.00000000E-01
              kpt3     0.00000000E+00  0.00000000E+00  0.00000000E+00
                       5.00000000E-01  0.00000000E+00  0.00000000E+00
                       0.00000000E+00  5.00000000E-01  0.00000000E+00
                       5.00000000E-01  5.00000000E-01  5.00000000E-01
              kpt4     0.00000000E+00  0.00000000E+00  0.00000000E+00
                       5.00000000E-01  0.00000000E+00  0.00000000E+00
                       0.00000000E+00  5.00000000E-01  0.00000000E+00
                       5.00000000E-01  5.00000000E-01  5.00000000E-01
              kpt5     0.00000000E+00  0.00000000E+00  0.00000000E+00
                       5.00000000E-01  0.00000000E+00  0.00000000E+00
                       5.00000000E-01  5.00000000E-01  5.00000000E-01
              kpt6     0.00000000E+00  0.00000000E+00  0.00000000E+00
                       5.00000000E-01  0.00000000E+00  0.00000000E+00
                       5.00000000E-01  5.00000000E-01  5.00000000E-01
              kpt7     0.00000000E+00  0.00000000E+00  0.00000000E+00
                       5.00000000E-01  0.00000000E+00  0.00000000E+00
                       5.00000000E-01  5.00000000E-01  5.00000000E-01
           kptopt           4
         kptrlatt        2    0    0      0    2    0      0    0    2
          kptrlen      9.22836670E+00
    magcon_lambda1     5.0000000000E-02
    magcon_lambda2     5.0000000000E-02
    magcon_lambda3     5.0000000000E-02
    magcon_lambda4     1.0000000000E-02
    magcon_lambda5     5.0000000000E-02
    magcon_lambda6     5.0000000000E-02
    magcon_lambda7     5.0000000000E-02
         magconon1          0
         magconon2          1
         magconon3          1
         magconon4          2
         magconon5          0
         magconon6          1
         magconon7          2
P           mkmem1          4
P           mkmem2          4
P           mkmem3          4
P           mkmem4          4
P           mkmem5          3
P           mkmem6          3
P           mkmem7          3
            natom           1
            nband1         14
            nband2         14
            nband3         14
            nband4         14
            nband5          6
            nband6          6
            nband7          6
           ndtset           7
            ngfft          16      16      16
             nkpt1          4
             nkpt2          4
             nkpt3          4
             nkpt4          4
             nkpt5          3
             nkpt6          3
             nkpt7          3
           nspden1          4
           nspden2          4
           nspden3          4
           nspden4          4
           nspden5          2
           nspden6          2
           nspden7          2
          nspinor1          2
          nspinor2          2
          nspinor3          2
          nspinor4          2
          nspinor5          1
          nspinor6          1
          nspinor7          1
           nsppol1          1
           nsppol2          1
           nsppol3          1
           nsppol4          1
           nsppol5          2
           nsppol6          2
           nsppol7          2
            nstep1         40
            nstep2         40
            nstep3         52
            nstep4         10
            nstep5         40
            nstep6         24
            nstep7         18
             nsym1         16
             nsym2         16
             nsym3         16
             nsym4         16
             nsym5         48
             nsym6         48
             nsym7         48
           ntypat           1
              occ1     1.000000  1.000000  1.000000  1.000000  1.000000  1.000000
                       1.000000  1.000000  0.000000  0.000000  0.000000  0.000000
                       0.000000  0.000000
                       1.000000  1.000000  1.000000  1.000000  1.000000  1.000000
                       1.000000  1.000000  0.000000  0.000000  0.000000  0.000000
                       0.000000  0.000000
                       1.000000  1.000000  1.000000  1.000000  1.000000  1.000000
                       1.000000  1.000000  0.000000  0.000000  0.000000  0.000000
                       0.000000  0.000000
                       1.000000  1.000000  1.000000  1.000000  1.000000  1.000000
                       1.000000  1.000000  0.000000  0.000000  0.000000  0.000000
                       0.000000  0.000000
              occ2     1.000000  1.000000  1.000000  1.000000  1.000000  1.000000
                       1.000000  1.000000  0.000000  0.000000  0.000000  0.000000
                       0.000000  0.000000
                       1.000000  1.000000  1.000000  1.000000  1.000000  1.000000
                       1.000000  1.000000  0.000000  0.000000  0.000000  0.000000
                       0.000000  0.000000
                       1.000000  1.000000  1.000000  1.000000  1.000000  1.000000
                       1.000000  1.000000  0.000000  0.000000  0.000000  0.000000
                       0.000000  0.000000
                       1.000000  1.000000  1.000000  1.000000  1.000000  1.000000
                       1.000000  1.000000  0.000000  0.000000  0.000000  0.000000
                       0.000000  0.000000
              occ3     1.000000  1.000000  1.000000  1.000000  1.000000  1.000000
                       1.000000  1.000000  0.000000  0.000000  0.000000  0.000000
                       0.000000  0.000000
                       1.000000  1.000000  1.000000  1.000000  1.000000  1.000000
                       1.000000  1.000000  0.000000  0.000000  0.000000  0.000000
                       0.000000  0.000000
                       1.000000  1.000000  1.000000  1.000000  1.000000  1.000000
                       1.000000  1.000000  0.000000  0.000000  0.000000  0.000000
                       0.000000  0.000000
                       1.000000  1.000000  1.000000  1.000000  1.000000  1.000000
                       1.000000  1.000000  0.000000  0.000000  0.000000  0.000000
                       0.000000  0.000000
              occ4     1.000000  1.000000  1.000000  1.000000  1.000000  1.000000
                       1.000000  1.000000  0.000000  0.000000  0.000000  0.000000
                       0.000000  0.000000
                       1.000000  1.000000  1.000000  1.000000  1.000000  1.000000
                       1.000000  1.000000  0.000000  0.000000  0.000000  0.000000
                       0.000000  0.000000
                       1.000000  1.000000  1.000000  1.000000  1.000000  1.000000
                       1.000000  1.000000  0.000000  0.000000  0.000000  0.000000
                       0.000000  0.000000
                       1.000000  1.000000  1.000000  1.000000  1.000000  1.000000
                       1.000000  1.000000  0.000000  0.000000  0.000000  0.000000
                       0.000000  0.000000
              occ5     1.000000  1.000000  1.000000  1.000000  0.000000  0.000000
                       1.000000  1.000000  1.000000  1.000000  0.000000  0.000000
                       1.000000  1.000000  1.000000  1.000000  0.000000  0.000000
                       1.000000  1.000000  1.000000  1.000000  0.000000  0.000000
                       1.000000  1.000000  1.000000  1.000000  0.000000  0.000000
                       1.000000  1.000000  1.000000  1.000000  0.000000  0.000000
              occ6     1.000000  1.000000  1.000000  1.000000  0.000000  0.000000
                       1.000000  1.000000  1.000000  1.000000  0.000000  0.000000
                       1.000000  1.000000  1.000000  1.000000  0.000000  0.000000
                       1.000000  1.000000  1.000000  1.000000  0.000000  0.000000
                       1.000000  1.000000  1.000000  1.000000  0.000000  0.000000
                       1.000000  1.000000  1.000000  1.000000  0.000000  0.000000
              occ7     1.000000  1.000000  1.000000  1.000000  0.000000  0.000000
                       1.000000  1.000000  1.000000  1.000000  0.000000  0.000000
                       1.000000  1.000000  1.000000  1.000000  0.000000  0.000000
                       1.000000  1.000000  1.000000  1.000000  0.000000  0.000000
                       1.000000  1.000000  1.000000  1.000000  0.000000  0.000000
                       1.000000  1.000000  1.000000  1.000000  0.000000  0.000000
           occopt           7
           prtpot           1
           prtvol1          2
           prtvol2          2
           prtvol3          1
           prtvol4          1
           prtvol5          2
           prtvol6          2
           prtvol7          2
           prt1dm           1
        ptgroupma1         26
        ptgroupma2         26
        ptgroupma3         26
        ptgroupma4         26
        ptgroupma5          0
        ptgroupma6          0
        ptgroupma7          0
            ratsm      5.00000000E-02 Bohr
            rprim     -5.0000000000E-01  5.0000000000E-01  5.0000000000E-01
                       5.0000000000E-01 -5.0000000000E-01  5.0000000000E-01
                       5.0000000000E-01  5.0000000000E-01 -5.0000000000E-01
           so_psp           0
          spgroup1        139
          spgroup2        139
          spgroup3        139
          spgroup4        139
          spgroup5        229
          spgroup6        229
          spgroup7        229
           spinat1     0.0000000000E+00  0.0000000000E+00  3.0000000000E+00
           spinat2     0.0000000000E+00  0.0000000000E+00  3.0000000000E+00
           spinat3     0.0000000000E+00  3.0000000000E+00  0.0000000000E+00
           spinat4     0.0000000000E+00  1.5000000000E+00  0.0000000000E+00
           spinat5     0.0000000000E+00  0.0000000000E+00  3.0000000000E+00
           spinat6     0.0000000000E+00  0.0000000000E+00  3.0000000000E+00
           spinat7     0.0000000000E+00  0.0000000000E+00  3.0000000000E+00
           symafm1       1   -1   -1    1    1   -1   -1    1    1   -1
                        -1    1    1   -1   -1    1
           symafm2       1   -1   -1    1    1   -1   -1    1    1   -1
                        -1    1    1   -1   -1    1
           symafm3       1   -1   -1    1   -1    1    1   -1    1   -1
                        -1    1   -1    1    1   -1
           symafm4       1   -1   -1    1   -1    1    1   -1    1   -1
                        -1    1   -1    1    1   -1
           symafm5       1    1    1    1    1    1    1    1    1    1
                         1    1    1    1    1    1    1    1    1    1
                         1    1    1    1    1    1    1    1    1    1
                         1    1    1    1    1    1    1    1    1    1
                         1    1    1    1    1    1    1    1
           symafm6       1    1    1    1    1    1    1    1    1    1
                         1    1    1    1    1    1    1    1    1    1
                         1    1    1    1    1    1    1    1    1    1
                         1    1    1    1    1    1    1    1    1    1
                         1    1    1    1    1    1    1    1
           symafm7       1    1    1    1    1    1    1    1    1    1
                         1    1    1    1    1    1    1    1    1    1
                         1    1    1    1    1    1    1    1    1    1
                         1    1    1    1    1    1    1    1    1    1
                         1    1    1    1    1    1    1    1
           symrel1     1  0  0   0  1  0   0  0  1      -1  0  0   0 -1  0   0  0 -1
                      -1 -1 -1   0  0  1   0  1  0       1  1  1   0  0 -1   0 -1  0
                       0  1  0   1  0  0  -1 -1 -1       0 -1  0  -1  0  0   1  1  1
                       0  0  1  -1 -1 -1   1  0  0       0  0 -1   1  1  1  -1  0  0
                       0  1  0   1  0  0   0  0  1       0 -1  0  -1  0  0   0  0 -1
                      -1 -1 -1   0  0  1   1  0  0       1  1  1   0  0 -1  -1  0  0
                       1  0  0   0  1  0  -1 -1 -1      -1  0  0   0 -1  0   1  1  1
                       0  0  1  -1 -1 -1   0  1  0       0  0 -1   1  1  1   0 -1  0
           symrel2     1  0  0   0  1  0   0  0  1      -1  0  0   0 -1  0   0  0 -1
                      -1 -1 -1   0  0  1   0  1  0       1  1  1   0  0 -1   0 -1  0
                       0  1  0   1  0  0  -1 -1 -1       0 -1  0  -1  0  0   1  1  1
                       0  0  1  -1 -1 -1   1  0  0       0  0 -1   1  1  1  -1  0  0
                       0  1  0   1  0  0   0  0  1       0 -1  0  -1  0  0   0  0 -1
                      -1 -1 -1   0  0  1   1  0  0       1  1  1   0  0 -1  -1  0  0
                       1  0  0   0  1  0  -1 -1 -1      -1  0  0   0 -1  0   1  1  1
                       0  0  1  -1 -1 -1   0  1  0       0  0 -1   1  1  1   0 -1  0
           symrel3     1  0  0   0  1  0   0  0  1      -1  0  0   0 -1  0   0  0 -1
                      -1 -1 -1   0  0  1   0  1  0       1  1  1   0  0 -1   0 -1  0
                       0  1  0   1  0  0  -1 -1 -1       0 -1  0  -1  0  0   1  1  1
                       0  0  1  -1 -1 -1   1  0  0       0  0 -1   1  1  1  -1  0  0
                       1  0  0  -1 -1 -1   0  0  1      -1  0  0   1  1  1   0  0 -1
                       0  1  0   0  0  1  -1 -1 -1       0 -1  0   0  0 -1   1  1  1
                      -1 -1 -1   1  0  0   0  1  0       1  1  1  -1  0  0   0 -1  0
                       0  0  1   0  1  0   1  0  0       0  0 -1   0 -1  0  -1  0  0
           symrel4     1  0  0   0  1  0   0  0  1      -1  0  0   0 -1  0   0  0 -1
                      -1 -1 -1   0  0  1   0  1  0       1  1  1   0  0 -1   0 -1  0
                       0  1  0   1  0  0  -1 -1 -1       0 -1  0  -1  0  0   1  1  1
                       0  0  1  -1 -1 -1   1  0  0       0  0 -1   1  1  1  -1  0  0
                       1  0  0  -1 -1 -1   0  0  1      -1  0  0   1  1  1   0  0 -1
                       0  1  0   0  0  1  -1 -1 -1       0 -1  0   0  0 -1   1  1  1
                      -1 -1 -1   1  0  0   0  1  0       1  1  1  -1  0  0   0 -1  0
                       0  0  1   0  1  0   1  0  0       0  0 -1   0 -1  0  -1  0  0
           symrel5     1  0  0   0  1  0   0  0  1      -1  0  0   0 -1  0   0  0 -1
                      -1 -1 -1   0  0  1   0  1  0       1  1  1   0  0 -1   0 -1  0
                       0  1  0   1  0  0  -1 -1 -1       0 -1  0  -1  0  0   1  1  1
                       0  0  1  -1 -1 -1   1  0  0       0  0 -1   1  1  1  -1  0  0
                       0  1  0   1  0  0   0  0  1       0 -1  0  -1  0  0   0  0 -1
                      -1 -1 -1   0  0  1   1  0  0       1  1  1   0  0 -1  -1  0  0
                       1  0  0   0  1  0  -1 -1 -1      -1  0  0   0 -1  0   1  1  1
                       0  0  1  -1 -1 -1   0  1  0       0  0 -1   1  1  1   0 -1  0
                      -1 -1 -1   1  0  0   0  0  1       1  1  1  -1  0  0   0  0 -1
                       0  1  0   0  0  1   1  0  0       0 -1  0   0  0 -1  -1  0  0
                       1  0  0  -1 -1 -1   0  1  0      -1  0  0   1  1  1   0 -1  0
                       0  0  1   0  1  0  -1 -1 -1       0  0 -1   0 -1  0   1  1  1
                       1  0  0  -1 -1 -1   0  0  1      -1  0  0   1  1  1   0  0 -1
                       0  1  0   0  0  1  -1 -1 -1       0 -1  0   0  0 -1   1  1  1
                      -1 -1 -1   1  0  0   0  1  0       1  1  1  -1  0  0   0 -1  0
                       0  0  1   0  1  0   1  0  0       0  0 -1   0 -1  0  -1  0  0
                       0  1  0  -1 -1 -1   0  0  1       0 -1  0   1  1  1   0  0 -1
                       1  0  0   0  0  1  -1 -1 -1      -1  0  0   0  0 -1   1  1  1
                      -1 -1 -1   0  1  0   1  0  0       1  1  1   0 -1  0  -1  0  0
                       0  0  1   1  0  0   0  1  0       0  0 -1  -1  0  0   0 -1  0
                      -1 -1 -1   0  1  0   0  0  1       1  1  1   0 -1  0   0  0 -1
                       1  0  0   0  0  1   0  1  0      -1  0  0   0  0 -1   0 -1  0
                       0  1  0  -1 -1 -1   1  0  0       0 -1  0   1  1  1  -1  0  0
                       0  0  1   1  0  0  -1 -1 -1       0  0 -1  -1  0  0   1  1  1
           symrel6     1  0  0   0  1  0   0  0  1      -1  0  0   0 -1  0   0  0 -1
                      -1 -1 -1   0  0  1   0  1  0       1  1  1   0  0 -1   0 -1  0
                       0  1  0   1  0  0  -1 -1 -1       0 -1  0  -1  0  0   1  1  1
                       0  0  1  -1 -1 -1   1  0  0       0  0 -1   1  1  1  -1  0  0
                       0  1  0   1  0  0   0  0  1       0 -1  0  -1  0  0   0  0 -1
                      -1 -1 -1   0  0  1   1  0  0       1  1  1   0  0 -1  -1  0  0
                       1  0  0   0  1  0  -1 -1 -1      -1  0  0   0 -1  0   1  1  1
                       0  0  1  -1 -1 -1   0  1  0       0  0 -1   1  1  1   0 -1  0
                      -1 -1 -1   1  0  0   0  0  1       1  1  1  -1  0  0   0  0 -1
                       0  1  0   0  0  1   1  0  0       0 -1  0   0  0 -1  -1  0  0
                       1  0  0  -1 -1 -1   0  1  0      -1  0  0   1  1  1   0 -1  0
                       0  0  1   0  1  0  -1 -1 -1       0  0 -1   0 -1  0   1  1  1
                       1  0  0  -1 -1 -1   0  0  1      -1  0  0   1  1  1   0  0 -1
                       0  1  0   0  0  1  -1 -1 -1       0 -1  0   0  0 -1   1  1  1
                      -1 -1 -1   1  0  0   0  1  0       1  1  1  -1  0  0   0 -1  0
                       0  0  1   0  1  0   1  0  0       0  0 -1   0 -1  0  -1  0  0
                       0  1  0  -1 -1 -1   0  0  1       0 -1  0   1  1  1   0  0 -1
                       1  0  0   0  0  1  -1 -1 -1      -1  0  0   0  0 -1   1  1  1
                      -1 -1 -1   0  1  0   1  0  0       1  1  1   0 -1  0  -1  0  0
                       0  0  1   1  0  0   0  1  0       0  0 -1  -1  0  0   0 -1  0
                      -1 -1 -1   0  1  0   0  0  1       1  1  1   0 -1  0   0  0 -1
                       1  0  0   0  0  1   0  1  0      -1  0  0   0  0 -1   0 -1  0
                       0  1  0  -1 -1 -1   1  0  0       0 -1  0   1  1  1  -1  0  0
                       0  0  1   1  0  0  -1 -1 -1       0  0 -1  -1  0  0   1  1  1
           symrel7     1  0  0   0  1  0   0  0  1      -1  0  0   0 -1  0   0  0 -1
                      -1 -1 -1   0  0  1   0  1  0       1  1  1   0  0 -1   0 -1  0
                       0  1  0   1  0  0  -1 -1 -1       0 -1  0  -1  0  0   1  1  1
                       0  0  1  -1 -1 -1   1  0  0       0  0 -1   1  1  1  -1  0  0
                       0  1  0   1  0  0   0  0  1       0 -1  0  -1  0  0   0  0 -1
                      -1 -1 -1   0  0  1   1  0  0       1  1  1   0  0 -1  -1  0  0
                       1  0  0   0  1  0  -1 -1 -1      -1  0  0   0 -1  0   1  1  1
                       0  0  1  -1 -1 -1   0  1  0       0  0 -1   1  1  1   0 -1  0
                      -1 -1 -1   1  0  0   0  0  1       1  1  1  -1  0  0   0  0 -1
                       0  1  0   0  0  1   1  0  0       0 -1  0   0  0 -1  -1  0  0
                       1  0  0  -1 -1 -1   0  1  0      -1  0  0   1  1  1   0 -1  0
                       0  0  1   0  1  0  -1 -1 -1       0  0 -1   0 -1  0   1  1  1
                       1  0  0  -1 -1 -1   0  0  1      -1  0  0   1  1  1   0  0 -1
                       0  1  0   0  0  1  -1 -1 -1       0 -1  0   0  0 -1   1  1  1
                      -1 -1 -1   1  0  0   0  1  0       1  1  1  -1  0  0   0 -1  0
                       0  0  1   0  1  0   1  0  0       0  0 -1   0 -1  0  -1  0  0
                       0  1  0  -1 -1 -1   0  0  1       0 -1  0   1  1  1   0  0 -1
                       1  0  0   0  0  1  -1 -1 -1      -1  0  0   0  0 -1   1  1  1
                      -1 -1 -1   0  1  0   1  0  0       1  1  1   0 -1  0  -1  0  0
                       0  0  1   1  0  0   0  1  0       0  0 -1  -1  0  0   0 -1  0
                      -1 -1 -1   0  1  0   0  0  1       1  1  1   0 -1  0   0  0 -1
                       1  0  0   0  0  1   0  1  0      -1  0  0   0  0 -1   0 -1  0
                       0  1  0  -1 -1 -1   1  0  0       0 -1  0   1  1  1  -1  0  0
                       0  0  1   1  0  0  -1 -1 -1       0  0 -1  -1  0  0   1  1  1
            tnons1     0.0000000  0.0000000  0.0000000     0.0000000  0.0000000  0.0000000
                       0.0000000  0.0000000  0.0000000     0.0000000  0.0000000  0.0000000
                       0.0000000  0.0000000  0.0000000     0.0000000  0.0000000  0.0000000
                       0.0000000  0.0000000  0.0000000     0.0000000  0.0000000  0.0000000
                       0.0000000  0.0000000  0.0000000     0.0000000  0.0000000  0.0000000
                       0.0000000  0.0000000  0.0000000     0.0000000  0.0000000  0.0000000
                       0.0000000  0.0000000  0.0000000     0.0000000  0.0000000  0.0000000
                       0.0000000  0.0000000  0.0000000     0.0000000  0.0000000  0.0000000
            tnons2     0.0000000  0.0000000  0.0000000     0.0000000  0.0000000  0.0000000
                       0.0000000  0.0000000  0.0000000     0.0000000  0.0000000  0.0000000
                       0.0000000  0.0000000  0.0000000     0.0000000  0.0000000  0.0000000
                       0.0000000  0.0000000  0.0000000     0.0000000  0.0000000  0.0000000
                       0.0000000  0.0000000  0.0000000     0.0000000  0.0000000  0.0000000
                       0.0000000  0.0000000  0.0000000     0.0000000  0.0000000  0.0000000
                       0.0000000  0.0000000  0.0000000     0.0000000  0.0000000  0.0000000
                       0.0000000  0.0000000  0.0000000     0.0000000  0.0000000  0.0000000
            tnons3     0.0000000  0.0000000  0.0000000     0.0000000  0.0000000  0.0000000
                       0.0000000  0.0000000  0.0000000     0.0000000  0.0000000  0.0000000
                       0.0000000  0.0000000  0.0000000     0.0000000  0.0000000  0.0000000
                       0.0000000  0.0000000  0.0000000     0.0000000  0.0000000  0.0000000
                       0.0000000  0.0000000  0.0000000     0.0000000  0.0000000  0.0000000
                       0.0000000  0.0000000  0.0000000     0.0000000  0.0000000  0.0000000
                       0.0000000  0.0000000  0.0000000     0.0000000  0.0000000  0.0000000
                       0.0000000  0.0000000  0.0000000     0.0000000  0.0000000  0.0000000
            tnons4     0.0000000  0.0000000  0.0000000     0.0000000  0.0000000  0.0000000
                       0.0000000  0.0000000  0.0000000     0.0000000  0.0000000  0.0000000
                       0.0000000  0.0000000  0.0000000     0.0000000  0.0000000  0.0000000
                       0.0000000  0.0000000  0.0000000     0.0000000  0.0000000  0.0000000
                       0.0000000  0.0000000  0.0000000     0.0000000  0.0000000  0.0000000
                       0.0000000  0.0000000  0.0000000     0.0000000  0.0000000  0.0000000
                       0.0000000  0.0000000  0.0000000     0.0000000  0.0000000  0.0000000
                       0.0000000  0.0000000  0.0000000     0.0000000  0.0000000  0.0000000
            tnons5     0.0000000  0.0000000  0.0000000     0.0000000  0.0000000  0.0000000
                       0.0000000  0.0000000  0.0000000     0.0000000  0.0000000  0.0000000
                       0.0000000  0.0000000  0.0000000     0.0000000  0.0000000  0.0000000
                       0.0000000  0.0000000  0.0000000     0.0000000  0.0000000  0.0000000
                       0.0000000  0.0000000  0.0000000     0.0000000  0.0000000  0.0000000
                       0.0000000  0.0000000  0.0000000     0.0000000  0.0000000  0.0000000
                       0.0000000  0.0000000  0.0000000     0.0000000  0.0000000  0.0000000
                       0.0000000  0.0000000  0.0000000     0.0000000  0.0000000  0.0000000
                       0.0000000  0.0000000  0.0000000     0.0000000  0.0000000  0.0000000
                       0.0000000  0.0000000  0.0000000     0.0000000  0.0000000  0.0000000
                       0.0000000  0.0000000  0.0000000     0.0000000  0.0000000  0.0000000
                       0.0000000  0.0000000  0.0000000     0.0000000  0.0000000  0.0000000
                       0.0000000  0.0000000  0.0000000     0.0000000  0.0000000  0.0000000
                       0.0000000  0.0000000  0.0000000     0.0000000  0.0000000  0.0000000
                       0.0000000  0.0000000  0.0000000     0.0000000  0.0000000  0.0000000
                       0.0000000  0.0000000  0.0000000     0.0000000  0.0000000  0.0000000
                       0.0000000  0.0000000  0.0000000     0.0000000  0.0000000  0.0000000
                       0.0000000  0.0000000  0.0000000     0.0000000  0.0000000  0.0000000
                       0.0000000  0.0000000  0.0000000     0.0000000  0.0000000  0.0000000
                       0.0000000  0.0000000  0.0000000     0.0000000  0.0000000  0.0000000
                       0.0000000  0.0000000  0.0000000     0.0000000  0.0000000  0.0000000
                       0.0000000  0.0000000  0.0000000     0.0000000  0.0000000  0.0000000
                       0.0000000  0.0000000  0.0000000     0.0000000  0.0000000  0.0000000
                       0.0000000  0.0000000  0.0000000     0.0000000  0.0000000  0.0000000
            tnons6     0.0000000  0.0000000  0.0000000     0.0000000  0.0000000  0.0000000
                       0.0000000  0.0000000  0.0000000     0.0000000  0.0000000  0.0000000
                       0.0000000  0.0000000  0.0000000     0.0000000  0.0000000  0.0000000
                       0.0000000  0.0000000  0.0000000     0.0000000  0.0000000  0.0000000
                       0.0000000  0.0000000  0.0000000     0.0000000  0.0000000  0.0000000
                       0.0000000  0.0000000  0.0000000     0.0000000  0.0000000  0.0000000
                       0.0000000  0.0000000  0.0000000     0.0000000  0.0000000  0.0000000
                       0.0000000  0.0000000  0.0000000     0.0000000  0.0000000  0.0000000
                       0.0000000  0.0000000  0.0000000     0.0000000  0.0000000  0.0000000
                       0.0000000  0.0000000  0.0000000     0.0000000  0.0000000  0.0000000
                       0.0000000  0.0000000  0.0000000     0.0000000  0.0000000  0.0000000
                       0.0000000  0.0000000  0.0000000     0.0000000  0.0000000  0.0000000
                       0.0000000  0.0000000  0.0000000     0.0000000  0.0000000  0.0000000
                       0.0000000  0.0000000  0.0000000     0.0000000  0.0000000  0.0000000
                       0.0000000  0.0000000  0.0000000     0.0000000  0.0000000  0.0000000
                       0.0000000  0.0000000  0.0000000     0.0000000  0.0000000  0.0000000
                       0.0000000  0.0000000  0.0000000     0.0000000  0.0000000  0.0000000
                       0.0000000  0.0000000  0.0000000     0.0000000  0.0000000  0.0000000
                       0.0000000  0.0000000  0.0000000     0.0000000  0.0000000  0.0000000
                       0.0000000  0.0000000  0.0000000     0.0000000  0.0000000  0.0000000
                       0.0000000  0.0000000  0.0000000     0.0000000  0.0000000  0.0000000
                       0.0000000  0.0000000  0.0000000     0.0000000  0.0000000  0.0000000
                       0.0000000  0.0000000  0.0000000     0.0000000  0.0000000  0.0000000
                       0.0000000  0.0000000  0.0000000     0.0000000  0.0000000  0.0000000
            tnons7     0.0000000  0.0000000  0.0000000     0.0000000  0.0000000  0.0000000
                       0.0000000  0.0000000  0.0000000     0.0000000  0.0000000  0.0000000
                       0.0000000  0.0000000  0.0000000     0.0000000  0.0000000  0.0000000
                       0.0000000  0.0000000  0.0000000     0.0000000  0.0000000  0.0000000
                       0.0000000  0.0000000  0.0000000     0.0000000  0.0000000  0.0000000
                       0.0000000  0.0000000  0.0000000     0.0000000  0.0000000  0.0000000
                       0.0000000  0.0000000  0.0000000     0.0000000  0.0000000  0.0000000
                       0.0000000  0.0000000  0.0000000     0.0000000  0.0000000  0.0000000
                       0.0000000  0.0000000  0.0000000     0.0000000  0.0000000  0.0000000
                       0.0000000  0.0000000  0.0000000     0.0000000  0.0000000  0.0000000
                       0.0000000  0.0000000  0.0000000     0.0000000  0.0000000  0.0000000
                       0.0000000  0.0000000  0.0000000     0.0000000  0.0000000  0.0000000
                       0.0000000  0.0000000  0.0000000     0.0000000  0.0000000  0.0000000
                       0.0000000  0.0000000  0.0000000     0.0000000  0.0000000  0.0000000
                       0.0000000  0.0000000  0.0000000     0.0000000  0.0000000  0.0000000
                       0.0000000  0.0000000  0.0000000     0.0000000  0.0000000  0.0000000
                       0.0000000  0.0000000  0.0000000     0.0000000  0.0000000  0.0000000
                       0.0000000  0.0000000  0.0000000     0.0000000  0.0000000  0.0000000
                       0.0000000  0.0000000  0.0000000     0.0000000  0.0000000  0.0000000
                       0.0000000  0.0000000  0.0000000     0.0000000  0.0000000  0.0000000
                       0.0000000  0.0000000  0.0000000     0.0000000  0.0000000  0.0000000
                       0.0000000  0.0000000  0.0000000     0.0000000  0.0000000  0.0000000
                       0.0000000  0.0000000  0.0000000     0.0000000  0.0000000  0.0000000
                       0.0000000  0.0000000  0.0000000     0.0000000  0.0000000  0.0000000
           toldfe1     1.00000000E-10 Hartree
           toldfe2     1.00000000E-10 Hartree
           toldfe3     1.00000000E-14 Hartree
           toldfe4     1.00000000E-14 Hartree
           toldfe5     1.00000000E-10 Hartree
           toldfe6     1.00000000E-10 Hartree
           toldfe7     1.00000000E-10 Hartree
            typat      1
              wtk1       0.12500    0.50000    0.25000    0.12500
              wtk2       0.12500    0.50000    0.25000    0.12500
              wtk3       0.12500    0.50000    0.25000    0.12500
              wtk4       0.12500    0.50000    0.25000    0.12500
              wtk5       0.12500    0.75000    0.12500
              wtk6       0.12500    0.75000    0.12500
              wtk7       0.12500    0.75000    0.12500
            znucl       26.00000

================================================================================

 chkinp: Checking input parameters for consistency, jdtset=   1.

 chkinp: Checking input parameters for consistency, jdtset=   2.

 chkinp: Checking input parameters for consistency, jdtset=   3.

 chkinp: Checking input parameters for consistency, jdtset=   4.

 chkinp: Checking input parameters for consistency, jdtset=   5.

 chkinp: Checking input parameters for consistency, jdtset=   6.

 chkinp: Checking input parameters for consistency, jdtset=   7.

================================================================================
== DATASET  1 ==================================================================
-   mpi_nproc: 1, omp_nthreads: -1 (-1 if OMP is not activated)


--- !DatasetInfo
iteration_state: {dtset: 1, }
dimensions: {natom: 1, nkpt: 4, mband: 14, nsppol: 1, nspinor: 2, nspden: 4, mpw: 164, }
cutoff_energies: {ecut:  12.0, pawecutdg:  -1.0, }
electrons: {nelect:   8.00000000E+00, charge:   0.00000000E+00, occopt:   7.00000000E+00, tsmear:   1.00000000E-02, }
meta: {optdriver: 0, ionmov: 0, optcell: 0, iscf: 7, paral_kgb: 0, }
...

 Exchange-correlation functional for the present dataset will be:
  LDA: new Teter (4/93) with spin-polarized option - ixc=1
 Citation for XC functional:
  S. Goedecker, M. Teter, J. Huetter, PRB 54, 1703 (1996)

 Real(R)+Recip(G) space primitive vectors, cartesian coordinates (Bohr,Bohr^-1):
 R(1)= -2.6640000  2.6640000  2.6640000  G(1)=  0.0000000  0.1876877  0.1876877
 R(2)=  2.6640000 -2.6640000  2.6640000  G(2)=  0.1876877  0.0000000  0.1876877
 R(3)=  2.6640000  2.6640000 -2.6640000  G(3)=  0.1876877  0.1876877  0.0000000
 Unit cell volume ucvol=  7.5624524E+01 bohr^3
 Angles (23,13,12)=  1.09471221E+02  1.09471221E+02  1.09471221E+02 degrees

 getcut: wavevector=  0.0000  0.0000  0.0000  ngfft=  16  16  16
         ecut(hartree)=     12.000   => boxcut(ratio)=   2.23233

 getcut : COMMENT -
  Note that boxcut > 2.2 ; recall that boxcut=Gcut(box)/Gcut(sphere) = 2
  is sufficient for exact treatment of convolution.
  Such a large boxcut is a waste : you could raise ecut
  e.g. ecut=   14.949951 Hartrees makes boxcut=2


--- Pseudopotential description ------------------------------------------------
- pspini: atom type   1  psp file is /home/buildbot/ABINIT/alps_gnu_9.3_openmpi/trunk_rel2dev/tests/Psps_for_tests/PseudosTM_pwteter/26fe.pspnc
- pspatm: opening atomic psp file    /home/buildbot/ABINIT/alps_gnu_9.3_openmpi/trunk_rel2dev/tests/Psps_for_tests/PseudosTM_pwteter/26fe.pspnc
-  Troullier-Martins psp for element  Fe        Thu Oct 27 17:35:05 EDT 1994
- 26.00000   8.00000    940714                znucl, zion, pspdat
    1    1    2    0      2001   0.00000      pspcod,pspxc,lmax,lloc,mmax,r2well
    0   4.333  10.868    0   2.2918558        l,e99.0,e99.9,nproj,rcpsp
   0.00000000   0.00000000   0.00000000   0.00000000     rms, ekb1, ekb2, epsatm
    1   1.213   4.197    1   2.8345121        l,e99.0,e99.9,nproj,rcpsp
   0.00000000   0.00000000   0.00000000   0.00000000     rms, ekb1, ekb2, epsatm
    2  18.664  23.972    1   2.2918558        l,e99.0,e99.9,nproj,rcpsp
   0.00000000   0.00000000   0.00000000   0.00000000     rms, ekb1, ekb2, epsatm
    1.56404770202776    2.06158206779471    6.88331421535388   rchrg,fchrg,qchrg
  pspatm : epsatm=   62.03296659
         --- l  ekb(1:nproj) -->
             1    1.561134
             2   -8.115829
 pspatm: atomic psp has been read  and splines computed

   4.96263733E+02                                ecore*ucvol(ha*bohr**3)
--------------------------------------------------------------------------------

P newkpt: treating     14 bands with npw=     141 for ikpt=   1 by node    0
P newkpt: treating     14 bands with npw=     150 for ikpt=   2 by node    0
P newkpt: treating     14 bands with npw=     150 for ikpt=   3 by node    0
P newkpt: treating     14 bands with npw=     164 for ikpt=   4 by node    0
_setup2: Arith. and geom. avg. npw (full set) are     150.625     150.514

================================================================================

--- !BeginCycle
iteration_state: {dtset: 1, }
solver: {iscf: 7, nstep: 40, nline: 4, wfoptalg: 0, }
tolerances: {toldfe: 1.00E-10, }
...

     iter   Etot(hartree)      deltaE(h)  residm     vres2
 ETOT  1  -22.529494834903    -2.253E+01 1.687E-01 2.635E+02
 ETOT  2  -22.748847563915    -2.194E-01 3.699E-02 7.032E+01
 ETOT  3  -22.787878856667    -3.903E-02 2.000E-01 1.463E+00
 ETOT  4  -22.788977572853    -1.099E-03 2.155E-03 1.174E-02
 ETOT  5  -22.789015580750    -3.801E-05 3.005E-03 3.373E-03
 ETOT  6  -22.789021864949    -6.284E-06 3.505E-05 3.970E-04
 ETOT  7  -22.789022583756    -7.188E-07 3.571E-06 1.686E-05
 ETOT  8  -22.789022607546    -2.379E-08 1.961E-05 7.434E-08
 ETOT  9  -22.789022608710    -1.164E-09 3.257E-07 8.376E-09
 ETOT 10  -22.789022608832    -1.225E-10 1.605E-06 1.959E-10
 ETOT 11  -22.789022608840    -8.058E-12 1.417E-07 3.100E-12
 ETOT 12  -22.789022608841    -6.892E-13 1.405E-07 7.579E-14

 At SCF step   12, etot is converged : 
  for the second time, diff in etot=  6.892E-13 < toldfe=  1.000E-10

 Cartesian components of stress tensor (hartree/bohr^3)
  sigma(1 1)=  6.05436206E-02  sigma(3 2)=  0.00000000E+00
  sigma(2 2)=  6.05436206E-02  sigma(3 1)=  0.00000000E+00
  sigma(3 3)=  6.05436213E-02  sigma(2 1)=  0.00000000E+00


--- !ResultsGS
iteration_state: {dtset: 1, }
comment   : Summary of ground state results
lattice_vectors:
- [ -2.6640000,   2.6640000,   2.6640000, ]
- [  2.6640000,  -2.6640000,   2.6640000, ]
- [  2.6640000,   2.6640000,  -2.6640000, ]
lattice_lengths: [   4.61418,    4.61418,    4.61418, ]
lattice_angles: [109.471, 109.471, 109.471, ] # degrees, (23, 13, 12)
lattice_volume:   7.5624524E+01
convergence: {deltae: -6.892E-13, res2:  7.579E-14, residm:  1.405E-07, diffor: null, }
etotal    :  -2.27890226E+01
entropy   :   0.00000000E+00
fermie    :  -1.05563199E-01
cartesian_stress_tensor: # hartree/bohr^3
- [  6.05436206E-02,   0.00000000E+00,   0.00000000E+00, ]
- [  0.00000000E+00,   6.05436206E-02,   0.00000000E+00, ]
- [  0.00000000E+00,   0.00000000E+00,   6.05436213E-02, ]
pressure_GPa:  -1.7813E+03
xred      :
- [  0.0000E+00,   0.0000E+00,   0.0000E+00, Fe]
cartesian_forces: # hartree/bohr
- [ -0.00000000E+00,  -0.00000000E+00,  -0.00000000E+00, ]
force_length_stats: {min:   0.00000000E+00, max:   0.00000000E+00, mean:   0.00000000E+00, }
...

 io1dm : about to open file t05o_DS1_1DM
 Integrated electronic and magnetization densities in atomic spheres:
 ---------------------------------------------------------------------
 Radius=ratsph(iatom), smearing ratsm=  0.0500. mag(i)=approximate local magnetic moment.
 Atom    Radius     Total density     mag(x)      mag(y)      mag(z)
    1   2.00000        5.503780      0.000000    0.000000    0.477948
 ---------------------------------------------------------------------
 Total magnetization (spheres)       0.000000    0.000000    0.477948
 Total magnetization (exact)         0.000000    0.000000    0.494847
================================================================================

 ----iterations are completed or convergence reached----

 Mean square residual over all n,k,spin=   43.721E-10; max=  14.052E-08
   0.0000  0.0000  0.0000    1  9.41183E-08 kpt; spin; max resid(k); each band:
   1.04E-16  6.20E-17  8.81E-17  8.78E-17  4.83E-18  8.41E-17  8.41E-17  4.77E-18
   8.33E-17  7.39E-17  7.38E-17  4.06E-17  1.01E-08  9.41E-08
   0.5000  0.0000  0.0000    1  3.42250E-16 kpt; spin; max resid(k); each band:
   1.94E-16  1.04E-16  5.27E-17  9.69E-17  1.00E-17  1.00E-17  3.42E-16  1.86E-16
   2.92E-16  2.03E-16  6.59E-17  1.55E-16  3.06E-16  1.38E-16
   0.5000  0.5000  0.0000    1  2.64210E-16 kpt; spin; max resid(k); each band:
   2.64E-16  2.05E-16  9.36E-17  9.36E-17  3.06E-19  3.12E-19  9.15E-17  9.15E-17
   1.66E-16  7.75E-17  1.04E-16  1.25E-16  1.38E-16  1.25E-16
   0.5000  0.5000  0.5000    1  1.40522E-07 kpt; spin; max resid(k); each band:
   4.26E-17  8.28E-17  8.17E-17  3.91E-17  3.21E-13  1.93E-13  2.74E-13  1.16E-12
   1.83E-12  1.61E-16  5.26E-12  6.72E-11  1.41E-07  7.32E-17
 reduced coordinates (array xred) for    1 atoms
       0.000000000000      0.000000000000      0.000000000000
 rms dE/dt=  0.0000E+00; max dE/dt=  0.0000E+00; dE/dt below (all hartree)
    1       0.000000000000      0.000000000000      0.000000000000

 cartesian coordinates (angstrom) at end:
    1      0.00000000000000     0.00000000000000     0.00000000000000

 cartesian forces (hartree/bohr) at end:
    1     -0.00000000000000    -0.00000000000000    -0.00000000000000
 frms,max,avg= 0.0000000E+00 0.0000000E+00   0.000E+00  0.000E+00  0.000E+00 h/b

 cartesian forces (eV/Angstrom) at end:
    1     -0.00000000000000    -0.00000000000000    -0.00000000000000
 frms,max,avg= 0.0000000E+00 0.0000000E+00   0.000E+00  0.000E+00  0.000E+00 e/A
 length scales=  5.328000000000  5.328000000000  5.328000000000 bohr
              =  2.819456167368  2.819456167368  2.819456167368 angstroms
 prteigrs : about to open file t05o_DS1_EIG
 Fermi (or HOMO) energy (hartree) =  -0.10556   Average Vxc (hartree)=  -0.54837
 Eigenvalues (hartree) for nkpt=   4  k points:
 kpt#   1, nband= 14, wtk=  0.12500, kpt=  0.0000  0.0000  0.0000 (reduced coord)
  -0.60517   -0.60023   -0.17561   -0.17561   -0.17561   -0.15736   -0.15736   -0.15736
  -0.00853   -0.00853    0.00954    0.00954    0.72641    0.72642
      occupation numbers for kpt#   1
   1.00000    1.00000    1.00000    1.00000    1.00000    1.00000    1.00000    1.00000
   0.00000    0.00000    0.00000    0.00000    0.00000    0.00000
 kpt#   2, nband= 14, wtk=  0.50000, kpt=  0.5000  0.0000  0.0000 (reduced coord)
  -0.36198   -0.35191   -0.31416   -0.29688   -0.26522   -0.26078   -0.15891   -0.13924
  -0.10257   -0.08388    0.06471    0.08595    0.11752    0.13411
      occupation numbers for kpt#   2
   1.00000    1.00000    1.00000    1.00000    1.00000    1.00000    1.00000    1.00000
   0.33607    0.00108    0.00000    0.00000    0.00000    0.00000
 kpt#   3, nband= 14, wtk=  0.25000, kpt=  0.5000  0.5000  0.0000 (reduced coord)
  -0.36198   -0.35191   -0.31416   -0.29688   -0.26522   -0.26078   -0.15891   -0.13924
  -0.10257   -0.08388    0.06471    0.08595    0.11752    0.13411
      occupation numbers for kpt#   3
   1.00000    1.00000    1.00000    1.00000    1.00000    1.00000    1.00000    1.00000
   0.33607    0.00108    0.00000    0.00000    0.00000    0.00000
 kpt#   4, nband= 14, wtk=  0.12500, kpt=  0.5000  0.5000  0.5000 (reduced coord)
  -0.39249   -0.39249   -0.37822   -0.37822   -0.10837   -0.10837   -0.10837   -0.08720
  -0.08720   -0.08720    0.07350    0.07350    0.07350    0.07922
      occupation numbers for kpt#   4
   1.00000    1.00000    1.00000    1.00000    0.65433    0.65433    0.65433    0.00471
   0.00471    0.00471    0.00000    0.00000    0.00000    0.00000
 Total charge density [el/Bohr^3]
      Maximum=    5.0277E-01  at reduced coord.    0.8125    0.8125    0.0000
 Next maximum=    5.0277E-01  at reduced coord.    0.1875    0.1875    0.0000
      Minimum=    1.7922E-03  at reduced coord.    0.0000    0.0000    0.0000
 Next minimum=    2.1181E-02  at reduced coord.    0.0625    0.0000    0.0000
   Integrated=    8.0000E+00
 x component of magnetization [el/Bohr^3]
      Maximum=    0.0000E+00  at reduced coord.    0.9375    0.9375    0.9375
 Next maximum=    0.0000E+00  at reduced coord.    0.8750    0.9375    0.9375
      Minimum=    0.0000E+00  at reduced coord.    0.0000    0.0000    0.0000
 Next minimum=    0.0000E+00  at reduced coord.    0.0625    0.0000    0.0000
   Integrated=    0.0000E+00
 y component of magnetization [el/Bohr^3]
      Maximum=    0.0000E+00  at reduced coord.    0.9375    0.9375    0.9375
 Next maximum=    0.0000E+00  at reduced coord.    0.8750    0.9375    0.9375
      Minimum=    0.0000E+00  at reduced coord.    0.0000    0.0000    0.0000
 Next minimum=    0.0000E+00  at reduced coord.    0.0625    0.0000    0.0000
   Integrated=    0.0000E+00
 z component of magnetization [el/Bohr^3]
      Maximum=    4.8254E-02  at reduced coord.    0.8750    0.8750    0.7500
 Next maximum=    4.8254E-02  at reduced coord.    0.1250    0.1250    0.2500
      Minimum=   -3.4936E-04  at reduced coord.    0.7500    0.2500    0.5000
 Next minimum=   -3.4936E-04  at reduced coord.    0.2500    0.7500    0.5000
   Integrated=    4.9485E-01
 Magnetization (absolute value) [el/Bohr^3]
      Maximum=    4.8254E-02  at reduced coord.    0.8750    0.8750    0.7500
 Next maximum=    4.8254E-02  at reduced coord.    0.1250    0.1250    0.2500
      Minimum=    5.7872E-06  at reduced coord.    0.7500    0.1875    0.4375
 Next minimum=    5.7872E-06  at reduced coord.    0.6875    0.2500    0.4375
   Integrated=    4.9572E-01
 Relative magnetization (=zeta, between -1 and 1)
      Maximum=    1.3197E-01  at reduced coord.    0.8750    0.8750    0.8750
 Next maximum=    1.3197E-01  at reduced coord.    0.0000    0.0000    0.8750
      Minimum=    1.1410E-04  at reduced coord.    0.7500    0.1875    0.4375
 Next minimum=    1.1410E-04  at reduced coord.    0.6875    0.2500    0.4375

--- !EnergyTerms
iteration_state     : {dtset: 1, }
comment             : Components of total free energy in Hartree
kinetic             :  1.92896105363966E+01
hartree             :  1.24905308500202E+00
xc                  : -9.88658158422821E+00
Ewald energy        : -2.18572579550090E+01
psp_core            :  6.56220638409759E+00
local_psp           :  1.46559067791627E+00
non_local_psp       : -1.96086760319774E+01
internal            : -2.27860548878022E+01
'-kT*entropy'       : -2.96772103891118E-03
total_energy        : -2.27890226088411E+01
total_energy_eV     : -6.20120842003395E+02
band_energy         : -2.13270984542804E+00
...


 Cartesian components of stress tensor (hartree/bohr^3)
  sigma(1 1)=  6.05436206E-02  sigma(3 2)=  0.00000000E+00
  sigma(2 2)=  6.05436206E-02  sigma(3 1)=  0.00000000E+00
  sigma(3 3)=  6.05436213E-02  sigma(2 1)=  0.00000000E+00

-Cartesian components of stress tensor (GPa)         [Pressure= -1.7813E+03 GPa]
- sigma(1 1)=  1.78125452E+03  sigma(3 2)=  0.00000000E+00
- sigma(2 2)=  1.78125452E+03  sigma(3 1)=  0.00000000E+00
- sigma(3 3)=  1.78125454E+03  sigma(2 1)=  0.00000000E+00

================================================================================
== DATASET  2 ==================================================================
-   mpi_nproc: 1, omp_nthreads: -1 (-1 if OMP is not activated)


--- !DatasetInfo
iteration_state: {dtset: 2, }
dimensions: {natom: 1, nkpt: 4, mband: 14, nsppol: 1, nspinor: 2, nspden: 4, mpw: 164, }
cutoff_energies: {ecut:  12.0, pawecutdg:  -1.0, }
electrons: {nelect:   8.00000000E+00, charge:   0.00000000E+00, occopt:   7.00000000E+00, tsmear:   1.00000000E-02, }
meta: {optdriver: 0, ionmov: 0, optcell: 0, iscf: 7, paral_kgb: 0, }
...

 mkfilename : getwfk/=0, take file _WFK from output of DATASET   1.

 Exchange-correlation functional for the present dataset will be:
  LDA: new Teter (4/93) with spin-polarized option - ixc=1
 Citation for XC functional:
  S. Goedecker, M. Teter, J. Huetter, PRB 54, 1703 (1996)

 Real(R)+Recip(G) space primitive vectors, cartesian coordinates (Bohr,Bohr^-1):
 R(1)= -2.6640000  2.6640000  2.6640000  G(1)=  0.0000000  0.1876877  0.1876877
 R(2)=  2.6640000 -2.6640000  2.6640000  G(2)=  0.1876877  0.0000000  0.1876877
 R(3)=  2.6640000  2.6640000 -2.6640000  G(3)=  0.1876877  0.1876877  0.0000000
 Unit cell volume ucvol=  7.5624524E+01 bohr^3
 Angles (23,13,12)=  1.09471221E+02  1.09471221E+02  1.09471221E+02 degrees

 getcut: wavevector=  0.0000  0.0000  0.0000  ngfft=  16  16  16
         ecut(hartree)=     12.000   => boxcut(ratio)=   2.23233

 getcut : COMMENT -
  Note that boxcut > 2.2 ; recall that boxcut=Gcut(box)/Gcut(sphere) = 2
  is sufficient for exact treatment of convolution.
  Such a large boxcut is a waste : you could raise ecut
  e.g. ecut=   14.949951 Hartrees makes boxcut=2

--------------------------------------------------------------------------------

-inwffil : will read wavefunctions from disk file t05o_DS1_WFK
P newkpt: treating     14 bands with npw=     141 for ikpt=   1 by node    0
P newkpt: treating     14 bands with npw=     150 for ikpt=   2 by node    0
P newkpt: treating     14 bands with npw=     150 for ikpt=   3 by node    0
P newkpt: treating     14 bands with npw=     164 for ikpt=   4 by node    0
_setup2: Arith. and geom. avg. npw (full set) are     150.625     150.514

================================================================================

--- !BeginCycle
iteration_state: {dtset: 2, }
solver: {iscf: 7, nstep: 40, nline: 4, wfoptalg: 0, }
tolerances: {toldfe: 1.00E-10, }
...

     iter   Etot(hartree)      deltaE(h)  residm     vres2
 ETOT  1  -22.789022608841    -2.279E+01 6.917E-08 1.415E-14
 ETOT  2  -22.789022608841    -1.528E-13 5.338E-08 9.797E-15
 ETOT  3  -22.789022608841    -4.974E-14 6.614E-08 5.942E-16

 At SCF step    3, etot is converged : 
  for the second time, diff in etot=  4.974E-14 < toldfe=  1.000E-10

 Cartesian components of stress tensor (hartree/bohr^3)
  sigma(1 1)=  6.05436207E-02  sigma(3 2)=  0.00000000E+00
  sigma(2 2)=  6.05436207E-02  sigma(3 1)=  0.00000000E+00
  sigma(3 3)=  6.05436208E-02  sigma(2 1)=  0.00000000E+00


--- !ResultsGS
iteration_state: {dtset: 2, }
comment   : Summary of ground state results
lattice_vectors:
- [ -2.6640000,   2.6640000,   2.6640000, ]
- [  2.6640000,  -2.6640000,   2.6640000, ]
- [  2.6640000,   2.6640000,  -2.6640000, ]
lattice_lengths: [   4.61418,    4.61418,    4.61418, ]
lattice_angles: [109.471, 109.471, 109.471, ] # degrees, (23, 13, 12)
lattice_volume:   7.5624524E+01
convergence: {deltae: -4.974E-14, res2:  5.942E-16, residm:  6.614E-08, diffor: null, }
etotal    :  -2.27890226E+01
entropy   :   0.00000000E+00
fermie    :  -1.05563201E-01
cartesian_stress_tensor: # hartree/bohr^3
- [  6.05436207E-02,   0.00000000E+00,   0.00000000E+00, ]
- [  0.00000000E+00,   6.05436207E-02,   0.00000000E+00, ]
- [  0.00000000E+00,   0.00000000E+00,   6.05436208E-02, ]
pressure_GPa:  -1.7813E+03
xred      :
- [  0.0000E+00,   0.0000E+00,   0.0000E+00, Fe]
cartesian_forces: # hartree/bohr
- [ -0.00000000E+00,  -0.00000000E+00,  -0.00000000E+00, ]
force_length_stats: {min:   0.00000000E+00, max:   0.00000000E+00, mean:   0.00000000E+00, }
...

 io1dm : about to open file t05o_DS2_1DM
 Integrated electronic and magnetization densities in atomic spheres:
 ---------------------------------------------------------------------
 Radius=ratsph(iatom), smearing ratsm=  0.0500. mag(i)=approximate local magnetic moment.
 Atom    Radius     Total density     mag(x)      mag(y)      mag(z)
    1   2.00000        5.503780      0.000000    0.000000    0.477948
 ---------------------------------------------------------------------
 Total magnetization (spheres)       0.000000    0.000000    0.477948
 Total magnetization (exact)         0.000000    0.000000    0.494847
================================================================================

 ----iterations are completed or convergence reached----

 Mean square residual over all n,k,spin=   13.227E-10; max=  66.135E-09
   0.0000  0.0000  0.0000    1  6.61354E-08 kpt; spin; max resid(k); each band:
   2.06E-19  1.01E-19  7.65E-21  7.70E-21  1.49E-21  7.60E-21  7.64E-21  1.53E-21
   2.09E-19  6.67E-21  6.66E-21  1.00E-19  7.91E-09  6.61E-08
   0.5000  0.0000  0.0000    1  6.84399E-19 kpt; spin; max resid(k); each band:
   9.34E-20  5.70E-20  9.11E-20  1.80E-19  1.32E-21  9.70E-22  6.84E-19  2.10E-19
   4.97E-19  1.37E-19  9.19E-20  1.81E-19  2.92E-19  1.29E-19
   0.5000  0.5000  0.0000    1  3.64509E-19 kpt; spin; max resid(k); each band:
   3.65E-19  2.61E-19  7.75E-21  8.62E-21  1.74E-22  1.11E-22  8.45E-21  8.24E-21
   3.05E-19  1.59E-19  7.91E-21  7.89E-21  8.27E-20  1.05E-19
   0.5000  0.5000  0.5000    1  1.97064E-11 kpt; spin; max resid(k); each band:
   4.42E-21  1.11E-20  7.12E-21  2.76E-21  4.41E-18  8.37E-19  2.70E-18  5.23E-17
   5.84E-17  7.52E-20  2.50E-13  4.58E-12  1.97E-11  2.20E-20
 reduced coordinates (array xred) for    1 atoms
       0.000000000000      0.000000000000      0.000000000000
 rms dE/dt=  0.0000E+00; max dE/dt=  0.0000E+00; dE/dt below (all hartree)
    1       0.000000000000      0.000000000000      0.000000000000

 cartesian coordinates (angstrom) at end:
    1      0.00000000000000     0.00000000000000     0.00000000000000

 cartesian forces (hartree/bohr) at end:
    1     -0.00000000000000    -0.00000000000000    -0.00000000000000
 frms,max,avg= 0.0000000E+00 0.0000000E+00   0.000E+00  0.000E+00  0.000E+00 h/b

 cartesian forces (eV/Angstrom) at end:
    1     -0.00000000000000    -0.00000000000000    -0.00000000000000
 frms,max,avg= 0.0000000E+00 0.0000000E+00   0.000E+00  0.000E+00  0.000E+00 e/A
 length scales=  5.328000000000  5.328000000000  5.328000000000 bohr
              =  2.819456167368  2.819456167368  2.819456167368 angstroms
 prteigrs : about to open file t05o_DS2_EIG
 Fermi (or HOMO) energy (hartree) =  -0.10556   Average Vxc (hartree)=  -0.54837
 Eigenvalues (hartree) for nkpt=   4  k points:
 kpt#   1, nband= 14, wtk=  0.12500, kpt=  0.0000  0.0000  0.0000 (reduced coord)
  -0.60517   -0.60023   -0.17561   -0.17561   -0.17561   -0.15736   -0.15736   -0.15736
  -0.00853   -0.00853    0.00954    0.00954    0.72641    0.72642
      occupation numbers for kpt#   1
   1.00000    1.00000    1.00000    1.00000    1.00000    1.00000    1.00000    1.00000
   0.00000    0.00000    0.00000    0.00000    0.00000    0.00000
 kpt#   2, nband= 14, wtk=  0.50000, kpt=  0.5000  0.0000  0.0000 (reduced coord)
  -0.36198   -0.35191   -0.31416   -0.29688   -0.26522   -0.26078   -0.15891   -0.13924
  -0.10257   -0.08388    0.06471    0.08595    0.11752    0.13411
      occupation numbers for kpt#   2
   1.00000    1.00000    1.00000    1.00000    1.00000    1.00000    1.00000    1.00000
   0.33607    0.00108    0.00000    0.00000    0.00000    0.00000
 kpt#   3, nband= 14, wtk=  0.25000, kpt=  0.5000  0.5000  0.0000 (reduced coord)
  -0.36198   -0.35191   -0.31416   -0.29688   -0.26522   -0.26078   -0.15891   -0.13924
  -0.10257   -0.08388    0.06471    0.08595    0.11752    0.13411
      occupation numbers for kpt#   3
   1.00000    1.00000    1.00000    1.00000    1.00000    1.00000    1.00000    1.00000
   0.33607    0.00108    0.00000    0.00000    0.00000    0.00000
 kpt#   4, nband= 14, wtk=  0.12500, kpt=  0.5000  0.5000  0.5000 (reduced coord)
  -0.39249   -0.39249   -0.37822   -0.37822   -0.10837   -0.10837   -0.10837   -0.08720
  -0.08720   -0.08720    0.07350    0.07350    0.07350    0.07922
      occupation numbers for kpt#   4
   1.00000    1.00000    1.00000    1.00000    0.65433    0.65433    0.65433    0.00471
   0.00471    0.00471    0.00000    0.00000    0.00000    0.00000
 Total charge density [el/Bohr^3]
      Maximum=    5.0277E-01  at reduced coord.    0.0000    0.8125    0.8125
 Next maximum=    5.0277E-01  at reduced coord.    0.8125    0.0000    0.8125
      Minimum=    1.7922E-03  at reduced coord.    0.0000    0.0000    0.0000
 Next minimum=    2.1181E-02  at reduced coord.    0.0625    0.0000    0.0000
   Integrated=    8.0000E+00
 x component of magnetization [el/Bohr^3]
      Maximum=    0.0000E+00  at reduced coord.    0.9375    0.9375    0.9375
 Next maximum=    0.0000E+00  at reduced coord.    0.8750    0.9375    0.9375
      Minimum=    0.0000E+00  at reduced coord.    0.0000    0.0000    0.0000
 Next minimum=    0.0000E+00  at reduced coord.    0.0625    0.0000    0.0000
   Integrated=    0.0000E+00
 y component of magnetization [el/Bohr^3]
      Maximum=    0.0000E+00  at reduced coord.    0.9375    0.9375    0.9375
 Next maximum=    0.0000E+00  at reduced coord.    0.8750    0.9375    0.9375
      Minimum=    0.0000E+00  at reduced coord.    0.0000    0.0000    0.0000
 Next minimum=    0.0000E+00  at reduced coord.    0.0625    0.0000    0.0000
   Integrated=    0.0000E+00
 z component of magnetization [el/Bohr^3]
      Maximum=    4.8254E-02  at reduced coord.    0.8750    0.8750    0.7500
 Next maximum=    4.8254E-02  at reduced coord.    0.1250    0.1250    0.2500
      Minimum=   -3.4936E-04  at reduced coord.    0.7500    0.2500    0.5000
 Next minimum=   -3.4936E-04  at reduced coord.    0.2500    0.7500    0.5000
   Integrated=    4.9485E-01
 Magnetization (absolute value) [el/Bohr^3]
      Maximum=    4.8254E-02  at reduced coord.    0.8750    0.8750    0.7500
 Next maximum=    4.8254E-02  at reduced coord.    0.1250    0.1250    0.2500
      Minimum=    5.7873E-06  at reduced coord.    0.7500    0.1875    0.4375
 Next minimum=    5.7873E-06  at reduced coord.    0.6875    0.2500    0.4375
   Integrated=    4.9572E-01
 Relative magnetization (=zeta, between -1 and 1)
      Maximum=    1.3197E-01  at reduced coord.    0.8750    0.8750    0.8750
 Next maximum=    1.3197E-01  at reduced coord.    0.0000    0.0000    0.8750
      Minimum=    1.1410E-04  at reduced coord.    0.7500    0.1875    0.4375
 Next minimum=    1.1410E-04  at reduced coord.    0.6875    0.2500    0.4375

--- !EnergyTerms
iteration_state     : {dtset: 2, }
comment             : Components of total free energy in Hartree
kinetic             :  1.92896105474634E+01
hartree             :  1.24905308639103E+00
xc                  : -9.88658158515646E+00
Ewald energy        : -2.18572579550090E+01
psp_core            :  6.56220638409759E+00
local_psp           :  1.46559067947539E+00
non_local_psp       : -1.96086760450262E+01
internal            : -2.27860548877643E+01
'-kT*entropy'       : -2.96772107704803E-03
total_energy        : -2.27890226088413E+01
total_energy_eV     : -6.20120842003400E+02
band_energy         : -2.13270984983176E+00
...


 Cartesian components of stress tensor (hartree/bohr^3)
  sigma(1 1)=  6.05436207E-02  sigma(3 2)=  0.00000000E+00
  sigma(2 2)=  6.05436207E-02  sigma(3 1)=  0.00000000E+00
  sigma(3 3)=  6.05436208E-02  sigma(2 1)=  0.00000000E+00

-Cartesian components of stress tensor (GPa)         [Pressure= -1.7813E+03 GPa]
- sigma(1 1)=  1.78125452E+03  sigma(3 2)=  0.00000000E+00
- sigma(2 2)=  1.78125452E+03  sigma(3 1)=  0.00000000E+00
- sigma(3 3)=  1.78125452E+03  sigma(2 1)=  0.00000000E+00

================================================================================
== DATASET  3 ==================================================================
-   mpi_nproc: 1, omp_nthreads: -1 (-1 if OMP is not activated)


--- !DatasetInfo
iteration_state: {dtset: 3, }
dimensions: {natom: 1, nkpt: 4, mband: 14, nsppol: 1, nspinor: 2, nspden: 4, mpw: 164, }
cutoff_energies: {ecut:  12.0, pawecutdg:  -1.0, }
electrons: {nelect:   8.00000000E+00, charge:   0.00000000E+00, occopt:   7.00000000E+00, tsmear:   1.00000000E-02, }
meta: {optdriver: 0, ionmov: 0, optcell: 0, iscf: 7, paral_kgb: 0, }
...

 mkfilename : getwfk/=0, take file _WFK from output of DATASET   2.

 Exchange-correlation functional for the present dataset will be:
  LDA: new Teter (4/93) with spin-polarized option - ixc=1
 Citation for XC functional:
  S. Goedecker, M. Teter, J. Huetter, PRB 54, 1703 (1996)

 Real(R)+Recip(G) space primitive vectors, cartesian coordinates (Bohr,Bohr^-1):
 R(1)= -2.6640000  2.6640000  2.6640000  G(1)=  0.0000000  0.1876877  0.1876877
 R(2)=  2.6640000 -2.6640000  2.6640000  G(2)=  0.1876877  0.0000000  0.1876877
 R(3)=  2.6640000  2.6640000 -2.6640000  G(3)=  0.1876877  0.1876877  0.0000000
 Unit cell volume ucvol=  7.5624524E+01 bohr^3
 Angles (23,13,12)=  1.09471221E+02  1.09471221E+02  1.09471221E+02 degrees

 getcut: wavevector=  0.0000  0.0000  0.0000  ngfft=  16  16  16
         ecut(hartree)=     12.000   => boxcut(ratio)=   2.23233

 getcut : COMMENT -
  Note that boxcut > 2.2 ; recall that boxcut=Gcut(box)/Gcut(sphere) = 2
  is sufficient for exact treatment of convolution.
  Such a large boxcut is a waste : you could raise ecut
  e.g. ecut=   14.949951 Hartrees makes boxcut=2

--------------------------------------------------------------------------------

-inwffil : will read wavefunctions from disk file t05o_DS2_WFK
- newkpt: read input wf with ikpt,npw=   1     141, make ikpt,npw=   1     141
- newkpt: read input wf with ikpt,npw=   2     150, make ikpt,npw=   2     150
- newkpt: read input wf with ikpt,npw=   1     141, make ikpt,npw=   3     150
- newkpt: read input wf with ikpt,npw=   4     164, make ikpt,npw=   4     164
_setup2: Arith. and geom. avg. npw (full set) are     150.625     150.514

================================================================================

--- !BeginCycle
iteration_state: {dtset: 3, }
solver: {iscf: 7, nstep: 52, nline: 4, wfoptalg: 0, }
tolerances: {toldfe: 1.00E-14, }
...

     iter   Etot(hartree)      deltaE(h)  residm     vres2
 ETOT  1  -22.780366668013    -2.278E+01 1.372E-02 7.494E+00
 ETOT  2  -22.784991787109    -4.625E-03 2.616E-03 2.464E+00
 ETOT  3  -22.787699548034    -2.708E-03 8.858E-05 2.925E-01
 ETOT  4  -22.788188137393    -4.886E-04 7.900E-06 4.245E-04
 ETOT  5  -22.788189124194    -9.868E-07 6.406E-08 3.754E-05
 ETOT  6  -22.788189252928    -1.287E-07 6.653E-09 2.388E-06
 ETOT  7  -22.788189268714    -1.579E-08 1.802E-09 4.000E-07
 ETOT  8  -22.788189289790    -2.108E-08 2.229E-09 7.665E-07
 ETOT  9  -22.788189279301     1.049E-08 1.782E-08 1.514E-06
 ETOT 10  -22.788189398124    -1.188E-07 1.374E-09 2.122E-06
 ETOT 11  -22.788189394838     3.286E-09 1.131E-05 6.882E-06
 ETOT 12  -22.788189795725    -4.009E-07 1.369E-07 1.086E-05
 ETOT 13  -22.788191525336    -1.730E-06 1.218E-05 4.156E-05
 ETOT 14  -22.788191306538     2.188E-07 7.656E-07 1.105E-04
 ETOT 15  -22.788197785328    -6.479E-06 3.623E-05 1.657E-04
 ETOT 16  -22.788203588636    -5.803E-06 4.386E-07 4.835E-04
 ETOT 17  -22.788222700513    -1.911E-05 4.724E-07 9.115E-04
 ETOT 18  -22.788205816533     1.688E-05 3.076E-06 1.481E-03
 ETOT 19  -22.788218574379    -1.276E-05 2.053E-07 1.064E-03
 ETOT 20  -22.788223953647    -5.379E-06 6.176E-06 1.563E-03
 ETOT 21  -22.788229505965    -5.552E-06 2.038E-07 1.868E-03
 ETOT 22  -22.788229332210     1.738E-07 4.242E-06 2.101E-03
 ETOT 23  -22.788229572403    -2.402E-07 1.028E-07 2.119E-03
 ETOT 24  -22.788254213711    -2.464E-05 1.310E-06 2.354E-03
 ETOT 25  -22.788278857004    -2.464E-05 7.831E-08 3.506E-03
 ETOT 26  -22.788290920852    -1.206E-05 1.356E-06 4.632E-03
 ETOT 27  -22.788300969883    -1.005E-05 5.193E-08 5.263E-03
 ETOT 28  -22.788300621506     3.484E-07 7.213E-07 5.689E-03
 ETOT 29  -22.788380443185    -7.982E-05 8.383E-08 6.147E-03
 ETOT 30  -22.788431712423    -5.127E-05 6.827E-07 9.273E-03
 ETOT 31  -22.788471986457    -4.027E-05 1.849E-08 1.146E-02
 ETOT 32  -22.788481849897    -9.863E-06 1.015E-07 1.311E-02
 ETOT 33  -22.788480259818     1.590E-06 1.096E-08 1.363E-02
 ETOT 34  -22.788581284598    -1.010E-04 9.004E-08 1.313E-02
 ETOT 35  -22.788661104796    -7.982E-05 1.200E-08 1.570E-02
 ETOT 36  -22.788670557557    -9.453E-06 3.660E-08 1.858E-02
 ETOT 37  -22.788564536584     1.060E-04 1.153E-07 2.065E-02
 ETOT 38  -22.788577658524    -1.312E-05 2.496E-08 1.680E-02
 ETOT 39  -22.788560553015     1.711E-05 3.088E-09 1.709E-02
 ETOT 40  -22.788834114960    -2.736E-04 8.399E-07 1.101E-02
 ETOT 41  -22.788929338488    -9.522E-05 3.186E-08 1.263E-02
 ETOT 42  -22.788938825266    -9.487E-06 2.208E-09 1.457E-02
 ETOT 43  -22.788929703077     9.122E-06 5.751E-09 1.599E-02
 ETOT 44  -22.788991566669    -6.186E-05 2.891E-07 7.597E-03
 ETOT 45  -22.789022446486    -3.088E-05 8.539E-07 8.358E-05
 ETOT 46  -22.789021331941     1.115E-06 3.838E-08 6.104E-04
 ETOT 47  -22.789022576417    -1.244E-06 5.009E-08 1.876E-05
 ETOT 48  -22.789022596332    -1.991E-08 7.723E-10 6.974E-06
 ETOT 49  -22.789022581788     1.454E-08 1.497E-10 1.466E-05
 ETOT 50  -22.789022608098    -2.631E-08 1.111E-09 4.486E-07
 ETOT 51  -22.789022608717    -6.191E-10 3.058E-11 6.513E-08
 ETOT 52  -22.789022608825    -1.078E-10 1.027E-10 2.940E-09

 Cartesian components of stress tensor (hartree/bohr^3)
  sigma(1 1)=  6.05436232E-02  sigma(3 2)=  0.00000000E+00
  sigma(2 2)=  6.05436231E-02  sigma(3 1)=  0.00000000E+00
  sigma(3 3)=  6.05436232E-02  sigma(2 1)=  0.00000000E+00


 scprqt:  WARNING -
  nstep=   52 was not enough SCF cycles to converge;
  maximum energy difference=  1.078E-10 exceeds toldfe=  1.000E-14


--- !ResultsGS
iteration_state: {dtset: 3, }
comment   : Summary of ground state results
lattice_vectors:
- [ -2.6640000,   2.6640000,   2.6640000, ]
- [  2.6640000,  -2.6640000,   2.6640000, ]
- [  2.6640000,   2.6640000,  -2.6640000, ]
lattice_lengths: [   4.61418,    4.61418,    4.61418, ]
lattice_angles: [109.471, 109.471, 109.471, ] # degrees, (23, 13, 12)
lattice_volume:   7.5624524E+01
convergence: {deltae: -1.078E-10, res2:  2.940E-09, residm:  1.027E-10, diffor: null, }
etotal    :  -2.27890226E+01
entropy   :   0.00000000E+00
fermie    :  -1.05562318E-01
cartesian_stress_tensor: # hartree/bohr^3
- [  6.05436232E-02,   0.00000000E+00,   0.00000000E+00, ]
- [  0.00000000E+00,   6.05436231E-02,   0.00000000E+00, ]
- [  0.00000000E+00,   0.00000000E+00,   6.05436232E-02, ]
pressure_GPa:  -1.7813E+03
xred      :
- [  0.0000E+00,   0.0000E+00,   0.0000E+00, Fe]
cartesian_forces: # hartree/bohr
- [ -0.00000000E+00,  -0.00000000E+00,  -0.00000000E+00, ]
force_length_stats: {min:   0.00000000E+00, max:   0.00000000E+00, mean:   0.00000000E+00, }
...

 io1dm : about to open file t05o_DS3_1DM
 Integrated electronic and magnetization densities in atomic spheres:
 ---------------------------------------------------------------------
 Radius=ratsph(iatom), smearing ratsm=  0.0500. mag(i)=approximate local magnetic moment.
 Atom    Radius     Total density     mag(x)      mag(y)      mag(z)
    1   2.00000        5.503780      0.000000    0.477941   -0.000000
 ---------------------------------------------------------------------
 Total magnetization (spheres)       0.000000    0.477941   -0.000000
 Total magnetization (exact)        -0.000000    0.494843   -0.000000
================================================================================

 ----iterations are completed or convergence reached----

 Mean square residual over all n,k,spin=   33.283E-13; max=  10.266E-11
 reduced coordinates (array xred) for    1 atoms
       0.000000000000      0.000000000000      0.000000000000
 rms dE/dt=  0.0000E+00; max dE/dt=  0.0000E+00; dE/dt below (all hartree)
    1       0.000000000000      0.000000000000      0.000000000000

 cartesian coordinates (angstrom) at end:
    1      0.00000000000000     0.00000000000000     0.00000000000000

 cartesian forces (hartree/bohr) at end:
    1     -0.00000000000000    -0.00000000000000    -0.00000000000000
 frms,max,avg= 0.0000000E+00 0.0000000E+00   0.000E+00  0.000E+00  0.000E+00 h/b

 cartesian forces (eV/Angstrom) at end:
    1     -0.00000000000000    -0.00000000000000    -0.00000000000000
 frms,max,avg= 0.0000000E+00 0.0000000E+00   0.000E+00  0.000E+00  0.000E+00 e/A
 length scales=  5.328000000000  5.328000000000  5.328000000000 bohr
              =  2.819456167368  2.819456167368  2.819456167368 angstroms
 prteigrs : about to open file t05o_DS3_EIG
 Fermi (or HOMO) energy (hartree) =  -0.10556   Average Vxc (hartree)=  -0.54837
 Eigenvalues (hartree) for nkpt=   4  k points:
 kpt#   1, nband= 14, wtk=  0.12500, kpt=  0.0000  0.0000  0.0000 (reduced coord)
  -0.60517   -0.60023   -0.17561   -0.17561   -0.17561   -0.15736   -0.15736   -0.15736
  -0.00853   -0.00853    0.00954    0.00954    0.72641    0.72641
      occupation numbers for kpt#   1
   1.00000    1.00000    1.00000    1.00000    1.00000    1.00000    1.00000    1.00000
   0.00000    0.00000    0.00000    0.00000    0.00000    0.00000
 prteigrs : prtvol=0 or 1, do not print more k-points.


--- !EnergyTerms
iteration_state     : {dtset: 3, }
comment             : Components of total free energy in Hartree
kinetic             :  1.92896070866981E+01
hartree             :  1.24905253072642E+00
xc                  : -9.88658118929282E+00
Ewald energy        : -2.18572579550090E+01
psp_core            :  6.56220638409759E+00
local_psp           :  1.46559025889139E+00
non_local_psp       : -1.96086719409472E+01
internal            : -2.27860548248355E+01
'-kT*entropy'       : -2.96778398934603E-03
total_energy        : -2.27890226088249E+01
total_energy_eV     : -6.20120842002953E+02
band_energy         : -2.13270959558376E+00
...


 Cartesian components of stress tensor (hartree/bohr^3)
  sigma(1 1)=  6.05436232E-02  sigma(3 2)=  0.00000000E+00
  sigma(2 2)=  6.05436231E-02  sigma(3 1)=  0.00000000E+00
  sigma(3 3)=  6.05436232E-02  sigma(2 1)=  0.00000000E+00

-Cartesian components of stress tensor (GPa)         [Pressure= -1.7813E+03 GPa]
- sigma(1 1)=  1.78125459E+03  sigma(3 2)=  0.00000000E+00
- sigma(2 2)=  1.78125459E+03  sigma(3 1)=  0.00000000E+00
- sigma(3 3)=  1.78125459E+03  sigma(2 1)=  0.00000000E+00

================================================================================
== DATASET  4 ==================================================================
-   mpi_nproc: 1, omp_nthreads: -1 (-1 if OMP is not activated)


--- !DatasetInfo
iteration_state: {dtset: 4, }
dimensions: {natom: 1, nkpt: 4, mband: 14, nsppol: 1, nspinor: 2, nspden: 4, mpw: 164, }
cutoff_energies: {ecut:  12.0, pawecutdg:  -1.0, }
electrons: {nelect:   8.00000000E+00, charge:   0.00000000E+00, occopt:   7.00000000E+00, tsmear:   1.00000000E-02, }
meta: {optdriver: 0, ionmov: 0, optcell: 0, iscf: 7, paral_kgb: 0, }
...

 mkfilename : getwfk/=0, take file _WFK from output of DATASET   3.

 Exchange-correlation functional for the present dataset will be:
  LDA: new Teter (4/93) with spin-polarized option - ixc=1
 Citation for XC functional:
  S. Goedecker, M. Teter, J. Huetter, PRB 54, 1703 (1996)

 Real(R)+Recip(G) space primitive vectors, cartesian coordinates (Bohr,Bohr^-1):
[...]
           symrel6     1  0  0   0  1  0   0  0  1      -1  0  0   0 -1  0   0  0 -1
                      -1 -1 -1   0  0  1   0  1  0       1  1  1   0  0 -1   0 -1  0
                       0  1  0   1  0  0  -1 -1 -1       0 -1  0  -1  0  0   1  1  1
                       0  0  1  -1 -1 -1   1  0  0       0  0 -1   1  1  1  -1  0  0
                       0  1  0   1  0  0   0  0  1       0 -1  0  -1  0  0   0  0 -1
                      -1 -1 -1   0  0  1   1  0  0       1  1  1   0  0 -1  -1  0  0
                       1  0  0   0  1  0  -1 -1 -1      -1  0  0   0 -1  0   1  1  1
                       0  0  1  -1 -1 -1   0  1  0       0  0 -1   1  1  1   0 -1  0
                      -1 -1 -1   1  0  0   0  0  1       1  1  1  -1  0  0   0  0 -1
                       0  1  0   0  0  1   1  0  0       0 -1  0   0  0 -1  -1  0  0
                       1  0  0  -1 -1 -1   0  1  0      -1  0  0   1  1  1   0 -1  0
                       0  0  1   0  1  0  -1 -1 -1       0  0 -1   0 -1  0   1  1  1
                       1  0  0  -1 -1 -1   0  0  1      -1  0  0   1  1  1   0  0 -1
                       0  1  0   0  0  1  -1 -1 -1       0 -1  0   0  0 -1   1  1  1
                      -1 -1 -1   1  0  0   0  1  0       1  1  1  -1  0  0   0 -1  0
                       0  0  1   0  1  0   1  0  0       0  0 -1   0 -1  0  -1  0  0
                       0  1  0  -1 -1 -1   0  0  1       0 -1  0   1  1  1   0  0 -1
                       1  0  0   0  0  1  -1 -1 -1      -1  0  0   0  0 -1   1  1  1
                      -1 -1 -1   0  1  0   1  0  0       1  1  1   0 -1  0  -1  0  0
                       0  0  1   1  0  0   0  1  0       0  0 -1  -1  0  0   0 -1  0
                      -1 -1 -1   0  1  0   0  0  1       1  1  1   0 -1  0   0  0 -1
                       1  0  0   0  0  1   0  1  0      -1  0  0   0  0 -1   0 -1  0
                       0  1  0  -1 -1 -1   1  0  0       0 -1  0   1  1  1  -1  0  0
                       0  0  1   1  0  0  -1 -1 -1       0  0 -1  -1  0  0   1  1  1
           symrel7     1  0  0   0  1  0   0  0  1      -1  0  0   0 -1  0   0  0 -1
                      -1 -1 -1   0  0  1   0  1  0       1  1  1   0  0 -1   0 -1  0
                       0  1  0   1  0  0  -1 -1 -1       0 -1  0  -1  0  0   1  1  1
                       0  0  1  -1 -1 -1   1  0  0       0  0 -1   1  1  1  -1  0  0
                       0  1  0   1  0  0   0  0  1       0 -1  0  -1  0  0   0  0 -1
                      -1 -1 -1   0  0  1   1  0  0       1  1  1   0  0 -1  -1  0  0
                       1  0  0   0  1  0  -1 -1 -1      -1  0  0   0 -1  0   1  1  1
                       0  0  1  -1 -1 -1   0  1  0       0  0 -1   1  1  1   0 -1  0
                      -1 -1 -1   1  0  0   0  0  1       1  1  1  -1  0  0   0  0 -1
                       0  1  0   0  0  1   1  0  0       0 -1  0   0  0 -1  -1  0  0
                       1  0  0  -1 -1 -1   0  1  0      -1  0  0   1  1  1   0 -1  0
                       0  0  1   0  1  0  -1 -1 -1       0  0 -1   0 -1  0   1  1  1
                       1  0  0  -1 -1 -1   0  0  1      -1  0  0   1  1  1   0  0 -1
                       0  1  0   0  0  1  -1 -1 -1       0 -1  0   0  0 -1   1  1  1
                      -1 -1 -1   1  0  0   0  1  0       1  1  1  -1  0  0   0 -1  0
                       0  0  1   0  1  0   1  0  0       0  0 -1   0 -1  0  -1  0  0
                       0  1  0  -1 -1 -1   0  0  1       0 -1  0   1  1  1   0  0 -1
                       1  0  0   0  0  1  -1 -1 -1      -1  0  0   0  0 -1   1  1  1
                      -1 -1 -1   0  1  0   1  0  0       1  1  1   0 -1  0  -1  0  0
                       0  0  1   1  0  0   0  1  0       0  0 -1  -1  0  0   0 -1  0
                      -1 -1 -1   0  1  0   0  0  1       1  1  1   0 -1  0   0  0 -1
                       1  0  0   0  0  1   0  1  0      -1  0  0   0  0 -1   0 -1  0
                       0  1  0  -1 -1 -1   1  0  0       0 -1  0   1  1  1  -1  0  0
                       0  0  1   1  0  0  -1 -1 -1       0  0 -1  -1  0  0   1  1  1
            tnons1     0.0000000  0.0000000  0.0000000     0.0000000  0.0000000  0.0000000
                       0.0000000  0.0000000  0.0000000     0.0000000  0.0000000  0.0000000
                       0.0000000  0.0000000  0.0000000     0.0000000  0.0000000  0.0000000
                       0.0000000  0.0000000  0.0000000     0.0000000  0.0000000  0.0000000
                       0.0000000  0.0000000  0.0000000     0.0000000  0.0000000  0.0000000
                       0.0000000  0.0000000  0.0000000     0.0000000  0.0000000  0.0000000
                       0.0000000  0.0000000  0.0000000     0.0000000  0.0000000  0.0000000
                       0.0000000  0.0000000  0.0000000     0.0000000  0.0000000  0.0000000
            tnons2     0.0000000  0.0000000  0.0000000     0.0000000  0.0000000  0.0000000
                       0.0000000  0.0000000  0.0000000     0.0000000  0.0000000  0.0000000
                       0.0000000  0.0000000  0.0000000     0.0000000  0.0000000  0.0000000
                       0.0000000  0.0000000  0.0000000     0.0000000  0.0000000  0.0000000
                       0.0000000  0.0000000  0.0000000     0.0000000  0.0000000  0.0000000
                       0.0000000  0.0000000  0.0000000     0.0000000  0.0000000  0.0000000
                       0.0000000  0.0000000  0.0000000     0.0000000  0.0000000  0.0000000
                       0.0000000  0.0000000  0.0000000     0.0000000  0.0000000  0.0000000
            tnons3     0.0000000  0.0000000  0.0000000     0.0000000  0.0000000  0.0000000
                       0.0000000  0.0000000  0.0000000     0.0000000  0.0000000  0.0000000
                       0.0000000  0.0000000  0.0000000     0.0000000  0.0000000  0.0000000
                       0.0000000  0.0000000  0.0000000     0.0000000  0.0000000  0.0000000
                       0.0000000  0.0000000  0.0000000     0.0000000  0.0000000  0.0000000
                       0.0000000  0.0000000  0.0000000     0.0000000  0.0000000  0.0000000
                       0.0000000  0.0000000  0.0000000     0.0000000  0.0000000  0.0000000
                       0.0000000  0.0000000  0.0000000     0.0000000  0.0000000  0.0000000
            tnons4     0.0000000  0.0000000  0.0000000     0.0000000  0.0000000  0.0000000
                       0.0000000  0.0000000  0.0000000     0.0000000  0.0000000  0.0000000
                       0.0000000  0.0000000  0.0000000     0.0000000  0.0000000  0.0000000
                       0.0000000  0.0000000  0.0000000     0.0000000  0.0000000  0.0000000
                       0.0000000  0.0000000  0.0000000     0.0000000  0.0000000  0.0000000
                       0.0000000  0.0000000  0.0000000     0.0000000  0.0000000  0.0000000
                       0.0000000  0.0000000  0.0000000     0.0000000  0.0000000  0.0000000
                       0.0000000  0.0000000  0.0000000     0.0000000  0.0000000  0.0000000
            tnons5     0.0000000  0.0000000  0.0000000     0.0000000  0.0000000  0.0000000
                       0.0000000  0.0000000  0.0000000     0.0000000  0.0000000  0.0000000
                       0.0000000  0.0000000  0.0000000     0.0000000  0.0000000  0.0000000
                       0.0000000  0.0000000  0.0000000     0.0000000  0.0000000  0.0000000
                       0.0000000  0.0000000  0.0000000     0.0000000  0.0000000  0.0000000
                       0.0000000  0.0000000  0.0000000     0.0000000  0.0000000  0.0000000
                       0.0000000  0.0000000  0.0000000     0.0000000  0.0000000  0.0000000
                       0.0000000  0.0000000  0.0000000     0.0000000  0.0000000  0.0000000
                       0.0000000  0.0000000  0.0000000     0.0000000  0.0000000  0.0000000
                       0.0000000  0.0000000  0.0000000     0.0000000  0.0000000  0.0000000
                       0.0000000  0.0000000  0.0000000     0.0000000  0.0000000  0.0000000
                       0.0000000  0.0000000  0.0000000     0.0000000  0.0000000  0.0000000
                       0.0000000  0.0000000  0.0000000     0.0000000  0.0000000  0.0000000
                       0.0000000  0.0000000  0.0000000     0.0000000  0.0000000  0.0000000
                       0.0000000  0.0000000  0.0000000     0.0000000  0.0000000  0.0000000
                       0.0000000  0.0000000  0.0000000     0.0000000  0.0000000  0.0000000
                       0.0000000  0.0000000  0.0000000     0.0000000  0.0000000  0.0000000
                       0.0000000  0.0000000  0.0000000     0.0000000  0.0000000  0.0000000
                       0.0000000  0.0000000  0.0000000     0.0000000  0.0000000  0.0000000
                       0.0000000  0.0000000  0.0000000     0.0000000  0.0000000  0.0000000
                       0.0000000  0.0000000  0.0000000     0.0000000  0.0000000  0.0000000
                       0.0000000  0.0000000  0.0000000     0.0000000  0.0000000  0.0000000
                       0.0000000  0.0000000  0.0000000     0.0000000  0.0000000  0.0000000
                       0.0000000  0.0000000  0.0000000     0.0000000  0.0000000  0.0000000
            tnons6     0.0000000  0.0000000  0.0000000     0.0000000  0.0000000  0.0000000
                       0.0000000  0.0000000  0.0000000     0.0000000  0.0000000  0.0000000
                       0.0000000  0.0000000  0.0000000     0.0000000  0.0000000  0.0000000
                       0.0000000  0.0000000  0.0000000     0.0000000  0.0000000  0.0000000
                       0.0000000  0.0000000  0.0000000     0.0000000  0.0000000  0.0000000
                       0.0000000  0.0000000  0.0000000     0.0000000  0.0000000  0.0000000
                       0.0000000  0.0000000  0.0000000     0.0000000  0.0000000  0.0000000
                       0.0000000  0.0000000  0.0000000     0.0000000  0.0000000  0.0000000
                       0.0000000  0.0000000  0.0000000     0.0000000  0.0000000  0.0000000
                       0.0000000  0.0000000  0.0000000     0.0000000  0.0000000  0.0000000
                       0.0000000  0.0000000  0.0000000     0.0000000  0.0000000  0.0000000
                       0.0000000  0.0000000  0.0000000     0.0000000  0.0000000  0.0000000
                       0.0000000  0.0000000  0.0000000     0.0000000  0.0000000  0.0000000
                       0.0000000  0.0000000  0.0000000     0.0000000  0.0000000  0.0000000
                       0.0000000  0.0000000  0.0000000     0.0000000  0.0000000  0.0000000
                       0.0000000  0.0000000  0.0000000     0.0000000  0.0000000  0.0000000
                       0.0000000  0.0000000  0.0000000     0.0000000  0.0000000  0.0000000
                       0.0000000  0.0000000  0.0000000     0.0000000  0.0000000  0.0000000
                       0.0000000  0.0000000  0.0000000     0.0000000  0.0000000  0.0000000
                       0.0000000  0.0000000  0.0000000     0.0000000  0.0000000  0.0000000
                       0.0000000  0.0000000  0.0000000     0.0000000  0.0000000  0.0000000
                       0.0000000  0.0000000  0.0000000     0.0000000  0.0000000  0.0000000
                       0.0000000  0.0000000  0.0000000     0.0000000  0.0000000  0.0000000
                       0.0000000  0.0000000  0.0000000     0.0000000  0.0000000  0.0000000
            tnons7     0.0000000  0.0000000  0.0000000     0.0000000  0.0000000  0.0000000
                       0.0000000  0.0000000  0.0000000     0.0000000  0.0000000  0.0000000
                       0.0000000  0.0000000  0.0000000     0.0000000  0.0000000  0.0000000
                       0.0000000  0.0000000  0.0000000     0.0000000  0.0000000  0.0000000
                       0.0000000  0.0000000  0.0000000     0.0000000  0.0000000  0.0000000
                       0.0000000  0.0000000  0.0000000     0.0000000  0.0000000  0.0000000
                       0.0000000  0.0000000  0.0000000     0.0000000  0.0000000  0.0000000
                       0.0000000  0.0000000  0.0000000     0.0000000  0.0000000  0.0000000
                       0.0000000  0.0000000  0.0000000     0.0000000  0.0000000  0.0000000
                       0.0000000  0.0000000  0.0000000     0.0000000  0.0000000  0.0000000
                       0.0000000  0.0000000  0.0000000     0.0000000  0.0000000  0.0000000
                       0.0000000  0.0000000  0.0000000     0.0000000  0.0000000  0.0000000
                       0.0000000  0.0000000  0.0000000     0.0000000  0.0000000  0.0000000
                       0.0000000  0.0000000  0.0000000     0.0000000  0.0000000  0.0000000
                       0.0000000  0.0000000  0.0000000     0.0000000  0.0000000  0.0000000
                       0.0000000  0.0000000  0.0000000     0.0000000  0.0000000  0.0000000
                       0.0000000  0.0000000  0.0000000     0.0000000  0.0000000  0.0000000
                       0.0000000  0.0000000  0.0000000     0.0000000  0.0000000  0.0000000
                       0.0000000  0.0000000  0.0000000     0.0000000  0.0000000  0.0000000
                       0.0000000  0.0000000  0.0000000     0.0000000  0.0000000  0.0000000
                       0.0000000  0.0000000  0.0000000     0.0000000  0.0000000  0.0000000
                       0.0000000  0.0000000  0.0000000     0.0000000  0.0000000  0.0000000
                       0.0000000  0.0000000  0.0000000     0.0000000  0.0000000  0.0000000
                       0.0000000  0.0000000  0.0000000     0.0000000  0.0000000  0.0000000
           toldfe1     1.00000000E-10 Hartree
           toldfe2     1.00000000E-10 Hartree
           toldfe3     1.00000000E-14 Hartree
           toldfe4     1.00000000E-14 Hartree
           toldfe5     1.00000000E-10 Hartree
           toldfe6     1.00000000E-10 Hartree
           toldfe7     1.00000000E-10 Hartree
            typat      1
              wtk1       0.12500    0.50000    0.25000    0.12500
              wtk2       0.12500    0.50000    0.25000    0.12500
              wtk3       0.12500    0.50000    0.25000    0.12500
              wtk4       0.12500    0.50000    0.25000    0.12500
              wtk5       0.12500    0.75000    0.12500
              wtk6       0.12500    0.75000    0.12500
              wtk7       0.12500    0.75000    0.12500
            znucl       26.00000

================================================================================


- Timing analysis has been suppressed with timopt=0



================================================================================

 Suggested references for the acknowledgment of ABINIT usage.

 The users of ABINIT have little formal obligations with respect to the ABINIT group
 (those specified in the GNU General Public License, http://www.gnu.org/copyleft/gpl.txt).
 However, it is common practice in the scientific literature,
 to acknowledge the efforts of people that have made the research possible.
 In this spirit, please find below suggested citations of work written by ABINIT developers,
 corresponding to implementations inside of ABINIT that you have used in the present run.
 Note also that it will be of great value to readers of publications presenting these results,
 to read papers enabling them to understand the theoretical formalism and details
 of the ABINIT implementation.
 For information on why they are suggested, see also https://docs.abinit.org/theory/acknowledgments.
-
- [1] The Abinit project: Impact, environment and recent developments.
- Computer Phys. Comm. 248, 107042 (2020).
- X.Gonze, B. Amadon, G. Antonius, F.Arnardi, L.Baguet, J.-M.Beuken,
- J.Bieder, F.Bottin, J.Bouchet, E.Bousquet, N.Brouwer, F.Bruneval,
- G.Brunin, T.Cavignac, J.-B. Charraud, Wei Chen, M.Cote, S.Cottenier,
- J.Denier, G.Geneste, Ph.Ghosez, M.Giantomassi, Y.Gillet, O.Gingras,
- D.R.Hamann, G.Hautier, Xu He, N.Helbig, N.Holzwarth, Y.Jia, F.Jollet,
- W.Lafargue-Dit-Hauret, K.Lejaeghere, M.A.L.Marques, A.Martin, C.Martins,
- H.P.C. Miranda, F.Naccarato, K. Persson, G.Petretto, V.Planes, Y.Pouillon,
- S.Prokhorenko, F.Ricci, G.-M.Rignanese, A.H.Romero, M.M.Schmitt, M.Torrent,
- M.J.van Setten, B.Van Troeye, M.J.Verstraete, G.Zerah and J.W.Zwanzig
- Comment: the fifth generic paper describing the ABINIT project.
- Note that a version of this paper, that is not formatted for Computer Phys. Comm. 
- is available at https://www.abinit.org/sites/default/files/ABINIT20.pdf .
- The licence allows the authors to put it on the Web.
- DOI and bibtex: see https://docs.abinit.org/theory/bibliography/#gonze2020
-
- [2] ABINIT: Overview, and focus on selected capabilities
- J. Chem. Phys. 152, 124102 (2020).
- A. Romero, D.C. Allan, B. Amadon, G. Antonius, T. Applencourt, L.Baguet,
- J.Bieder, F.Bottin, J.Bouchet, E.Bousquet, F.Bruneval,
- G.Brunin, D.Caliste, M.Cote,
- J.Denier, C. Dreyer, Ph.Ghosez, M.Giantomassi, Y.Gillet, O.Gingras,
- D.R.Hamann, G.Hautier, F.Jollet, G. Jomard,
- A.Martin, 
- H.P.C. Miranda, F.Naccarato, G.Petretto, N.A. Pike, V.Planes,
- S.Prokhorenko, T. Rangel, F.Ricci, G.-M.Rignanese, M.Royo, M.Stengel, M.Torrent,
- M.J.van Setten, B.Van Troeye, M.J.Verstraete, J.Wiktor, J.W.Zwanziger, and X.Gonze.
- Comment: a global overview of ABINIT, with focus on selected capabilities .
- Note that a version of this paper, that is not formatted for J. Chem. Phys 
- is available at https://www.abinit.org/sites/default/files/ABINIT20_JPC.pdf .
- The licence allows the authors to put it on the Web.
- DOI and bibtex: see https://docs.abinit.org/theory/bibliography/#romero2020
-
- [3] Recent developments in the ABINIT software package.
- Computer Phys. Comm. 205, 106 (2016).
- X.Gonze, F.Jollet, F.Abreu Araujo, D.Adams, B.Amadon, T.Applencourt,
- C.Audouze, J.-M.Beuken, J.Bieder, A.Bokhanchuk, E.Bousquet, F.Bruneval
- D.Caliste, M.Cote, F.Dahm, F.Da Pieve, M.Delaveau, M.Di Gennaro,
- B.Dorado, C.Espejo, G.Geneste, L.Genovese, A.Gerossier, M.Giantomassi,
- Y.Gillet, D.R.Hamann, L.He, G.Jomard, J.Laflamme Janssen, S.Le Roux,
- A.Levitt, A.Lherbier, F.Liu, I.Lukacevic, A.Martin, C.Martins,
- M.J.T.Oliveira, S.Ponce, Y.Pouillon, T.Rangel, G.-M.Rignanese,
- A.H.Romero, B.Rousseau, O.Rubel, A.A.Shukri, M.Stankovski, M.Torrent,
- M.J.Van Setten, B.Van Troeye, M.J.Verstraete, D.Waroquier, J.Wiktor,
- B.Xu, A.Zhou, J.W.Zwanziger.
- Comment: the fourth generic paper describing the ABINIT project.
- Note that a version of this paper, that is not formatted for Computer Phys. Comm. 
- is available at https://www.abinit.org/sites/default/files/ABINIT16.pdf .
- The licence allows the authors to put it on the Web.
- DOI and bibtex: see https://docs.abinit.org/theory/bibliography/#gonze2016
-
- And optionally:
-
- [4] ABINIT: First-principles approach of materials and nanosystem properties.
- Computer Phys. Comm. 180, 2582-2615 (2009).
- X. Gonze, B. Amadon, P.-M. Anglade, J.-M. Beuken, F. Bottin, P. Boulanger, F. Bruneval,
- D. Caliste, R. Caracas, M. Cote, T. Deutsch, L. Genovese, Ph. Ghosez, M. Giantomassi
- S. Goedecker, D.R. Hamann, P. Hermet, F. Jollet, G. Jomard, S. Leroux, M. Mancini, S. Mazevet,
- M.J.T. Oliveira, G. Onida, Y. Pouillon, T. Rangel, G.-M. Rignanese, D. Sangalli, R. Shaltaf,
- M. Torrent, M.J. Verstraete, G. Zerah, J.W. Zwanziger
- Comment: the third generic paper describing the ABINIT project.
- Note that a version of this paper, that is not formatted for Computer Phys. Comm. 
- is available at https://www.abinit.org/sites/default/files/ABINIT_CPC_v10.pdf .
- The licence allows the authors to put it on the Web.
- DOI and bibtex: see https://docs.abinit.org/theory/bibliography/#gonze2009
-
- Proc.   0 individual time (sec): cpu=         17.1  wall=         17.2

================================================================================

 Calculation completed.
.Delivered  28 WARNINGs and  26 COMMENTs to log file.
+Overall time at end (sec) : cpu=         17.1  wall=         17.2
