
.Version 9.0.0 of ABINIT 
.(MPI version, prepared for a x86_64_linux_gnu9.2 computer) 

.Copyright (C) 1998-2020 ABINIT group . 
 ABINIT comes with ABSOLUTELY NO WARRANTY.
 It is free software, and you are welcome to redistribute it
 under certain conditions (GNU General Public License,
 see ~abinit/COPYING or http://www.gnu.org/copyleft/gpl.txt).

 ABINIT is a project of the Universite Catholique de Louvain,
 Corning Inc. and other collaborators, see ~abinit/doc/developers/contributors.txt .
 Please read https://docs.abinit.org/theory/acknowledgments for suggested
 acknowledgments of the ABINIT effort.
 For more information, see https://www.abinit.org .

.Starting date : Sat 15 Feb 2020.
- ( at 16h53 )
  
- input  file    -> /home/gmatteo/git_repos/abinit/_abiref_gnu9.2_openmpi/tests/Test_suite/v7_t28-t29/t29.in
- output file    -> t29.out
- root for input  files -> t29i
- root for output files -> t29o


 DATASET    2 : space group Fm -3 m (#225); Bravais cF (face-center cubic)
================================================================================
 Values of the parameters that define the memory need for DATASET  2.
     intxc =       0    ionmov =       0      iscf =      17    lmnmax =      32
     lnmax =       8     mgfft =      24  mpssoang =       4    mqgrid =    3001
     natom =       1  nloc_mem =       2    nspden =       1   nspinor =       1
    nsppol =       1      nsym =      48    n1xccc =       1    ntypat =       1
    occopt =       3   xclevel =       1
-    mband =          20        mffmem =           1         mkmem =          10
       mpw =         470          nfft =       13824          nkpt =          10
 PAW method is used; the additional fine FFT grid is defined by:
   mgfftf=        50    nfftf =    125000
================================================================================
P This job should need less than                      37.770 Mbytes of memory.
  Rough estimation (10% accuracy) of disk space for files :
_ WF disk file :      1.436 Mbytes ; DEN or POT disk file :      0.956 Mbytes.
================================================================================

--------------------------------------------------------------------------------
------------- Echo of variables that govern the present computation ------------
--------------------------------------------------------------------------------
-
- outvars: echo of selected default values                                      
-   iomode0 =  0 , fftalg0 =312 , wfoptalg0 = 10
-
- outvars: echo of global parameters not present in the input file              
-  max_nthreads =    0
-
 -outvars: echo values of preprocessed input variables --------
            acell      9.7500000000E+00  9.7500000000E+00  9.7500000000E+00 Bohr
              amu      1.40115000E+02
        dmatpuopt           1
        dmftbandf          20
        dmftbandi           5
        dmft_iter           1
        dmft_nwli       10000
        dmft_nwlo         100
  dmft_occnd_imag           0
  dmft_read_occnd           1
        dmft_rslf           1
             ecut      1.20000000E+01 Hartree
-          fftalg         312
           irdwfk           1
              ixc           7
           jdtset        2
              kpt     -1.25000000E-01 -2.50000000E-01  0.00000000E+00
                      -1.25000000E-01  5.00000000E-01  0.00000000E+00
                      -2.50000000E-01 -3.75000000E-01  0.00000000E+00
                      -1.25000000E-01 -3.75000000E-01  1.25000000E-01
                      -1.25000000E-01  2.50000000E-01  0.00000000E+00
                      -2.50000000E-01  3.75000000E-01  0.00000000E+00
                      -3.75000000E-01  5.00000000E-01  0.00000000E+00
                      -2.50000000E-01  5.00000000E-01  1.25000000E-01
                      -1.25000000E-01  0.00000000E+00  0.00000000E+00
                      -3.75000000E-01  0.00000000E+00  0.00000000E+00
           kptopt           4
         kptrlatt        4   -4    4     -4    4    4     -4   -4    4
          kptrlen      3.90000000E+01
            lpawu           3
P           mkmem          10
            natom           1
            nband          20
           ndtset           1
            ngfft          24      24      24
          ngfftdg          50      50      50
             nkpt          10
            nstep           1
             nsym          48
           ntypat           1
              occ      2.000000  2.000000  2.000000  2.000000  2.000000  2.000000
                       0.000000  0.000000  0.000000  0.000000  0.000000  0.000000
                       0.000000  0.000000  0.000000  0.000000  0.000000  0.000000
                       0.000000  0.000000
                       2.000000  2.000000  2.000000  2.000000  2.000000  2.000000
                       0.000000  0.000000  0.000000  0.000000  0.000000  0.000000
                       0.000000  0.000000  0.000000  0.000000  0.000000  0.000000
                       0.000000  0.000000
                       2.000000  2.000000  2.000000  2.000000  2.000000  2.000000
                       0.000000  0.000000  0.000000  0.000000  0.000000  0.000000
                       0.000000  0.000000  0.000000  0.000000  0.000000  0.000000
                       0.000000  0.000000
                       2.000000  2.000000  2.000000  2.000000  2.000000  2.000000
                       0.000000  0.000000  0.000000  0.000000  0.000000  0.000000
                       0.000000  0.000000  0.000000  0.000000  0.000000  0.000000
                       0.000000  0.000000
                       2.000000  2.000000  2.000000  2.000000  2.000000  2.000000
                       0.000000  0.000000  0.000000  0.000000  0.000000  0.000000
                       0.000000  0.000000  0.000000  0.000000  0.000000  0.000000
                       0.000000  0.000000
                       2.000000  2.000000  2.000000  2.000000  2.000000  2.000000
                       0.000000  0.000000  0.000000  0.000000  0.000000  0.000000
                       0.000000  0.000000  0.000000  0.000000  0.000000  0.000000
                       0.000000  0.000000
                       2.000000  2.000000  2.000000  2.000000  2.000000  2.000000
                       0.000000  0.000000  0.000000  0.000000  0.000000  0.000000
                       0.000000  0.000000  0.000000  0.000000  0.000000  0.000000
                       0.000000  0.000000
                       2.000000  2.000000  2.000000  2.000000  2.000000  2.000000
                       0.000000  0.000000  0.000000  0.000000  0.000000  0.000000
                       0.000000  0.000000  0.000000  0.000000  0.000000  0.000000
                       0.000000  0.000000
                       2.000000  2.000000  2.000000  2.000000  2.000000  2.000000
                       0.000000  0.000000  0.000000  0.000000  0.000000  0.000000
                       0.000000  0.000000  0.000000  0.000000  0.000000  0.000000
                       0.000000  0.000000
                       2.000000  2.000000  2.000000  2.000000  2.000000  2.000000
                       0.000000  0.000000  0.000000  0.000000  0.000000  0.000000
                       0.000000  0.000000  0.000000  0.000000  0.000000  0.000000
                       0.000000  0.000000
           occopt           3
        optforces           0
        pawecutdg      6.00000000E+01 Hartree
        pawprtvol           3
           prtvol           4
            rprim      0.0000000000E+00  5.0000000000E-01  5.0000000000E-01
                       5.0000000000E-01  0.0000000000E+00  5.0000000000E-01
                       5.0000000000E-01  5.0000000000E-01  0.0000000000E+00
           shiftk      5.00000000E-01  5.00000000E-01  5.00000000E-01
          spgroup         225
           symrel      1  0  0   0  1  0   0  0  1      -1  0  0   0 -1  0   0  0 -1
                       0 -1  1   0 -1  0   1 -1  0       0  1 -1   0  1  0  -1  1  0
                      -1  0  0  -1  0  1  -1  1  0       1  0  0   1  0 -1   1 -1  0
                       0  1 -1   1  0 -1   0  0 -1       0 -1  1  -1  0  1   0  0  1
                      -1  0  0  -1  1  0  -1  0  1       1  0  0   1 -1  0   1  0 -1
                       0 -1  1   1 -1  0   0 -1  0       0  1 -1  -1  1  0   0  1  0
                       1  0  0   0  0  1   0  1  0      -1  0  0   0  0 -1   0 -1  0
                       0  1 -1   0  0 -1   1  0 -1       0 -1  1   0  0  1  -1  0  1
                      -1  0  1  -1  1  0  -1  0  0       1  0 -1   1 -1  0   1  0  0
                       0 -1  0   1 -1  0   0 -1  1       0  1  0  -1  1  0   0  1 -1
                       1  0 -1   0  0 -1   0  1 -1      -1  0  1   0  0  1   0 -1  1
                       0  1  0   0  0  1   1  0  0       0 -1  0   0  0 -1  -1  0  0
                       1  0 -1   0  1 -1   0  0 -1      -1  0  1   0 -1  1   0  0  1
                       0 -1  0   0 -1  1   1 -1  0       0  1  0   0  1 -1  -1  1  0
                      -1  0  1  -1  0  0  -1  1  0       1  0 -1   1  0  0   1 -1  0
                       0  1  0   1  0  0   0  0  1       0 -1  0  -1  0  0   0  0 -1
                       0  0 -1   0  1 -1   1  0 -1       0  0  1   0 -1  1  -1  0  1
                       1 -1  0   0 -1  1   0 -1  0      -1  1  0   0  1 -1   0  1  0
                       0  0  1   1  0  0   0  1  0       0  0 -1  -1  0  0   0 -1  0
                      -1  1  0  -1  0  0  -1  0  1       1 -1  0   1  0  0   1  0 -1
                       0  0  1   0  1  0   1  0  0       0  0 -1   0 -1  0  -1  0  0
                       1 -1  0   0 -1  0   0 -1  1      -1  1  0   0  1  0   0  1 -1
                       0  0 -1   1  0 -1   0  1 -1       0  0  1  -1  0  1   0 -1  1
                      -1  1  0  -1  0  1  -1  0  0       1 -1  0   1  0 -1   1  0  0
           tolvrs      1.00000000E-10
           tsmear      1.73918086E-03 Hartree
            typat      1
            upawu      2.20495952E-01 Hartree
          usedmft           1
          usepawu          10
           useylm           1
              wtk        0.09375    0.09375    0.09375    0.18750    0.09375    0.09375
                         0.09375    0.18750    0.03125    0.03125
            znucl       58.00000

================================================================================

 chkinp: Checking input parameters for consistency, jdtset=   2.

================================================================================
== DATASET  2 ==================================================================
-   mpi_nproc: 1, omp_nthreads: -1 (-1 if OMP is not activated)

 Exchange-correlation functional for the present dataset will be:
  LDA: Perdew-Wang 92 LSD fit to Ceperley-Alder data - ixc=7
 Citation for XC functional:
  J.P.Perdew and Y.Wang, PRB 45, 13244 (1992)

 Real(R)+Recip(G) space primitive vectors, cartesian coordinates (Bohr,Bohr^-1):
 R(1)=  0.0000000  4.8750000  4.8750000  G(1)= -0.1025641  0.1025641  0.1025641
 R(2)=  4.8750000  0.0000000  4.8750000  G(2)=  0.1025641 -0.1025641  0.1025641
 R(3)=  4.8750000  4.8750000  0.0000000  G(3)=  0.1025641  0.1025641 -0.1025641
 Unit cell volume ucvol=  2.3171484E+02 bohr^3
 Angles (23,13,12)=  6.00000000E+01  6.00000000E+01  6.00000000E+01 degrees

 Coarse grid specifications (used for wave-functions):

 getcut: wavevector=  0.0000  0.0000  0.0000  ngfft=  24  24  24
         ecut(hartree)=     12.000   => boxcut(ratio)=   2.23237

 getcut : COMMENT -
  Note that boxcut > 2.2 ; recall that boxcut=Gcut(box)/Gcut(sphere) = 2
  is sufficient for exact treatment of convolution.
  Such a large boxcut is a waste : you could raise ecut
  e.g. ecut=   14.950407 Hartrees makes boxcut=2


 Fine grid specifications (used for densities):

 getcut: wavevector=  0.0000  0.0000  0.0000  ngfft=  50  50  50
         ecut(hartree)=     60.000   => boxcut(ratio)=   2.08072

--- Pseudopotential description ------------------------------------------------
- pspini: atom type   1  psp file is /home/gmatteo/git_repos/abinit/tests/Psps_for_tests/58ce.paw
- pspatm: opening atomic psp file    /home/gmatteo/git_repos/abinit/tests/Psps_for_tests/58ce.paw
- Paw atomic data for element Ce - Generated by AtomPAW + AtomPAW2Abinit v3.2.1
- 58.00000  12.00000  20090603                znucl, zion, pspdat
    7    7    3    0       511   0.00000      pspcod,pspxc,lmax,lloc,mmax,r2well
 Pseudopotential format is: paw4
 basis_size (lnmax)=  8 (lmn_size= 32), orbitals=   0   0   1   1   2   2   3   3
 Spheres core radius: rc_sph= 2.51255760
 4 radial meshes are used:
  - mesh 1: r(i)=AA*[exp(BB*(i-1))-1], size= 511 , AA= 0.30755E-03 BB= 0.17838E-01
  - mesh 2: r(i)=AA*[exp(BB*(i-1))-1], size= 506 , AA= 0.30755E-03 BB= 0.17838E-01
  - mesh 3: r(i)=AA*[exp(BB*(i-1))-1], size= 534 , AA= 0.30755E-03 BB= 0.17838E-01
  - mesh 4: r(i)=AA*[exp(BB*(i-1))-1], size= 583 , AA= 0.30755E-03 BB= 0.17838E-01
 Shapefunction is SIN type: shapef(r)=[sin(pi*r/rshp)/(pi*r/rshp)]**2
 Radius for shape functions = sphere core radius
 Radial grid used for partial waves is grid 1
 Radial grid used for projectors is grid  2
 Radial grid used for (t)core density is grid 3
 Radial grid used for Vloc is grid 4
 Radial grid used for pseudo valence density is grid 4
 Compensation charge density is taken into account in XC energy/potential
 pspatm: atomic psp has been read  and splines computed

   3.12151005E+02                                ecore*ucvol(ha*bohr**3)
--------------------------------------------------------------------------------

-inwffil : will read wavefunctions from disk file t29i_DS2_WFK
P newkpt: treating     20 bands with npw=     470 for ikpt=   1 by node    0
P newkpt: treating     20 bands with npw=     459 for ikpt=   2 by node    0
P newkpt: treating     20 bands with npw=     456 for ikpt=   3 by node    0
P newkpt: treating     20 bands with npw=     455 for ikpt=   4 by node    0
P newkpt: treating     20 bands with npw=     461 for ikpt=   5 by node    0
P newkpt: treating     20 bands with npw=     452 for ikpt=   6 by node    0
P newkpt: treating     20 bands with npw=     456 for ikpt=   7 by node    0
P newkpt: treating     20 bands with npw=     459 for ikpt=   8 by node    0
P newkpt: treating     20 bands with npw=     465 for ikpt=   9 by node    0
P newkpt: treating     20 bands with npw=     465 for ikpt=  10 by node    0
_setup2: Arith. and geom. avg. npw (full set) are     458.625     458.600

-       ( number of procs used in dmft ) =  1


 ******************************************
 DFT+DMFT Method is used
 ******************************************

 DMFT uses the Continuous Time Quantum Monte Carlo solver of ABINIT

================================================================================

 +----------------------------------------------------------------------------+
 |             Calculation of entropy within  the DMFT Framework              |
 +----------------------------------------------------------------------------+

 +----------------------------------------------------------------------------+
 |   1) lambda = 0.0000                                                       |
 |      - Atom type    1     ->        U = 0.0000 Ha   J = 0.0000 Ha          |
 +----------------------------------------------------------------------------+

     iter   Etot(hartree)      deltaE(h)  residm     nres2
 (Edmft  1   0.00000000000)

  == The DFT+DMFT occupation matrix for correlated electrons is ==

   -------> For Correlated Atom   1

          -- polarization spin component  1
        0.06624  -0.00000   0.03459   0.00000  -0.00000   0.00000   0.00000
       -0.00000   0.15565   0.00000  -0.00000   0.00000  -0.00000   0.00000
        0.03459   0.00000   0.04838   0.00000  -0.00000  -0.00000   0.00000
       -0.00000  -0.00000   0.00000   0.09303   0.00000   0.00000  -0.00000
        0.00000   0.00000  -0.00000  -0.00000   0.04838  -0.00000  -0.03459
       -0.00000   0.00000  -0.00000   0.00000  -0.00000   0.02159  -0.00000
        0.00000   0.00000   0.00000   0.00000  -0.03459   0.00000   0.06624

 ETOT  1  -39.477431948697    -3.948E+01 6.045E-12 2.365E-03

 Cartesian components of stress tensor (hartree/bohr^3)
  sigma(1 1)=  3.21000908E-04  sigma(3 2)=  0.00000000E+00
  sigma(2 2)=  3.21000908E-04  sigma(3 1)=  0.00000000E+00
  sigma(3 3)=  3.21000908E-04  sigma(2 1)=  0.00000000E+00


 scprqt:  WARNING -
  nstep=    1 was not enough SCF cycles to converge;
  density residual=  2.365E-03 exceeds tolvrs=  1.000E-10


--- !ResultsGS
iteration_state: {dtset: 2, }
comment   : Summary of ground state results
rprimd    :
- [  0.0000000,   4.8750000,   4.8750000, ]
- [  4.8750000,   0.0000000,   4.8750000, ]
- [  4.8750000,   4.8750000,   0.0000000, ]
lattice_lengths: [   6.89429,    6.89429,    6.89429, ]
lattice_angles: [ 60.000,  60.000,  60.000, ]
lattice_volume:   2.3171484E+02
convergence: {deltae: -3.948E+01, res2:  2.365E-03, residm:  6.045E-12, diffor:  0.000E+00, }
etotal    :  -3.94774319E+01
entropy   :   0.00000000E+00
fermie    :   3.09563520E-01
cartesian_stress_tensor:
- [  3.21000908E-04,   0.00000000E+00,   0.00000000E+00, ]
- [  0.00000000E+00,   3.21000908E-04,   0.00000000E+00, ]
- [  0.00000000E+00,   0.00000000E+00,   3.21000908E-04, ]
pressure_GPa:  -9.4442E+00
cartesian_forces: null
force_length_stats: {min: null, max: null, mean: null, }
...

 Integrated electronic density in atomic spheres:
 ------------------------------------------------
 Atom  Sphere_radius  Integrated_density
    1        2.51256          9.04292737

 PAW TEST:
 ==== Compensation charge inside spheres ============
 The following values must be close to each other ...
 Compensation charge over spherical meshes =     -0.459643993602796
 Compensation charge over fine fft grid    =     -0.449493956872510

 ==== Results concerning PAW augmentation regions ====

 Total pseudopotential strength Dij (hartree):
   2.51780  -0.83706   0.00000   0.00000   0.00000   0.00000   0.00000   0.00000   0.00000   0.00000   0.00000   0.00000 ...
  -0.83706   0.28375   0.00000   0.00000   0.00000   0.00000   0.00000   0.00000   0.00000   0.00000   0.00000   0.00000 ...
   0.00000   0.00000   0.62381   0.00000   0.00000  -0.60678   0.00000   0.00000   0.00000   0.00000   0.00000   0.00000 ...
   0.00000   0.00000   0.00000   0.62381   0.00000   0.00000  -0.60678   0.00000   0.00000   0.00000   0.00000   0.00000 ...
   0.00000   0.00000   0.00000   0.00000   0.62381   0.00000   0.00000  -0.60678   0.00000   0.00000   0.00000   0.00000 ...
   0.00000   0.00000  -0.60678   0.00000   0.00000   0.79986   0.00000   0.00000   0.00000   0.00000   0.00000   0.00000 ...
   0.00000   0.00000   0.00000  -0.60678   0.00000   0.00000   0.79986   0.00000   0.00000   0.00000   0.00000   0.00000 ...
   0.00000   0.00000   0.00000   0.00000  -0.60678   0.00000   0.00000   0.79986   0.00000   0.00000   0.00000   0.00000 ...
   0.00000   0.00000   0.00000   0.00000   0.00000   0.00000   0.00000   0.00000   0.13286   0.00000   0.00000   0.00000 ...
   0.00000   0.00000   0.00000   0.00000   0.00000   0.00000   0.00000   0.00000   0.00000   0.13286   0.00000   0.00000 ...
   0.00000   0.00000   0.00000   0.00000   0.00000   0.00000   0.00000   0.00000   0.00000   0.00000   0.13274   0.00000 ...
   0.00000   0.00000   0.00000   0.00000   0.00000   0.00000   0.00000   0.00000   0.00000   0.00000   0.00000   0.13286 ...
   ...  only 12  components have been written...


 Augmentation waves occupancies Rhoij:
   1.97749  -0.06570   0.00000   0.00000   0.00000   0.00000   0.00000   0.00000   0.00000   0.00000   0.00000   0.00000 ...
  -0.06570   1.08157   0.00000   0.00000   0.00000   0.00000   0.00000   0.00000   0.00000   0.00000   0.00000   0.00000 ...
   0.00000   0.00000   1.97930   0.00000   0.00000  -0.00499   0.00000   0.00000   0.00000   0.00000   0.00000   0.00000 ...
   0.00000   0.00000   0.00000   1.97930   0.00000   0.00000  -0.00499   0.00000   0.00000   0.00000   0.00000   0.00000 ...
   0.00000   0.00000   0.00000   0.00000   1.97930   0.00000   0.00000  -0.00499   0.00000   0.00000   0.00000   0.00000 ...
   0.00000   0.00000  -0.00499   0.00000   0.00000   0.00492   0.00000   0.00000   0.00000   0.00000   0.00000   0.00000 ...
   0.00000   0.00000   0.00000  -0.00499   0.00000   0.00000   0.00492   0.00000   0.00000   0.00000   0.00000   0.00000 ...
   0.00000   0.00000   0.00000   0.00000  -0.00499   0.00000   0.00000   0.00492   0.00000   0.00000   0.00000   0.00000 ...
   0.00000   0.00000   0.00000   0.00000   0.00000   0.00000   0.00000   0.00000   0.38811   0.00000   0.00000   0.00000 ...
   0.00000   0.00000   0.00000   0.00000   0.00000   0.00000   0.00000   0.00000   0.00000   0.38811   0.00000   0.00000 ...
   0.00000   0.00000   0.00000   0.00000   0.00000   0.00000   0.00000   0.00000   0.00000   0.00000   0.32345   0.00000 ...
   0.00000   0.00000   0.00000   0.00000   0.00000   0.00000   0.00000   0.00000   0.00000   0.00000   0.00000   0.38811 ...
   ...  only 12  components have been written...

 "PAW+U" part of augmentation waves occupancies Rhoij:
 L=3 ONLY
   0.13838   0.00000   0.07220   0.00000   0.00000   0.00000   0.00000   0.00873   0.00000   0.00452   0.00000   0.00000   0.00000   0.00000
   0.00000   0.32561   0.00000   0.00000   0.00000   0.00000   0.00000   0.00000   0.02138   0.00000   0.00000   0.00000   0.00000   0.00000
   0.07220   0.00000   0.10109   0.00000   0.00000   0.00000   0.00000   0.00452   0.00000   0.00640   0.00000   0.00000   0.00000   0.00000
   0.00000   0.00000   0.00000   0.19430   0.00000   0.00000   0.00000   0.00000   0.00000   0.00000   0.01224   0.00000   0.00000   0.00000
   0.00000   0.00000   0.00000   0.00000   0.10109   0.00000  -0.07220   0.00000   0.00000   0.00000   0.00000   0.00640   0.00000  -0.00452
   0.00000   0.00000   0.00000   0.00000   0.00000   0.04517   0.00000   0.00000   0.00000   0.00000   0.00000   0.00000   0.00290   0.00000
   0.00000   0.00000   0.00000   0.00000  -0.07220   0.00000   0.13838   0.00000   0.00000   0.00000   0.00000  -0.00452   0.00000   0.00873
   0.00873   0.00000   0.00452   0.00000   0.00000   0.00000   0.00000   0.00081   0.00000   0.00030   0.00000   0.00000   0.00000   0.00000
   0.00000   0.02138   0.00000   0.00000   0.00000   0.00000   0.00000   0.00000   0.00174   0.00000   0.00000   0.00000   0.00000   0.00000
   0.00452   0.00000   0.00640   0.00000   0.00000   0.00000   0.00000   0.00030   0.00000   0.00066   0.00000   0.00000   0.00000   0.00000
   0.00000   0.00000   0.00000   0.01224   0.00000   0.00000   0.00000   0.00000   0.00000   0.00000   0.00104   0.00000   0.00000   0.00000
   0.00000   0.00000   0.00000   0.00000   0.00640   0.00000  -0.00452   0.00000   0.00000   0.00000   0.00000   0.00066   0.00000  -0.00030
   0.00000   0.00000   0.00000   0.00000   0.00000   0.00290   0.00000   0.00000   0.00000   0.00000   0.00000   0.00000   0.00043   0.00000
   0.00000   0.00000   0.00000   0.00000  -0.00452   0.00000   0.00873   0.00000   0.00000   0.00000   0.00000  -0.00030   0.00000   0.00081

 ---------- LDA+U DATA --------------------------------------------------- 

 ====== For Atom     1, occupations for correlated orbitals. lpawu =   3

  (This is PAW atomic orbital occupations)
  (For Wannier orbital occupations, refer to DFT+DMFT occupations above)

 == Occupation matrix for correlated orbitals:

 Up component only...
     0.06210    0.00000    0.03241    0.00000    0.00000    0.00000    0.00000
     0.00000    0.14590    0.00000    0.00000    0.00000    0.00000    0.00000
     0.03241    0.00000    0.04536    0.00000    0.00000    0.00000    0.00000
     0.00000    0.00000    0.00000    0.08720    0.00000    0.00000    0.00000
     0.00000    0.00000    0.00000    0.00000    0.04536    0.00000   -0.03241
     0.00000    0.00000    0.00000    0.00000    0.00000    0.02026    0.00000
     0.00000    0.00000    0.00000    0.00000   -0.03241    0.00000    0.06210




 +----------------------------------------------------------------------------+
 |   2) lambda = 0.5000                                                       |
 |      - Atom type    1     ->        U = 0.1102 Ha   J = 0.0000 Ha          |
 +----------------------------------------------------------------------------+

     iter   Etot(hartree)      deltaE(h)  residm     nres2
 (Edmft  2   0.01477920836)

  == The DFT+DMFT occupation matrix for correlated electrons is ==

   -------> For Correlated Atom   1

          -- polarization spin component  1
        0.04410   0.00000   0.02419  -0.00000  -0.00000   0.00000   0.00000
       -0.00000   0.12555   0.00000  -0.00000   0.00000  -0.00000  -0.00000
        0.02419   0.00000   0.03161  -0.00000  -0.00000  -0.00000  -0.00000
        0.00000  -0.00000   0.00000   0.06283   0.00000  -0.00000   0.00000
        0.00000   0.00000  -0.00000   0.00000   0.03161   0.00000  -0.02419
       -0.00000   0.00000  -0.00000  -0.00000  -0.00000   0.01288   0.00000
       -0.00000  -0.00000   0.00000  -0.00000  -0.02419   0.00000   0.04410

 ETOT  1  -39.461893171031    -3.946E+01 8.448E-08 1.266E+00

 Cartesian components of stress tensor (hartree/bohr^3)
  sigma(1 1)= -5.34086112E-05  sigma(3 2)=  0.00000000E+00
  sigma(2 2)= -5.34086112E-05  sigma(3 1)=  0.00000000E+00
  sigma(3 3)= -5.34086112E-05  sigma(2 1)=  0.00000000E+00


 scprqt:  WARNING -
  nstep=    1 was not enough SCF cycles to converge;
  density residual=  1.266E+00 exceeds tolvrs=  1.000E-10


--- !ResultsGS
iteration_state: {dtset: 2, }
comment   : Summary of ground state results
rprimd    :
- [  0.0000000,   4.8750000,   4.8750000, ]
- [  4.8750000,   0.0000000,   4.8750000, ]
- [  4.8750000,   4.8750000,   0.0000000, ]
lattice_lengths: [   6.89429,    6.89429,    6.89429, ]
lattice_angles: [ 60.000,  60.000,  60.000, ]
lattice_volume:   2.3171484E+02
convergence: {deltae: -3.946E+01, res2:  1.266E+00, residm:  8.448E-08, diffor:  0.000E+00, }
etotal    :  -3.94618932E+01
entropy   :   0.00000000E+00
fermie    :   3.13051041E-01
cartesian_stress_tensor:
- [ -5.34086112E-05,   0.00000000E+00,   0.00000000E+00, ]
- [  0.00000000E+00,  -5.34086112E-05,   0.00000000E+00, ]
- [  0.00000000E+00,   0.00000000E+00,  -5.34086112E-05, ]
pressure_GPa:   1.5713E+00
cartesian_forces: null
force_length_stats: {min: null, max: null, mean: null, }
...

 Integrated electronic density in atomic spheres:
 ------------------------------------------------
 Atom  Sphere_radius  Integrated_density
    1        2.51256          8.86043916

 PAW TEST:
 ==== Compensation charge inside spheres ============
 The following values must be close to each other ...
 Compensation charge over spherical meshes =     -0.449494027977210
 Compensation charge over fine fft grid    =     -0.687102350747063

 ==== Results concerning PAW augmentation regions ====

 Total pseudopotential strength Dij (hartree):
   2.51683  -0.83663   0.00000   0.00000   0.00000   0.00000   0.00000   0.00000   0.00000   0.00000   0.00000   0.00000 ...
  -0.83663   0.28358   0.00000   0.00000   0.00000   0.00000   0.00000   0.00000   0.00000   0.00000   0.00000   0.00000 ...
   0.00000   0.00000   0.62428   0.00000   0.00000  -0.60729   0.00000   0.00000   0.00000   0.00000   0.00000   0.00000 ...
   0.00000   0.00000   0.00000   0.62428   0.00000   0.00000  -0.60729   0.00000   0.00000   0.00000   0.00000   0.00000 ...
   0.00000   0.00000   0.00000   0.00000   0.62428   0.00000   0.00000  -0.60729   0.00000   0.00000   0.00000   0.00000 ...
   0.00000   0.00000  -0.60729   0.00000   0.00000   0.80046   0.00000   0.00000   0.00000   0.00000   0.00000   0.00000 ...
   0.00000   0.00000   0.00000  -0.60729   0.00000   0.00000   0.80046   0.00000   0.00000   0.00000   0.00000   0.00000 ...
   0.00000   0.00000   0.00000   0.00000  -0.60729   0.00000   0.00000   0.80046   0.00000   0.00000   0.00000   0.00000 ...
   0.00000   0.00000   0.00000   0.00000   0.00000   0.00000   0.00000   0.00000   0.13311   0.00000   0.00000   0.00000 ...
   0.00000   0.00000   0.00000   0.00000   0.00000   0.00000   0.00000   0.00000   0.00000   0.13311   0.00000   0.00000 ...
   0.00000   0.00000   0.00000   0.00000   0.00000   0.00000   0.00000   0.00000   0.00000   0.00000   0.13298   0.00000 ...
   0.00000   0.00000   0.00000   0.00000   0.00000   0.00000   0.00000   0.00000   0.00000   0.00000   0.00000   0.13311 ...
   ...  only 12  components have been written...


 Augmentation waves occupancies Rhoij:
   1.98111  -0.05690   0.00000   0.00000   0.00000   0.00000   0.00000   0.00000   0.00000   0.00000   0.00000   0.00000 ...
  -0.05690   1.10922   0.00000   0.00000   0.00000   0.00000   0.00000   0.00000   0.00000   0.00000   0.00000   0.00000 ...
   0.00000   0.00000   1.98330   0.00000   0.00000  -0.00454   0.00000   0.00000   0.00000   0.00000   0.00000   0.00000 ...
   0.00000   0.00000   0.00000   1.98330   0.00000   0.00000  -0.00454   0.00000   0.00000   0.00000   0.00000   0.00000 ...
   0.00000   0.00000   0.00000   0.00000   1.98330   0.00000   0.00000  -0.00454   0.00000   0.00000   0.00000   0.00000 ...
   0.00000   0.00000  -0.00454   0.00000   0.00000   0.00589   0.00000   0.00000   0.00000   0.00000   0.00000   0.00000 ...
   0.00000   0.00000   0.00000  -0.00454   0.00000   0.00000   0.00589   0.00000   0.00000   0.00000   0.00000   0.00000 ...
   0.00000   0.00000   0.00000   0.00000  -0.00454   0.00000   0.00000   0.00589   0.00000   0.00000   0.00000   0.00000 ...
   0.00000   0.00000   0.00000   0.00000   0.00000   0.00000   0.00000   0.00000   0.43547   0.00000   0.00000   0.00000 ...
   0.00000   0.00000   0.00000   0.00000   0.00000   0.00000   0.00000   0.00000   0.00000   0.43547   0.00000   0.00000 ...
   0.00000   0.00000   0.00000   0.00000   0.00000   0.00000   0.00000   0.00000   0.00000   0.00000   0.36498   0.00000 ...
   0.00000   0.00000   0.00000   0.00000   0.00000   0.00000   0.00000   0.00000   0.00000   0.00000   0.00000   0.43547 ...
   ...  only 12  components have been written...

 "PAW+U" part of augmentation waves occupancies Rhoij:
 L=3 ONLY
   0.09329   0.00000   0.05112   0.00000   0.00000   0.00000   0.00000   0.00803   0.00000   0.00437   0.00000   0.00000   0.00000   0.00000
   0.00000   0.26500   0.00000   0.00000   0.00000   0.00000   0.00000   0.00000   0.02177   0.00000   0.00000   0.00000   0.00000   0.00000
   0.05112   0.00000   0.06689   0.00000   0.00000   0.00000   0.00000   0.00437   0.00000   0.00577   0.00000   0.00000   0.00000   0.00000
   0.00000   0.00000   0.00000   0.13289   0.00000   0.00000   0.00000   0.00000   0.00000   0.00000   0.01142   0.00000   0.00000   0.00000
   0.00000   0.00000   0.00000   0.00000   0.06689   0.00000  -0.05112   0.00000   0.00000   0.00000   0.00000   0.00577   0.00000  -0.00437
   0.00000   0.00000   0.00000   0.00000   0.00000   0.02730   0.00000   0.00000   0.00000   0.00000   0.00000   0.00000   0.00239   0.00000
   0.00000   0.00000   0.00000   0.00000  -0.05112   0.00000   0.09329   0.00000   0.00000   0.00000   0.00000  -0.00437   0.00000   0.00803
   0.00803   0.00000   0.00437   0.00000   0.00000   0.00000   0.00000   0.00098   0.00000   0.00039   0.00000   0.00000   0.00000   0.00000
   0.00000   0.02177   0.00000   0.00000   0.00000   0.00000   0.00000   0.00000   0.00220   0.00000   0.00000   0.00000   0.00000   0.00000
   0.00437   0.00000   0.00577   0.00000   0.00000   0.00000   0.00000   0.00039   0.00000   0.00077   0.00000   0.00000   0.00000   0.00000
   0.00000   0.00000   0.00000   0.01142   0.00000   0.00000   0.00000   0.00000   0.00000   0.00000   0.00128   0.00000   0.00000   0.00000
   0.00000   0.00000   0.00000   0.00000   0.00577   0.00000  -0.00437   0.00000   0.00000   0.00000   0.00000   0.00077   0.00000  -0.00039
   0.00000   0.00000   0.00000   0.00000   0.00000   0.00239   0.00000   0.00000   0.00000   0.00000   0.00000   0.00000   0.00047   0.00000
   0.00000   0.00000   0.00000   0.00000  -0.00437   0.00000   0.00803   0.00000   0.00000   0.00000   0.00000  -0.00039   0.00000   0.00098

 ---------- LDA+U DATA --------------------------------------------------- 

 ====== For Atom     1, occupations for correlated orbitals. lpawu =   3

  (This is PAW atomic orbital occupations)
  (For Wannier orbital occupations, refer to DFT+DMFT occupations above)

 == Occupation matrix for correlated orbitals:

 Up component only...
     0.04133    0.00000    0.02265    0.00000    0.00000    0.00000    0.00000
     0.00000    0.11766    0.00000    0.00000    0.00000    0.00000    0.00000
     0.02265    0.00000    0.02964    0.00000    0.00000    0.00000    0.00000
     0.00000    0.00000    0.00000    0.05888    0.00000    0.00000    0.00000
     0.00000    0.00000    0.00000    0.00000    0.02964    0.00000   -0.02265
     0.00000    0.00000    0.00000    0.00000    0.00000    0.01209    0.00000
     0.00000    0.00000    0.00000    0.00000   -0.02265    0.00000    0.04133




 +----------------------------------------------------------------------------+
 |   3) lambda = 1.0000                                                       |
 |      - Atom type    1     ->        U = 0.2205 Ha   J = 0.0000 Ha          |
 +----------------------------------------------------------------------------+

     iter   Etot(hartree)      deltaE(h)  residm     nres2
 (Edmft  3   0.02475305589)

  == The DFT+DMFT occupation matrix for correlated electrons is ==

   -------> For Correlated Atom   1

          -- polarization spin component  1
        0.27359   0.00000   0.02330   0.00000  -0.00000   0.00000  -0.00000
       -0.00000   0.29412   0.00000   0.00000   0.00000   0.00000  -0.00000
        0.02330   0.00000   0.26156   0.00000  -0.00000   0.00000   0.00000
       -0.00000  -0.00000   0.00000   0.29164   0.00000  -0.00000   0.00000
       -0.00000   0.00000  -0.00000   0.00000   0.26156   0.00000  -0.02330
       -0.00000  -0.00000   0.00000   0.00000   0.00000   0.24351   0.00000
       -0.00000   0.00000   0.00000   0.00000  -0.02330   0.00000   0.27359

 ETOT  1  -39.634728882813    -3.963E+01 5.600E-05 1.745E+02

 Cartesian components of stress tensor (hartree/bohr^3)
  sigma(1 1)=  1.05995587E-02  sigma(3 2)=  0.00000000E+00
  sigma(2 2)=  1.05995587E-02  sigma(3 1)=  0.00000000E+00
  sigma(3 3)=  1.05995587E-02  sigma(2 1)=  0.00000000E+00


 scprqt:  WARNING -
  nstep=    1 was not enough SCF cycles to converge;
  density residual=  1.745E+02 exceeds tolvrs=  1.000E-10


--- !ResultsGS
iteration_state: {dtset: 2, }
comment   : Summary of ground state results
rprimd    :
- [  0.0000000,   4.8750000,   4.8750000, ]
- [  4.8750000,   0.0000000,   4.8750000, ]
- [  4.8750000,   4.8750000,   0.0000000, ]
lattice_lengths: [   6.89429,    6.89429,    6.89429, ]
lattice_angles: [ 60.000,  60.000,  60.000, ]
lattice_volume:   2.3171484E+02
convergence: {deltae: -3.963E+01, res2:  1.745E+02, residm:  5.600E-05, diffor:  0.000E+00, }
etotal    :  -3.96347289E+01
entropy   :   0.00000000E+00
fermie    :   2.10205277E-01
cartesian_stress_tensor:
- [  1.05995587E-02,   0.00000000E+00,   0.00000000E+00, ]
- [  0.00000000E+00,   1.05995587E-02,   0.00000000E+00, ]
- [  0.00000000E+00,   0.00000000E+00,   1.05995587E-02, ]
pressure_GPa:  -3.1185E+02
cartesian_forces: null
force_length_stats: {min: null, max: null, mean: null, }
...

 Integrated electronic density in atomic spheres:
 ------------------------------------------------
 Atom  Sphere_radius  Integrated_density
    1        2.51256         11.01616631

 PAW TEST:
 ==== Compensation charge inside spheres ============
 The following values must be close to each other ...
 Compensation charge over spherical meshes =     -0.687102578505697
 Compensation charge over fine fft grid    =      1.989828948000669

 ==== Results concerning PAW augmentation regions ====

 Total pseudopotential strength Dij (hartree):
   2.53981  -0.84669   0.00000   0.00000   0.00000   0.00000   0.00000   0.00000   0.00000   0.00000   0.00000   0.00000 ...
  -0.84669   0.28762   0.00000   0.00000   0.00000   0.00000   0.00000   0.00000   0.00000   0.00000   0.00000   0.00000 ...
   0.00000   0.00000   0.61370   0.00000   0.00000  -0.59589   0.00000   0.00000   0.00000   0.00000   0.00000   0.00000 ...
   0.00000   0.00000   0.00000   0.61370   0.00000   0.00000  -0.59589   0.00000   0.00000   0.00000   0.00000   0.00000 ...
   0.00000   0.00000   0.00000   0.00000   0.61370   0.00000   0.00000  -0.59589   0.00000   0.00000   0.00000   0.00000 ...
   0.00000   0.00000  -0.59589   0.00000   0.00000   0.78685   0.00000   0.00000   0.00000   0.00000   0.00000   0.00000 ...
   0.00000   0.00000   0.00000  -0.59589   0.00000   0.00000   0.78685   0.00000   0.00000   0.00000   0.00000   0.00000 ...
   0.00000   0.00000   0.00000   0.00000  -0.59589   0.00000   0.00000   0.78685   0.00000   0.00000   0.00000   0.00000 ...
   0.00000   0.00000   0.00000   0.00000   0.00000   0.00000   0.00000   0.00000   0.12752   0.00000   0.00000   0.00000 ...
   0.00000   0.00000   0.00000   0.00000   0.00000   0.00000   0.00000   0.00000   0.00000   0.12752   0.00000   0.00000 ...
   0.00000   0.00000   0.00000   0.00000   0.00000   0.00000   0.00000   0.00000   0.00000   0.00000   0.12734   0.00000 ...
   0.00000   0.00000   0.00000   0.00000   0.00000   0.00000   0.00000   0.00000   0.00000   0.00000   0.00000   0.12752 ...
   ...  only 12  components have been written...


 Augmentation waves occupancies Rhoij:
   1.89708  -0.26667   0.00000   0.00000   0.00000   0.00000   0.00000   0.00000   0.00000   0.00000   0.00000   0.00000 ...
  -0.26667   0.17184   0.00000   0.00000   0.00000   0.00000   0.00000   0.00000   0.00000   0.00000   0.00000   0.00000 ...
   0.00000   0.00000   1.95487   0.00000   0.00000  -0.04829   0.00000   0.00000   0.00000   0.00000   0.00000   0.00000 ...
   0.00000   0.00000   0.00000   1.95487   0.00000   0.00000  -0.04829   0.00000   0.00000   0.00000   0.00000   0.00000 ...
   0.00000   0.00000   0.00000   0.00000   1.95487   0.00000   0.00000  -0.04829   0.00000   0.00000   0.00000   0.00000 ...
   0.00000   0.00000  -0.04829   0.00000   0.00000   0.00157   0.00000   0.00000   0.00000   0.00000   0.00000   0.00000 ...
   0.00000   0.00000   0.00000  -0.04829   0.00000   0.00000   0.00157   0.00000   0.00000   0.00000   0.00000   0.00000 ...
   0.00000   0.00000   0.00000   0.00000  -0.04829   0.00000   0.00000   0.00157   0.00000   0.00000   0.00000   0.00000 ...
   0.00000   0.00000   0.00000   0.00000   0.00000   0.00000   0.00000   0.00000   0.01122   0.00000   0.00000   0.00000 ...
   0.00000   0.00000   0.00000   0.00000   0.00000   0.00000   0.00000   0.00000   0.00000   0.01122   0.00000   0.00000 ...
   0.00000   0.00000   0.00000   0.00000   0.00000   0.00000   0.00000   0.00000   0.00000   0.00000   0.01091   0.00000 ...
   0.00000   0.00000   0.00000   0.00000   0.00000   0.00000   0.00000   0.00000   0.00000   0.00000   0.00000   0.01122 ...
   ...  only 12  components have been written...

 "PAW+U" part of augmentation waves occupancies Rhoij:
 L=3 ONLY
   0.53889   0.00000   0.04596   0.00000   0.00000   0.00000   0.00000  -0.02693   0.00000  -0.00219   0.00000   0.00000   0.00000   0.00000
   0.00000   0.58091   0.00000   0.00000   0.00000   0.00000   0.00000   0.00000  -0.02625   0.00000   0.00000   0.00000   0.00000   0.00000
   0.04596   0.00000   0.51516   0.00000   0.00000   0.00000   0.00000  -0.00219   0.00000  -0.02580   0.00000   0.00000   0.00000   0.00000
   0.00000   0.00000   0.00000   0.57450   0.00000   0.00000   0.00000   0.00000   0.00000   0.00000  -0.02863   0.00000   0.00000   0.00000
   0.00000   0.00000   0.00000   0.00000   0.51516   0.00000  -0.04596   0.00000   0.00000   0.00000   0.00000  -0.02580   0.00000   0.00219
   0.00000   0.00000   0.00000   0.00000   0.00000   0.47955   0.00000   0.00000   0.00000   0.00000   0.00000   0.00000  -0.02410   0.00000
   0.00000   0.00000   0.00000   0.00000  -0.04596   0.00000   0.53889   0.00000   0.00000   0.00000   0.00000   0.00219   0.00000  -0.02693
  -0.02693   0.00000  -0.00219   0.00000   0.00000   0.00000   0.00000   0.00155   0.00000   0.00010   0.00000   0.00000   0.00000   0.00000
   0.00000  -0.02625   0.00000   0.00000   0.00000   0.00000   0.00000   0.00000   0.00143   0.00000   0.00000   0.00000   0.00000   0.00000
  -0.00219   0.00000  -0.02580   0.00000   0.00000   0.00000   0.00000   0.00010   0.00000   0.00150   0.00000   0.00000   0.00000   0.00000
   0.00000   0.00000   0.00000  -0.02863   0.00000   0.00000   0.00000   0.00000   0.00000   0.00000   0.00162   0.00000   0.00000   0.00000
   0.00000   0.00000   0.00000   0.00000  -0.02580   0.00000   0.00219   0.00000   0.00000   0.00000   0.00000   0.00150   0.00000  -0.00010
   0.00000   0.00000   0.00000   0.00000   0.00000  -0.02410   0.00000   0.00000   0.00000   0.00000   0.00000   0.00000   0.00142   0.00000
   0.00000   0.00000   0.00000   0.00000   0.00219   0.00000  -0.02693   0.00000   0.00000   0.00000   0.00000  -0.00010   0.00000   0.00155

 ---------- LDA+U DATA --------------------------------------------------- 

 ====== For Atom     1, occupations for correlated orbitals. lpawu =   3

  (This is PAW atomic orbital occupations)
  (For Wannier orbital occupations, refer to DFT+DMFT occupations above)

 == Occupation matrix for correlated orbitals:

 Up component only...
     0.25733    0.00000    0.02192    0.00000    0.00000    0.00000    0.00000
     0.00000    0.27668    0.00000    0.00000    0.00000    0.00000    0.00000
     0.02192    0.00000    0.24601    0.00000    0.00000    0.00000    0.00000
     0.00000    0.00000    0.00000    0.27431    0.00000    0.00000    0.00000
     0.00000    0.00000    0.00000    0.00000    0.24601    0.00000   -0.02192
     0.00000    0.00000    0.00000    0.00000    0.00000    0.22903    0.00000
     0.00000    0.00000    0.00000    0.00000   -0.02192    0.00000    0.25733




 +----------------------------------------------------------------------------+
 |             Calculation of entropy within  the DMFT Framework              |
 |                -kT*entropy is set to -5.04893536395922E-02 [Ha]            |
 +----------------------------------------------------------------------------+
================================================================================

 ----iterations are completed or convergence reached----

 Mean square residual over all n,k,spin=   44.691E-07; max=  56.003E-06
  -0.1250 -0.2500  0.0000    1  3.67061E-05 kpt; spin; max resid(k); each band:
  4.29E-06 2.00E-07 1.11E-07 3.07E-08 3.53E-06 2.43E-07 1.70E-06 4.83E-06
  2.87E-06 4.03E-06 9.16E-07 3.67E-05 1.53E-06 1.59E-06 1.49E-06 4.08E-06
  5.90E-06 3.16E-06 2.84E-05 2.30E-05
  -0.1250  0.5000  0.0000    1  1.67819E-05 kpt; spin; max resid(k); each band:
  6.10E-06 4.84E-08 9.12E-08 1.98E-07 1.79E-06 2.27E-06 1.51E-06 2.27E-06
  2.99E-07 4.80E-07 1.27E-06 1.52E-05 3.07E-06 2.44E-06 1.39E-06 9.32E-07
  6.31E-06 1.68E-05 1.47E-06 8.03E-06
  -0.2500 -0.3750  0.0000    1  1.80376E-05 kpt; spin; max resid(k); each band:
  3.79E-06 1.38E-07 8.11E-08 5.92E-08 1.59E-06 5.11E-06 3.16E-06 1.72E-06
  2.78E-06 1.10E-06 1.32E-06 5.32E-06 3.86E-06 3.55E-06 8.04E-07 1.62E-06
  8.73E-06 1.80E-05 1.60E-05 3.71E-06
  -0.1250 -0.3750  0.1250    1  3.69172E-05 kpt; spin; max resid(k); each band:
  2.17E-05 1.18E-07 1.47E-07 1.03E-07 3.73E-06 2.33E-06 1.55E-06 1.46E-06
  2.45E-06 6.75E-07 3.14E-07 4.09E-06 1.36E-06 2.31E-06 1.29E-06 2.10E-06
  1.98E-06 1.32E-05 8.86E-06 3.69E-05
  -0.1250  0.2500  0.0000    1  5.60033E-05 kpt; spin; max resid(k); each band:
  6.82E-06 1.08E-07 3.04E-08 9.17E-09 1.11E-06 1.35E-06 2.25E-06 1.78E-06
  1.11E-06 2.06E-06 1.26E-07 1.04E-05 3.50E-06 3.03E-06 8.06E-07 9.73E-07
  6.06E-06 1.75E-06 5.60E-05 5.21E-05
  -0.2500  0.3750  0.0000    1  1.27936E-05 kpt; spin; max resid(k); each band:
  9.59E-06 5.54E-08 1.29E-07 7.25E-08 1.49E-06 6.12E-07 1.24E-06 6.55E-07
  1.81E-06 5.84E-08 2.88E-06 3.92E-06 4.58E-06 6.08E-06 3.51E-06 3.48E-06
  4.12E-06 1.28E-05 2.38E-06 1.12E-05
  -0.3750  0.5000  0.0000    1  2.17424E-05 kpt; spin; max resid(k); each band:
  2.17E-05 4.05E-08 6.36E-08 8.17E-08 5.36E-07 3.14E-06 2.60E-06 1.05E-06
  1.65E-06 4.90E-08 5.50E-07 4.50E-06 7.41E-06 1.19E-06 1.26E-06 2.00E-07
  2.08E-06 5.93E-06 7.58E-07 7.33E-06
  -0.2500  0.5000  0.1250    1  3.77052E-05 kpt; spin; max resid(k); each band:
  1.65E-05 7.13E-08 5.90E-08 6.24E-08 3.85E-06 1.41E-06 2.92E-06 2.04E-06
  1.12E-06 9.63E-07 7.07E-07 1.45E-06 3.19E-06 1.10E-06 1.61E-06 2.74E-06
  7.22E-06 8.51E-06 1.27E-05 3.77E-05
  -0.1250  0.0000  0.0000    1  7.30155E-06 kpt; spin; max resid(k); each band:
  4.41E-06 5.30E-08 7.01E-08 1.19E-07 4.16E-06 5.19E-07 1.55E-07 7.67E-07
  4.29E-07 1.26E-06 1.31E-06 2.41E-10 4.95E-07 8.99E-07 6.50E-07 7.30E-06
  2.43E-06 3.04E-07 3.28E-06 6.27E-07
  -0.3750  0.0000  0.0000    1  1.96778E-05 kpt; spin; max resid(k); each band:
  8.74E-06 8.89E-08 7.23E-08 1.35E-07 2.65E-07 1.17E-07 6.59E-07 2.45E-06
  3.41E-06 2.39E-06 2.32E-10 1.97E-05 9.12E-07 9.70E-07 1.34E-05 6.85E-06
  6.04E-06 1.76E-06 1.61E-05 6.15E-07
 reduced coordinates (array xred) for    1 atoms
       0.000000000000      0.000000000000      0.000000000000
 rms dE/dt=  0.0000E+00; max dE/dt=  0.0000E+00; dE/dt below (all hartree)
    1       0.000000000000      0.000000000000      0.000000000000

 cartesian coordinates (angstrom) at end:
    1      0.00000000000000     0.00000000000000     0.00000000000000
 length scales=  9.750000000000  9.750000000000  9.750000000000 bohr
              =  5.159477783752  5.159477783752  5.159477783752 angstroms
 prteigrs : about to open file t29o_DS2_EIG
 Fermi (or HOMO) energy (hartree) =   0.21021   Average Vxc (hartree)=  -0.37445
 Eigenvalues (hartree) for nkpt=  10  k points:
 kpt#   1, nband= 20, wtk=  0.09375, kpt= -0.1250 -0.2500  0.0000 (reduced coord)
  -1.02476   -0.37193   -0.35759   -0.35690    0.20678    0.20905    0.21190    0.21210
   0.21486    0.21526    0.21816    0.23765    0.31951    0.36853    0.38237    0.41486
   0.45987    0.70368    0.75690    0.82611
      occupation numbers for kpt#   1
   2.00000    2.00000    2.00000    2.00000    1.22964    0.98894    0.64845    0.62730
   0.28426    0.25925    0.11794    0.00025    0.00101    0.00118    0.00117    0.00143
   0.00157    0.00315    0.00342    0.00375
 kpt#   2, nband= 20, wtk=  0.09375, kpt= -0.1250  0.5000  0.0000 (reduced coord)
  -1.02117   -0.39531   -0.36278   -0.36001    0.20591    0.20981    0.21035    0.21522
   0.21603    0.21658    0.21812    0.25491    0.33055    0.36364    0.38123    0.51003
   0.52807    0.64258    0.68265    0.80088
      occupation numbers for kpt#   2
   2.00000    2.00000    2.00000    2.00000    1.24394    0.81878    0.75366    0.34196
   0.28944    0.22655    0.11905    0.00039    0.00092    0.00102    0.00113    0.00178
   0.00196    0.00265    0.00310    0.00365
 kpt#   3, nband= 20, wtk=  0.09375, kpt= -0.2500 -0.3750  0.0000 (reduced coord)
  -1.02182   -0.38465   -0.36486   -0.36337    0.20864    0.21067    0.21217    0.21284
   0.21386    0.21480    0.21539    0.26310    0.28779    0.36459    0.42326    0.47182
   0.49828    0.72122    0.77858    0.77995
      occupation numbers for kpt#   3
   2.00000    2.00000    2.00000    2.00000    1.04607    0.83098    0.53847    0.50442
   0.41655    0.35629    0.26186    0.00045    0.00081    0.00127    0.00147    0.00171
   0.00175    0.00312    0.00346    0.00345
 kpt#   4, nband= 20, wtk=  0.18750, kpt= -0.1250 -0.3750  0.1250 (reduced coord)
  -1.02119   -0.38844   -0.36929   -0.36095    0.20753    0.20995    0.21156    0.21230
   0.21488    0.21612    0.21676    0.28060    0.31675    0.33407    0.39943    0.46732
   0.55127    0.67253    0.73958    0.78136
      occupation numbers for kpt#   4
   2.00000    2.00000    2.00000    2.00000    1.13207    0.81055    0.62753    0.61647
   0.30824    0.28516    0.19901    0.00059    0.00096    0.00102    0.00131    0.00168
   0.00202    0.00286    0.00332    0.00344
 kpt#   5, nband= 20, wtk=  0.09375, kpt= -0.1250  0.2500  0.0000 (reduced coord)
  -1.02328   -0.38203   -0.36199   -0.35588    0.20698    0.20965    0.21159    0.21256
   0.21417    0.21486    0.21866    0.25709    0.33124    0.35367    0.37546    0.42441
   0.49708    0.67812    0.77650    0.81939
      occupation numbers for kpt#   5
   2.00000    2.00000    2.00000    2.00000    1.18202    0.95381    0.62037    0.53330
   0.41384    0.31264    0.10598    0.00037    0.00101    0.00107    0.00116    0.00150
   0.00176    0.00303    0.00346    0.00372
 kpt#   6, nband= 20, wtk=  0.09375, kpt= -0.2500  0.3750  0.0000 (reduced coord)
  -1.02031   -0.38928   -0.37544   -0.36174    0.20766    0.20922    0.21105    0.21309
   0.21477    0.21705    0.21711    0.28215    0.31241    0.35364    0.39836    0.47826
   0.56580    0.66000    0.74468    0.78314
      occupation numbers for kpt#   6
   2.00000    2.00000    2.00000    2.00000    1.12237    0.89015    0.66546    0.53462
   0.29975    0.19817    0.23904    0.00071    0.00079    0.00100    0.00132    0.00173
   0.00231    0.00270    0.00326    0.00348
 kpt#   7, nband= 20, wtk=  0.09375, kpt= -0.3750  0.5000  0.0000 (reduced coord)
  -1.01972   -0.39216   -0.37112   -0.36735    0.21084    0.21088    0.21155    0.21288
   0.21438    0.21558    0.21673    0.24645    0.26509    0.41727    0.47191    0.52070
   0.55426    0.64107    0.70398    0.75966
      occupation numbers for kpt#   7
   2.00000    2.00000    2.00000    2.00000    0.71005    0.68207    0.70010    0.45925
   0.39236    0.29433    0.26860    0.00042    0.00045    0.00144    0.00168    0.00184
   0.00210    0.00274    0.00307    0.00327
 kpt#   8, nband= 20, wtk=  0.18750, kpt= -0.2500  0.5000  0.1250 (reduced coord)
  -1.01971   -0.38772   -0.37730   -0.36673    0.20951    0.20976    0.21138    0.21259
   0.21419    0.21542    0.21732    0.27558    0.29930    0.35402    0.42610    0.50592
   0.61405    0.61848    0.72541    0.76373
      occupation numbers for kpt#   8
   2.00000    2.00000    2.00000    2.00000    0.86158    0.88256    0.64941    0.50249
   0.39973    0.31305    0.23231    0.00065    0.00067    0.00112    0.00152    0.00184
   0.00247    0.00257    0.00312    0.00333
 kpt#   9, nband= 20, wtk=  0.03125, kpt= -0.1250  0.0000  0.0000 (reduced coord)
  -1.02681   -0.35980   -0.35338   -0.35338    0.20153    0.20545    0.20948    0.21052
   0.21052    0.21780    0.21780    0.21958    0.34367    0.36142    0.36142    0.43281
   0.43281    0.68067    0.72466    0.80332
      occupation numbers for kpt#   9
   2.00000    2.00000    2.00000    2.00000    1.97580    1.31726    0.93704    0.81468
   0.81466    0.12928    0.12928    0.08140    0.00097    0.00096    0.00096    0.00138
   0.00138    0.00319    0.00326    0.00367
 kpt#  10, nband= 20, wtk=  0.03125, kpt= -0.3750  0.0000  0.0000 (reduced coord)
  -1.02240   -0.39189   -0.35758   -0.35758    0.20569    0.21089    0.21089    0.21267
   0.21589    0.21589    0.21983    0.24301    0.35335    0.35335    0.37651    0.48266
   0.48267    0.63437    0.73061    0.85212
      occupation numbers for kpt#  10
   2.00000    2.00000    2.00000    2.00000    1.25602    0.69899    0.69897    0.62890
   0.26347    0.26347    0.07655    0.00061    0.00089    0.00089    0.00116    0.00170
   0.00170    0.00292    0.00314    0.00391
 Total charge density [el/Bohr^3]
      Maximum=    5.8015E-01  at reduced coord.    0.0400    0.9600    0.9800
 Next maximum=    5.8015E-01  at reduced coord.    0.0200    0.9600    0.9800
      Minimum=    9.9487E-04  at reduced coord.    0.5000    0.5000    0.5000
 Next minimum=    9.9928E-04  at reduced coord.    0.5000    0.5000    0.4800
   Integrated=    1.2000E+01

--- !EnergyTerms
iteration_state     : {dtset: 2, }
comment             : Components of total free energy in Hartree
kinetic             :  9.27376931261165E+00
hartree             :  5.27462782912399E+00
xc                  : -5.00102297670252E+00
Ewald energy        : -3.38574430088403E+01
psp_core            :  1.34713426304455E+00
local_psp           : -2.41381617646779E+01
spherical_terms     :  7.29036748838557E+00
internal            : -3.98107288570550E+01
'-kT*entropy'       : -5.04893536395922E-02
total_energy        : -3.98612182106946E+01
total_energy_eV     : -1.08467890985843E+03
...


--- !EnergyTermsDC
iteration_state     : {dtset: 2, }
comment             : '"Double-counting" decomposition of free energy'
band_energy         : -3.42378603204755E+00
Ewald energy        : -3.38574430088403E+01
psp_core            :  1.34713426304455E+00
xc_dc               : -3.75773771765420E+00
spherical_terms     :  6.68387246206724E-02
internal            : -3.96249937708768E+01
'-kT*entropy'       : -5.04893536395922E-02
total_energy_dc     : -3.96754831245164E+01
total_energy_dc_eV  : -1.07962480113217E+03
...


 Cartesian components of stress tensor (hartree/bohr^3)
  sigma(1 1)=  1.05995587E-02  sigma(3 2)=  0.00000000E+00
  sigma(2 2)=  1.05995587E-02  sigma(3 1)=  0.00000000E+00
  sigma(3 3)=  1.05995587E-02  sigma(2 1)=  0.00000000E+00

-Cartesian components of stress tensor (GPa)         [Pressure= -3.1185E+02 GPa]
- sigma(1 1)=  3.11849732E+02  sigma(3 2)=  0.00000000E+00
- sigma(2 2)=  3.11849732E+02  sigma(3 1)=  0.00000000E+00
- sigma(3 3)=  3.11849732E+02  sigma(2 1)=  0.00000000E+00

== END DATASET(S) ==============================================================
================================================================================
  
 -outvars: echo values of variables after computation  --------
            acell      9.7500000000E+00  9.7500000000E+00  9.7500000000E+00 Bohr
              amu      1.40115000E+02
        dmatpuopt           1
        dmftbandf          20
        dmftbandi           5
        dmft_iter           1
        dmft_nwli       10000
        dmft_nwlo         100
  dmft_occnd_imag           0
  dmft_read_occnd           1
        dmft_rslf           1
             ecut      1.20000000E+01 Hartree
           etotal2    -3.9634728883E+01
            fcart2     9.9999999999E+99  9.9999999999E+99  9.9999999999E+99
-          fftalg         312
           irdwfk           1
              ixc           7
           jdtset        2
              kpt     -1.25000000E-01 -2.50000000E-01  0.00000000E+00
                      -1.25000000E-01  5.00000000E-01  0.00000000E+00
                      -2.50000000E-01 -3.75000000E-01  0.00000000E+00
                      -1.25000000E-01 -3.75000000E-01  1.25000000E-01
                      -1.25000000E-01  2.50000000E-01  0.00000000E+00
                      -2.50000000E-01  3.75000000E-01  0.00000000E+00
                      -3.75000000E-01  5.00000000E-01  0.00000000E+00
                      -2.50000000E-01  5.00000000E-01  1.25000000E-01
                      -1.25000000E-01  0.00000000E+00  0.00000000E+00
                      -3.75000000E-01  0.00000000E+00  0.00000000E+00
           kptopt           4
         kptrlatt        4   -4    4     -4    4    4     -4   -4    4
          kptrlen      3.90000000E+01
            lpawu           3
P           mkmem          10
            natom           1
            nband          20
           ndtset           1
            ngfft          24      24      24
          ngfftdg          50      50      50
             nkpt          10
            nstep           1
             nsym          48
           ntypat           1
              occ      2.000000  2.000000  2.000000  2.000000  1.229641  0.988941
                       0.648449  0.627304  0.284261  0.259246  0.117937  0.000249
                       0.001015  0.001179  0.001172  0.001428  0.001568  0.003154
                       0.003420  0.003750
                       2.000000  2.000000  2.000000  2.000000  1.243939  0.818780
                       0.753663  0.341962  0.289445  0.226552  0.119053  0.000385
                       0.000925  0.001017  0.001126  0.001775  0.001959  0.002646
                       0.003102  0.003653
                       2.000000  2.000000  2.000000  2.000000  1.046067  0.830984
                       0.538470  0.504425  0.416550  0.356290  0.261861  0.000453
                       0.000806  0.001265  0.001470  0.001713  0.001746  0.003123
                       0.003457  0.003454
                       2.000000  2.000000  2.000000  2.000000  1.132067  0.810554
                       0.627533  0.616469  0.308244  0.285159  0.199015  0.000587
                       0.000959  0.001016  0.001313  0.001684  0.002025  0.002861
                       0.003320  0.003444
                       2.000000  2.000000  2.000000  2.000000  1.182018  0.953815
                       0.620373  0.533301  0.413843  0.312636  0.105984  0.000368
                       0.001013  0.001070  0.001158  0.001504  0.001764  0.003028
                       0.003455  0.003721
                       2.000000  2.000000  2.000000  2.000000  1.122372  0.890153
                       0.665460  0.534616  0.299753  0.198174  0.239040  0.000706
                       0.000793  0.000995  0.001324  0.001727  0.002306  0.002704
                       0.003262  0.003479
                       2.000000  2.000000  2.000000  2.000000  0.710054  0.682068
                       0.700104  0.459249  0.392365  0.294331  0.268599  0.000424
                       0.000445  0.001435  0.001676  0.001844  0.002105  0.002738
                       0.003071  0.003266
                       2.000000  2.000000  2.000000  2.000000  0.861577  0.882560
                       0.649413  0.502495  0.399729  0.313053  0.232306  0.000649
                       0.000673  0.001117  0.001525  0.001841  0.002468  0.002565
                       0.003117  0.003330
                       2.000000  2.000000  2.000000  2.000000  1.975800  1.317263
                       0.937043  0.814678  0.814663  0.129280  0.129280  0.081404
                       0.000968  0.000963  0.000963  0.001384  0.001385  0.003188
                       0.003258  0.003669
                       2.000000  2.000000  2.000000  2.000000  1.256016  0.698989
                       0.698971  0.628900  0.263474  0.263471  0.076552  0.000611
                       0.000887  0.000887  0.001162  0.001704  0.001704  0.002918
                       0.003137  0.003909
           occopt           3
        optforces           0
        pawecutdg      6.00000000E+01 Hartree
        pawprtvol           3
           prtvol           4
            rprim      0.0000000000E+00  5.0000000000E-01  5.0000000000E-01
                       5.0000000000E-01  0.0000000000E+00  5.0000000000E-01
                       5.0000000000E-01  5.0000000000E-01  0.0000000000E+00
           shiftk      5.00000000E-01  5.00000000E-01  5.00000000E-01
          spgroup         225
           strten2     1.0599558727E-02  1.0599558727E-02  1.0599558727E-02
                       0.0000000000E+00  0.0000000000E+00  0.0000000000E+00
           symrel      1  0  0   0  1  0   0  0  1      -1  0  0   0 -1  0   0  0 -1
                       0 -1  1   0 -1  0   1 -1  0       0  1 -1   0  1  0  -1  1  0
                      -1  0  0  -1  0  1  -1  1  0       1  0  0   1  0 -1   1 -1  0
                       0  1 -1   1  0 -1   0  0 -1       0 -1  1  -1  0  1   0  0  1
                      -1  0  0  -1  1  0  -1  0  1       1  0  0   1 -1  0   1  0 -1
                       0 -1  1   1 -1  0   0 -1  0       0  1 -1  -1  1  0   0  1  0
                       1  0  0   0  0  1   0  1  0      -1  0  0   0  0 -1   0 -1  0
                       0  1 -1   0  0 -1   1  0 -1       0 -1  1   0  0  1  -1  0  1
                      -1  0  1  -1  1  0  -1  0  0       1  0 -1   1 -1  0   1  0  0
                       0 -1  0   1 -1  0   0 -1  1       0  1  0  -1  1  0   0  1 -1
                       1  0 -1   0  0 -1   0  1 -1      -1  0  1   0  0  1   0 -1  1
                       0  1  0   0  0  1   1  0  0       0 -1  0   0  0 -1  -1  0  0
                       1  0 -1   0  1 -1   0  0 -1      -1  0  1   0 -1  1   0  0  1
                       0 -1  0   0 -1  1   1 -1  0       0  1  0   0  1 -1  -1  1  0
                      -1  0  1  -1  0  0  -1  1  0       1  0 -1   1  0  0   1 -1  0
                       0  1  0   1  0  0   0  0  1       0 -1  0  -1  0  0   0  0 -1
                       0  0 -1   0  1 -1   1  0 -1       0  0  1   0 -1  1  -1  0  1
                       1 -1  0   0 -1  1   0 -1  0      -1  1  0   0  1 -1   0  1  0
                       0  0  1   1  0  0   0  1  0       0  0 -1  -1  0  0   0 -1  0
                      -1  1  0  -1  0  0  -1  0  1       1 -1  0   1  0  0   1  0 -1
                       0  0  1   0  1  0   1  0  0       0  0 -1   0 -1  0  -1  0  0
                       1 -1  0   0 -1  0   0 -1  1      -1  1  0   0  1  0   0  1 -1
                       0  0 -1   1  0 -1   0  1 -1       0  0  1  -1  0  1   0 -1  1
                      -1  1  0  -1  0  1  -1  0  0       1 -1  0   1  0 -1   1  0  0
           tolvrs      1.00000000E-10
           tsmear      1.73918086E-03 Hartree
            typat      1
            upawu      2.20495952E-01 Hartree
          usedmft           1
          usepawu          10
           useylm           1
              wtk        0.09375    0.09375    0.09375    0.18750    0.09375    0.09375
                         0.09375    0.18750    0.03125    0.03125
            znucl       58.00000

================================================================================


- Timing analysis has been suppressed with timopt=0



================================================================================

 Suggested references for the acknowledgment of ABINIT usage.

 The users of ABINIT have little formal obligations with respect to the ABINIT group
 (those specified in the GNU General Public License, http://www.gnu.org/copyleft/gpl.txt).
 However, it is common practice in the scientific literature,
 to acknowledge the efforts of people that have made the research possible.
 In this spirit, please find below suggested citations of work written by ABINIT developers,
 corresponding to implementations inside of ABINIT that you have used in the present run.
 Note also that it will be of great value to readers of publications presenting these results,
 to read papers enabling them to understand the theoretical formalism and details
 of the ABINIT implementation.
 For information on why they are suggested, see also https://docs.abinit.org/theory/acknowledgments.
-
- [1] A self-consistent DFT + DMFT scheme in the projector augmented wave method: 
- applications to cerium, Ce2O3 and Pu2O3 with the Hubbard I solver and comparison to DFT + U,
- B. Amadon,  J. Phys.: Condens. Matter 24 075604 (2012).
- Comment : Describes the self-consistent implementation of DFT+DMFT in PAW
- DOI and bibtex: see https://docs.abinit.org/theory/bibliography/#amadon2012
-
- [2] Plane-wave based electronic structure calculations for correlated materials.
- using dynamical mean-field theory and projected local orbitals,
- B. Amadon, F. Lechermann, A. Georges, F. Jollet, T.O. Wehling, A.I. Lichenstein,
- Phys. Rev. B 77, 205112 (2008).
- Comment: to be cited in case the computation of overlap operator for Wannier90 interface within PAW is used,
- i.e. prtwant=2 and usepaw=1. The paper describes also the DFT+DMFT implementation on Wannier functions
- DOI and bibtex: see https://docs.abinit.org/theory/bibliography/#amadon2008
-
- [3] Implementation of the Projector Augmented-Wave Method in the ABINIT code.
- M. Torrent, F. Jollet, F. Bottin, G. Zerah, and X. Gonze Comput. Mat. Science 42, 337, (2008).
- Comment: PAW calculations. Strong suggestion to cite this paper.
- DOI and bibtex: see https://docs.abinit.org/theory/bibliography/#torrent2008
-
- [4] The Abinit project: Impact, environment and recent developments.
- Computer Phys. Comm. 248, 107042 (2020).
- X.Gonze, B. Amadon, G. Antonius, F.Arnardi, L.Baguet, J.-M.Beuken,
- J.Bieder, F.Bottin, J.Bouchet, E.Bousquet, N.Brouwer, F.Bruneval,
- G.Brunin, T.Cavignac, J.-B. Charraud, Wei Chen, M.Cote, S.Cottenier,
- J.Denier, G.Geneste, Ph.Ghosez, M.Giantomassi, Y.Gillet, O.Gingras,
- D.R.Hamann, G.Hautier, Xu He, N.Helbig, N.Holzwarth, Y.Jia, F.Jollet,
- W.Lafargue-Dit-Hauret, K.Lejaeghere, M.A.L.Marques, A.Martin, C.Martins,
- H.P.C. Miranda, F.Naccarato, K. Persson, G.Petretto, V.Planes, Y.Pouillon,
- S.Prokhorenko, F.Ricci, G.-M.Rignanese, A.H.Romero, M.M.Schmitt, M.Torrent,
- M.J.van Setten, B.Van Troeye, M.J.Verstraete, G.Zerah and J.W.Zwanzig
- Comment: the fifth generic paper describing the ABINIT project.
- Note that a version of this paper, that is not formatted for Computer Phys. Comm. 
- is available at https://www.abinit.org/sites/default/files/ABINIT20.pdf .
- The licence allows the authors to put it on the Web.
- DOI and bibtex: see https://docs.abinit.org/theory/bibliography/#gonze2020
-
- [5] Recent developments in the ABINIT software package.
- Computer Phys. Comm. 205, 106 (2016).
- X.Gonze, F.Jollet, F.Abreu Araujo, D.Adams, B.Amadon, T.Applencourt,
- C.Audouze, J.-M.Beuken, J.Bieder, A.Bokhanchuk, E.Bousquet, F.Bruneval
- D.Caliste, M.Cote, F.Dahm, F.Da Pieve, M.Delaveau, M.Di Gennaro,
- B.Dorado, C.Espejo, G.Geneste, L.Genovese, A.Gerossier, M.Giantomassi,
- Y.Gillet, D.R.Hamann, L.He, G.Jomard, J.Laflamme Janssen, S.Le Roux,
- A.Levitt, A.Lherbier, F.Liu, I.Lukacevic, A.Martin, C.Martins,
- M.J.T.Oliveira, S.Ponce, Y.Pouillon, T.Rangel, G.-M.Rignanese,
- A.H.Romero, B.Rousseau, O.Rubel, A.A.Shukri, M.Stankovski, M.Torrent,
- M.J.Van Setten, B.Van Troeye, M.J.Verstraete, D.Waroquier, J.Wiktor,
- B.Xu, A.Zhou, J.W.Zwanziger.
- Comment: the fourth generic paper describing the ABINIT project.
- Note that a version of this paper, that is not formatted for Computer Phys. Comm. 
- is available at https://www.abinit.org/sites/default/files/ABINIT16.pdf .
- The licence allows the authors to put it on the Web.
- DOI and bibtex: see https://docs.abinit.org/theory/bibliography/#gonze2016
-
- [6] ABINIT: First-principles approach of materials and nanosystem properties.
- Computer Phys. Comm. 180, 2582-2615 (2009).
- X. Gonze, B. Amadon, P.-M. Anglade, J.-M. Beuken, F. Bottin, P. Boulanger, F. Bruneval,
- D. Caliste, R. Caracas, M. Cote, T. Deutsch, L. Genovese, Ph. Ghosez, M. Giantomassi
- S. Goedecker, D.R. Hamann, P. Hermet, F. Jollet, G. Jomard, S. Leroux, M. Mancini, S. Mazevet,
- M.J.T. Oliveira, G. Onida, Y. Pouillon, T. Rangel, G.-M. Rignanese, D. Sangalli, R. Shaltaf,
- M. Torrent, M.J. Verstraete, G. Zerah, J.W. Zwanziger
- Comment: the third generic paper describing the ABINIT project.
- Note that a version of this paper, that is not formatted for Computer Phys. Comm. 
- is available at https://www.abinit.org/sites/default/files/ABINIT_CPC_v10.pdf .
- The licence allows the authors to put it on the Web.
- DOI and bibtex: see https://docs.abinit.org/theory/bibliography/#gonze2009
-
- Proc.   0 individual time (sec): cpu=        145.0  wall=        145.5

================================================================================

 Calculation completed.
.Delivered  20 WARNINGs and   2 COMMENTs to log file.
+Overall time at end (sec) : cpu=        145.0  wall=        145.5
