
 **** DERIVATIVE DATABASE ****    
+DDB, Version number    100401

 C diamond EIGR2D file

    usepaw         0
     natom         2
      nkpt         8
    nsppol         1
      nsym         1
    ntypat         1
    occopt         1
     nband         8
     acell  0.67034680500000D+01  0.67034680500000D+01  0.67034680500000D+01
       amu  0.12011000000000D+02
   dilatmx  0.10000000000000D+01
      ecut  0.20000000000000D+02
    ecutsm  0.50000000000000D+00
     intxc         0
      iscf         7
       ixc         1
       kpt  0.00000000000000D+00  0.00000000000000D+00  0.00000000000000D+00
            0.50000000000000D+00  0.00000000000000D+00  0.00000000000000D+00
            0.00000000000000D+00  0.50000000000000D+00  0.00000000000000D+00
            0.50000000000000D+00  0.50000000000000D+00  0.00000000000000D+00
            0.00000000000000D+00  0.00000000000000D+00  0.50000000000000D+00
            0.50000000000000D+00  0.00000000000000D+00  0.50000000000000D+00
            0.00000000000000D+00  0.50000000000000D+00  0.50000000000000D+00
            0.50000000000000D+00  0.50000000000000D+00  0.50000000000000D+00
    kptnrm  0.10000000000000D+01
     ngfft        20   20   20
    nspden         1
   nspinor         1
       occ  0.20000000000000D+01  0.20000000000000D+01  0.20000000000000D+01
            0.20000000000000D+01  0.00000000000000D+00  0.00000000000000D+00
            0.00000000000000D+00  0.00000000000000D+00
     rprim  0.00000000000000D+00  0.50000000000000D+00  0.50000000000000D+00
            0.50000000000000D+00  0.00000000000000D+00  0.50000000000000D+00
            0.50000000000000D+00  0.50000000000000D+00  0.00000000000000D+00
  dfpt_sciss  0.00000000000000D+00
    spinat  0.00000000000000D+00  0.00000000000000D+00  0.00000000000000D+00
            0.00000000000000D+00  0.00000000000000D+00  0.00000000000000D+00
    symafm         1
    symrel         1    0    0    0    1    0    0    0    1
     tnons  0.00000000000000D+00  0.00000000000000D+00  0.00000000000000D+00
    tolwfr  0.10000000000000D+01
   tphysel  0.00000000000000D+00
    tsmear  0.10000000000000D-01
     typat         1    1
       wtk  0.12500000000000D+00  0.12500000000000D+00  0.12500000000000D+00
            0.12500000000000D+00  0.12500000000000D+00  0.12500000000000D+00
            0.12500000000000D+00  0.12500000000000D+00
      xred  0.00000000000000D+00  0.00000000000000D+00  0.00000000000000D+00
            0.25000000000000D+00  0.25000000000000D+00  0.25000000000000D+00
     znucl  0.60000000000000D+01
      zion  0.40000000000000D+01
 
  Description of the potentials (KB energies)
  vrsio8 (for pseudopotentials)=100401
  usepaw =  0
  dimekb =  1       lmnmax=  1
  Atom type=    1   pspso=  0   nekb=   1
  iln lpsang iproj  ekb(:)
     1     0     1     4.9214663E+00
 
 **** Database of total energy derivatives ****
 Number of data blocks=    3
  
 2nd eigenvalue derivatives   - # elements :      36
 qpt  0.00000000E+00  0.00000000E+00  0.00000000E+00   1.0
 K-point:  0.00000000E+00  0.00000000E+00  0.00000000E+00
 Band:  1
   1   1   1   1 -0.20746320095352D+01 -0.98759960664393D-18
   2   1   1   1 -0.10783938745702D+01  0.80873405207507D-16
   3   1   1   1 -0.10748758099595D+01 -0.34134558931112D-16
   1   2   1   1  0.70264216991527D+00 -0.31897039536874D-15
   2   2   1   1  0.39546381769829D+00 -0.20664703375360D-15
   3   2   1   1  0.39381920538172D+00 -0.70720186505504D-16
   1   1   2   1 -0.10783938745702D+01 -0.73865477376000D-16
   2   1   2   1 -0.20928385318923D+01 -0.14531675119395D-17
   3   1   2   1 -0.10785249293841D+01 -0.14754777468245D-15
   1   2   2   1  0.39546380623947D+00 -0.30063038039059D-15
   2   2   2   1  0.72284330842551D+00 -0.37391091831214D-15
   3   2   2   1  0.39581514625057D+00 -0.12510686947212D-15
   1   1   3   1 -0.10748758099595D+01  0.32174645065293D-16
   2   1   3   1 -0.10785249293841D+01  0.13521425154714D-15
   3   1   3   1 -0.20539902389946D+01  0.37197541824122D-17
   1   2   3   1  0.39381953852574D+00 -0.21384978674339D-15
   2   2   3   1  0.39581536706075D+00 -0.24118031258865D-15
   3   2   3   1  0.67511068994028D+00 -0.63192200295245D-16
   1   1   1   2  0.70264216991527D+00  0.29654468009448D-15
   2   1   1   2  0.39546380623947D+00  0.28356834291112D-15
   3   1   1   2  0.39381953852574D+00  0.19063256913692D-15
   1   2   1   2 -0.20746324307659D+01 -0.99026461786968D-17
   2   2   1   2 -0.10783942134614D+01  0.58213158090310D-16
   3   2   1   2 -0.10748762058550D+01 -0.93948395673876D-16
   1   1   2   2  0.39546381769829D+00  0.20783884481128D-15
   2   1   2   2  0.72284330842551D+00  0.36076491339805D-15
   3   1   2   2  0.39581536706075D+00  0.24091526723496D-15
   1   2   2   2 -0.10783942134614D+01 -0.51699880554910D-16
   2   2   2   2 -0.20928384330040D+01  0.12474385476671D-16
   3   2   2   2 -0.10785253093424D+01 -0.20995332019639D-15
   1   1   3   2  0.39381920538172D+00  0.58223184962097D-16
   2   1   3   2  0.39581514625057D+00  0.13219145719092D-15
   3   1   3   2  0.67511068994028D+00  0.61667509498525D-16
   1   2   3   2 -0.10748762058550D+01  0.80321455169018D-16
   2   2   3   2 -0.10785253093424D+01  0.22095907597522D-15
   3   2   3   2 -0.20539902719274D+01 -0.11913972644767D-17
 Band:  2
   1   1   1   1 -0.26515333235346D+02  0.28551359907295D-15
   2   1   1   1 -0.25500112024574D+02  0.18007116772301D-14
   3   1   1   1 -0.21165748888801D+02 -0.13517617624271D-15
   1   2   1   1 -0.88846642721466D+01 -0.16594504918432D-14
   2   2   1   1 -0.59109948446239D+01 -0.31084967894553D-14
   3   2   1   1 -0.56448156544322D+01 -0.38673626187061D-14
   1   1   2   1 -0.25500112024574D+02 -0.13982527747390D-14
   2   1   2   1 -0.29891395853142D+02 -0.46194692324721D-17
   3   1   2   1 -0.23824957694726D+02 -0.18693601185043D-14
   1   2   2   1 -0.59109949359579D+01 -0.37720090149779D-15
   2   2   2   1 -0.11440182682660D+02  0.12786580343763D-14
   3   2   2   1 -0.58647185513493D+01 -0.28076912209840D-14
   1   1   3   1 -0.21165748888801D+02  0.42624232096922D-15
   2   1   3   1 -0.23824957694726D+02  0.19321555701169D-14
   3   1   3   1 -0.24694156164139D+02 -0.21399009522884D-15
   1   2   3   1 -0.56448157437472D+01 -0.28476666258191D-14
   2   2   3   1 -0.58647187448932D+01 -0.23358907224544D-14
   3   2   3   1 -0.79273767643019D+01 -0.51789701718656D-14
   1   1   1   2 -0.88846642721466D+01  0.26571450221691D-14
   2   1   1   2 -0.59109949359579D+01  0.27602715556511D-14
   3   1   1   2 -0.56448157437472D+01  0.40088753301982D-14
   1   2   1   2 -0.26515331251620D+02 -0.57821740385892D-15
   2   2   1   2 -0.25500109942035D+02  0.43915991742229D-14
   3   2   1   2 -0.21165747019071D+02  0.13643518724839D-14
   1   1   2   2 -0.59109948446239D+01  0.39015489999622D-14
   2   1   2   2 -0.11440182682660D+02 -0.16638732170114D-14
   3   1   2   2 -0.58647187448932D+01  0.24964642485384D-14
   1   2   2   2 -0.25500109942035D+02 -0.46150253740217D-14
   2   2   2   2 -0.29891394927874D+02 -0.22425778006463D-15
   3   2   2   2 -0.23824955763089D+02 -0.46140566849841D-14
   1   1   3   2 -0.56448156544322D+01  0.39026172360478D-14
   2   1   3   2 -0.58647185513493D+01  0.29869806014040D-14
   3   1   3   2 -0.79273767643019D+01  0.61950071608780D-14
   1   2   3   2 -0.21165747019071D+02 -0.16643743242062D-14
   2   2   3   2 -0.23824955763089D+02  0.41436638501291D-14
   3   2   3   2 -0.24694154191415D+02  0.13873464953367D-15
 Band:  3
   1   1   1   1 -0.12124764740944D+02  0.15596463423650D-15
   2   1   1   1  0.72345105648798D+01 -0.17693353151065D-14
   3   1   1   1 -0.11579257879406D+02  0.17403367769202D-14
   1   2   1   1 -0.11777400375876D+02 -0.29190135311973D-14
   2   2   1   1 -0.49597957878624D+01 -0.18393836111520D-14
   3   2   1   1  0.22893896315808D+00 -0.26996296829033D-15
   1   1   2   1  0.72345105648798D+01  0.17125645484137D-14
   2   1   2   1 -0.68501257843426D+01  0.11000169486143D-15
   3   1   2   1 -0.20404572992643D+01 -0.32150594728730D-14
   1   2   2   1 -0.49597961186661D+01 -0.26036260492094D-14
   2   2   2   1 -0.12809094589107D+02 -0.16125728730675D-14
   3   2   2   1 -0.20932177281216D+01  0.50002246625483D-15
   1   1   3   1 -0.11579257879406D+02 -0.16719097338515D-14
   2   1   3   1 -0.20404572992643D+01  0.28994505046326D-14
   3   1   3   1 -0.13538677384949D+02 -0.13124179408928D-15
   1   2   3   1  0.22893888092502D+00  0.22394565950531D-14
   2   2   3   1 -0.20932177774306D+01 -0.32436393871186D-14
   3   2   3   1 -0.25287573192703D+01 -0.46714354143747D-15
   1   1   1   2 -0.11777400375876D+02  0.20340679185321D-14
   2   1   1   2 -0.49597961186661D+01  0.28644839343280D-14
   3   1   1   2  0.22893888092502D+00 -0.19935638725125D-14
   1   2   1   2 -0.12124765897882D+02 -0.15340520408860D-15
   2   2   1   2  0.72345086458037D+01  0.10668747956848D-14
   3   2   1   2 -0.11579258642116D+02  0.12290887048462D-14
   1   1   2   2 -0.49597957878624D+01  0.18968037415620D-14
   2   1   2   2 -0.12809094589107D+02  0.26695040617020D-14
   3   1   2   2 -0.20932177774306D+01  0.33089795918345D-14
   1   2   2   2  0.72345086458037D+01 -0.79621536645573D-15
   2   2   2   2 -0.68501302677177D+01  0.52715411308817D-16
   3   2   2   2 -0.20404580219200D+01 -0.11455767524442D-14
   1   1   3   2  0.22893896315808D+00  0.74238677449725D-15
   2   1   3   2 -0.20932177281216D+01 -0.60144574143430D-15
   3   1   3   2 -0.25287573192703D+01  0.83600155842845D-15
   1   2   3   2 -0.11579258642116D+02 -0.11243687412413D-14
   2   2   3   2 -0.20404580219200D+01  0.12008303556069D-14
   3   2   3   2 -0.13538677344501D+02  0.76466430015208D-16
 Band:  4
   1   1   1   1 -0.91676680873670D+01  0.21497596270608D-16
   2   1   1   1 -0.88632792105902D+01  0.74375107583437D-15
   3   1   1   1  0.49942464784845D+01 -0.33893350023461D-14
   1   2   1   1 -0.77096537100258D+01 -0.20858420836906D-14
   2   2   1   1 -0.31595513984024D-01 -0.38652039526836D-15
   3   2   1   1 -0.48961898950925D+01 -0.18445859255301D-14
   1   1   2   1 -0.88632792105902D+01 -0.61610734805762D-15
   2   1   2   1 -0.11815674052294D+02 -0.29399255078407D-16
   3   1   2   1 -0.14476569299947D+01 -0.50637235561989D-15
   1   2   2   1 -0.31595967324178D-01  0.84712436864126D-15
   2   2   2   1 -0.33009154951185D+01 -0.16675045885285D-14
   3   2   2   1 -0.27667524495727D+01 -0.82219543556099D-15
   1   1   3   1  0.49942464784845D+01  0.33613380512832D-14
   2   1   3   1 -0.14476569299947D+01  0.33391674920367D-15
   3   1   3   1 -0.83838418121782D+01  0.29947564148754D-17
   1   2   3   1 -0.48961903275494D+01 -0.43726749564344D-14
   2   2   3   1 -0.27667512795567D+01 -0.15511418473785D-15
   3   2   3   1 -0.19208665158551D+02 -0.74077425946378D-14
   1   1   1   2 -0.77096537100258D+01  0.22154688187249D-14
   2   1   1   2 -0.31595967324177D-01 -0.71544803637881D-15
   3   1   1   2 -0.48961903275494D+01  0.45478976272033D-14
   1   2   1   2 -0.91676683125200D+01  0.15711519472632D-15
   2   2   1   2 -0.88632795280589D+01  0.38127648254024D-15
   3   2   1   2  0.49942456300523D+01  0.75416434830201D-16
   1   1   2   2 -0.31595513984024D-01  0.26281023346153D-15
   2   1   2   2 -0.33009154951185D+01  0.15715340505007D-14
   3   1   2   2 -0.27667512795567D+01  0.17042783275951D-15
   1   2   2   2 -0.88632795280589D+01 -0.48004215286943D-15
   2   2   2   2 -0.11815674448960D+02  0.43976581668981D-16
   3   2   2   2 -0.14476579090692D+01  0.84719231149514D-16
   1   1   3   2 -0.48961898950925D+01  0.22869726127283D-14
   2   1   3   2 -0.27667524495727D+01  0.76299974170531D-15
   3   1   3   2 -0.19208665158551D+02  0.65418894850334D-14
   1   2   3   2  0.49942456300523D+01 -0.17601776456896D-15
   2   2   3   2 -0.14476579090692D+01 -0.31287954612228D-15
   3   2   3   2 -0.83838460102953D+01  0.30156893254970D-15
 Band:  5
   1   1   1   1 -0.20010707374170D+02  0.67490242194349D-16
   2   1   1   1 -0.76091776793540D+01 -0.39708828322905D-15
   3   1   1   1 -0.33944987168401D+01  0.22932608116970D-14
   1   2   1   1  0.66775242114785D+01  0.90166667719416D-15
   2   2   1   1  0.16957649306131D+01  0.30293985821977D-16
   3   2   1   1  0.37445208948615D+01  0.48560902398396D-14
   1   1   2   1 -0.76091776793540D+01  0.67925714407737D-16
   2   1   2   1 -0.15250635863316D+02 -0.86002217271271D-16
   3   1   2   1 -0.63116413888409D+01 -0.86773028795759D-15
   1   2   2   1  0.16957636298519D+01 -0.48552250200403D-16
   2   2   2   1  0.43178428880768D+01 -0.27755968712554D-15
   3   2   2   1  0.24301172620599D+01  0.49623229178998D-15
   1   1   3   1 -0.33944987168401D+01 -0.19367832218509D-14
   2   1   3   1 -0.63116413888409D+01  0.97645898342270D-15
   3   1   3   1 -0.40089798017456D+02  0.51542625223228D-15
   1   2   3   1  0.37445227543914D+01  0.65810156717247D-15
   2   2   3   1  0.24301203478823D+01 -0.72599875020238D-15
   3   2   3   1  0.12649403778741D+02  0.17190939652140D-13
   1   1   1   2  0.66775242114785D+01 -0.49086392760931D-15
   2   1   1   2  0.16957636298519D+01 -0.53585789295807D-16
   3   1   1   2  0.37445227543914D+01 -0.17129092746078D-14
   1   2   1   2 -0.20010709335343D+02  0.97243777355634D-16
   2   2   1   2 -0.76091794465966D+01  0.14774008294964D-15
   3   2   1   2 -0.33945013890451D+01 -0.27727525374208D-14
   1   1   2   2  0.16957649306131D+01  0.22117868436523D-15
   2   1   2   2  0.43178428880768D+01  0.12884678339245D-15
   3   1   2   2  0.24301203478823D+01  0.17240359957254D-15
   1   2   2   2 -0.76091794465966D+01  0.25781746148811D-16
   2   2   2   2 -0.15250635714701D+02  0.42772807084218D-16
   3   2   2   2 -0.63116445762540D+01 -0.15449694211027D-14
   1   1   3   2  0.37445208948615D+01 -0.49487315071320D-14
   2   1   3   2  0.24301172620599D+01 -0.55504870203554D-15
   3   1   3   2  0.12649403778741D+02 -0.17729300587140D-13
   1   2   3   2 -0.33945013890451D+01  0.24667330592807D-14
   2   2   3   2 -0.63116445762540D+01  0.17514640029203D-14
   3   2   3   2 -0.40089799956926D+02 -0.33527131220365D-15
 Band:  6
   1   1   1   1 -0.28948278906345D+02  0.10540305708355D-15
   2   1   1   1 -0.95180839289678D+00  0.23188973421891D-14
   3   1   1   1 -0.96789767724319D+01 -0.10937307736325D-14
   1   2   1   1  0.84086037805998D+01 -0.39835897103690D-14
   2   2   1   1  0.34718319807618D+01 -0.26192296303736D-14
   3   2   1   1  0.11972898844365D+01  0.64254916467059D-15
   1   1   2   1 -0.95180839289678D+00 -0.20698636414834D-14
   2   1   2   1 -0.28165853000216D+02 -0.40250733171522D-15
   3   1   2   1 -0.50007019555160D+01 -0.21074560404441D-14
   1   2   2   1  0.34718321252968D+01 -0.11230727052041D-14
   2   2   2   1  0.93835808412613D+01  0.48012757815534D-14
   3   2   2   1  0.24220379474519D+01  0.33838660848098D-14
   1   1   3   1 -0.96789767724319D+01  0.74445446432316D-15
   2   1   3   1 -0.50007019555160D+01  0.21588895533654D-14
   3   1   3   1 -0.15836771662760D+02 -0.16698600214454D-17
   1   2   3   1  0.11972898481850D+01 -0.15416182760671D-15
   2   2   3   1  0.24220374638323D+01 -0.18500049840719D-14
   3   2   3   1  0.40150108627088D+01  0.47116881437277D-15
   1   1   1   2  0.84086037805998D+01  0.41183148559754D-14
   2   1   1   2  0.34718321252968D+01  0.11420474384765D-14
   3   1   1   2  0.11972898481850D+01  0.49243021765685D-16
   1   2   1   2 -0.28948280634523D+02 -0.22120544198441D-15
   2   2   1   2 -0.95181026679206D+00 -0.12153867199330D-14
   3   2   1   2 -0.96789780964023D+01 -0.12635927173601D-14
   1   1   2   2  0.34718319807618D+01  0.20474666904282D-14
   2   1   2   2  0.93835808412613D+01 -0.54336177032543D-14
   3   1   2   2  0.24220374638323D+01  0.17307340468460D-14
   1   2   2   2 -0.95181026679206D+00  0.10328412528906D-14
   2   2   2   2 -0.28165853813260D+02 -0.19996881721060D-15
   3   2   2   2 -0.50007031474237D+01 -0.31569275043015D-14
   1   1   3   2  0.11972898844365D+01 -0.42713144934394D-15
   2   1   3   2  0.24220379474519D+01 -0.33889678575085D-14
   3   1   3   2  0.40150108627088D+01 -0.23416034032573D-15
   1   2   3   2 -0.96789780964023D+01  0.73372444749907D-15
   2   2   3   2 -0.50007031474237D+01  0.28830852039415D-14
   3   2   3   2 -0.15836771719164D+02 -0.82686673025127D-16
 Band:  7
   1   1   1   1 -0.43416939050228D+02 -0.17135407305446D-14
   2   1   1   1 -0.36572245078216D+02  0.23602194631378D-14
   3   1   1   1 -0.32024211202771D+02  0.47776306038582D-14
   1   2   1   1  0.90331232900005D+01  0.11335769271827D-13
   2   2   1   1  0.57872587045391D+01  0.19343262633593D-13
   3   2   1   1  0.59725273440767D+01  0.21032490016529D-13
   1   1   2   1 -0.36572245078216D+02 -0.20506794169541D-14
   2   1   2   1 -0.48253244380011D+02  0.13767187255743D-14
   3   1   2   1 -0.33683951780362D+02  0.33501909308145D-14
   1   2   2   1  0.57872589126936D+01  0.22051582309973D-13
   2   2   2   1  0.96960768359490D+01  0.83149704726848D-14
   3   2   2   1  0.59651812395181D+01  0.22393569893136D-13
   1   1   3   1 -0.32024211202771D+02 -0.33063101382187D-14
   2   1   3   1 -0.33683951780362D+02  0.98081547064950D-16
   3   1   3   1 -0.37312660997747D+02  0.17599453005371D-14
   1   2   3   1  0.59725285448613D+01  0.25592401318503D-13
   2   2   3   1  0.59651815134650D+01  0.22672435872616D-13
   3   2   3   1  0.83455268347427D+01  0.16026001721752D-13
   1   1   1   2  0.90331232900005D+01 -0.10777021319548D-13
   2   1   1   2  0.57872589126936D+01 -0.20357390184484D-13
   3   1   1   2  0.59725285448613D+01 -0.25751962142878D-13
   1   2   1   2 -0.43416939505838D+02  0.44939531661752D-15
   2   2   1   2 -0.36572245239836D+02 -0.31236155860777D-14
   3   2   1   2 -0.32024211385571D+02  0.94467793683051D-15
   1   1   2   2  0.57872587045391D+01 -0.21207358665587D-13
   2   1   2   2  0.96960768359490D+01 -0.92253781672562D-14
   3   1   2   2  0.59651815134650D+01 -0.23433113397828D-13
   1   2   2   2 -0.36572245239836D+02  0.10950898134483D-14
   2   2   2   2 -0.48253242862501D+02 -0.29467285326467D-14
   3   2   2   2 -0.33683951745472D+02 -0.11506520133867D-14
   1   1   3   2  0.59725273440767D+01 -0.20371173848334D-13
   2   1   3   2  0.59651812395181D+01 -0.20466221715333D-13
   3   1   3   2  0.83455268347427D+01 -0.15727063269533D-13
   1   2   3   2 -0.32024211385571D+02 -0.39734734958639D-15
   2   2   3   2 -0.33683951745472D+02 -0.10289991414214D-14
   3   2   3   2 -0.37312660018581D+02  0.55136566374715D-15
 Band:  8
   1   1   1   1 -0.56947077879980D+00  0.51316213222944D-16
   2   1   1   1  0.79184245243870D+00  0.37264177806713D-15
   3   1   1   1  0.58109647246434D+00  0.74749848824916D-15
   1   2   1   1 -0.26657762268354D+01 -0.27042211598378D-16
   2   2   1   1 -0.25717007793738D+01  0.75346715530652D-15
   3   2   1   1 -0.23491152665933D+01 -0.80316549366081D-16
   1   1   2   1  0.79184245243870D+00 -0.27379515665743D-15
   2   1   2   1 -0.12387232899710D+00 -0.70687812105521D-18
   3   1   2   1  0.59632477702001D+00  0.36658959911341D-15
   1   2   2   1 -0.25717004773419D+01  0.65788759211123D-15
   2   2   2   1 -0.31839309449166D+01  0.12765102649784D-14
   3   2   2   1 -0.23760059261839D+01  0.61094242458498D-15
   1   1   3   1  0.58109647246434D+00 -0.76793988804324D-15
   2   1   3   1  0.59632477702001D+00 -0.34243047221657D-15
   3   1   3   1 -0.13832427041849D+01 -0.15480054531557D-16
   1   2   3   1 -0.23491139986464D+01  0.12016791162539D-14
   2   2   3   1 -0.23760053393096D+01  0.17028436796042D-14
   3   2   3   1 -0.17634248418064D+01  0.11498265146692D-14
   1   1   1   2 -0.26657762268354D+01 -0.84651091418667D-16
   2   1   1   2 -0.25717004773419D+01 -0.74183540827422D-15
   3   1   1   2 -0.23491139986464D+01 -0.97158204993655D-15
   1   2   1   2 -0.56947400152690D+00 -0.80872907941801D-16
   2   2   1   2  0.79183990182329D+00 -0.47843938060886D-15
   3   2   1   2  0.58109439034357D+00  0.80695897760687D-16
   1   1   2   2 -0.25717007793738D+01 -0.88994725495095D-15
   2   1   2   2 -0.31839309449166D+01 -0.11030577937761D-14
   3   1   2   2 -0.23760053393096D+01 -0.17432384211842D-14
   1   2   2   2  0.79183990182329D+00  0.50935981838258D-15
   2   2   2   2 -0.12387280635329D+00  0.48664618793027D-16
   3   2   2   2  0.59632319555160D+00  0.38308244527891D-15
   1   1   3   2 -0.23491152665933D+01  0.26164189882294D-16
   2   1   3   2 -0.23760059261839D+01 -0.66429856687375D-15
   3   1   3   2 -0.17634248418064D+01 -0.96197277385849D-15
   1   2   3   2  0.58109439034357D+00 -0.18065312118485D-15
   2   2   3   2  0.59632319555160D+00 -0.35406084031963D-15
   3   2   3   2 -0.13832433807409D+01  0.68897400190159D-16
 K-point:  5.00000000E-01  0.00000000E+00  0.00000000E+00
 Band:  1
   1   1   1   1 -0.64173226822913D+01 -0.55765875613959D-16
   2   1   1   1 -0.19986869969162D+01 -0.15849949953727D-16
   3   1   1   1 -0.19722108797848D+01 -0.33459120796866D-15
   1   2   1   1  0.21632555943436D+01 -0.11024818204006D-15
   2   2   1   1  0.95135016829300D+00  0.12295885767052D-16
   3   2   1   1  0.92139326796066D+00  0.32745156805707D-16
   1   1   2   1 -0.19986869969162D+01  0.98439472662507D-16
   2   1   2   1 -0.39609936457991D+01  0.19382928052554D-16
   3   1   2   1 -0.20350698321740D+01  0.47879394130009D-16
   1   2   2   1  0.95134894625863D+00  0.18857891445328D-15
   2   2   2   1  0.18629986490443D+01  0.40277961661827D-15
   3   2   2   1  0.99104859021183D+00  0.15939818581051D-15
   1   1   3   1 -0.19722108797848D+01  0.39342940320349D-15
   2   1   3   1 -0.20350698321740D+01 -0.46079934667704D-16
   3   1   3   1 -0.38815651583629D+01  0.38230076064210D-16
   1   2   3   1  0.92139333240161D+00 -0.17521792799496D-15
   2   2   3   1  0.99104900208855D+00  0.78280367601061D-16
   3   2   3   1  0.17731304909872D+01  0.21127145006103D-15
   1   1   1   2  0.21632555943436D+01  0.12834301419304D-15
   2   1   1   2  0.95134894625863D+00 -0.20573725198348D-15
   3   1   1   2  0.92139333240161D+00  0.11003415943062D-15
   1   2   1   2 -0.64173252967258D+01  0.18248584518614D-16
   2   2   1   2 -0.19986894963096D+01  0.20336344707235D-15
   3   2   1   2 -0.19722127699621D+01  0.17862156921102D-15
   1   1   2   2  0.95135016829300D+00  0.65667000404134D-16
   2   1   2   2  0.18629986490443D+01 -0.37026930223994D-15
   3   1   2   2  0.99104900208855D+00 -0.81095732348182D-16
   1   2   2   2 -0.19986894963096D+01 -0.25254565611075D-15
   2   2   2   2 -0.39609934612990D+01  0.35537315786348D-16
   3   2   2   2 -0.20350705643256D+01  0.16786335965802D-15
   1   1   3   2  0.92139326796066D+00 -0.20780302282293D-16
   2   1   3   2  0.99104859021183D+00 -0.19900415782237D-15
   3   1   3   2  0.17731304909872D+01 -0.24513351703381D-15
   1   2   3   2 -0.19722127699621D+01 -0.42745664768250D-15
   2   2   3   2 -0.20350705643256D+01 -0.15302689485445D-15
   3   2   3   2 -0.38815651346141D+01  0.16214364818674D-16
 Band:  2
   1   1   1   1 -0.15633467797728D+02 -0.13353710826253D-15
   2   1   1   1 -0.27404180042271D+01  0.36526185679614D-15
   3   1   1   1 -0.27389915760225D+01  0.18793513602583D-15
   1   2   1   1  0.29272196028505D+01  0.54909383665753D-15
   2   2   1   1 -0.98700349664600D-01  0.24050872339945D-15
   3   2   1   1 -0.96717563402895D-01 -0.19546578456389D-15
   1   1   2   1 -0.27404180042271D+01 -0.29430452428272D-15
   2   1   2   1 -0.54788021244372D+01 -0.60738495026594D-16
   3   1   2   1 -0.27424503378870D+01 -0.35013740841516D-16
   1   2   2   1 -0.98700856501649D-01  0.38349990051108D-15
   2   2   2   1 -0.19483748407227D+00 -0.87965250059488D-17
   3   2   2   1 -0.10126491124913D+00  0.29841747010726D-16
   1   1   3   1 -0.27389915760225D+01  0.11685861737933D-15
   2   1   3   1 -0.27424503378870D+01 -0.33789115798045D-16
   3   1   3   1 -0.54745231189378D+01  0.28238521656005D-16
   1   2   3   1 -0.96717500863699D-01 -0.49900974435884D-16
   2   2   3   1 -0.10126466206474D+00 -0.11785298948374D-15
   3   2   3   1 -0.18888728783990D+00 -0.29399075006776D-16
   1   1   1   2  0.29272196028505D+01  0.31345343649450D-15
   2   1   1   2 -0.98700856501649D-01 -0.19155332674968D-15
   3   1   1   2 -0.96717500863699D-01  0.24387293829873D-15
   1   2   1   2 -0.15633467496355D+02  0.32812071677038D-15
   2   2   1   2 -0.27404176434592D+01 -0.45948029954891D-16
   3   2   1   2 -0.27389911590313D+01  0.25988009308607D-15
   1   1   2   2 -0.98700349664599D-01 -0.53808833742008D-16
   2   1   2   2 -0.19483748407227D+00  0.22863933810502D-15
   3   1   2   2 -0.10126466206474D+00  0.24651354852290D-15
   1   2   2   2 -0.27404176434592D+01  0.61337397840840D-15
   2   2   2   2 -0.54788019596284D+01 -0.24959307945863D-15
   3   2   2   2 -0.27424505919464D+01 -0.46741494168566D-17
   1   1   3   2 -0.96717563402895D-01  0.23979446079236D-15
   2   1   3   2 -0.10126491124913D+00  0.51069930315105D-16
   3   1   3   2 -0.18888728783990D+00  0.74199492496671D-16
   1   2   3   2 -0.27389911590313D+01  0.41387804182116D-15
   2   2   3   2 -0.27424505919464D+01  0.88022586964653D-16
   3   2   3   2 -0.54745231974098D+01  0.25123140289094D-16
 Band:  3
   1   1   1   1 -0.20536617314821D+02  0.18635457172247D-15
   2   1   1   1 -0.18173670151805D+02  0.13808006672763D-14
   3   1   1   1 -0.18291107475741D+02  0.21187423964561D-14
   1   2   1   1 -0.45304684984243D+00  0.38798918076412D-15
   2   2   1   1 -0.46404541906681D+01  0.70241509637575D-15
   3   2   1   1 -0.85470587417920D-01  0.37743850920321D-14
   1   1   2   1 -0.18173670151805D+02 -0.12308218210522D-14
   2   1   2   1 -0.26292418946980D+02  0.18451607512030D-15
   3   1   2   1 -0.28181605156310D+02  0.28660108395699D-14
   1   2   2   1 -0.46404550245060D+01 -0.76351406362473D-15
   2   2   2   1 -0.15234092314817D+02 -0.11669965854587D-13
   3   2   2   1 -0.30516542176727D+00  0.91032815036823D-14
   1   1   3   1 -0.18291107475741D+02 -0.20147956892902D-14
   2   1   3   1 -0.28181605156310D+02 -0.18047617533050D-14
   3   1   3   1 -0.26596983108737D+02  0.34196179216620D-15
   1   2   3   1 -0.85470364120476D-01  0.34194877945372D-14
   2   2   3   1 -0.30516488406520D+00  0.58305255989305D-14
   3   2   3   1 -0.27613288950105D+01 -0.29424475890971D-14
   1   1   1   2 -0.45304684984243D+00 -0.22724315678670D-15
   2   1   1   2 -0.46404550245060D+01  0.12719220351139D-15
   3   1   1   2 -0.85470364120476D-01 -0.34824846321225D-14
   1   2   1   2 -0.20536617318117D+02 -0.10616632397137D-15
   2   2   1   2 -0.18173670542287D+02 -0.87582361310355D-15
   3   2   1   2 -0.18291107075693D+02 -0.11062068784948D-14
   1   1   2   2 -0.46404541906681D+01 -0.16214553179138D-14
   2   1   2   2 -0.15234092314817D+02  0.96792801856807D-14
   3   1   2   2 -0.30516488406520D+00 -0.66175988070347D-14
   1   2   2   2 -0.18173670542287D+02 -0.10255741939528D-14
   2   2   2   2 -0.26292421222298D+02 -0.10399827083870D-14
   3   2   2   2 -0.28181604349655D+02 -0.48156700131202D-14
   1   1   3   2 -0.85470587417920D-01 -0.51063714415724D-14
   2   1   3   2 -0.30516542176727D+00 -0.96450359144841D-14
   3   1   3   2 -0.27613288950105D+01  0.12692471028000D-14
   1   2   3   2 -0.18291107075693D+02  0.12438054836115D-14
   2   2   3   2 -0.28181604349655D+02  0.69661611999290D-14
   3   2   3   2 -0.26596982519347D+02  0.17126213535255D-14
 Band:  4
   1   1   1   1 -0.97999255437147D+01  0.34037324452668D-16
   2   1   1   1  0.15377459086293D-01  0.35156889366954D-14
   3   1   1   1 -0.11241534915688D+01 -0.55299318265976D-14
   1   2   1   1 -0.36175514237154D+01  0.64398867071462D-15
   2   2   1   1 -0.55062822226494D+01 -0.25589535574412D-14
   3   2   1   1 -0.88459027504621D+01  0.76928926727120D-14
   1   1   2   1  0.15377459086294D-01 -0.34529874527119D-14
   2   1   2   1 -0.66513053253466D+01  0.13676006140312D-16
   3   1   2   1  0.11709742485364D+02 -0.21618185016363D-13
   1   2   2   1 -0.55062828741203D+01  0.44618223832926D-14
   2   2   2   1 -0.83529200605705D+01  0.22878314570795D-14
   3   2   2   1 -0.11488341335545D+02  0.19628823577481D-13
   1   1   3   1 -0.11241534915688D+01  0.55679265538433D-14
   2   1   3   1  0.11709742485364D+02  0.21926340856413D-13
   3   1   3   1 -0.63467424118890D+01 -0.23780353077105D-15
   1   2   3   1 -0.88459031069574D+01 -0.75756863619245D-14
   2   2   3   1 -0.11488340238844D+02 -0.20067902707981D-13
   3   2   3   1 -0.20825683202820D+02  0.47942704161860D-16
   1   1   1   2 -0.36175514237154D+01 -0.28534802520104D-15
   2   1   1   2 -0.55062828741203D+01 -0.42249958906200D-14
   3   1   1   2 -0.88459031069574D+01  0.79813208267640D-14
   1   2   1   2 -0.97999254162461D+01  0.19229275629345D-15
   2   2   1   2  0.15376668444350D-01  0.27726555648518D-14
   3   2   1   2 -0.11241543600929D+01 -0.45902743285179D-14
   1   1   2   2 -0.55062822226494D+01  0.21712518696622D-14
   2   1   2   2 -0.83529200605705D+01 -0.22325193292384D-14
   3   1   2   2 -0.11488340238844D+02  0.19530092277404D-13
   1   2   2   2  0.15376668444350D-01 -0.25432920330193D-14
   2   2   2   2 -0.66513074534880D+01 -0.58801619923680D-15
   3   2   2   2  0.11709739912300D+02 -0.15590509961057D-13
   1   1   3   2 -0.88459027504621D+01 -0.72372055609359D-14
   2   1   3   2 -0.11488341335545D+02 -0.20121882783924D-13
   3   1   3   2 -0.20825683202820D+02  0.21733417089560D-14
   1   2   3   2 -0.11241543600929D+01  0.44633395600333D-14
   2   2   3   2  0.11709739912300D+02  0.15799610670150D-13
   3   2   3   2 -0.63467461683408D+01  0.52585585387901D-15
 Band:  5
   1   1   1   1  0.11709404963696D+02  0.62500611511436D-16
   2   1   1   1  0.11672592748260D+02  0.18744018255724D-13
   3   1   1   1  0.27136895871454D+02 -0.30115613159752D-13
   1   2   1   1 -0.22430641767500D+02 -0.92431311476716D-14
   2   2   1   1 -0.14531609445710D+02 -0.15903483458613D-13
   3   2   1   1 -0.34522468640680D+02  0.11334152166484D-13
   1   1   2   1  0.11672592748260D+02 -0.18762904980770D-13
   2   1   2   1 -0.22333765192058D+01 -0.28681515197436D-15
   3   1   2   1  0.23838086401556D+02 -0.48486740192663D-13
   1   2   2   1 -0.14531607939972D+02  0.11618269653324D-13
   2   2   2   1 -0.88292002883755D+01  0.16083767520887D-15
   3   2   2   1 -0.22331312179954D+02  0.30852184928526D-13
   1   1   3   1  0.27136895871454D+02  0.30171201104193D-13
   2   1   3   1  0.23838086401556D+02  0.48240260562501D-13
   3   1   3   1  0.30044529943065D+02 -0.16918588659091D-15
   1   2   3   1 -0.34522471812861D+02 -0.41200757249236D-13
   2   2   3   1 -0.22331317627717D+02 -0.39002521849994D-13
   3   2   3   1 -0.55714445004300D+02 -0.26274995064511D-13
   1   1   1   2 -0.22430641767500D+02  0.93968916373571D-14
   2   1   1   2 -0.14531607939972D+02 -0.11683549661154D-13
   3   1   1   2 -0.34522471812861D+02  0.40508959673497D-13
   1   2   1   2  0.11709413291598D+02  0.20649901483975D-15
   2   2   1   2  0.11672600434803D+02  0.88020436823451D-14
   3   2   1   2  0.27136903180760D+02 -0.21137586386213D-13
   1   1   2   2 -0.14531609445710D+02  0.16214280717134D-13
   2   1   2   2 -0.88292002883755D+01  0.24280393161872D-16
   3   1   2   2 -0.22331317627717D+02  0.38751832521924D-13
   1   2   2   2  0.11672600434803D+02 -0.85119628315816D-14
   2   2   2   2 -0.22333677643071D+01 -0.23904558607339D-15
   3   2   2   2  0.23838092662657D+02 -0.25797490199251D-13
   1   1   3   2 -0.34522468640680D+02 -0.10707510296605D-13
   2   1   3   2 -0.22331312179954D+02 -0.31028331753105D-13
   3   1   3   2 -0.55714445004300D+02  0.26185560973615D-13
   1   2   3   2  0.27136903180760D+02  0.20773679299441D-13
   2   2   3   2  0.23838092662657D+02  0.25970554776112D-13
   3   2   3   2  0.30044534979026D+02  0.21510335116006D-15
 Band:  6
   1   1   1   1 -0.13392489510767D+02 -0.43639204301390D-15
   2   1   1   1 -0.41458819416935D+01 -0.84522911692748D-14
   3   1   1   1 -0.14495432578039D+02 -0.25865984815877D-15
   1   2   1   1 -0.81349913737286D+01  0.14972912625146D-14
   2   2   1   1 -0.18473609984321D+02  0.31191947425211D-14
   3   2   1   1 -0.35868695942462D+01  0.37305747645333D-14
   1   1   2   1 -0.41458819416935D+01  0.74308179764479D-14
   2   1   2   1  0.75308136505646D+01  0.56753858299069D-15
   3   1   2   1 -0.21189370037443D+02  0.59226729089831D-14
   1   2   2   1 -0.18473610188580D+02 -0.10112748928778D-13
   2   2   2   1 -0.47453918364640D+02 -0.14271439708032D-13
   3   2   2   1 -0.58102463442054D+01  0.48892440915832D-15
   1   1   3   1 -0.14495432578039D+02  0.27414740484484D-15
   2   1   3   1 -0.21189370037443D+02 -0.46233440058561D-14
   3   1   3   1 -0.24747095371745D+02  0.60003038250914D-15
   1   2   3   1 -0.35868674256025D+01 -0.58819943201500D-15
   2   2   3   1 -0.58102445411136D+01  0.59131334515737D-14
   3   2   3   1 -0.56867197073227D+00 -0.14289625647849D-14
   1   1   1   2 -0.81349913737286D+01 -0.22691454406965D-14
   2   1   1   2 -0.18473610188580D+02  0.81603329522961D-14
   3   1   1   2 -0.35868674256025D+01  0.40217946648468D-15
   1   2   1   2 -0.13392490285854D+02 -0.40352217712308D-15
   2   2   1   2 -0.41458830533629D+01 -0.20415399828290D-14
   3   2   1   2 -0.14495433201454D+02 -0.93134029423260D-15
   1   1   2   2 -0.18473609984321D+02 -0.38391335693384D-14
   2   1   2   2 -0.47453918364640D+02  0.13929979157872D-13
   3   1   2   2 -0.58102445411136D+01 -0.52702144805475D-14
   1   2   2   2 -0.41458830533629D+01  0.12728978775449D-14
   2   2   2   2  0.75308094359988D+01 -0.83460940197555D-15
   3   2   2   2 -0.21189368060971D+02  0.64849552594768D-15
   1   1   3   2 -0.35868695942462D+01 -0.38527201215053D-14
   2   1   3   2 -0.58102463442054D+01 -0.13552857232018D-14
   3   1   3   2 -0.56867197073228D+00  0.15876782082077D-14
   1   2   3   2 -0.14495433201454D+02  0.93139543902094D-15
   2   2   3   2 -0.21189368060971D+02 -0.10315085906817D-14
   3   2   3   2 -0.24747094679733D+02  0.31066842319956D-15
 Band:  7
   1   1   1   1 -0.63740117857975D+01 -0.23133598436603D-15
   2   1   1   1 -0.62509915377914D+01 -0.68352734362698D-15
   3   1   1   1 -0.40008333524704D+01  0.41693640362927D-15
   1   2   1   1  0.21708419515192D+01 -0.79111683195343D-15
   2   2   1   1  0.53304610335176D+01  0.22586619399929D-14
   3   2   1   1  0.31294440695436D+01 -0.16857891308722D-14
   1   1   2   1 -0.62509915377914D+01  0.97803517980109D-15
   2   1   2   1 -0.10347203888425D+02 -0.89179173817303D-16
   3   1   2   1 -0.84057698233809D+01  0.12543351291492D-15
   1   2   2   1  0.53304595701514D+01 -0.72951566309845D-15
   2   2   2   1  0.85723947330700D+01  0.17218921958966D-14
   3   2   2   1  0.74189855221493D+01  0.74904166203963D-15
   1   1   3   1 -0.40008333524704D+01 -0.89529393078608D-15
   2   1   3   1 -0.84057698233809D+01 -0.35117833862008D-15
   3   1   3   1 -0.35967305274977D+01 -0.27940325022619D-15
   1   2   3   1  0.31294450951699D+01 -0.22860295829249D-15
   2   2   3   1  0.74189873310116D+01  0.31790369142591D-15
   3   2   3   1  0.19693464872445D+01 -0.23068213191709D-15
   1   1   1   2  0.21708419515192D+01  0.58619468873500D-15
   2   1   1   2  0.53304595701514D+01  0.36223847478460D-15
   3   1   1   2  0.31294450951699D+01  0.47588779773186D-15
   1   2   1   2 -0.63740110375330D+01  0.38879988034749D-15
   2   2   1   2 -0.62509905658781D+01 -0.69967145815685D-15
   3   2   1   2 -0.40008335847551D+01 -0.17029047412147D-14
   1   1   2   2  0.53304610335176D+01 -0.19098628259762D-14
   2   1   2   2  0.85723947330700D+01 -0.19655561397522D-14
   3   1   2   2  0.74189873310116D+01 -0.47799969338121D-15
   1   2   2   2 -0.62509905658781D+01  0.15766247765408D-14
   2   2   2   2 -0.10347202920525D+02 -0.79146897506678D-16
   3   2   2   2 -0.84057709265447D+01  0.81074688564737D-17
   1   1   3   2  0.31294440695436D+01  0.12950348659155D-14
   2   1   3   2  0.74189855221493D+01 -0.75923048001104D-15
   3   1   3   2  0.19693464872445D+01  0.17640912346638D-15
   1   2   3   2 -0.40008335847551D+01  0.25609888557490D-14
   2   2   3   2 -0.84057709265447D+01  0.95909823661704D-16
   3   2   3   2 -0.35967290696246D+01  0.11771238345195D-15
 Band:  8
   1   1   1   1 -0.23686836737772D+02  0.11285757693978D-14
   2   1   1   1 -0.57576773377286D+01  0.41753900352630D-16
   3   1   1   1 -0.57934978960549D+01  0.33472476052901D-14
   1   2   1   1 -0.82253753603384D+01 -0.46758082309669D-14
   2   2   1   1  0.83706980110821D+00  0.15470692450951D-14
   3   2   1   1  0.80082947293743D+00  0.57968766881794D-15
   1   1   2   1 -0.57576773377286D+01 -0.12672477332624D-14
   2   1   2   1 -0.11549415368984D+02 -0.25366496864720D-15
   3   1   2   1 -0.57236162368022D+01  0.15102551308784D-16
   1   2   2   1  0.83707091607722D+00 -0.98847000466938D-15
   2   2   2   1  0.16395135066352D+01  0.11872709288601D-15
   3   2   2   1  0.87169713863719D+00 -0.49513722394150D-15
   1   1   3   1 -0.57934978960549D+01 -0.27113383064773D-14
   2   1   3   1 -0.57236162368022D+01 -0.15792524561635D-15
   3   1   3   1 -0.11656864605701D+02  0.10707769951900D-15
   1   2   3   1  0.80083880882472D+00  0.22944933083777D-14
   2   2   3   1  0.87169740358511D+00 -0.64313612592351D-15
   3   2   3   1  0.15308044991860D+01  0.52138145201892D-15
   1   1   1   2 -0.82253753603384D+01  0.31923624249138D-14
   2   1   1   2  0.83707091607722D+00  0.10256505531719D-14
   3   1   1   2  0.80083880882472D+00 -0.74679416756254D-15
   1   2   1   2 -0.23686836967532D+02 -0.68518391532929D-15
   2   2   1   2 -0.57576777137871D+01 -0.15694031700044D-14
   3   2   1   2 -0.57934901216940D+01  0.13928613204466D-14
   1   1   2   2  0.83706980110822D+00 -0.27674513225146D-14
   2   1   2   2  0.16395135066352D+01 -0.95184229870451D-16
   3   1   2   2  0.87169740358511D+00  0.36072321569879D-15
   1   2   2   2 -0.57576777137871D+01  0.24947778324011D-14
   2   2   2   2 -0.11549415899008D+02  0.14930142419333D-15
   3   2   2   2 -0.57236168973633D+01  0.44516267509543D-15
   1   1   3   2  0.80082947293743D+00 -0.88616395130845D-15
   2   1   3   2  0.87169713863719D+00  0.76101842261752D-15
   3   1   3   2  0.15308044991860D+01  0.79867719168972D-17
   1   2   3   2 -0.57934901216940D+01  0.19318479028059D-15
   2   2   3   2 -0.57236168973633D+01 -0.10500803641090D-15
   3   2   3   2 -0.11656865130649D+02 -0.45442780207236D-15
 K-point:  0.00000000E+00  5.00000000E-01  0.00000000E+00
 Band:  1
   1   1   1   1 -0.39492145606254D+01 -0.54523172555877D-16
   2   1   1   1 -0.19968568029257D+01 -0.19179601931120D-15
   3   1   1   1 -0.20413568870265D+01  0.22909499092008D-15
   1   2   1   1  0.18503156546384D+01  0.47158061500231D-15
   2   2   1   1  0.94946476372547D+00  0.42094986923968D-15
   3   2   1   1  0.99807905012642D+00  0.23185703725133D-15
   1   1   2   1 -0.19968568029257D+01  0.22750217755009D-15
   2   1   2   1 -0.64194183307176D+01  0.15496303639770D-15
   3   1   2   1 -0.19803286302059D+01  0.33624272624968D-16
   1   2   2   1  0.94946516813033D+00 -0.38182925193254D-15
   2   2   2   1  0.21655980726702D+01 -0.25988026228043D-14
   3   2   2   1  0.93030831563654D+00 -0.61826282799038D-15
   1   1   3   1 -0.20413568870265D+01 -0.24905633969267D-15
   2   1   3   1 -0.19803286302059D+01 -0.13143520030819D-15
   3   1   3   1 -0.38996308914421D+01  0.30448700698062D-16
   1   2   3   1  0.99807969930733D+00  0.66553571745463D-15
   2   2   3   1  0.93030805625898D+00 -0.11519099067023D-16
   3   2   3   1  0.17928443921233D+01  0.32968121363259D-15
   1   1   1   2  0.18503156546384D+01 -0.47262229125474D-15
   2   1   1   2  0.94946516813033D+00  0.37369191702207D-15
   3   1   1   2  0.99807969930733D+00 -0.59288131327845D-15
   1   2   1   2 -0.39492156305928D+01 -0.17870860648892D-16
   2   2   1   2 -0.19968583079614D+01 -0.44083724651454D-15
   3   2   1   2 -0.20413577435625D+01  0.13662190661149D-15
   1   1   2   2  0.94946476372547D+00 -0.33359627863371D-15
   2   1   2   2  0.21655980726702D+01  0.26454486280867D-14
   3   1   2   2  0.93030805625898D+00 -0.17733651961430D-16
   1   2   2   2 -0.19968583079614D+01  0.53734516725168D-15
   2   2   2   2 -0.64194195489822D+01  0.13315583101648D-15
   3   2   2   2 -0.19803307399966D+01  0.56288151088724D-15
   1   1   3   2  0.99807905012642D+00 -0.19487683265262D-15
   2   1   3   2  0.93030831563654D+00  0.62702824611348D-15
   3   1   3   2  0.17928443921233D+01 -0.31237479654615D-15
   1   2   3   2 -0.20413577435625D+01 -0.11107168482313D-15
   2   2   3   2 -0.19803307399966D+01 -0.43849621608842D-15
   3   2   3   2 -0.38996310522700D+01  0.36355645270754D-16
 Band:  2
   1   1   1   1 -0.54781351864139D+01  0.17336500534340D-16
   2   1   1   1 -0.27403095020830D+01  0.76548902488074D-16
   3   1   1   1 -0.27427931002777D+01  0.10250372792033D-16
   1   2   1   1 -0.19402551370533D+00 -0.42349705376551D-16
   2   2   1   1 -0.98584067752217D-01  0.44592622460933D-15
   3   2   1   1 -0.10172664659792D+00  0.35020397707914D-16
   1   1   2   1 -0.27403095020830D+01 -0.73060270598971D-16
   2   1   2   1 -0.15633582732748D+02 -0.75303366221478D-16
   3   1   2   1 -0.27394421792396D+01 -0.46659105089275D-15
   1   2   2   1 -0.98584135836416D-01 -0.27935267048404D-15
   2   2   2   1  0.29270650042008D+01 -0.27219040469954D-15
   3   2   2   1 -0.97295436352737D-01 -0.33189207368339D-15
   1   1   3   1 -0.27427931002777D+01  0.87844403714732D-16
   2   1   3   1 -0.27394421792396D+01  0.54978564119440D-15
   3   1   3   1 -0.54755326131289D+01 -0.19459073448916D-16
   1   2   3   1 -0.10172636184381D+00  0.58601337431791D-16
   2   2   3   1 -0.97295774683682D-01 -0.44920249338271D-15
   3   2   3   1 -0.19016047474120D+00 -0.27237142023345D-15
   1   1   1   2 -0.19402551370533D+00  0.17090941913698D-16
   2   1   1   2 -0.98584135836416D-01 -0.22631848645416D-15
   3   1   1   2 -0.10172636184381D+00 -0.24854926058580D-15
   1   2   1   2 -0.54781350478063D+01 -0.84571660123894D-16
   2   2   1   2 -0.27403089807895D+01 -0.14141001877599D-16
   3   2   1   2 -0.27427932509215D+01 -0.98213229679615D-17
   1   1   2   2 -0.98584067752217D-01 -0.48178016983836D-15
   2   1   2   2  0.29270650042008D+01 -0.72548649731674D-15
   3   1   2   2 -0.97295774683682D-01  0.47591148774587D-15
   1   2   2   2 -0.27403089807895D+01 -0.37737632881422D-15
   2   2   2   2 -0.15633579162898D+02  0.61207729620984D-15
   3   2   2   2 -0.27394418049205D+01 -0.24755914812851D-15
   1   1   3   2 -0.10172664659792D+00 -0.91869750769906D-16
   2   1   3   2 -0.97295436352737D-01 -0.68644168784727D-16
   3   1   3   2 -0.19016047474120D+00  0.46087685975534D-16
   1   2   3   2 -0.27427932509215D+01 -0.17702785813732D-15
   2   2   3   2 -0.27394418049205D+01 -0.12346524758656D-15
   3   2   3   2 -0.54755324870739D+01  0.17654256257911D-17
 Band:  3
   1   1   1   1 -0.27488406824451D+02 -0.68948606515167D-16
   2   1   1   1 -0.19554697207090D+02  0.17667712128957D-14
   3   1   1   1 -0.31175905249357D+02  0.86407808162487D-16
   1   2   1   1 -0.12029202599493D+02 -0.84633950397541D-14
   2   2   1   1 -0.27727249179660D+01  0.66799688696881D-14
   3   2   1   1  0.17514074924429D+01  0.22270553168665D-13
   1   1   2   1 -0.19554697207090D+02 -0.15584508459924D-14
   2   1   2   1 -0.21528773166496D+02  0.22043504337619D-15
   3   1   2   1 -0.19895508379785D+02  0.15899139942769D-14
   1   2   2   1 -0.27727247513379D+01 -0.92254426919475D-15
   2   2   2   1  0.29225601341076D+00  0.35380365481284D-14
   3   2   2   1  0.19313449555356D+00  0.53036174952339D-14
   1   1   3   1 -0.31175905249357D+02 -0.30346080526013D-17
   2   1   3   1 -0.19895508379785D+02 -0.12536796766253D-14
   3   1   3   1 -0.28395295071852D+02 -0.38574195336052D-15
   1   2   3   1  0.17514077712988D+01  0.35155170136817D-14
   2   2   3   1  0.19313408709999D+00  0.31762465041941D-14
   3   2   3   1 -0.39096466495445D+01 -0.41725426754881D-14
   1   1   1   2 -0.12029202599493D+02  0.51721845335903D-14
   2   1   1   2 -0.27727247513379D+01  0.34076981551649D-15
   3   1   1   2  0.17514077712988D+01 -0.19496778469153D-14
   1   2   1   2 -0.27488406514174D+02  0.25913036208505D-14
   2   2   1   2 -0.19554697152227D+02 -0.55334499316647D-14
   3   2   1   2 -0.31175904716278D+02 -0.17647364842640D-13
   1   1   2   2 -0.27727249179660D+01 -0.70920945076624D-14
   2   1   2   2  0.29225601341076D+00 -0.30831423765823D-14
   3   1   2   2  0.19313408709999D+00 -0.14072159595695D-14
   1   2   2   2 -0.19554697152227D+02  0.77139829749568D-14
   2   2   2   2 -0.21528772845356D+02 -0.82760311789736D-15
   3   2   2   2 -0.19895508213719D+02 -0.75436740011535D-14
   1   1   3   2  0.17514074924429D+01 -0.23927908437759D-13
   2   1   3   2  0.19313449555356D+00 -0.57573992435754D-14
   3   1   3   2 -0.39096466495445D+01  0.56223256135118D-14
   1   2   3   2 -0.31175904716278D+02  0.19418775617776D-13
   2   2   3   2 -0.19895508213719D+02  0.61703026189861D-14
   3   2   3   2 -0.28395294942777D+02 -0.88441810681853D-15
 Band:  4
   1   1   1   1 -0.54553170443466D+01 -0.25190561308565D-15
   2   1   1   1  0.10185351501111D+01 -0.50247464465510D-14
   3   1   1   1  0.14704043337503D+02 -0.13449114804628D-13
   1   2   1   1 -0.11557811351965D+02  0.62239627188577D-14
   2   2   1   1 -0.70056736000921D+01  0.25869153065425D-14
   3   2   1   1 -0.13544913868409D+02  0.15511304668541D-13
   1   1   2   1  0.10185351501111D+01  0.46514346656686D-14
   2   1   2   1 -0.90052217737753D+01 -0.51273068977300D-18
   3   1   2   1  0.56194086895236D+00 -0.18536428187129D-14
   1   2   2   1 -0.70056755451133D+01 -0.15294394765687D-14
   2   2   2   1 -0.41713300536664D+01 -0.14591399971460D-14
   3   2   2   1 -0.92055594550334D+01  0.20301408166363D-14
   1   1   3   1  0.14704043337503D+02  0.13551900410089D-13
   2   1   3   1  0.56194086895235D+00  0.19008881604353D-14
   3   1   3   1 -0.45484285906021D+01  0.59239706412288D-15
   1   2   3   1 -0.13544914923207D+02 -0.83182853050183D-14
   2   2   3   1 -0.92055576909138D+01 -0.60192812174594D-14
   3   2   3   1 -0.19677366480464D+02  0.12371988567188D-14
   1   1   1   2 -0.11557811351965D+02 -0.58306174021984D-14
   2   1   1   2 -0.70056755451133D+01  0.21147432813191D-14
   3   1   1   2 -0.13544914923207D+02  0.88237066624781D-14
   1   2   1   2 -0.54553178721241D+01  0.23691231217987D-15
   2   2   1   2  0.10185335030097D+01  0.69288652587395D-16
   3   2   1   2  0.14704041126466D+02 -0.91992600236587D-14
   1   1   2   2 -0.70056736000921D+01 -0.30195698121925D-14
   2   1   2   2 -0.41713300536664D+01  0.11239833968619D-14
   3   1   2   2 -0.92055576909138D+01  0.58589601804387D-14
   1   2   2   2  0.10185335030097D+01  0.32062953329489D-15
   2   2   2   2 -0.90052228520710D+01 -0.15184081176477D-15
   3   2   2   2  0.56193767371948D+00 -0.46361032686074D-14
   1   1   3   2 -0.13544913868409D+02 -0.16228961860123D-13
   2   1   3   2 -0.92055594550334D+01 -0.24980822826791D-14
   3   1   3   2 -0.19677366480464D+02 -0.76053347260166D-15
   1   2   3   2  0.14704041126466D+02  0.99939473058346D-14
   2   2   3   2  0.56193767371948D+00  0.47447365744454D-14
   3   2   3   2 -0.45484336489365D+01 -0.40641872136679D-15
 Band:  5
   1   1   1   1  0.42398195477846D+01  0.13429103365012D-15
   2   1   1   1  0.17351249449065D+02  0.26395432933845D-14
   3   1   1   1  0.31046342648700D+02  0.59841731420147D-14
   1   2   1   1 -0.16668588326740D+02 -0.27379898311069D-14
   2   2   1   1 -0.20197501186255D+02 -0.45412112097783D-14
   3   2   1   1 -0.28390558146654D+02 -0.17364140719676D-13
   1   1   2   1  0.17351249449065D+02 -0.26144876082666D-14
   2   1   2   1  0.14805503906246D+02  0.11560335013518D-15
   3   1   2   1  0.29706585812856D+02  0.52551721312753D-14
   1   2   2   1 -0.20197501398549D+02  0.51687062495145D-14
   2   2   2   1 -0.25091232159132D+02 -0.18670082177502D-14
   3   2   2   1 -0.35877148450810D+02 -0.15835611231586D-13
   1   1   3   1  0.31046342648700D+02 -0.57533401962352D-14
   2   1   3   1  0.29706585812856D+02 -0.51288495565751D-14
   3   1   3   1  0.30779588299382D+02 -0.64257934114448D-15
   1   2   3   1 -0.28390562185457D+02  0.12032613702153D-13
   2   2   3   1 -0.35877152738765D+02  0.29400358971403D-14
   3   2   3   1 -0.53934300008113D+02 -0.11096643667147D-13
   1   1   1   2 -0.16668588326740D+02  0.24903963090018D-14
   2   1   1   2 -0.20197501398549D+02 -0.54522236377961D-14
   3   1   1   2 -0.28390562185457D+02 -0.11339437261495D-13
   1   2   1   2  0.42398281020800D+01 -0.40747850417452D-16
   2   2   1   2  0.17351258788576D+02  0.69711143822489D-14
   3   2   1   2  0.31046350963155D+02  0.19794162766449D-13
   1   1   2   2 -0.20197501186255D+02  0.50411943355877D-14
   2   1   2   2 -0.25091232159132D+02  0.18590308443852D-14
   3   1   2   2 -0.35877152738765D+02 -0.29804695301089D-14
   1   2   2   2  0.17351258788576D+02 -0.66715645296286D-14
   2   2   2   2  0.14805514253439D+02  0.55080380372375D-16
   3   2   2   2  0.29706594985064D+02  0.14745023403740D-13
   1   1   3   2 -0.28390558146654D+02  0.18556909087004D-13
   2   1   3   2 -0.35877148450810D+02  0.16360245372002D-13
   3   1   3   2 -0.53934300008113D+02  0.96166845306684D-14
   1   2   3   2  0.31046350963155D+02 -0.19130022692331D-13
   2   2   3   2  0.29706594985064D+02 -0.14253900128500D-13
   3   2   3   2  0.30779596002564D+02 -0.12417644572695D-14
 Band:  6
   1   1   1   1  0.10576161771347D+01  0.32975905403107D-15
   2   1   1   1 -0.86523807185059D+01  0.19108833592734D-14
   3   1   1   1 -0.28397627007835D+02  0.33166266727490D-13
   1   2   1   1 -0.39614529159481D+02 -0.16902659566387D-13
   2   2   1   1 -0.13976666855107D+02 -0.54075382799104D-14
   3   2   1   1  0.24900022845175D+00  0.13136955128058D-13
   1   1   2   1 -0.86523807185059D+01 -0.18447958766372D-14
   2   1   2   1 -0.15759930378735D+02 -0.35336417012849D-15
   3   1   2   1 -0.17144293548729D+02  0.85640850113046D-14
   1   2   2   1 -0.13976666836376D+02 -0.31893823241561D-15
   2   2   2   1 -0.62013882600289D+01  0.17908980036482D-14
   3   2   2   1 -0.21537183277420D+01  0.45326555045215D-14
   1   1   3   1 -0.28397627007835D+02 -0.32809973953194D-13
   2   1   3   1 -0.17144293548729D+02 -0.85593408042958D-14
   3   1   3   1 -0.25482154554427D+02  0.18656699093421D-15
   1   2   3   1  0.24900296014509D+00  0.26034908346697D-13
   2   2   3   1 -0.21537163169457D+01  0.83265383344621D-14
   3   2   3   1 -0.23488161711356D+01 -0.15298691937086D-13
   1   1   1   2 -0.39614529159481D+02  0.15897526991073D-13
   2   1   1   2 -0.13976666836376D+02  0.63976407297791D-15
   3   1   1   2  0.24900296014509D+00 -0.23924431628512D-13
   1   2   1   2  0.10576145163615D+01  0.10556321406633D-14
   2   2   1   2 -0.86523823653253D+01 -0.12708529858798D-15
   3   2   1   2 -0.28397628115239D+02 -0.20553833969894D-13
   1   1   2   2 -0.13976666855107D+02  0.41271186898142D-14
   2   1   2   2 -0.62013882600289D+01 -0.19023591331506D-14
   3   1   2   2 -0.21537163169457D+01 -0.78154511187136D-14
   1   2   2   2 -0.86523823653253D+01  0.20437533406575D-14
   2   2   2   2 -0.15759931662706D+02  0.10754229897269D-14
   3   2   2   2 -0.17144295099277D+02 -0.23863846093270D-14
   1   1   3   2  0.24900022845175D+00 -0.13519277950342D-13
   2   1   3   2 -0.21537183277420D+01 -0.43846855065422D-14
   3   1   3   2 -0.23488161711356D+01  0.15204278099759D-13
   1   2   3   2 -0.28397628115239D+02  0.21315675989539D-13
   2   2   3   2 -0.17144295099277D+02  0.30405373249459D-14
   3   2   3   2 -0.25482154979888D+02  0.21481883168893D-15
 Band:  7
   1   1   1   1 -0.97580146448414D+01 -0.89235384633458D-16
   2   1   1   1 -0.62150418952925D+01 -0.81363312725363D-15
   3   1   1   1 -0.88871107900380D+01 -0.36782941686452D-15
   1   2   1   1  0.80045065095294D+01 -0.72151633932461D-16
   2   2   1   1  0.52977443816773D+01 -0.63224539191424D-15
   3   2   1   1  0.78887289389230D+01 -0.86274283491100D-15
   1   1   2   1 -0.62150418952925D+01  0.82671293441613D-15
   2   1   2   1 -0.65344583326087D+01  0.33296845286692D-15
   3   1   2   1 -0.45181237201426D+01 -0.12623670651815D-14
   1   2   2   1  0.52977451222584D+01  0.53365293433801D-15
   2   2   2   1  0.23274223629525D+01  0.17472989565782D-15
   3   2   2   1  0.36319021013462D+01  0.12643210795246D-14
   1   1   3   1 -0.88871107900380D+01  0.27333189430240D-15
   2   1   3   1 -0.45181237201426D+01  0.19095480911112D-14
   3   1   3   1 -0.46672612573115D+01 -0.29850876128145D-15
   1   2   3   1  0.78887288898311D+01  0.41380884651655D-15
   2   2   3   1  0.36319020927962D+01 -0.32337185810989D-16
   3   2   3   1  0.30069782777581D+01  0.63924769512972D-15
   1   1   1   2  0.80045065095294D+01 -0.13348333463716D-15
   2   1   1   2  0.52977451222584D+01 -0.30263098100449D-15
   3   1   1   2  0.78887288898311D+01 -0.27359539244039D-15
   1   2   1   2 -0.97580113992597D+01  0.96673504132788D-16
   2   2   1   2 -0.62150397157486D+01  0.12918140888767D-14
   3   2   1   2 -0.88871100117588D+01  0.23132341754716D-14
   1   1   2   2  0.52977443816773D+01  0.80470910280458D-15
   2   1   2   2  0.23274223629525D+01  0.20382834691348D-15
   3   1   2   2  0.36319020927962D+01 -0.50080227824238D-15
   1   2   2   2 -0.62150397157486D+01 -0.97672679302731D-15
   2   2   2   2 -0.65344576992193D+01 -0.29945271945876D-15
   3   2   2   2 -0.45181230441492D+01  0.21257572549497D-15
   1   1   3   2  0.78887289389230D+01  0.95988417035258D-15
   2   1   3   2  0.36319021013462D+01 -0.13176931309289D-14
   3   1   3   2  0.30069782777581D+01 -0.43310256080698D-15
   1   2   3   2 -0.88871100117588D+01 -0.23912599894775D-14
   2   2   3   2 -0.45181230441492D+01  0.32989797108474D-15
   3   2   3   2 -0.46672604560686D+01  0.80442416396172D-16
 Band:  8
   1   1   1   1 -0.11558689475880D+02 -0.93035549803155D-17
   2   1   1   1 -0.57582190920446D+01 -0.11506200753004D-14
   3   1   1   1 -0.57159680920704D+01 -0.42547245478271D-15
   1   2   1   1  0.16300577528846D+01  0.45677263934503D-15
   2   2   1   1  0.83650076683499D+00  0.72378832712356D-15
   3   2   1   1  0.87944433994038D+00  0.90970100584453D-15
   1   1   2   1 -0.57582190920446D+01  0.12237073476346D-14
   2   1   2   1 -0.23684285460171D+02 -0.24549075501085D-15
   3   1   2   1 -0.57853029079621D+01  0.16641186539566D-14
   1   2   2   1  0.83650123247506D+00 -0.18626572864743D-14
   2   2   2   1 -0.82227931059516D+01 -0.72517271997484D-15
   3   2   2   1  0.80915113364406D+00  0.46147747059692D-14
   1   1   3   1 -0.57159680920704D+01  0.31976788422411D-15
   2   1   3   1 -0.57853029079621D+01 -0.11366404935429D-14
   3   1   3   1 -0.11639942671228D+02  0.20640563916715D-15
   1   2   3   1  0.87944463584268D+00  0.64666624640639D-15
   2   2   3   1  0.80915060015356D+00  0.12014612263667D-14
   3   2   3   1  0.15480078124044D+01  0.65978318617495D-15
   1   1   1   2  0.16300577528846D+01  0.23220816006247D-16
   2   1   1   2  0.83650123247506D+00  0.19801291335630D-14
   3   1   1   2  0.87944463584268D+00 -0.41271084461759D-15
   1   2   1   2 -0.11558689960203D+02  0.92234480043242D-16
   2   2   1   2 -0.57582200909436D+01 -0.35626031639664D-14
   3   2   1   2 -0.57159684967690D+01 -0.54865037065251D-15
   1   1   2   2  0.83650076683499D+00 -0.13051126186092D-14
   2   1   2   2 -0.82227931059516D+01  0.45720233244276D-14
   3   1   2   2  0.80915060015356D+00 -0.26773873589183D-14
   1   2   2   2 -0.57582200909436D+01  0.29587356350543D-14
   2   2   2   2 -0.23684288438565D+02 -0.15807103547575D-14
   3   2   2   2 -0.57853044763948D+01 -0.29005331365614D-14
   1   1   3   2  0.87944433994038D+00 -0.98969833365342D-15
   2   1   3   2  0.80915113364406D+00 -0.11224692919979D-14
   3   1   3   2  0.15480078124044D+01 -0.50459712995556D-15
   1   2   3   2 -0.57159684967690D+01  0.14196738733861D-15
   2   2   3   2 -0.57853044763948D+01  0.53196356955752D-15
   3   2   3   2 -0.11639942668150D+02 -0.52382955536751D-15
 K-point:  5.00000000E-01  5.00000000E-01  0.00000000E+00
 Band:  1
   1   1   1   1 -0.11185889093812D+02  0.41334032167641D-16
   2   1   1   1 -0.86696673081334D+01 -0.52300152588889D-16
   3   1   1   1 -0.41168935916630D+01  0.24560878834540D-15
   1   2   1   1  0.11185191104954D+01 -0.46011270520132D-15
   2   2   1   1  0.13541958863673D+01 -0.68180195724143D-15
   3   2   1   1  0.23577394894534D+01 -0.86302780860219D-15
   1   1   2   1 -0.86696673081334D+01 -0.29542213634229D-17
   2   1   2   1 -0.11180783702400D+02 -0.56257455215791D-16
   3   1   2   1 -0.41117874978559D+01  0.53490128868922D-15
   1   2   2   1  0.13204985318754D+01 -0.72636107052023D-15
   2   2   2   1  0.11477402621231D+01 -0.38606589776706D-15
   3   2   2   1  0.23532602815325D+01 -0.43144120256968D-15
   1   1   3   1 -0.41168935916630D+01 -0.47851928181534D-15
   2   1   3   1 -0.41117874978559D+01 -0.80548888977040D-15
   3   1   3   1 -0.82286782404292D+01 -0.91318339126173D-16
   1   2   3   1  0.23240436551280D+01 -0.96715417427069D-16
   2   2   3   1  0.23869622271006D+01  0.75293913259491D-15
   3   2   3   1  0.47110039506612D+01  0.34930051230520D-15
   1   1   1   2  0.11185191104954D+01  0.54867414366005D-15
   2   1   1   2  0.13204985318754D+01  0.89680001273633D-15
   3   1   1   2  0.23240436551280D+01  0.23732963517087D-15
   1   2   1   2 -0.74217946348107D+01  0.25952274600371D-15
   2   2   1   2 -0.54233980798856D+01 -0.60740427405230D-15
   3   2   1   2 -0.36444340023985D+01 -0.17410682463683D-16
   1   1   2   2  0.13541958863673D+01  0.50877811615812D-15
   2   1   2   2  0.11477402621231D+01  0.38083155581216D-15
   3   1   2   2  0.23869622271006D+01 -0.54338596641072D-15
   1   2   2   2 -0.54233980798856D+01  0.39792413868958D-15
   2   2   2   2 -0.74896522287698D+01 -0.84058456281241D-16
   3   2   2   2 -0.37122899388199D+01  0.18448426061525D-15
   1   1   3   2  0.23577394894534D+01  0.83093862128995D-15
   2   1   3   2  0.23532602815325D+01  0.62062979214195D-15
   3   1   3   2  0.47110039506612D+01 -0.32282634568109D-15
   1   2   3   2 -0.36444340023985D+01 -0.65484028082491D-16
   2   2   3   2 -0.37122899388199D+01 -0.20644248311208D-15
   3   2   3   2 -0.73567217516866D+01  0.16906801631307D-16
 Band:  2
   1   1   1   1 -0.79765582197922D+01  0.81555309028851D-16
   2   1   1   1 -0.46174911770255D+01  0.46032288287121D-15
   3   1   1   1 -0.21118224682424D+01  0.41126779935899D-15
   1   2   1   1  0.16489332353004D+01  0.23655998299156D-16
   2   2   1   1 -0.40808938934191D+00  0.22966484441438D-15
   3   2   1   1 -0.20978725056116D+00  0.57481830396821D-15
   1   1   2   1 -0.46174911770255D+01 -0.49364316148583D-15
   2   1   2   1 -0.79087029189890D+01  0.80192877165165D-16
   3   1   2   1 -0.20439666673890D+01  0.22495977414498D-15
   1   2   2   1 -0.37439443039757D+00 -0.10776906301197D-16
   2   2   2   1  0.16197086814055D+01 -0.37084276924945D-15
   3   2   2   1 -0.20530890588525D+00  0.64021113153813D-15
   1   1   3   1 -0.21118224682424D+01  0.12480687988784D-16
   2   1   3   1 -0.20439666673890D+01  0.41662385881013D-16
   3   1   3   1 -0.41557882790276D+01 -0.15613043187802D-16
   1   2   3   1 -0.17609034311208D+00  0.20100246058608D-15
   2   2   3   1 -0.23900953589454D+00  0.38434112151220D-16
   3   2   3   1 -0.41509742350596D+00  0.59451037129533D-16
   1   1   1   2  0.16489332353004D+01 -0.36464838637824D-15
   2   1   1   2 -0.37439443039757D+00 -0.36705701211519D-15
   3   1   1   2 -0.17609034311208D+00 -0.57955283268599D-16
   1   2   1   2 -0.11679519528352D+02  0.46960831946874D-16
   2   2   1   2 -0.78755894765062D+01  0.19123928112286D-15
   3   2   1   2 -0.25113168929487D+01 -0.49237579679634D-15
   1   1   2   2 -0.40808938934191D+00 -0.15479953602450D-15
   2   1   2   2  0.16197086814055D+01  0.38973000220505D-15
   3   1   2   2 -0.23900953589454D+00  0.56179676689996D-16
   1   2   2   2 -0.78755894765062D+01  0.47859125968241D-15
   2   2   2   2 -0.11684632496507D+02  0.28752388037771D-15
   3   2   2   2 -0.25164237787582D+01 -0.55764895173733D-15
   1   1   3   2 -0.20978725056116D+00 -0.42314252135085D-15
   2   1   3   2 -0.20530890588525D+00 -0.74532578145284D-15
   3   1   3   2 -0.41509742350596D+00 -0.94914199040958D-16
   1   2   3   2 -0.25113168929487D+01  0.33471103759626D-15
   2   2   3   2 -0.25164237787582D+01  0.54431550962861D-15
   3   2   3   2 -0.50277453494761D+01  0.30579591779361D-18
 Band:  3
   1   1   1   1 -0.16337441942735D+02  0.13335046922030D-15
   2   1   1   1 -0.81517076046883D+01 -0.85426661625090D-14
   3   1   1   1 -0.18837079653049D+02  0.65115256156231D-14
   1   2   1   1 -0.23101488333086D+01  0.59015375574117D-14
   2   2   1   1 -0.20996176506883D+01  0.10197247800471D-15
   3   2   1   1 -0.11456266227890D+01 -0.46750671154509D-14
   1   1   2   1 -0.81517076046883D+01  0.87528628480841D-14
   2   1   2   1 -0.11124693084110D+02  0.21374812515127D-16
   3   1   2   1 -0.13624331850221D+02  0.65073336703760D-14
   1   2   2   1 -0.23006515054301D+01 -0.19724284640964D-14
   2   2   2   1 -0.21839774635119D+01 -0.66228840156771D-14
   3   2   2   1 -0.12204902686416D+01 -0.40885104058178D-14
   1   1   3   1 -0.18837079653049D+02 -0.62051116831164D-14
   2   1   3   1 -0.13624331850221D+02 -0.61577719908242D-14
   3   1   3   1 -0.32461394096050D+02  0.29613292316240D-16
   1   2   3   1 -0.13466728701204D+01  0.48417551218624D-14
   2   2   3   1 -0.10194646863483D+01  0.39225155370577D-14
   3   2   3   1 -0.23661205898193D+01  0.11000331348402D-14
   1   1   1   2 -0.23101488333086D+01 -0.52794314209207D-14
   2   1   1   2 -0.23006515054301D+01  0.15155245549233D-14
   3   1   1   2 -0.13466728701204D+01 -0.54434853432408D-14
   1   2   1   2 -0.11087020533900D+02  0.19235726524166D-15
   2   2   1   2 -0.82603506989392D+01  0.48917827360972D-14
   3   2   1   2 -0.13695316652748D+02  0.40792882758415D-14
   1   1   2   2 -0.20996176506883D+01 -0.71515831170836D-15
   2   1   2   2 -0.21839774635119D+01  0.62518597666204D-14
   3   1   2   2 -0.10194646863483D+01 -0.49565631529831D-14
   1   2   2   2 -0.82603506989392D+01 -0.46082397732772D-14
   2   2   2   2 -0.16615779001471D+02  0.52591355063208D-17
   3   2   2   2 -0.19224073992397D+02  0.55673766985490D-14
   1   1   3   2 -0.11456266227890D+01  0.58974300682958D-14
   2   1   3   2 -0.12204902686416D+01  0.42568220309643D-14
   3   1   3   2 -0.23661205898193D+01 -0.14289698504121D-14
   1   2   3   2 -0.13695316652748D+02 -0.36556103822821D-14
   2   2   3   2 -0.19224073992397D+02 -0.57281223087718D-14
   3   2   3   2 -0.32919397512732D+02 -0.37932872216445D-15
 Band:  4
   1   1   1   1 -0.12673622632175D+02 -0.31537696381101D-16
   2   1   1   1 -0.11557273611144D+01 -0.25847915239959D-15
   3   1   1   1 -0.30805083945369D+01  0.27416322584665D-15
   1   2   1   1 -0.45725529611049D+00 -0.41240510715921D-14
   2   2   1   1  0.23014132058758D+01 -0.74170098043142D-16
   3   2   1   1  0.44163310803763D-02 -0.24754428320392D-14
   1   1   2   1 -0.11557273611144D+01  0.10927198290057D-15
   2   1   2   1 -0.17886363538980D+02 -0.16296931281846D-15
   3   1   2   1 -0.82932562912536D+01 -0.49866217079980D-15
   1   2   2   1  0.25024522285025D+01 -0.35451473617974D-14
   2   2   2   1 -0.58342010582363D+00 -0.99513293911784D-15
   3   2   2   1  0.79279890246976D-01 -0.28224249161668D-14
   1   1   3   1 -0.30805083945369D+01 -0.41656553055150D-15
   2   1   3   1 -0.82932562912536D+01  0.35420891453194D-15
   3   1   3   1 -0.11373760743801D+02 -0.48616477431882D-16
   1   2   3   1  0.20545009842508D+00  0.24844165564171D-15
   2   2   3   1 -0.12175822488507D+00 -0.39088719945773D-15
   3   2   3   1  0.83694302571337D-01  0.32613774881090D-15
   1   1   1   2 -0.45725529611049D+00  0.33820984024101D-14
   2   1   1   2  0.25024522285025D+01  0.39654217325895D-14
   3   1   1   2  0.20545009842508D+00 -0.38952036175605D-15
   1   2   1   2 -0.18164732630118D+02  0.73718242304879D-16
   2   2   1   2 -0.10470843110252D+01 -0.42807854198204D-14
   3   2   1   2 -0.84629476587360D+01  0.31648429777290D-14
   1   1   2   2  0.23014132058758D+01  0.64283066600812D-16
   2   1   2   2 -0.58342010582363D+00  0.76124260791771D-15
   3   1   2   2 -0.12175822488507D+00  0.42991230397482D-15
   1   2   2   2 -0.10470843110252D+01  0.42542596361208D-14
   2   2   2   2 -0.12635972501002D+02  0.20497986181994D-16
   3   2   2   2 -0.29341903471416D+01  0.31575778895208D-14
   1   1   3   2  0.44163310803763D-02  0.27937108671380D-14
   2   1   3   2  0.79279890246975D-01  0.27712941759689D-14
   3   1   3   2  0.83694302571337D-01 -0.11049450684619D-15
   1   2   3   2 -0.84629476587360D+01 -0.30753287280337D-14
   2   2   3   2 -0.29341903471416D+01 -0.31553278904477D-14
   3   2   3   2 -0.11397139172706D+02 -0.28866158519364D-16
 Band:  5
   1   1   1   1 -0.78930027192915D+01  0.55225718270078D-16
   2   1   1   1 -0.63962627416261D+01  0.10795781901780D-15
   3   1   1   1 -0.60198983089879D+01 -0.14998464271293D-14
   1   2   1   1  0.34951205564778D+01  0.12193088424953D-14
   2   2   1   1  0.37157278134736D+01  0.87222562669524D-15
   3   2   1   1  0.67608612277205D+01  0.75778630491882D-15
   1   1   2   1 -0.63962627416261D+01  0.13923868569217D-15
   2   1   2   1 -0.78724520392040D+01  0.12492657239503D-15
   3   1   2   1 -0.59993446761600D+01 -0.16787053849863D-14
   1   2   2   1  0.36465356448271D+01  0.10549392950447D-14
   2   2   2   1  0.34656402399005D+01  0.67485744228128D-15
   3   2   2   1  0.66622007289357D+01  0.11388553441031D-14
   1   1   3   1 -0.60198983089879D+01  0.17425381366879D-14
   2   1   3   1 -0.59993446761600D+01  0.20482333162924D-14
   3   1   3   1 -0.12019166445071D+02  0.47804659557262D-17
   1   2   3   1  0.66915984649799D+01  0.26247838051614D-14
   2   2   3   1  0.67313110687573D+01  0.19814552383485D-14
   3   2   3   1  0.13422985145923D+02 -0.36386816469961D-15
   1   1   1   2  0.34951205564778D+01 -0.96194867243507D-15
   2   1   1   2  0.36465356448271D+01 -0.84373418469448D-15
   3   1   1   2  0.66915984649799D+01 -0.33796740508925D-14
   1   2   1   2 -0.74282871988657D+01  0.48276590059718D-16
   2   2   1   2 -0.59323792171611D+01 -0.17139709949847D-15
   3   2   1   2 -0.60103074785003D+01  0.95177730078096D-15
   1   1   2   2  0.37157278134736D+01 -0.94186727611252D-15
   2   1   2   2  0.34656402399005D+01 -0.62745538269111D-15
   3   1   2   2  0.67313110687573D+01 -0.26507750019880D-14
   1   2   2   2 -0.59323792171611D+01  0.28293607798892D-15
   2   2   2   2 -0.74115428580860D+01 -0.91138243707241D-16
   3   2   2   2 -0.59935605931351D+01  0.15279572157942D-14
   1   1   3   2  0.67608612277205D+01 -0.30708496301780D-15
   2   1   3   2  0.66622007289357D+01 -0.97674408963965D-15
   3   1   3   2  0.13422985145923D+02  0.56152633936766D-15
   1   2   3   2 -0.60103074785003D+01 -0.58052212614206D-15
   2   2   3   2 -0.59935605931351D+01 -0.11525331631896D-14
   3   2   3   2 -0.12003943237753D+02  0.12145075329627D-16
 Band:  6
   1   1   1   1 -0.72960700139395D+01  0.81303282133878D-16
   2   1   1   1 -0.14947496642890D+01 -0.70560733933588D-15
   3   1   1   1 -0.14891808184744D+01  0.65992663676308D-16
   1   2   1   1  0.36579521391658D+01 -0.62275151383174D-16
   2   2   1   1 -0.34336917512352D+01 -0.27456494829835D-15
   3   2   1   1 -0.23600640653758D+00 -0.10424679975519D-15
   1   1   2   1 -0.14947496642890D+01  0.63708979668462D-15
   2   1   2   1 -0.73128034329310D+01  0.22008378484877D-15
   3   1   2   1 -0.15059466549936D+01 -0.36804102440986D-15
   1   2   2   1 -0.33644048624557D+01 -0.10062252292577D-14
   2   2   2   1  0.36875129335932D+01  0.49700616908343D-15
   3   2   2   1 -0.13731688908609D+00  0.13459188289808D-15
   1   1   3   1 -0.14891808184744D+01 -0.41113421675748D-15
   2   1   3   1 -0.15059466549936D+01  0.19879863122622D-15
   3   1   3   1 -0.29951263498671D+01  0.84674277040340D-17
   1   2   3   1 -0.16681317780871D+00  0.89294434271160D-16
   2   2   3   1 -0.20650635912752D+00 -0.19730497169186D-15
   3   2   3   1 -0.37332089157758D+00  0.11044207626277D-15
   1   1   1   2  0.36579521391658D+01 -0.72904366799832D-16
   2   1   1   2 -0.33644048624557D+01  0.94129900703499D-15
   3   1   1   2 -0.16681317780871D+00  0.13490965580466D-16
   1   2   1   2 -0.77044893263138D+01  0.14772750646842D-15
   2   2   1   2 -0.19063320757900D+01 -0.31490762866866D-15
   3   2   1   2 -0.14948869224674D+01 -0.14089655651163D-15
   1   1   2   2 -0.34336917512352D+01  0.18160089470478D-15
   2   1   2   2  0.36875129335932D+01 -0.59552578514936D-15
   3   1   2   2 -0.20650635912752D+00  0.24375347117829D-15
   1   2   2   2 -0.19063320757900D+01  0.32815254656743D-15
   2   2   2   2 -0.77252293575734D+01 -0.27143282513788D-15
   3   2   2   2 -0.15154681565982D+01  0.37917226624303D-15
   1   1   3   2 -0.23600640653758D+00  0.75696229787436D-16
   2   1   3   2 -0.13731688908609D+00 -0.14130721178617D-15
   3   1   3   2 -0.37332089157758D+00 -0.12075323690045D-15
   1   2   3   2 -0.14948869224674D+01  0.33185876343264D-15
   2   2   3   2 -0.15154681565982D+01 -0.39519174144164D-15
   3   2   3   2 -0.30103655398542D+01 -0.91429501350058D-17
 Band:  7
   1   1   1   1 -0.40647008221179D+02  0.76752749620478D-16
   2   1   1   1 -0.15973851601164D+02  0.29845277735375D-14
   3   1   1   1 -0.42292719422255D+02  0.18731620033996D-13
   1   2   1   1 -0.76119509549242D+01  0.12729326260017D-13
   2   2   1   1 -0.63898023993805D+01  0.10881267054339D-13
   3   2   1   1 -0.64440968556762D+01  0.16312641897243D-13
   1   1   2   1 -0.15973851601164D+02 -0.33243519408087D-14
   2   1   2   1 -0.18860962352589D+02 -0.36384937956160D-15
   3   1   2   1 -0.20506567837015D+02  0.20345728649277D-13
   1   2   2   1 -0.63010822141920D+01  0.17863838235862D-13
   2   2   2   1 -0.74674373609828D+01  0.17503636411658D-13
   3   2   2   1 -0.62109672590884D+01  0.14080994544763D-13
   1   1   3   1 -0.42292719422255D+02 -0.17905906475993D-13
   2   1   3   1 -0.20506567837015D+02 -0.21258362507390D-13
   3   1   3   1 -0.62799718489919D+02 -0.20560149889956D-15
   1   2   3   1 -0.63556134828464D+01  0.16818119395088D-13
   2   2   3   1 -0.62998391255832D+01  0.17635480933263D-13
   3   2   3   1 -0.12655023803685D+02  0.17257194086783D-14
   1   1   1   2 -0.76119509549242D+01 -0.99565752019445D-14
   2   1   1   2 -0.63010822141920D+01 -0.18103210982242D-13
   3   1   1   2 -0.63556134828464D+01 -0.16639956020475D-13
   1   2   1   2 -0.18691143819325D+02  0.19512761976993D-16
   2   2   1   2 -0.15956331020641D+02  0.18388113492464D-14
   3   2   1   2 -0.20319080793936D+02 -0.12036273924848D-13
   1   1   2   2 -0.63898023993805D+01 -0.89149124973809D-14
   2   1   2   2 -0.74674373609828D+01 -0.18738955364240D-13
   3   1   2   2 -0.62998391255832D+01 -0.16983792073678D-13
   1   2   2   2 -0.15956331020641D+02 -0.22493506725747D-14
   2   2   2   2 -0.40769391159568D+02 -0.35635915858039D-15
   3   2   2   2 -0.42397308896990D+02 -0.12620172704494D-13
   1   1   3   2 -0.64440968556762D+01 -0.89962712993084D-14
   2   1   3   2 -0.62109672590883D+01 -0.13406613641620D-13
   3   1   3   2 -0.12655023803685D+02  0.21865642453056D-14
   1   2   3   2 -0.20319080793936D+02  0.12006854669892D-13
   2   2   3   2 -0.42397308896990D+02  0.11299459690660D-13
   3   2   3   2 -0.62716428892089D+02 -0.64047627640693D-16
 Band:  8
   1   1   1   1 -0.17604214376078D+02  0.19926303718014D-15
   2   1   1   1  0.75570422745203D+00 -0.58416369020206D-14
   3   1   1   1 -0.32064183184060D+01  0.27228778891871D-14
   1   2   1   1 -0.87212460713779D+01  0.55992779493360D-14
   2   2   1   1 -0.26811797690050D+00  0.40092316552821D-14
   3   2   1   1 -0.75721954779498D+00  0.61055274923739D-15
   1   1   2   1  0.75570422745203D+00  0.60784200241909D-14
   2   1   2   1 -0.39390396029041D+02  0.23594131339715D-15
   3   1   2   1 -0.24992570127792D+02  0.24052457025371D-14
   1   2   2   1 -0.35673886079256D+00 -0.16230098117922D-14
   2   2   2   1 -0.88657264684619D+01  0.22447275376393D-14
   3   2   2   1 -0.99034897230242D+00  0.31367503661099D-16
   1   1   3   1 -0.32064183184060D+01 -0.26770793847241D-14
   2   1   3   1 -0.24992570127792D+02 -0.21430710543268D-14
   3   1   3   1 -0.28199160943608D+02  0.11564618025149D-15
   1   2   3   1 -0.84600778980333D+00  0.15981283268703D-14
   2   2   3   1 -0.90178216621823D+00  0.28385481589481D-14
   3   2   3   1 -0.17476182791741D+01  0.13324323556304D-14
   1   1   1   2 -0.87212460713779D+01 -0.59114782516900D-14
   2   1   1   2 -0.35673886079256D+00  0.64954454311318D-15
   3   1   1   2 -0.84600778980333D+00 -0.35256878206980D-14
   1   2   1   2 -0.39512357711742D+02 -0.45738508054439D-15
   2   2   1   2  0.73816313256907D+00 -0.15852230401781D-14
   3   2   1   2 -0.25132522831489D+02 -0.11378853673577D-14
   1   1   2   2 -0.26811797690050D+00 -0.46658550041051D-14
   2   1   2   2 -0.88657264684619D+01 -0.23752061858607D-14
   3   1   2   2 -0.90178216621823D+00 -0.25654146499784D-14
   1   2   2   2  0.73816313256907D+00  0.18440844758085D-14
   2   2   2   2 -0.17434044301400D+02 -0.82689859191040D-16
   3   2   2   2 -0.30542950362395D+01 -0.68797020772597D-15
   1   1   3   2 -0.75721954779498D+00 -0.39246318685691D-15
   2   1   3   2 -0.99034897230242D+00 -0.33860651149808D-15
   3   1   3   2 -0.17476182791741D+01 -0.18341043130964D-14
   1   2   3   2 -0.25132522831489D+02  0.12069004524068D-14
   2   2   3   2 -0.30542950362395D+01  0.69798504667909D-15
   3   2   3   2 -0.28186767123573D+02  0.20903964151651D-15
 K-point:  0.00000000E+00  0.00000000E+00  5.00000000E-01
 Band:  1
   1   1   1   1 -0.39041293769219D+01  0.17600006035409D-16
   2   1   1   1 -0.20424499273553D+01  0.21463043620217D-15
   3   1   1   1 -0.19821924963169D+01  0.25837812738259D-15
   1   2   1   1  0.17999964506222D+01  0.35593354726168D-15
   2   2   1   1  0.99992954400113D+00  0.65139921520563D-15
   3   2   1   1  0.93330775682362D+00  0.26377836977794D-15
   1   1   2   1 -0.20424499273553D+01 -0.21182895514780D-15
   2   1   2   1 -0.39458093574593D+01 -0.14329242329987D-16
   3   1   2   1 -0.19960853510473D+01  0.78365189347462D-16
   1   2   2   1  0.99992956000399D+00  0.13457953118434D-15
   2   2   2   1  0.18450137891051D+01  0.87515612811621D-15
   3   2   2   1  0.94831374557147D+00  0.40510013784967D-15
   1   1   3   1 -0.19821924963169D+01 -0.15331186456513D-15
   2   1   3   1 -0.19960853510473D+01  0.23467707104170D-16
   3   1   3   1 -0.64197824691647D+01 -0.23159776994148D-15
   1   2   3   1  0.93330923958786D+00 -0.10172805916803D-15
   2   2   3   1  0.94831556048832D+00  0.40431843738073D-15
   3   2   3   1  0.21662146996208D+01  0.25548297604864D-14
   1   1   1   2  0.17999964506222D+01 -0.35758897780278D-15
   2   1   1   2  0.99992956000399D+00 -0.13783793760464D-15
   3   1   1   2  0.93330923958786D+00 -0.43605424969655D-16
   1   2   1   2 -0.39041301515719D+01  0.21783466487941D-16
   2   2   1   2 -0.20424504936163D+01 -0.45846459342761D-15
   3   2   1   2 -0.19821942752696D+01 -0.39152816225324D-15
   1   1   2   2  0.99992954400113D+00 -0.65541168164070D-15
   2   1   2   2  0.18450137891051D+01 -0.84809157356964D-15
   3   1   2   2  0.94831556048832D+00 -0.40469701340435D-15
   1   2   2   2 -0.20424504936163D+01  0.40095470733595D-15
   2   2   2   2 -0.39458090540273D+01 -0.20627942004531D-16
   3   2   2   2 -0.19960880570587D+01  0.42389864712659D-16
   1   1   3   2  0.93330775682362D+00 -0.19335180201461D-15
   2   1   3   2  0.94831374557147D+00 -0.26132770968171D-15
   3   1   3   2  0.21662146996208D+01 -0.23912296280460D-14
   1   2   3   2 -0.19821942752696D+01  0.40816207142178D-15
   2   2   3   2 -0.19960880570587D+01 -0.26868128141518D-16
   3   2   3   2 -0.64197838906028D+01  0.40398108684044D-15
 Band:  2
   1   1   1   1 -0.54756717528482D+01 -0.96399377443946D-17
   2   1   1   1 -0.27428212686645D+01  0.87275344013954D-16
   3   1   1   1 -0.27394971668312D+01  0.36444564121710D-15
   1   2   1   1 -0.19072441030890D+00  0.26595512412804D-15
   2   2   1   1 -0.10187589503824D+00  0.19653607495041D-15
   3   2   1   1 -0.97533797893652D-01  0.31744614039685D-15
   1   1   2   1 -0.27428212686645D+01 -0.10356098101913D-15
   2   1   2   1 -0.54780239156306D+01 -0.29163254934107D-16
   3   1   2   1 -0.27402817431662D+01  0.15981591545573D-15
   1   2   2   1 -0.10187599691237D+00  0.15559021656806D-15
   2   2   2   1 -0.19361099308805D+00  0.40381294993937D-15
   3   2   2   1 -0.98496191395534D-01  0.71413597591823D-16
   1   1   3   1 -0.27394971668312D+01 -0.16336592096989D-15
   2   1   3   1 -0.27402817431662D+01 -0.34257269849237D-15
   3   1   3   1 -0.15633591039353D+02 -0.11668975822551D-15
   1   2   3   1 -0.97532968289835D-01  0.15344132132774D-15
   2   2   3   1 -0.98494880960220D-01  0.63440352110057D-15
   3   2   3   1  0.29270153539413D+01 -0.20701900925848D-14
   1   1   1   2 -0.19072441030890D+00 -0.23759654182589D-15
   2   1   1   2 -0.10187599691237D+00 -0.26587218578460D-15
   3   1   1   2 -0.97532968289835D-01 -0.84771053055820D-16
   1   2   1   2 -0.54756719488148D+01  0.17136072891664D-15
   2   2   1   2 -0.27428215447154D+01 -0.27447087769237D-15
   3   2   1   2 -0.27394980454921D+01  0.38398312542550D-16
   1   1   2   2 -0.10187589503824D+00 -0.26254798419577D-15
   2   1   2   2 -0.19361099308805D+00  0.12275220108610D-16
   3   1   2   2 -0.98494880960220D-01 -0.66816170570351D-15
   1   2   2   2 -0.27428215447154D+01  0.20954878265698D-15
   2   2   2   2 -0.54780239836989D+01 -0.68468035512596D-17
   3   2   2   2 -0.27402820940172D+01  0.13115038047552D-15
   1   1   3   2 -0.97533797893652D-01 -0.40399820382836D-15
   2   1   3   2 -0.98496191395534D-01  0.37245105141182D-15
   3   1   3   2  0.29270153539413D+01  0.25177486598202D-14
   1   2   3   2 -0.27394980454921D+01  0.34404256796677D-16
   2   2   3   2 -0.27402820940172D+01 -0.16960851690011D-15
   3   2   3   2 -0.15633590140615D+02 -0.20336180820230D-15
 Band:  3
   1   1   1   1 -0.28267117959903D+02  0.40761964315194D-15
   2   1   1   1 -0.31466323320103D+02 -0.60969957616008D-14
   3   1   1   1 -0.19931444042984D+02 -0.28063195545659D-14
   1   2   1   1 -0.42293559895282D+01 -0.65216984304600D-14
   2   2   1   1  0.20364616483929D+01  0.11748910965822D-13
   3   2   1   1  0.16305603569681D+00  0.49863883334007D-14
   1   1   2   1 -0.31466323320103D+02  0.61072298298191D-14
   2   1   2   1 -0.27907000527463D+02  0.28533504349948D-15
   3   1   2   1 -0.19837430175428D+02  0.65924282041448D-16
   1   2   2   1  0.20364616069633D+01  0.56384146978432D-14
   2   2   2   1 -0.11424439518020D+02 -0.40885373246765D-14
   3   2   2   1 -0.24297688341068D+01  0.27072660022957D-14
   1   1   3   1 -0.19931444042984D+02  0.30598477359179D-14
   2   1   3   1 -0.19837430175428D+02 -0.91430383495615D-16
   3   1   3   1 -0.21644377353720D+02 -0.31855996458918D-15
   1   2   3   1  0.16305666656114D+00  0.11006472484366D-14
   2   2   3   1 -0.24297678725724D+01  0.22656467947659D-14
   3   2   3   1  0.40583178419083D+00  0.32204878296733D-14
   1   1   1   2 -0.42293559895282D+01  0.62142710334149D-14
   2   1   1   2  0.20364616069633D+01 -0.47833568253059D-14
   3   1   1   2  0.16305666656114D+00 -0.13819539566487D-14
   1   2   1   2 -0.28267117738462D+02  0.46780021779348D-15
   2   2   1   2 -0.31466322756682D+02  0.10101927415984D-13
   3   2   1   2 -0.19931444172074D+02  0.19880204464903D-14
   1   1   2   2  0.20364616483929D+01 -0.13437303664777D-13
   2   1   2   2 -0.11424439518020D+02  0.41744259707515D-14
   3   1   2   2 -0.24297678725724D+01 -0.19189994608433D-14
[...]
   3   2   3   2 -0.33040280715958D+02 -0.25698032833161D-14
 Band:  8
   1   1   1   1 -0.18630909755562D+02 -0.15131206318220D-15
   2   1   1   1 -0.70913743189840D+01 -0.43387000758201D-03
   3   1   1   1 -0.12015536191459D+02 -0.41762838468676D-03
   1   2   1   1 -0.25806771046450D+00  0.60341266023626D-04
   2   2   1   1  0.17067234012822D+01 -0.37351813190374D-03
   3   2   1   1  0.19325553238330D+01  0.41738468970292D-03
   1   1   2   1 -0.70913743189840D+01  0.43387000758249D-03
   2   1   2   1 -0.28628254973457D+02  0.49072309668139D-15
   3   1   2   1  0.90853000128878D+01 -0.12252333772684D-01
   1   2   2   1  0.11333119329628D+01  0.93121451343587D-03
   2   2   2   1  0.70874562160662D+01  0.47660946137853D-03
   3   2   2   1  0.11857133969014D+01  0.12295351720820D-01
   1   1   3   1 -0.12015536191459D+02  0.41762838468578D-03
   2   1   3   1  0.90853000128878D+01  0.12252333772684D-01
   3   1   3   1 -0.32418813579614D+02 -0.24393396703634D-15
   1   2   3   1  0.12593383824322D+01 -0.84909032811108D-03
   2   2   3   1  0.15351425898751D+01  0.10945573514951D-01
   3   2   3   1 -0.52300928831428D+01  0.11706619830958D-04
   1   1   1   2 -0.25806771046450D+00 -0.60341266023646D-04
   2   1   1   2  0.11333119329628D+01 -0.93121451343523D-03
   3   1   1   2  0.12593383824322D+01  0.84909032810914D-03
   1   2   1   2 -0.18288737690799D+02  0.24215633529638D-16
   2   2   1   2 -0.10669436467935D+02 -0.86486180484938D-03
   3   2   1   2 -0.81061945871319D+01 -0.85354317199353D-03
   1   1   2   2  0.17067234012822D+01  0.37351813190511D-03
   2   1   2   2  0.70874562160662D+01 -0.47660946137949D-03
   3   1   2   2  0.15351425898751D+01 -0.10945573514956D-01
   1   2   2   2 -0.10669436467935D+02  0.86486180485016D-03
   2   2   2   2 -0.32205871882211D+02  0.46689463645370D-15
   3   2   2   2  0.92797271207384D+01  0.10984318934525D-01
   1   1   3   2  0.19325553238330D+01 -0.41738468970347D-03
   2   1   3   2  0.11857133969014D+01 -0.12295351720822D-01
   3   1   3   2 -0.52300928831428D+01 -0.11706619824216D-04
   1   2   3   2 -0.81061945871319D+01  0.85354317199336D-03
   2   2   3   2  0.92797271207384D+01 -0.10984318934526D-01
   3   2   3   2 -0.28498297501204D+02  0.56255075226504D-15
 K-point:  5.00000000E-01  5.00000000E-01  5.00000000E-01
 Band:  1
   1   1   1   1 -0.93788298044392D+01  0.21412778302929D-15
   2   1   1   1 -0.75065823899455D+01  0.12360461090964D-05
   3   1   1   1 -0.24780507271595D+01  0.42706886702865D-05
   1   2   1   1 -0.54448796413218D+01 -0.37389564134680D-05
   2   2   1   1 -0.44260104306681D+01 -0.40423699110415D-05
   3   2   1   1 -0.26508153400209D+00  0.23829232257414D-06
   1   1   2   1 -0.75065823899455D+01 -0.12360461088401D-05
   2   1   2   1 -0.93808601827783D+01  0.25910904983545D-16
   3   1   2   1 -0.24699366526086D+01  0.47620254274212D-05
   1   2   2   1 -0.44260119080534D+01 -0.55410875607960D-05
   2   2   2   1 -0.54460973466351D+01 -0.55134942211851D-05
   3   2   2   1 -0.25706102480887D+00 -0.27384806484242D-06
   1   1   3   1 -0.24780507271595D+01 -0.42706886700407D-05
   2   1   3   1 -0.24699366526086D+01 -0.47620254273940D-05
   3   1   3   1 -0.57217057523141D+01  0.10985928520295D-15
   1   2   3   1 -0.26505903338493D+00 -0.26004736646110D-05
   2   2   3   1 -0.25703669848195D+00 -0.20146785822169D-05
   3   2   3   1  0.19199797055320D+01  0.14513549840553D-06
   1   1   1   2 -0.54448796413218D+01  0.37389564134979D-05
   2   1   1   2 -0.44260119080534D+01  0.55410875608097D-05
   3   1   1   2 -0.26505903338493D+00  0.26004736646661D-05
   1   2   1   2 -0.93788538270657D+01 -0.57103517281566D-17
   2   2   1   2 -0.75066024270591D+01  0.24496255444504D-06
   3   2   1   2 -0.24780727696366D+01  0.16328555011529D-05
   1   1   2   2 -0.44260104306681D+01  0.40423699111155D-05
   2   1   2   2 -0.54460973466351D+01  0.55134942212915D-05
   3   1   2   2 -0.25703669848195D+00  0.20146785823099D-05
   1   2   2   2 -0.75066024270591D+01 -0.24496255458330D-06
   2   2   2   2 -0.93808763114649D+01 -0.22217094867607D-15
   3   2   2   2 -0.24699607416053D+01  0.20744038529338D-05
   1   1   3   2 -0.26508153400209D+00 -0.23829232252612D-06
   2   1   3   2 -0.25706102480887D+00  0.27384806482507D-06
   3   1   3   2  0.19199797055320D+01 -0.14513549833516D-06
   1   2   3   2 -0.24780727696366D+01 -0.16328555009724D-05
   2   2   3   2 -0.24699607416053D+01 -0.20744038528272D-05
   3   2   3   2 -0.57217016916578D+01  0.92021317822275D-17
 Band:  2
   1   1   1   1 -0.11747981416246D+02  0.14219464079930D-15
   2   1   1   1 -0.88495210561964D+01  0.20070501285707D-05
   3   1   1   1 -0.85981020014966D+01 -0.70644956138399D-06
   1   2   1   1 -0.27525305718633D+01 -0.48501014962591D-06
   2   2   1   1 -0.21426882886141D+01 -0.56982749819201D-06
   3   2   1   1 -0.13750670812536D+01  0.13957898719452D-06
   1   1   2   1 -0.88495210561964D+01 -0.20070501285437D-05
   2   1   2   1 -0.11751424656705D+02 -0.17258731214737D-15
   3   1   2   1 -0.85977043684056D+01 -0.24679495931696D-05
   1   2   2   1 -0.21426913782456D+01  0.14346175554642D-05
   2   2   2   1 -0.27784289649415D+01  0.16018407579020D-05
   3   2   2   1 -0.13820480514785D+01  0.16545338846637D-05
   1   1   3   1 -0.85981020014966D+01  0.70644956183644D-06
   2   1   3   1 -0.85977043684057D+01  0.24679495937438D-05
   3   1   3   1 -0.11487407955516D+02  0.49163336638447D-15
   1   2   3   1 -0.13750643394351D+01 -0.64324903122725D-06
   2   2   3   1 -0.13820422493795D+01 -0.61357585482148D-06
   3   2   3   1 -0.96913441862123D+00 -0.37011736883281D-06
   1   1   1   2 -0.27525305718633D+01  0.48501014967190D-06
   2   1   1   2 -0.21426913782456D+01 -0.14346175556906D-05
   3   1   1   2 -0.13750643394351D+01  0.64324903081620D-06
   1   2   1   2 -0.11747986212991D+02  0.47597201706959D-15
   2   2   1   2 -0.88495281153178D+01  0.14378943205524D-06
   3   2   1   2 -0.85981058685850D+01 -0.41910279489412D-06
   1   1   2   2 -0.21426882886141D+01  0.56982749815382D-06
   2   1   2   2 -0.27784289649415D+01 -0.16018407577299D-05
   3   1   2   2 -0.13820422493795D+01  0.61357585501801D-06
   1   2   2   2 -0.88495281153178D+01 -0.14378943194047D-06
   2   2   2   2 -0.11751434431683D+02  0.88663192626022D-16
   3   2   2   2 -0.85977113478076D+01 -0.40740764157103D-06
   1   1   3   2 -0.13750670812536D+01 -0.13957898778232D-06
   2   1   3   2 -0.13820480514785D+01 -0.16545338847851D-05
   3   1   3   2 -0.96913441862123D+00  0.37011736815092D-06
   1   2   3   2 -0.85981058685850D+01  0.41910279498291D-06
   2   2   3   2 -0.85977113478076D+01  0.40740764208192D-06
   3   2   3   2 -0.11487409067859D+02  0.50426883450701D-15
 Band:  3
   1   1   1   1 -0.93816872890192D+01  0.33200444157094D-15
   2   1   1   1  0.10325899787621D+02 -0.32907444221846D-05
   3   1   1   1 -0.88298469749614D+01 -0.44052109539940D-05
   1   2   1   1  0.12756798882360D+02  0.34043430008207D-05
   2   2   1   1  0.12120107813089D+02  0.50282037036670D-05
   3   2   1   1  0.27514961623612D+01 -0.45006757802664D-06
   1   1   2   1  0.10325899787621D+02  0.32907444222922D-05
   2   1   2   1 -0.11181661591470D+02  0.10858699023387D-15
   3   1   2   1 -0.58173528551433D+01 -0.30194618976071D-05
   1   2   2   1  0.12120113920459D+02  0.43123807726224D-05
   2   2   2   1  0.13240694941573D+02  0.59143003360538D-05
   3   2   2   1  0.28267401662785D+01 -0.21792951750285D-05
   1   1   3   1 -0.88298469749614D+01  0.44052109542123D-05
   2   1   3   1 -0.58173528551433D+01  0.30194618973745D-05
   3   1   3   1 -0.13300640628890D+02 -0.95674038057910D-16
   1   2   3   1  0.27514642084215D+01  0.53372893157948D-05
   2   2   3   1  0.28267034581565D+01  0.59649502689247D-05
   3   2   3   1  0.29962596024965D+01  0.51407171502045D-06
   1   1   1   2  0.12756798882360D+02 -0.34043430015936D-05
   2   1   1   2  0.12120113920459D+02 -0.43123807718263D-05
   3   1   1   2  0.27514642084215D+01 -0.53372893157620D-05
   1   2   1   2 -0.93816512655844D+01 -0.34796040015469D-15
   2   2   1   2  0.10325936046694D+02  0.11373691304083D-05
   3   2   1   2 -0.88298149885910D+01 -0.35642573916129D-06
   1   1   2   2  0.12120107813089D+02 -0.50282037040915D-05
   2   1   2   2  0.13240694941573D+02 -0.59143003362410D-05
   3   1   2   2  0.28267034581565D+01 -0.59649502690086D-05
   1   2   2   2  0.10325936046694D+02 -0.11373691304769D-05
   2   2   2   2 -0.11181624688609D+02 -0.47916130965149D-15
   3   2   2   2 -0.58173163223063D+01 -0.11967784518318D-06
   1   1   3   2  0.27514961623612D+01  0.45006757840018D-06
   2   1   3   2  0.28267401662785D+01  0.21792951745027D-05
   3   1   3   2  0.29962596024965D+01 -0.51407171538894D-06
   1   2   3   2 -0.88298149885910D+01  0.35642573853598D-06
   2   2   3   2 -0.58173163223063D+01  0.11967784465800D-06
   3   2   3   2 -0.13300639578253D+02 -0.49194609921782D-15
 Band:  4
   1   1   1   1 -0.12365219227627D+02 -0.24765347967336D-15
   2   1   1   1 -0.10450986378595D+02 -0.13351449955581D-05
   3   1   1   1 -0.13985253807335D+00 -0.85591923304970D-06
   1   2   1   1  0.35454109852421D+01  0.65670288866421D-06
   2   2   1   1 -0.10844158129055D+01 -0.26483690510477D-06
   3   2   1   1  0.13922181600117D+01  0.16968397794949D-05
   1   1   2   1 -0.10450986378595D+02  0.13351449955915D-05
   2   1   2   1 -0.12150505664514D+02  0.84205309412583D-16
   3   1   2   1 -0.31125606277738D+01  0.48472537941315D-06
   1   2   2   1 -0.10844184789736D+01  0.10183036093450D-05
   2   2   2   1  0.13116867429722D+01  0.38319897191992D-06
   3   2   2   1  0.12771892212534D+01  0.25645142347232D-06
   1   1   3   1 -0.13985253807335D+00  0.85591923314209D-06
   2   1   3   1 -0.31125606277738D+01 -0.48472537968048D-06
   3   1   3   1 -0.22712234330354D+02 -0.66631926913372D-15
   1   2   3   1  0.13922159114395D+01 -0.61268944581318D-06
   2   2   3   1  0.12771900089568D+01 -0.81569475955296D-06
   3   2   3   1  0.29318652107202D+01  0.61136736732496D-06
   1   1   1   2  0.35454109852421D+01 -0.65670289002504D-06
   2   1   1   2 -0.10844184789736D+01 -0.10183036095304D-05
   3   1   1   2  0.13922159114395D+01  0.61268944511713D-06
   1   2   1   2 -0.12365215146534D+02 -0.29470049958122D-15
   2   2   1   2 -0.10450986672845D+02 -0.97992667443662D-06
   3   2   1   2 -0.13984856073070D+00 -0.54468828755473D-06
   1   1   2   2 -0.10844158129055D+01  0.26483690416973D-06
   2   1   2   2  0.13116867429722D+01 -0.38319897250979D-06
   3   1   2   2  0.12771900089568D+01  0.81569475969524D-06
   1   2   2   2 -0.10450986672845D+02  0.97992667410330D-06
   2   2   2   2 -0.12150507859929D+02  0.77770517018196D-16
   3   2   2   2 -0.31125602023735D+01 -0.99531120828693D-06
   1   1   3   2  0.13922181600117D+01 -0.16968397777634D-05
   2   1   3   2  0.12771892212534D+01 -0.25645142275138D-06
   3   1   3   2  0.29318652107202D+01 -0.61136736792016D-06
   1   2   3   2 -0.13984856073070D+00  0.54468828826676D-06
   2   2   3   2 -0.31125602023735D+01  0.99531120766103D-06
   3   2   3   2 -0.22712232452106D+02  0.28235460919559D-15
 Band:  5
   1   1   1   1 -0.97922509151996D+01  0.32685921224511D-15
   2   1   1   1 -0.12651086231883D+02  0.15019170149140D-05
   3   1   1   1  0.14885990756590D+01 -0.26012256989881D-05
   1   2   1   1  0.56669038319981D+01 -0.11196706486366D-05
   2   2   1   1 -0.36288673494023D+01  0.21773639389998D-06
   3   2   1   1  0.78263693086248D+00  0.64414205336917D-06
   1   1   2   1 -0.12651086231883D+02 -0.15019170145700D-05
   2   1   2   1 -0.10455149754970D+02  0.37848857351805D-15
   3   1   2   1 -0.14796350116313D+01 -0.33885734309121D-06
   1   2   2   1 -0.36288661695950D+01 -0.15183399007286D-05
   2   2   2   1  0.18322700552765D+01  0.26998365166133D-06
   3   2   2   1 -0.91751703059581D+00 -0.12628685663379D-05
   1   1   3   1  0.14885990756590D+01  0.26012256982507D-05
   2   1   3   1 -0.14796350116313D+01  0.33885734228746D-06
   3   1   3   1 -0.21614426040283D+02  0.30676113625278D-15
   1   2   3   1  0.78264027820287D+00 -0.15260465258664D-05
   2   2   3   1 -0.91752325790822D+00 -0.21944018501826D-05
   3   2   3   1  0.36599462044193D+01 -0.10773241818380D-05
   1   1   1   2  0.56669038319981D+01  0.11196706483515D-05
   2   1   1   2 -0.36288661695950D+01  0.15183399008287D-05
   3   1   1   2  0.78264027820287D+00  0.15260465249285D-05
   1   2   1   2 -0.97922540290540D+01 -0.45841215823796D-15
   2   2   1   2 -0.12651087090766D+02  0.67652630696770D-06
   3   2   1   2  0.14885935217050D+01 -0.12771253827620D-05
   1   1   2   2 -0.36288673494023D+01 -0.21773639517228D-06
   2   1   2   2  0.18322700552765D+01 -0.26998365243884D-06
   3   1   2   2 -0.91752325790822D+00  0.21944018508120D-05
   1   2   2   2 -0.12651087090766D+02 -0.67652630652734D-06
   2   2   2   2 -0.10455151126207D+02  0.56621574920473D-15
   3   2   2   2 -0.14796295427804D+01 -0.23799518960658D-05
   1   1   3   2  0.78263693086248D+00 -0.64414205451183D-06
   2   1   3   2 -0.91751703059581D+00  0.12628685661155D-05
   3   1   3   2  0.36599462044193D+01  0.10773241818406D-05
   1   2   3   2  0.14885935217050D+01  0.12771253825995D-05
   2   2   3   2 -0.14796295427804D+01  0.23799518951949D-05
   3   2   3   2 -0.21614432567663D+02 -0.22819665986010D-15
 Band:  6
   1   1   1   1 -0.42231389445980D+01  0.80308706428859D-15
   2   1   1   1  0.94416095587472D+01  0.43128341785052D-06
   3   1   1   1 -0.65510514241815D+01 -0.53791043474973D-07
   1   2   1   1  0.13899787592258D+02 -0.62846693014439D-06
   2   2   1   1  0.54586790155408D+01 -0.12336817609609D-05
   3   2   1   1 -0.18168935825622D+01  0.17481909101595D-06
   1   1   2   1  0.94416095587472D+01 -0.43128341889697D-06
   2   1   2   1 -0.42671333933307D+01 -0.13037982872631D-15
   3   1   2   1 -0.35899790391306D+01  0.33758243862691D-05
   1   2   2   1  0.54586799586828D+01 -0.40475516268155D-05
   2   2   2   1  0.17020558519282D+02 -0.44635142336494D-05
   3   2   2   1 -0.10957610987772D+00 -0.16843442838080D-05
   1   1   3   1 -0.65510514241815D+01  0.53791043760662D-07
   2   1   3   1 -0.35899790391306D+01 -0.33758243869009D-05
   3   1   3   1 -0.10512403337816D+02 -0.51350112591637D-16
   1   2   3   1 -0.18168803153867D+01 -0.25775986267111D-05
   2   2   3   1 -0.10956372444911D+00 -0.12892970388321D-05
   3   2   3   1 -0.23316798568967D+01  0.24256868492036D-06
   1   1   1   2  0.13899787592258D+02  0.62846692998406D-06
   2   1   1   2  0.54586799586828D+01  0.40475516284055D-05
   3   1   1   2 -0.18168803153867D+01  0.25775986266794D-05
   1   2   1   2 -0.42231575094029D+01  0.60285478064092D-16
   2   2   1   2  0.94415923202897D+01 -0.94230766784158D-06
   3   2   1   2 -0.65510667782817D+01  0.36799649140740D-06
   1   1   2   2  0.54586790155408D+01  0.12336817611135D-05
   2   1   2   2  0.17020558519282D+02  0.44635142344930D-05
   3   1   2   2 -0.10956372444911D+00  0.12892970385253D-05
   1   2   2   2  0.94415923202897D+01  0.94230766741057D-06
   2   2   2   2 -0.42671488448804D+01 -0.62139570466186D-15
   3   2   2   2 -0.35899965772966D+01 -0.11157403980527D-05
   1   1   3   2 -0.18168935825622D+01 -0.17481909059499D-06
   2   1   3   2 -0.10957610987772D+00  0.16843442837626D-05
   3   1   3   2 -0.23316798568967D+01 -0.24256868521641D-06
   1   2   3   2 -0.65510667782817D+01 -0.36799649136586D-06
   2   2   3   2 -0.35899965772966D+01  0.11157403978597D-05
   3   2   3   2 -0.10512410433163D+02 -0.25694630803170D-15
 Band:  7
   1   1   1   1 -0.23589817150154D+01 -0.11364623770790D-15
   2   1   1   1 -0.94510591280223D+01 -0.62785902458890D-06
   3   1   1   1 -0.14872615210231D+01 -0.10208808363784D-05
   1   2   1   1  0.48893451569348D+01  0.16587325025179D-05
   2   2   1   1 -0.30851776639007D+01  0.17027174420306D-05
   3   2   1   1 -0.22477806517104D+01 -0.17384762906177D-05
   1   1   2   1 -0.94510591280223D+01  0.62785902424681D-06
   2   1   2   1 -0.14006523153285D+01 -0.18898913301290D-15
   3   1   2   1 -0.85846044790357D+00 -0.16055183216972D-05
   1   2   2   1 -0.30851747530031D+01 -0.90980142368020D-06
   2   2   2   1  0.58251557504620D+01  0.36656342147931D-06
   3   2   2   1 -0.16473000803275D+01 -0.11732786276545D-05
   1   1   3   1 -0.14872615210231D+01  0.10208808349712D-05
   2   1   3   1 -0.85846044790358D+00  0.16055183207112D-05
   3   1   3   1 -0.83902838491269D+01 -0.69048767340092D-15
   1   2   3   1 -0.22477787368085D+01 -0.11198227950685D-05
   2   2   3   1 -0.16473001278955D+01 -0.12871790995351D-05
   3   2   3   1 -0.34256868400152D+00  0.60556458155469D-06
   1   1   1   2  0.48893451569348D+01 -0.16587325022712D-05
   2   1   1   2 -0.30851747530031D+01  0.90980142369863D-06
   3   1   1   2 -0.22477787368085D+01  0.11198227951990D-05
   1   2   1   2 -0.23589856516800D+01  0.95796468988682D-16
   2   2   1   2 -0.94510586348432D+01  0.10348916342536D-05
   3   2   1   2 -0.14872620977851D+01 -0.18590820974545D-07
   1   1   2   2 -0.30851776639007D+01 -0.17027174422481D-05
   2   1   2   2  0.58251557504620D+01 -0.36656342159975D-06
   3   1   2   2 -0.16473001278955D+01  0.12871790995796D-05
   1   2   2   2 -0.94510586348432D+01 -0.10348916339395D-05
   2   2   2   2 -0.14006504653830D+01  0.10891600332241D-15
   3   2   2   2 -0.85845802287300D+00 -0.97043266180704D-06
   1   1   3   2 -0.22477806517104D+01  0.17384762909360D-05
   2   1   3   2 -0.16473000803275D+01  0.11732786273314D-05
   3   1   3   2 -0.34256868400153D+00 -0.60556458123477D-06
   1   2   3   2 -0.14872620977851D+01  0.18590820869685D-07
   2   2   3   2 -0.85845802287300D+00  0.97043266255706D-06
   3   2   3   2 -0.83902964325826D+01 -0.44437240967952D-15
 Band:  8
   1   1   1   1 -0.13781507834817D+02 -0.60355425457758D-15
   2   1   1   1 -0.10406395836129D+02 -0.37085890660144D-05
   3   1   1   1 -0.19589069167582D+02  0.75894463739916D-07
   1   2   1   1 -0.10235640552838D+02  0.58156682813071D-06
   2   2   1   1 -0.81553163060944D+01  0.82456497216596D-06
   3   2   1   1 -0.10244007237128D+02 -0.19199747253719D-05
   1   1   2   1 -0.10406395836129D+02  0.37085890660990D-05
   2   1   2   1 -0.14003862011254D+02  0.94965438280396D-15
   3   1   2   1 -0.19704193544295D+02  0.12683650912589D-05
   1   2   2   1 -0.81553117210366D+01 -0.58301927018364D-06
   2   2   2   1 -0.10013075282986D+02 -0.15870518470157D-06
   3   2   2   1 -0.10128742590518D+02 -0.33284129501415D-05
   1   1   3   1 -0.19589069167582D+02 -0.75894464556869D-07
   2   1   3   1 -0.19704193544295D+02 -0.12683650898212D-05
   3   1   3   1 -0.27983544235372D+02 -0.20823116970092D-17
   1   2   3   1 -0.10244017264441D+02  0.36001618315837D-05
   2   2   3   1 -0.10128755893251D+02  0.27830053163392D-05
   3   2   3   1 -0.80648560267692D+01  0.54685174359911D-06
   1   1   1   2 -0.10235640552838D+02 -0.58156682872127D-06
   2   1   1   2 -0.81553117210366D+01  0.58301926932376D-06
   3   1   1   2 -0.10244017264441D+02 -0.36001618333162D-05
   1   2   1   2 -0.13781501925247D+02  0.10662755768457D-15
   2   2   1   2 -0.10406383181779D+02  0.18060290890234D-05
   3   2   1   2 -0.19589061102061D+02  0.60683906308146D-06
   1   1   2   2 -0.81553163060944D+01 -0.82456496989260D-06
   2   1   2   2 -0.10013075282986D+02  0.15870518695449D-06
   3   1   2   2 -0.10128755893251D+02 -0.27830053139376D-05
   1   2   2   2 -0.10406383181779D+02 -0.18060290873067D-05
   2   2   2   2 -0.14003843829409D+02  0.44308213398129D-15
   3   2   2   2 -0.19704181866443D+02 -0.25099038178203D-06
   1   1   3   2 -0.10244007237128D+02  0.19199747211229D-05
   2   1   3   2 -0.10128742590518D+02  0.33284129477652D-05
   3   1   3   2 -0.80648560267692D+01 -0.54685174812837D-06
   1   2   3   2 -0.19589061102061D+02 -0.60683906533861D-06
   2   2   3   2 -0.19704181866443D+02  0.25099038342709D-06
   3   2   3   2 -0.27983546262921D+02  0.23619340425631D-15
