
 **** DERIVATIVE DATABASE ****    
+DDB, Version number    100401

 C diamond EIGR2D file                                                                                                                                                                                                                                                   

    usepaw         0
     natom         2
      nkpt         8
    nsppol         1
      nsym         1
    ntypat         1
    occopt         1
     nband         8
     acell  0.67034680500000D+01  0.67034680500000D+01  0.67034680500000D+01
       amu  0.12011000000000D+02
   dilatmx  0.10000000000000D+01
      ecut  0.20000000000000D+02
    ecutsm  0.50000000000000D+00
     intxc         0
      iscf         7
       ixc         1
       kpt  0.00000000000000D+00  0.00000000000000D+00  0.00000000000000D+00
            0.50000000000000D+00  0.00000000000000D+00  0.00000000000000D+00
            0.00000000000000D+00  0.50000000000000D+00  0.00000000000000D+00
            0.50000000000000D+00  0.50000000000000D+00  0.00000000000000D+00
            0.00000000000000D+00  0.00000000000000D+00  0.50000000000000D+00
            0.50000000000000D+00  0.00000000000000D+00  0.50000000000000D+00
            0.00000000000000D+00  0.50000000000000D+00  0.50000000000000D+00
            0.50000000000000D+00  0.50000000000000D+00  0.50000000000000D+00
    kptnrm  0.10000000000000D+01
     ngfft        20   20   20
    nspden         1
   nspinor         1
       occ  0.20000000000000D+01  0.20000000000000D+01  0.20000000000000D+01
            0.20000000000000D+01  0.00000000000000D+00  0.00000000000000D+00
            0.00000000000000D+00  0.00000000000000D+00
     rprim  0.00000000000000D+00  0.50000000000000D+00  0.50000000000000D+00
            0.50000000000000D+00  0.00000000000000D+00  0.50000000000000D+00
            0.50000000000000D+00  0.50000000000000D+00  0.00000000000000D+00
  dfpt_sciss  0.00000000000000D+00
    spinat  0.00000000000000D+00  0.00000000000000D+00  0.00000000000000D+00
            0.00000000000000D+00  0.00000000000000D+00  0.00000000000000D+00
    symafm         1
    symrel         1    0    0    0    1    0    0    0    1
     tnons  0.00000000000000D+00  0.00000000000000D+00  0.00000000000000D+00
    tolwfr  0.10000000000000D+01
   tphysel  0.00000000000000D+00
    tsmear  0.10000000000000D-01
     typat         1    1
       wtk  0.12500000000000D+00  0.12500000000000D+00  0.12500000000000D+00
            0.12500000000000D+00  0.12500000000000D+00  0.12500000000000D+00
            0.12500000000000D+00  0.12500000000000D+00
      xred  0.00000000000000D+00  0.00000000000000D+00  0.00000000000000D+00
            0.25000000000000D+00  0.25000000000000D+00  0.25000000000000D+00
     znucl  0.60000000000000D+01
      zion  0.40000000000000D+01
 
  Description of the potentials (KB energies)
  vrsio8 (for pseudopotentials)=100401
  usepaw =  0
  dimekb =  1       lmnmax=  1
  Atom type=    1   pspso=  0   nekb=   1
  iln lpsang iproj  ekb(:)
     1     0     1     4.9214663E+00
 
 **** Database of total energy derivatives ****
 Number of data blocks=    3
  
 2nd eigenvalue derivatives   - # elements :      36
 qpt  0.00000000E+00  0.00000000E+00  0.00000000E+00   1.0
 K-point:  0.00000000E+00  0.00000000E+00  0.00000000E+00
 Band:  1
   1   1   1   1 -0.20746320116218D+01  0.60715321659188D-17
   2   1   1   1 -0.10783938682366D+01  0.67274684525709D-16
   3   1   1   1 -0.10748758061011D+01  0.17701702160752D-15
   1   2   1   1  0.70264218387279D+00 -0.18309983424616D-15
   2   2   1   1  0.39546381376384D+00 -0.16340648714304D-15
   3   2   1   1  0.39381919756820D+00 -0.21984785369214D-15
   1   1   2   1 -0.10783938682366D+01 -0.63371556704761D-16
   2   1   2   1 -0.20928385256432D+01  0.65052130349130D-17
   3   1   2   1 -0.10785249456739D+01  0.15775173758796D-15
   1   2   2   1  0.39546380230504D+00 -0.19401684169913D-15
   2   2   2   1  0.72284329828451D+00 -0.63029395437000D-16
   3   2   2   1  0.39581515980051D+00 -0.21000202877273D-15
   1   1   3   1 -0.10748758061011D+01 -0.17918542595249D-15
   2   1   3   1 -0.10785249456739D+01 -0.14951180107707D-15
   3   1   3   1 -0.20539902472224D+01  0.26020852139652D-17
   1   2   3   1  0.39381953071223D+00 -0.12967215983135D-15
   2   2   3   1  0.39581538061068D+00 -0.20774258006667D-16
   3   2   3   1  0.67511068732509D+00 -0.18470810166250D-15
   1   1   1   2  0.70264218387279D+00  0.20364546541476D-15
   2   1   1   2  0.39546380230504D+00  0.20144362658066D-15
   3   1   1   2  0.39381953071223D+00  0.13503896058515D-15
   1   2   1   2 -0.20746324328524D+01 -0.56378512969246D-17
   2   2   1   2 -0.10783942071278D+01 -0.13718893291245D-15
   3   2   1   2 -0.10748762019965D+01  0.38983276165373D-16
   1   1   2   2  0.39546381376384D+00  0.17679638397323D-15
   2   1   2   2  0.72284329828451D+00  0.72461954337624D-16
   3   1   2   2  0.39581538061068D+00  0.31887330274643D-16
   1   2   2   2 -0.10783942071278D+01  0.14369414594737D-15
   2   2   2   2 -0.20928384267549D+01  0.10842021724855D-16
   3   2   2   2 -0.10785253256322D+01  0.16276859126288D-15
   1   1   3   2  0.39381919756820D+00  0.23963454334000D-15
   2   1   3   2  0.39581515980051D+00  0.20181630237046D-15
   3   1   3   2  0.67511068732509D+00  0.14003897215609D-15
   1   2   3   2 -0.10748762019965D+01 -0.34646467475431D-16
   2   2   3   2 -0.10785253256322D+01 -0.15626337822797D-15
   3   2   3   2 -0.20539902801551D+01  0.61629758220392D-32
 Band:  2
   1   1   1   1 -0.26515339786307D+02  0.54817261840867D-15
   2   1   1   1 -0.25500110710288D+02 -0.37066853511797D-14
   3   1   1   1 -0.21165758932511D+02 -0.29454845696569D-14
   1   2   1   1 -0.88846656838710D+01 -0.31196718163381D-14
   2   2   1   1 -0.59109951643443D+01 -0.82065745942749D-14
   3   2   1   1 -0.56448145594394D+01 -0.87428887012227D-14
   1   1   2   1 -0.25500110710288D+02  0.39911800012398D-14
   2   1   2   1 -0.29891388455704D+02 -0.72858385991026D-15
   3   1   2   1 -0.23824958345104D+02 -0.37933475704242D-15
   1   2   2   1 -0.59109952556785D+01 -0.11971974375780D-13
   2   2   2   1 -0.11440178672942D+02  0.21646418890623D-14
   3   2   2   1 -0.58647180858082D+01 -0.93205693057957D-14
   1   1   3   1 -0.21165758932511D+02  0.23140452244013D-14
   2   1   3   1 -0.23824958345104D+02 -0.90436061518042D-15
   3   1   3   1 -0.24694163744944D+02 -0.43021142204225D-15
   1   2   3   1 -0.56448146487544D+01 -0.11957727575739D-13
   2   2   3   1 -0.58647182793520D+01 -0.12524272702619D-13
   3   2   3   1 -0.79273781159327D+01 -0.25071470760741D-14
   1   1   1   2 -0.88846656838710D+01  0.29704855974041D-14
   2   1   1   2 -0.59109952556785D+01  0.10882568032866D-13
   3   1   1   2 -0.56448146487544D+01  0.11145876988982D-13
   1   2   1   2 -0.26515337802581D+02  0.12490009027033D-15
   2   2   1   2 -0.25500108627749D+02 -0.42151125476881D-14
   3   2   1   2 -0.21165757062781D+02  0.91823310719081D-15
   1   1   2   2 -0.59109951643443D+01  0.77971798539443D-14
   2   1   2   2 -0.11440178672942D+02 -0.20050473292724D-14
   3   1   2   2 -0.58647182793520D+01  0.13225100986913D-13
   1   2   2   2 -0.25500108627749D+02  0.43122570623428D-14
   2   2   2   2 -0.29891387530434D+02 -0.50653925498523D-15
   3   2   2   2 -0.23824956413467D+02  0.31467183822006D-14
   1   1   3   2 -0.56448145594394D+01  0.77436879790600D-14
   2   1   3   2 -0.58647180858082D+01  0.90534218904953D-14
   3   1   3   2 -0.79273781159327D+01  0.34300199652938D-14
   1   2   3   2 -0.21165757062781D+02 -0.43251053391730D-15
   2   2   3   2 -0.23824956413467D+02 -0.30773294431615D-14
   3   2   3   2 -0.24694161772220D+02  0.34000580129145D-15
 Band:  3
   1   1   1   1 -0.12124759509897D+02  0.63317406873153D-16
   2   1   1   1  0.72345101031103D+01  0.14604240407692D-14
   3   1   1   1 -0.11579255998229D+02 -0.14904091674570D-14
   1   2   1   1 -0.11777391440098D+02  0.59512661562762D-14
   2   2   1   1 -0.49597948920630D+01 -0.16100647987958D-14
   3   2   1   1  0.22893990198519D+00 -0.62708172215661D-15
   1   1   2   1  0.72345101031103D+01 -0.17262704134626D-14
   2   1   2   1 -0.68501292103142D+01 -0.24893281880267D-15
   3   1   2   1 -0.20404533316858D+01 -0.18378304921671D-14
   1   2   2   1 -0.49597952228655D+01  0.19219086968652D-14
   2   2   2   1 -0.12809102116868D+02 -0.72194013378851D-14
   3   2   2   1 -0.20932197336007D+01  0.22607133903854D-14
   1   1   3   1 -0.11579255998229D+02  0.16768919411245D-14
   2   1   3   1 -0.20404533316858D+01  0.16125332807246D-14
   3   1   3   1 -0.13538675263354D+02  0.50523821237825D-16
   1   2   3   1  0.22893981975309D+00 -0.21656337503090D-14
   2   2   3   1 -0.20932197829097D+01 -0.34123841012536D-14
   3   2   3   1 -0.25287590824014D+01  0.15532685157291D-14
   1   1   1   2 -0.11777391440098D+02 -0.59946342431756D-14
   2   1   1   2 -0.49597952228655D+01 -0.16868536658704D-14
   3   1   1   2  0.22893981975309D+00  0.31817480263624D-14
   1   2   1   2 -0.12124760666834D+02  0.28536201179818D-15
   2   2   1   2  0.72345081840345D+01  0.29276193406988D-14
   3   2   1   2 -0.11579256760939D+02 -0.25465218212089D-15
   1   1   2   2 -0.49597948920630D+01  0.15909828405600D-14
   2   1   2   2 -0.12809102116868D+02  0.71467597923286D-14
   3   1   2   2 -0.20932197829097D+01  0.36185993544603D-14
   1   2   2   2  0.72345081840345D+01 -0.30130544718907D-14
   2   2   2   2 -0.68501336936926D+01 -0.19775847626136D-15
   3   2   2   2 -0.20404540543420D+01 -0.35510697302706D-14
   1   1   3   2  0.22893990198519D+00  0.46748716236674D-15
   2   1   3   2 -0.20932197336007D+01 -0.18857962791399D-14
   3   1   3   2 -0.25287590824014D+01 -0.16571350838533D-14
   1   2   3   2 -0.11579256760939D+02  0.62328092076597D-15
   2   2   3   2 -0.20404540543420D+01  0.36393237871109D-14
   3   2   3   2 -0.13538675222906D+02 -0.45536491244392D-17
 Band:  4
   1   1   1   1 -0.91676686344364D+01  0.19992688060633D-15
   2   1   1   1 -0.88632806965049D+01 -0.80051771657150D-15
   3   1   1   1  0.49942542327243D+01 -0.13318639916547D-13
   1   2   1   1 -0.77096592421113D+01  0.48881881932978D-14
   2   2   1   1 -0.31595523835771D-01  0.34479463266169D-15
   3   2   1   1 -0.48961914985309D+01  0.60598535033882D-14
   1   1   2   1 -0.88632806965049D+01  0.96214515543477D-15
   2   1   2   1 -0.11815676921472D+02  0.31136931141068D-16
   3   1   2   1 -0.14476596075260D+01 -0.44082930375155D-14
   1   2   2   1 -0.31595977176377D-01 -0.15061352559250D-14
   2   2   2   1 -0.33009131972957D+01  0.12480843806140D-14
   3   2   2   1 -0.27667515675400D+01  0.11180268826405D-14
   1   1   3   1  0.49942542327243D+01  0.13491244902407D-13
   2   1   3   1 -0.14476596075260D+01  0.45188274490004D-14
   3   1   3   1 -0.83838358563221D+01  0.12403272853234D-15
   1   2   3   1 -0.48961919309884D+01 -0.63510765118154D-14
   2   2   3   1 -0.27667503975241D+01 -0.47298843126424D-14
   3   2   3   1 -0.19208662589701D+02 -0.15137419660916D-13
   1   1   1   2 -0.77096592421113D+01 -0.49455424882223D-14
   2   1   1   2 -0.31595977176377D-01  0.84721816186053D-15
   3   1   1   2 -0.48961919309884D+01  0.77765855281993D-14
   1   2   1   2 -0.91676688595899D+01 -0.82616205543396D-16
   2   2   1   2 -0.88632810139740D+01  0.41041229065151D-15
   3   2   1   2  0.49942533842916D+01 -0.80446156502890D-15
   1   1   2   2 -0.31595523835770D-01  0.12765324026244D-15
   2   1   2   2 -0.33009131972957D+01 -0.10091262217982D-14
   3   1   2   2 -0.27667503975241D+01  0.44682121183130D-14
   1   2   2   2 -0.88632810139740D+01 -0.17467963329885D-15
   2   2   2   2 -0.11815677318137D+02 -0.32871654617045D-16
   3   2   2   2 -0.14476605866001D+01 -0.60720908675487D-15
   1   1   3   2 -0.48961914985309D+01 -0.62779949804923D-14
   2   1   3   2 -0.27667515675400D+01 -0.10717585549297D-14
   3   1   3   2 -0.19208662589701D+02  0.14193730089984D-13
   1   2   3   2  0.49942533842916D+01  0.97533182741262D-15
   2   2   3   2 -0.14476605866001D+01  0.74745063776587D-15
   3   2   3   2 -0.83838400544389D+01 -0.60628585485389D-15
 Band:  5
   1   1   1   1 -0.20010760556263D+02  0.32959746043559D-15
   2   1   1   1 -0.76091712601683D+01  0.14385267574583D-15
   3   1   1   1 -0.33944723643126D+01 -0.12579151566425D-14
   1   2   1   1  0.66775448747337D+01 -0.59923380304940D-14
   2   2   1   1  0.16957657997642D+01 -0.13657066677783D-14
   3   2   1   1  0.37445273938298D+01 -0.46999455510392D-14
   1   1   2   1 -0.76091712601683D+01 -0.12054232903740D-15
   2   1   2   1 -0.15250616732294D+02 -0.30140820395097D-16
   3   1   2   1 -0.63116630516604D+01 -0.10446428165125D-14
   1   2   2   1  0.16957644989928D+01 -0.57403648572389D-15
   2   2   2   1  0.43178317605317D+01 -0.34892099294266D-14
   3   2   2   1  0.24301090966367D+01 -0.19435276935286D-14
   1   1   3   1 -0.33944723643126D+01  0.13515902243452D-14
   2   1   3   1 -0.63116630516604D+01  0.11426546929052D-14
   3   1   3   1 -0.40089756361027D+02  0.42327252813834D-15
   1   2   3   1  0.37445292533549D+01 -0.10780195168945D-14
   2   2   3   1  0.24301121824619D+01 -0.12254477937564D-14
   3   2   3   1  0.12649393527906D+02 -0.50796064974717D-15
   1   1   1   2  0.66775448747337D+01  0.56850751348116D-14
   2   1   1   2  0.16957644989928D+01  0.66651893103691D-15
   3   1   1   2  0.37445292533549D+01  0.96439512921804D-15
   1   2   1   2 -0.20010762517446D+02  0.24502969098172D-16
   2   2   1   2 -0.76091730274161D+01  0.11307504106340D-14
   3   2   1   2 -0.33944750365202D+01  0.14692602516243D-15
   1   1   2   2  0.16957657997642D+01  0.13138818039335D-14
   2   1   2   2  0.43178317605317D+01  0.33673456052392D-14
   3   1   2   2  0.24301121824619D+01  0.78743011607221D-15
   1   2   2   2 -0.76091730274161D+01 -0.85796514403666D-15
   2   2   2   2 -0.15250616583677D+02  0.10202342443089D-15
   3   2   2   2 -0.63116662390730D+01  0.90343231302058D-15
   1   1   3   2  0.37445273938298D+01  0.51631167191250D-14
   2   1   3   2  0.24301090966367D+01  0.20762340394409D-14
   3   1   3   2  0.12649393527906D+02  0.22565619135318D-14
   1   2   3   2 -0.33944750365202D+01 -0.28613758410957D-15
   2   2   3   2 -0.63116662390730D+01 -0.90343231302058D-15
   3   2   3   2 -0.40089758300495D+02  0.88123952579622D-15
 Band:  6
   1   1   1   1 -0.28948250046782D+02  0.20816681711722D-15
   2   1   1   1 -0.95181901691798D+00 -0.95000569769761D-15
   3   1   1   1 -0.96790135128097D+01 -0.21898536614365D-15
   1   2   1   1  0.84085830999525D+01 -0.77635263303757D-15
   2   2   1   1  0.34718315945683D+01  0.16089229032379D-15
   3   2   1   1  0.11972820154830D+01  0.25746404452815D-15
   1   1   2   1 -0.95181901691797D+00  0.64295964244972D-15
   2   1   2   1 -0.28165850255988D+02  0.24242760576776D-15
   3   1   2   1 -0.50006752495268D+01 -0.52438026505724D-15
   1   2   2   1  0.34718317391136D+01 -0.10269529301886D-14
   2   2   2   1  0.93835909393347D+01  0.18724090739868D-16
   3   2   2   1  0.24220473810052D+01  0.17362950829201D-14
   1   1   3   1 -0.96790135128097D+01  0.13918808624872D-15
   2   1   3   1 -0.50006752495268D+01  0.78805823340571D-15
   3   1   3   1 -0.15836817087256D+02 -0.26020852139652D-16
   1   2   3   1  0.11972819792349D+01 -0.79660341800302D-15
   2   2   3   1  0.24220468973829D+01 -0.83700870835847D-15
   3   2   3   1  0.40150222610717D+01  0.15775793094315D-15
   1   1   1   2  0.84085830999525D+01  0.12586057593591D-14
   2   1   1   2  0.34718317391136D+01  0.71470270451277D-15
   3   1   1   2  0.11972819792349D+01  0.98048410645656D-15
   1   2   1   2 -0.28948251774951D+02 -0.13183898417424D-15
   2   2   1   2 -0.95182089080811D+00 -0.68636482167641D-15
   3   2   1   2 -0.96790148367780D+01 -0.27088227214767D-15
   1   1   2   2  0.34718315945683D+01 -0.35951812832314D-15
   2   1   2   2  0.93835909393347D+01 -0.99493972684582D-15
   3   1   2   2  0.24220468973829D+01  0.71384334156412D-15
   1   2   2   2 -0.95182089080811D+00  0.14253570224425D-14
   2   2   2   2 -0.28165851069035D+02 -0.13682631416767D-15
   3   2   2   2 -0.50006764414341D+01 -0.89020170383777D-15
   1   1   3   2  0.11972820154830D+01  0.61725075051578D-16
   2   1   3   2  0.24220473810052D+01 -0.14474636241700D-14
   3   1   3   2  0.40150222610717D+01 -0.34684278982462D-15
   1   2   3   2 -0.96790148367780D+01  0.41312959717776D-15
   2   2   3   2 -0.50006764414341D+01  0.11868394182298D-14
   3   2   3   2 -0.15836817143663D+02  0.13010426069826D-16
 Band:  7
   1   1   1   1 -0.43416913459407D+02  0.98607613152626D-31
   2   1   1   1 -0.36572241797141D+02 -0.89005568632016D-15
   3   1   1   1 -0.32024201018798D+02  0.48678076120831D-15
   1   2   1   1  0.90331219991780D+01 -0.93185722456765D-14
   2   2   1   1  0.57872591357709D+01 -0.11828048280574D-13
   3   2   1   1  0.59725289085373D+01 -0.13216450330209D-13
   1   1   2   1 -0.36572241797141D+02  0.11289956908255D-15
   2   1   2   1 -0.48253267619280D+02 -0.55511151231258D-15
   3   1   2   1 -0.33683956043034D+02  0.26389382238657D-14
   1   2   2   1  0.57872593439258D+01 -0.18462507350699D-13
   2   2   2   1  0.96960792546262D+01 -0.85934227666039D-14
   3   2   2   1  0.59651792047075D+01 -0.18676049576359D-13
   1   1   3   1 -0.32024201018798D+02  0.56793111218559D-15
   2   1   3   1 -0.33683956043034D+02 -0.32495608874095D-14
   3   1   3   1 -0.37312657365402D+02  0.72164496600635D-15
   1   2   3   1  0.59725301093228D+01 -0.10113571922679D-13
   2   2   3   1  0.59651794786547D+01 -0.99181955997060D-14
   3   2   3   1  0.83455258342381D+01 -0.69147221562289D-14
   1   1   1   2  0.90331219991780D+01  0.10095728362914D-13
   2   1   1   2  0.57872593439258D+01  0.16353083603911D-13
   3   1   1   2  0.59725301093228D+01  0.11057261493611D-13
   1   2   1   2 -0.43416913915016D+02 -0.27755575615629D-15
   2   2   1   2 -0.36572241958759D+02 -0.13579210928107D-14
   3   2   1   2 -0.32024201201597D+02 -0.29681436275880D-15
   1   1   2   2  0.57872591357709D+01  0.11550492524418D-13
   2   1   2   2  0.96960792546262D+01  0.78717778005975D-14
   3   1   2   2  0.59651794786547D+01  0.10473307112019D-13
   1   2   2   2 -0.36572241958759D+02  0.17464991514295D-14
   2   2   2   2 -0.48253266101771D+02  0.44408920985006D-15
   3   2   2   2 -0.33683956008144D+02 -0.22639177917828D-15
   1   1   3   2  0.59725289085373D+01  0.14493206808528D-13
   2   1   3   2  0.59651792047075D+01  0.18009915761584D-13
   3   1   3   2  0.83455258342381D+01  0.79694340296228D-14
   1   2   3   2 -0.32024201201597D+02  0.19258606602511D-16
   2   2   3   2 -0.33683956008144D+02  0.15031482574972D-14
   3   2   3   2 -0.37312656386236D+02  0.33306690738755D-15
 Band:  8
   1   1   1   1 -0.56946792923508D+00 -0.10408340855861D-16
   2   1   1   1  0.79184313017672D+00 -0.16512885202180D-15
   3   1   1   1  0.58109679800360D+00  0.19093511787725D-15
   1   2   1   1 -0.26657791050947D+01 -0.28744048853728D-16
   2   2   1   1 -0.25717014381704D+01 -0.46197119091730D-15
   3   2   1   1 -0.23491155718384D+01  0.60653041770339D-15
   1   1   2   1  0.79184313017672D+00 -0.13547666003808D-16
   2   1   2   1 -0.12387394519820D+00 -0.38163916471490D-16
   3   1   2   1  0.59632370975222D+00  0.24229145551667D-15
   1   2   2   1 -0.25717011361395D+01 -0.11698889747947D-15
   2   2   2   1 -0.31839292984482D+01 -0.39681366954931D-16
   3   2   2   1 -0.23760049132567D+01  0.53221299525261D-15
   1   1   3   1  0.58109679800360D+00 -0.36093801852297D-15
   2   1   3   1  0.59632370975222D+00 -0.35678320493114D-15
   3   1   3   1 -0.13832439802086D+01 -0.58980598183211D-16
   1   2   3   1 -0.23491143038923D+01  0.58398669911071D-15
   2   2   3   1 -0.23760043263822D+01  0.17913511174361D-15
   3   2   3   1 -0.17634235774252D+01  0.69381919017455D-15
   1   1   1   2 -0.26657791050947D+01 -0.21368355691403D-15
   2   1   1   2 -0.25717011361395D+01  0.71886087104069D-16
   3   1   1   2 -0.23491143038923D+01 -0.46298973666133D-15
   1   2   1   2 -0.56947115196329D+00 -0.71123662515049D-16
   2   2   1   2  0.79184057956079D+00  0.26590691432349D-15
   3   2   1   2  0.58109471588268D+00  0.22971859387493D-17
   1   1   2   2 -0.25717014381704D+01  0.47237953177316D-15
   2   1   2   2 -0.31839292984482D+01  0.26953222752186D-15
   3   1   2   2 -0.23760043263822D+01 -0.26269980629650D-17
   1   2   2   2  0.79184057956079D+00 -0.41162368630554D-15
   2   2   2   2 -0.12387442255514D+00 -0.86736173798840D-16
   3   2   2   2  0.59632212828379D+00 -0.50403880795802D-15
   1   1   3   2 -0.23491155718384D+01 -0.34068404500995D-15
   2   1   3   2 -0.23760049132567D+01 -0.53611612307356D-15
   3   1   3   2 -0.17634235774252D+01 -0.38547209231968D-15
   1   2   3   2  0.58109471588268D+00 -0.63012507597938D-16
   2   2   3   2  0.59632212828379D+00  0.34617897164413D-15
   3   2   3   2 -0.13832446567648D+01 -0.65919492087119D-16
 K-point:  5.00000000E-01  0.00000000E+00  0.00000000E+00
 Band:  1
   1   1   1   1 -0.64173226781143D+01  0.29476746564449D-17
   2   1   1   1 -0.19986869986660D+01 -0.27692596156219D-15
   3   1   1   1 -0.19722108655035D+01  0.56033739289534D-15
   1   2   1   1  0.21632555886709D+01 -0.44076242936646D-15
   2   2   1   1  0.95135016997293D+00  0.31588168063325D-15
   3   2   1   1  0.92139324926277D+00 -0.48982268945074D-16
   1   1   2   1 -0.19986869986660D+01  0.31456132947459D-15
   2   1   2   1 -0.39609936635800D+01  0.78062556418956D-16
   3   1   2   1 -0.20350698196425D+01  0.53792284477225D-16
   1   2   2   1  0.95134894793858D+00 -0.19182727403920D-16
   2   2   2   1  0.18629986711022D+01  0.19761281558152D-15
   3   2   2   1  0.99104857319384D+00  0.27999732719597D-16
   1   1   3   1 -0.19722108655035D+01 -0.38901989711548D-15
   2   1   3   1 -0.20350698196425D+01 -0.89354115734749D-16
   3   1   3   1 -0.38815651280505D+01 -0.28622937353617D-16
   1   2   3   1  0.92139331370366D+00  0.75864984789490D-15
   2   2   3   1  0.99104898507056D+00  0.37488803854560D-15
   3   2   3   1  0.17731304519114D+01  0.43452554696761D-15
   1   1   1   2  0.21632555886709D+01  0.30003298737784D-15
   2   1   1   2  0.95134894793858D+00 -0.40014711213789D-16
   3   1   1   2  0.92139331370366D+00 -0.78076757221360D-15
   1   2   1   2 -0.64173252925485D+01 -0.70689981646055D-16
   2   2   1   2 -0.19986894980594D+01  0.47826190213163D-16
   3   2   1   2 -0.19722127556808D+01 -0.17139917132768D-15
   1   1   2   2  0.95135016997293D+00 -0.26633025321887D-15
   2   1   2   2  0.18629986711022D+01 -0.19272035327818D-15
   3   1   2   2  0.99104898507056D+00 -0.37259766145623D-15
   1   2   2   2 -0.19986894980594D+01  0.13946228564199D-16
   2   2   2   2 -0.39609934790799D+01 -0.27105054312138D-18
   3   2   2   2 -0.20350705517941D+01 -0.34905059954127D-16
   1   1   3   2  0.92139324926277D+00  0.98150837467292D-16
   2   1   3   2  0.99104857319384D+00  0.25844457671465D-16
   3   1   3   2  0.17731304519114D+01 -0.38617013007475D-15
   1   2   3   2 -0.19722127556808D+01 -0.24290158383334D-15
   2   2   3   2 -0.20350705517941D+01  0.20105700299700D-16
   3   2   3   2 -0.38815651043016D+01  0.14365678785433D-17
 Band:  2
   1   1   1   1 -0.15633467797551D+02 -0.80176750655303D-16
   2   1   1   1 -0.27404180043363D+01  0.88286058909426D-15
   3   1   1   1 -0.27389915753797D+01  0.17219681853462D-15
   1   2   1   1  0.29272196032680D+01 -0.20371798958338D-15
   2   2   1   1 -0.98700349762612D-01  0.93436211009574D-18
   3   2   1   1 -0.96717562052976D-01  0.14459681033239D-16
   1   1   2   1 -0.27404180043363D+01 -0.70206987683230D-15
   2   1   2   1 -0.54788021252984D+01  0.52041704279304D-17
   3   1   2   1 -0.27424503373534D+01 -0.13498402223325D-15
   1   2   2   1 -0.98700856599639D-01  0.58332958761715D-15
   2   2   2   1 -0.19483748561816D+00  0.14192959620530D-15
   3   2   2   1 -0.10126490999728D+00 -0.66267446935171D-16
   1   1   3   1 -0.27389915753797D+01  0.12330248357630D-15
   2   1   3   1 -0.27424503373534D+01  0.15580070394497D-15
   3   1   3   1 -0.54745231175431D+01  0.69388939039072D-17
   1   2   3   1 -0.96717499513849D-01 -0.16078378906325D-15
   2   2   3   1 -0.10126466081290D+00  0.67504791230820D-16
   3   2   3   1 -0.18888728504216D+00 -0.98281014148957D-16
   1   1   1   2  0.29272196032680D+01  0.27305271851383D-15
   2   1   1   2 -0.98700856599639D-01 -0.62127666365414D-15
   3   1   1   2 -0.96717499513850D-01  0.20921708812623D-16
   1   2   1   2 -0.15633467496177D+02 -0.18279648628106D-15
   2   2   1   2 -0.27404176435684D+01 -0.74484686912039D-16
   3   2   1   2 -0.27389911583885D+01 -0.36652540253420D-15
   1   1   2   2 -0.98700349762612D-01  0.99896439931056D-16
   2   1   2   2 -0.19483748561816D+00  0.87921264361628D-16
   3   1   2   2 -0.10126466081290D+00 -0.11867913377214D-15
   1   2   2   2 -0.27404176435684D+01  0.11839487489770D-15
   2   2   2   2 -0.54788019604895D+01 -0.47704895589362D-16
   3   2   2   2 -0.27424505914128D+01  0.21819171207387D-15
   1   1   3   2 -0.96717562052976D-01  0.25795966733090D-15
   2   1   3   2 -0.10126490999728D+00  0.81879958218962D-16
   3   1   3   2 -0.18888728504216D+00 -0.73890290841741D-16
   1   2   3   2 -0.27389911583885D+01  0.36251385449600D-15
   2   2   3   2 -0.27424505914128D+01 -0.13319026175101D-15
   3   2   3   2 -0.54745231960150D+01 -0.24719809532670D-15
 Band:  3
   1   1   1   1 -0.20536612506942D+02 -0.17043658151472D-15
   2   1   1   1 -0.18173665078951D+02  0.34974194903823D-14
   3   1   1   1 -0.18291097366824D+02 -0.10554682438225D-13
   1   2   1   1 -0.45304992186070D+00 -0.22954377913332D-14
   2   2   1   1 -0.46404611506553D+01 -0.86398826850204D-14
   3   2   1   1 -0.85472909738639D-01  0.66526842834455D-15
   1   1   2   1 -0.18173665078951D+02 -0.35885466829797D-14
   2   1   2   1 -0.26292417121722D+02  0.37036346212105D-15
   3   1   2   1 -0.28181589216448D+02 -0.27445715288951D-13
   1   2   2   1 -0.46404619844940D+01  0.41622333386702D-14
   2   2   2   1 -0.15234104062516D+02 -0.41716614165146D-15
   3   2   2   1 -0.30517476978430D+00  0.14276283140106D-14
   1   1   3   1 -0.18291097366824D+02  0.98519025900203D-14
   2   1   3   1 -0.28181589216449D+02  0.27653882106069D-13
   3   1   3   1 -0.26596968994131D+02  0.65919492087119D-16
   1   2   3   1 -0.85472686440712D-01 -0.10587049525055D-13
   2   2   3   1 -0.30517423208149D+00 -0.30840903302711D-13
   3   2   3   1 -0.27613264953318D+01  0.10517030490165D-14
   1   1   1   2 -0.45304992186070D+00  0.21590180529802D-14
   2   1   1   2 -0.46404619844940D+01 -0.30654340921932D-14
   3   1   1   2 -0.85472686440713D-01  0.10229506753623D-13
   1   2   1   2 -0.20536612510239D+02  0.31010215012159D-15
   2   2   1   2 -0.18173665469434D+02  0.77228467375649D-14
   3   2   1   2 -0.18291096966776D+02 -0.16545126535625D-14
   1   1   2   2 -0.46404611506553D+01  0.78436446095470D-14
   2   1   2   2 -0.15234104062516D+02 -0.22844488317479D-14
   3   1   2   2 -0.30517423208149D+00  0.29866856070950D-13
   1   2   2   2 -0.18173665469434D+02 -0.85747043844868D-14
   2   2   2   2 -0.26292419397043D+02  0.69388939039074D-17
   3   2   2   2 -0.28181588409795D+02 -0.68396823488764D-14
   1   1   3   2 -0.85472909738638D-01 -0.13183918170498D-14
   2   1   3   2 -0.30517476978430D+00 -0.36524111719508D-14
   3   1   3   2 -0.27613264953318D+01 -0.28688258901022D-14
   1   2   3   2 -0.18291096966776D+02  0.13819442273997D-14
   2   2   3   2 -0.28181588409795D+02  0.58092566041462D-14
   3   2   3   2 -0.26596968404740D+02  0.35388358909927D-15
 Band:  4
   1   1   1   1 -0.97999299021828D+01 -0.60417166061755D-16
   2   1   1   1  0.15373135058157D-01 -0.24937456606613D-14
   3   1   1   1 -0.11241636751956D+01  0.22878207427055D-14
   1   2   1   1 -0.36175487653489D+01  0.12189794123762D-14
   2   2   1   1 -0.55062759586848D+01 -0.33287458077908D-14
   3   2   1   1 -0.88459003525964D+01  0.89135049505467D-14
   1   1   2   1  0.15373135058157D-01  0.25014299435588D-14
   2   1   2   1 -0.66513071506053D+01 -0.12273168592536D-15
   3   1   2   1  0.11709726545503D+02  0.12519034257178D-13
   1   2   2   1 -0.55062766101552D+01 -0.16750172028179D-14
   2   2   2   1 -0.83529083128716D+01 -0.11130119215022D-13
   3   2   2   1 -0.11488331987529D+02  0.58402041816518D-14
   1   1   3   1 -0.11241636751956D+01 -0.25161740490217D-14
   2   1   3   1  0.11709726545503D+02 -0.12278395584995D-13
   3   1   3   1 -0.63467565264956D+01 -0.96781306926918D-15
   1   2   3   1 -0.88459007090920D+01  0.74471219589834D-14
   2   2   3   1 -0.11488330890827D+02 -0.15680534277602D-14
   3   2   3   1 -0.20825685602498D+02  0.37901690437298D-13
   1   1   1   2 -0.36175487653489D+01 -0.14411087205960D-14
   2   1   1   2 -0.55062766101552D+01  0.15427716428290D-14
   3   1   1   2 -0.88459007090920D+01 -0.76709283924388D-14
   1   2   1   2 -0.97999297747138D+01 -0.10571860566328D-15
   2   2   1   2  0.15372344417175D-01  0.33607310499341D-14
   3   2   1   2 -0.11241645437192D+01 -0.47791919682206D-14
   1   1   2   2 -0.55062759586848D+01  0.36945827258417D-14
   2   1   2   2 -0.83529083128716D+01  0.10438777699737D-13
   3   1   2   2 -0.11488330890827D+02  0.16194446107360D-14
   1   2   2   2  0.15372344417175D-01 -0.39734340263964D-14
   2   2   2   2 -0.66513092787437D+01  0.26031694161377D-15
   3   2   2   2  0.11709723972441D+02 -0.17602694045586D-13
   1   1   3   2 -0.88459003525964D+01 -0.94828466163732D-14
   2   1   3   2 -0.11488331987529D+02 -0.61327219277884D-14
   3   1   3   2 -0.20825685602498D+02 -0.38609023934628D-13
   1   2   3   2 -0.11241645437192D+01  0.45830055851093D-14
   2   2   3   2  0.11709723972441D+02  0.17566048012156D-13
   3   2   3   2 -0.63467602829486D+01  0.64618449480137D-16
 Band:  5
   1   1   1   1  0.11709415573286D+02 -0.83591987498632D-16
   2   1   1   1  0.11672607387787D+02  0.55829901434573D-14
   3   1   1   1  0.27136910722259D+02 -0.10673262057211D-13
   1   2   1   1 -0.22430647477482D+02  0.66444201308845D-15
   2   2   1   1 -0.14531622930263D+02  0.65235683864635D-14
   3   2   1   1 -0.34522470828303D+02  0.22597950178144D-13
   1   1   2   1  0.11672607387787D+02 -0.57637266456106D-14
   2   1   2   1 -0.22333665912035D+01  0.10842021724855D-16
   3   1   2   1  0.23838113567172D+02 -0.16798371880048D-13
   1   2   2   1 -0.14531621424526D+02  0.52711466262340D-14
   2   2   2   1 -0.88292222805121D+01  0.65552880535646D-14
   3   2   2   1 -0.22331326407098D+02  0.25357316123520D-13
   1   1   3   1  0.27136910722259D+02  0.10807919967033D-13
   2   1   3   1  0.23838113567172D+02  0.16710334663642D-13
   3   1   3   1  0.30044547180701D+02  0.35908775952720D-15
   1   2   3   1 -0.34522474000486D+02 -0.85073143639955D-14
   2   2   3   1 -0.22331331854861D+02  0.16802914485828D-14
   3   2   3   1 -0.55714437239331D+02  0.17112242240316D-13
   1   1   1   2 -0.22430647477482D+02 -0.60939164778050D-15
   2   1   1   2 -0.14531621424526D+02 -0.55949978151554D-14
   3   1   1   2 -0.34522474000486D+02  0.85836421969385D-14
   1   2   1   2  0.11709423901190D+02 -0.12519824586776D-15
   2   2   1   2  0.11672615074332D+02 -0.54244885860842D-14
   3   2   1   2  0.27136918031566D+02 -0.22071034098791D-13
   1   1   2   2 -0.14531622930263D+02 -0.65316999027571D-14
   2   1   2   2 -0.88292222805121D+01 -0.68963780570285D-14
   3   1   2   2 -0.22331331854861D+02 -0.15050843775091D-14
   1   2   2   2  0.11672615074332D+02  0.60185229563890D-14
   2   2   2   2 -0.22333578362983D+01 -0.19385534844041D-15
   3   2   2   2  0.23838119828273D+02 -0.74068556730901D-14
   1   1   3   2 -0.34522470828303D+02 -0.22663002308493D-13
   2   1   3   2 -0.22331326407098D+02 -0.25356015080913D-13
   3   1   3   2 -0.55714437239331D+02 -0.17525973789336D-13
   1   2   3   2  0.27136918031566D+02  0.22401932601834D-13
   2   2   3   2  0.23838119828273D+02  0.74146619287320D-14
   3   2   3   2  0.30044552216661D+02  0.25326962749261D-15
 Band:  6
   1   1   1   1 -0.13392504513782D+02  0.17347234759767D-17
   2   1   1   1 -0.41459030691462D+01  0.18867693059670D-13
   3   1   1   1 -0.14495447531043D+02 -0.13204816004809D-13
   1   2   1   1 -0.81349812740323D+01 -0.56099733775583D-14
   2   2   1   1 -0.18473590018057D+02 -0.50680261603416D-14
   3   2   1   1 -0.35868673037776D+01 -0.27907914824524D-14
   1   1   2   1 -0.41459030691462D+01 -0.18368092698589D-13
   2   1   2   1  0.75308037225891D+01 -0.18041124150159D-15
   3   1   2   1 -0.21189397203044D+02 -0.44484269668915D-13
   1   2   2   1 -0.18473590222312D+02 -0.23198823520806D-14
   2   2   2   1 -0.47453896372530D+02  0.31914375405958D-13
   3   2   2   1 -0.58102321170759D+01 -0.11554963682073D-13
   1   1   3   1 -0.14495447531043D+02  0.13326246648127D-13
   2   1   3   1 -0.21189397203044D+02  0.44512025244531D-13
   3   1   3   1 -0.24747112609349D+02  0.10408340855861D-16
   1   2   3   1 -0.35868651351326D+01 -0.92550385619407D-14
   2   2   3   1 -0.58102303139853D+01 -0.33057811535206D-13
   3   2   3   1 -0.56867973573199D+00  0.10840143965712D-13
   1   1   1   2 -0.81349812740323D+01  0.49741972236128D-14
   2   1   1   2 -0.18473590222312D+02  0.17109944120127D-14
   3   1   1   2 -0.35868651351326D+01  0.95568804467607D-14
   1   2   1   2 -0.13392505288873D+02 -0.17087026238372D-15
   2   2   1   2 -0.41459041808184D+01 -0.17241666571763D-13
   3   2   1   2 -0.14495448154460D+02  0.63458155517219D-14
   1   1   2   2 -0.18473590018057D+02  0.32348571271031D-14
   2   1   2   2 -0.47453896372530D+02 -0.33731498247044D-13
   3   1   2   2 -0.58102303139853D+01  0.33301540183581D-13
   1   2   2   2 -0.41459041808184D+01  0.16513082711853D-13
   2   2   2   2  0.75307995080159D+01 -0.26194324487250D-15
   3   2   2   2 -0.21189395226573D+02  0.25771745445163D-13
   1   1   3   2 -0.35868673037776D+01  0.16363330091898D-14
   2   1   3   2 -0.58102321170759D+01  0.10788215905691D-13
   3   1   3   2 -0.56867973573199D+00 -0.11339744326793D-13
   1   2   3   2 -0.14495448154460D+02 -0.78324735706340D-14
   2   2   3   2 -0.21189395226573D+02 -0.26620892586653D-13
   3   2   3   2 -0.24747111917338D+02 -0.17000290064573D-15
 Band:  7
   1   1   1   1 -0.63740108250568D+01  0.51694759584109D-15
   2   1   1   1 -0.62509914946171D+01 -0.12095996587557D-15
   3   1   1   1 -0.40008305134229D+01 -0.12338336403606D-14
   1   2   1   1  0.21708409993564D+01 -0.80660998927054D-15
   2   2   1   1  0.53304609873574D+01 -0.39997444023851D-15
   3   2   1   1  0.31294412592147D+01  0.10181469443934D-15
   1   1   2   1 -0.62509914946171D+01  0.23892116224199D-15
   2   1   2   1 -0.10347206641123D+02 -0.14791141972894D-30
   3   1   2   1 -0.84057669411598D+01  0.46821276266611D-15
   1   2   2   1  0.53304595239909D+01 -0.13309165270594D-14
   2   2   2   1  0.85723974510769D+01 -0.84671911284452D-15
   3   2   2   1  0.74189826656599D+01 -0.73854926793611D-15
   1   1   3   1 -0.40008305134229D+01  0.85913336954956D-15
   2   1   3   1 -0.84057669411598D+01 -0.48209055047392D-15
   3   1   3   1 -0.35967248925777D+01 -0.16653345369377D-15
   1   2   3   1  0.31294422848424D+01 -0.56728179094351D-15
   2   2   3   1  0.74189844745237D+01  0.51515064929978D-16
   3   2   3   1  0.19693409127486D+01  0.13184292298685D-14
   1   1   1   2  0.21708409993564D+01  0.83783501183812D-15
   2   1   1   2  0.53304595239909D+01  0.97703293796016D-15
   3   1   1   2  0.31294422848424D+01  0.82402086538807D-15
   1   2   1   2 -0.63740100767934D+01  0.27755575615629D-15
   2   2   1   2 -0.62509905227050D+01 -0.33023300415659D-15
   3   2   1   2 -0.40008307457086D+01 -0.15061906403792D-14
   1   1   2   2  0.53304609873574D+01  0.24037988044864D-15
   2   1   2   2  0.85723974510769D+01  0.52059109936088D-15
   3   1   2   2  0.74189844745237D+01  0.42160002772769D-16
   1   2   2   2 -0.62509905227050D+01  0.73962774448712D-15
   2   2   2   2 -0.10347205673225D+02  0.62450045135165D-16
   3   2   2   2 -0.84057680443242D+01  0.18817622049325D-15
   1   1   3   2  0.31294412592147D+01 -0.11742720572314D-15
   2   1   3   2  0.74189826656599D+01  0.98834944847677D-15
   3   1   3   2  0.19693409127486D+01 -0.76331771755590D-15
   1   2   3   2 -0.40008307457086D+01  0.17178269044484D-14
   2   2   3   2 -0.84057680443242D+01 -0.82608508775010D-18
   3   2   3   2 -0.35967234347043D+01  0.16653345369377D-15
 Band:  8
   1   1   1   1 -0.23686836753220D+02  0.13209919269563D-14
   2   1   1   1 -0.57576773384644D+01  0.10772966505714D-14
   3   1   1   1 -0.57934979416565D+01 -0.83837304470723D-15
   1   2   1   1 -0.82253753758555D+01 -0.11246213350404D-15
   2   2   1   1  0.83706980039794D+00  0.16573587246906D-14
   3   2   1   1  0.80082942709047D+00 -0.30818814731167D-15
   1   1   2   1 -0.57576773384644D+01 -0.16925271733483D-14
   2   1   2   1 -0.11549415324854D+02 -0.59671777068171D-16
   3   1   2   1 -0.57236162831395D+01 -0.70000012881769D-15
   1   2   2   1  0.83707091536695D+00  0.92080244298107D-15
   2   2   2   1  0.16395135510616D+01  0.39172019816054D-15
   3   2   2   1  0.87169709208000D+00  0.34197160211477D-15
   1   1   3   1 -0.57934979416565D+01  0.11523037837504D-14
   2   1   3   1 -0.57236162831395D+01  0.54897076619046D-15
   3   1   3   1 -0.11656864696169D+02  0.52638015474171D-16
   1   2   3   1  0.80083876297785D+00 -0.34504257331958D-14
   2   2   3   1  0.87169735702791D+00  0.23450927261566D-15
   3   2   3   1  0.15308044082025D+01  0.55280532716581D-15
   1   1   1   2 -0.82253753758555D+01 -0.10567414893043D-14
   2   1   1   2  0.83707091536695D+00 -0.96552578259610D-15
   3   1   1   2  0.80083876297785D+00  0.46282533174909D-15
   1   2   1   2 -0.23686836982980D+02  0.76327832942980D-16
   2   2   1   2 -0.57576777145229D+01 -0.18674861086960D-14
   3   2   1   2 -0.57934901672955D+01  0.23628505806078D-15
   1   1   2   2  0.83706980039794D+00 -0.10597464872166D-14
   2   1   2   2  0.16395135510616D+01 -0.10266512271232D-15
   3   1   2   2  0.87169735702791D+00 -0.50835841259476D-15
   1   2   2   2 -0.57576777145230D+01  0.13574774067588D-14
   2   2   2   2 -0.11549415854878D+02  0.46143644460983D-15
   3   2   2   2 -0.57236169437006D+01  0.90615580995525D-15
   1   1   3   2  0.80082942709047D+00  0.10931505201912D-14
   2   1   3   2  0.87169709208000D+00 -0.23317190565263D-17
   3   1   3   2  0.15308044082025D+01 -0.50163776088807D-15
   1   2   3   2 -0.57934901672955D+01 -0.16587583083618D-14
   2   2   3   2 -0.57236169437006D+01 -0.48288328181691D-15
   3   2   3   2 -0.11656865221116D+02 -0.15265566588596D-15
 K-point:  0.00000000E+00  5.00000000E-01  0.00000000E+00
 Band:  1
   1   1   1   1 -0.39492145492238D+01 -0.35561831257525D-16
   2   1   1   1 -0.19968568006161D+01  0.51266464143137D-15
   3   1   1   1 -0.20413568914994D+01 -0.41342816085087D-16
   1   2   1   1  0.18503156440451D+01  0.17598350908833D-14
   2   2   1   1  0.94946476151322D+00  0.12740173434054D-15
   3   2   1   1  0.99807905408281D+00  0.79534915358651D-15
   1   1   2   1 -0.19968568006161D+01 -0.51029294917906D-15
   2   1   2   1 -0.64194183322087D+01  0.11104263125325D-15
   3   1   2   1 -0.19803286369885D+01 -0.91881313771933D-15
   1   2   2   1  0.94946516591807D+00  0.73117096602515D-15
   2   2   2   1  0.21655980739891D+01 -0.32036372569485D-15
   3   2   2   1  0.93030832180525D+00  0.93761875350295D-15
   1   1   3   1 -0.20413568914994D+01  0.14454602207447D-16
   2   1   3   1 -0.19803286369885D+01  0.78038762534724D-15
   3   1   3   1 -0.38996309073169D+01  0.15612511283791D-16
   1   2   3   1  0.99807970326371D+00  0.10684599102153D-14
   2   2   3   1  0.93030806242765D+00 -0.62299380593526D-15
   3   2   3   1  0.17928444066729D+01  0.14716691529867D-14
   1   1   1   2  0.18503156440451D+01 -0.17569348500719D-14
   2   1   1   2  0.94946516591807D+00 -0.77614163926078D-15
   3   1   1   2  0.99807970326371D+00 -0.10979095517255D-14
   1   2   1   2 -0.39492156191910D+01  0.92157184661265D-18
   2   2   1   2 -0.19968583056518D+01  0.16229967993299D-15
   3   2   1   2 -0.20413577480354D+01  0.18697995811524D-15
   1   1   2   2  0.94946476151322D+00 -0.21218634422891D-15
   2   1   2   2  0.21655980739891D+01  0.26776636780215D-15
   3   1   2   2  0.93030806242765D+00  0.71840359711399D-15
   1   2   2   2 -0.19968583056518D+01 -0.16875068285928D-15
   2   2   2   2 -0.64194195504731D+01  0.65702651652622D-16
   3   2   2   2 -0.19803307467792D+01 -0.53135934627915D-15
   1   1   3   2  0.99807905408281D+00 -0.81554241904905D-15
   2   1   3   2  0.93030832180525D+00 -0.87243787414584D-15
   3   1   3   2  0.17928444066729D+01 -0.14461497443518D-14
   1   2   3   2 -0.20413577480354D+01 -0.21500658427399D-15
   2   2   3   2 -0.19803307467792D+01  0.36113960519893D-15
   3   2   3   2 -0.38996310681446D+01  0.22876665839444D-16
 Band:  2
   1   1   1   1 -0.54781351856848D+01  0.00000000000000D+00
   2   1   1   1 -0.27403095019386D+01 -0.22904300621353D-15
   3   1   1   1 -0.27427931005737D+01 -0.31365603047767D-16
   1   2   1   1 -0.19402551310559D+00  0.80133251395449D-16
   2   2   1   1 -0.98584067623413D-01  0.17509877881617D-15
   3   2   1   1 -0.10172664681122D+00 -0.33128929292576D-16
   1   1   2   1 -0.27403095019386D+01  0.13872896524548D-15
   2   1   2   1 -0.15633582732848D+02  0.22638141361497D-15
   3   1   2   1 -0.27394421796800D+01 -0.32157081740977D-15
   1   2   2   1 -0.98584135707565D-01  0.80464489197546D-17
   2   2   2   1  0.29270650041304D+01 -0.24700802854520D-15
   3   2   2   1 -0.97295436694842D-01  0.15269215166214D-15
   1   1   3   1 -0.27427931005737D+01  0.52182284759489D-16
   2   1   3   1 -0.27394421796800D+01  0.52372031246969D-15
   3   1   3   1 -0.54755326141541D+01 -0.26020852139652D-16
   1   2   3   1 -0.10172636205710D+00 -0.29568878645411D-15
   2   2   3   1 -0.97295775025780D-01 -0.19739566727005D-16
   3   2   3   1 -0.19016047555426D+00 -0.12993255471548D-15
   1   1   1   2 -0.19402551310559D+00 -0.25043758454864D-17
   2   1   1   2 -0.98584135707565D-01  0.62657085253456D-16
   3   1   1   2 -0.10172636205710D+00  0.65837925887185D-16
   1   2   1   2 -0.54781350470771D+01 -0.10668549377257D-15
   2   2   1   2 -0.27403089806451D+01 -0.58387498505851D-15
   3   2   1   2 -0.27427932512175D+01 -0.15102401498040D-15
   1   1   2   2 -0.98584067623413D-01  0.93349679091240D-16
   2   1   2   2  0.29270650041304D+01  0.13525090700448D-16
   3   1   2   2 -0.97295775025780D-01 -0.36493536407085D-15
   1   2   2   2 -0.27403089806451D+01  0.37039557729611D-15
   2   2   2   2 -0.15633579162997D+02  0.41080420315476D-15
   3   2   2   2 -0.27394418053609D+01 -0.28902771495048D-15
   1   1   3   2 -0.10172664681122D+00  0.40501504065478D-16
   2   1   3   2 -0.97295436694842D-01  0.47207623889879D-16
   3   1   3   2 -0.19016047555426D+00  0.17460168422188D-15
   1   2   3   2 -0.27427932512175D+01  0.17791222885804D-15
   2   2   3   2 -0.27394418053609D+01  0.36091031898627D-15
   3   2   3   2 -0.54755324880990D+01 -0.15525775109992D-15
 Band:  3
   1   1   1   1 -0.27488408163165D+02  0.38619281383934D-15
   2   1   1   1 -0.19554697934345D+02  0.19344218253965D-15
   3   1   1   1 -0.31175905556053D+02 -0.24228440485748D-14
   1   2   1   1 -0.12029201741885D+02  0.10901498583228D-13
   2   2   1   1 -0.27727243305520D+01  0.10502509005661D-14
   3   2   1   1  0.17514079260916D+01 -0.57944891526264D-14
   1   1   2   1 -0.19554697934345D+02  0.45045193517233D-15
   2   1   2   1 -0.21528773346031D+02  0.10408340855861D-16
   3   1   2   1 -0.19895508073920D+02  0.18291833945154D-14
   1   2   2   1 -0.27727241639240D+01  0.25203917931643D-14
   2   2   2   1  0.29225622679358D+00 -0.63922613548013D-15
   3   2   2   1  0.19313444387262D+00 -0.22671635793088D-14
   1   1   3   1 -0.31175905556053D+02  0.43909962522878D-14
   2   1   3   1 -0.19895508073920D+02 -0.66572604322117D-15
   3   1   3   1 -0.28395294039856D+02  0.58980598183211D-15
   1   2   3   1  0.17514082049473D+01 -0.12258636406625D-13
   2   2   3   1  0.19313403541894D+00 -0.35588840529771D-14
   3   2   3   1 -0.39096470734808D+01  0.32273952156396D-14
   1   1   1   2 -0.12029201741885D+02 -0.98504187871116D-14
   2   1   1   2 -0.27727241639240D+01 -0.10701629672476D-14
   3   1   1   2  0.17514082049473D+01  0.12723975979055D-13
   1   2   1   2 -0.27488407852889D+02 -0.13808398868775D-14
   2   2   1   2 -0.19554697879482D+02 -0.20313577361489D-14
   3   2   1   2 -0.31175905022974D+02 -0.78771016582446D-14
   1   1   2   2 -0.27727243305520D+01  0.12833954136375D-15
   2   1   2   2  0.29225622679358D+00  0.16827978315517D-14
   3   1   2   2  0.19313403541894D+00  0.44683399403122D-14
   1   2   2   2 -0.19554697879482D+02  0.80631770145758D-15
   2   2   2   2 -0.21528773024890D+02 -0.98611914532525D-15
   3   2   2   2 -0.19895507907854D+02 -0.34452892320510D-14
   1   1   3   2  0.17514079260916D+01  0.56277388584981D-14
   2   1   3   2  0.19313444387263D+00  0.22255302158854D-14
   3   1   3   2 -0.39096470734808D+01 -0.35097214613548D-14
   1   2   3   2 -0.31175905022974D+02  0.54415498979732D-14
   2   2   3   2 -0.19895507907854D+02  0.30839246479616D-14
   3   2   3   2 -0.28395293910781D+02 -0.12351231148955D-14
 Band:  4
   1   1   1   1 -0.54553157056562D+01 -0.74159428598008D-16
   2   1   1   1  0.10185355973216D+01  0.79057322531511D-14
   3   1   1   1  0.14704043644186D+02  0.25065419826577D-13
   1   2   1   1 -0.11557812209549D+02 -0.15850437924303D-13
   2   2   1   1 -0.70056739001227D+01 -0.72704525687631D-14
   3   2   1   1 -0.13544914302044D+02  0.56706284294360D-14
   1   1   2   1  0.10185355973216D+01 -0.76880786670246D-14
   2   1   2   1 -0.90052217152901D+01 -0.27164007805267D-15
   3   1   2   1  0.56194066154565D+00  0.31158631011917D-14
   1   2   2   1 -0.70056758451440D+01 -0.43392362903193D-16
   2   2   2   1 -0.41713301418829D+01  0.13578243940119D-14
   3   2   2   1 -0.92055595029744D+01  0.15152913077860D-13
   1   1   3   1  0.14704043644186D+02 -0.24317754008431D-13
   2   1   3   1  0.56194066154565D+00 -0.37864421448739D-14
   3   1   3   1 -0.45484296226227D+01 -0.62450045135165D-15
   1   2   3   1 -0.13544915356843D+02  0.82323872801060D-14
   2   2   3   1 -0.92055577388550D+01  0.79204459435161D-14
   3   2   3   1 -0.19677366056502D+02  0.42253092765672D-13
   1   1   1   2 -0.11557812209549D+02  0.15025902172128D-13
   2   1   1   2 -0.70056758451440D+01 -0.33198553426560D-15
   3   1   1   2 -0.13544915356843D+02 -0.83078477513110D-14
   1   2   1   2 -0.54553165334336D+01 -0.35778671692022D-16
   2   2   1   2  0.10185339502201D+01 -0.17754511662841D-14
   3   2   1   2  0.14704041433149D+02 -0.20352260214864D-13
   1   1   2   2 -0.70056739001227D+01  0.62935931876172D-14
   2   1   2   2 -0.41713301418829D+01 -0.14605614437009D-14
   3   1   2   2 -0.92055577388550D+01 -0.62882100660252D-14
   1   2   2   2  0.10185339502201D+01  0.22319409384819D-14
   2   2   2   2 -0.90052227935858D+01 -0.12603998485910D-15
   3   2   2   2  0.56193746631275D+00 -0.85960842161764D-14
   1   1   3   2 -0.13544914302044D+02 -0.57534614754139D-14
   2   1   3   2 -0.92055595029744D+01 -0.14812121229994D-13
   3   1   3   2 -0.19677366056502D+02 -0.41170842157097D-13
   1   2   3   2  0.14704041433149D+02  0.21102067332300D-13
   2   2   3   2  0.56193746631275D+00  0.81750139737009D-14
   3   2   3   2 -0.45484346809574D+01 -0.13753104557979D-15
 Band:  5
   1   1   1   1  0.42397799374434D+01  0.14170522394386D-15
   2   1   1   1  0.17351214519630D+02 -0.59611861667065D-14
   3   1   1   1  0.31046297026732D+02 -0.21043681398881D-13
   1   2   1   1 -0.16668530195797D+02  0.74575916659622D-14
   2   2   1   1 -0.20197464892593D+02  0.66881863609762D-14
   3   2   1   1 -0.28390524097441D+02  0.11081629780118D-13
   1   1   2   1  0.17351214519630D+02  0.64091785043775D-14
   2   1   2   1  0.14805485114789D+02  0.29056618222612D-16
   3   1   2   1  0.29706569720461D+02 -0.14908083217830D-13
   1   2   2   1 -0.20197465104891D+02  0.65436134141423D-14
   2   2   2   1 -0.25091217750767D+02  0.19352003944047D-14
   3   2   2   1 -0.35877146083046D+02  0.35328307511844D-14
   1   1   3   1  0.31046297026732D+02  0.21290012132470D-13
   2   1   3   1  0.29706569720461D+02  0.15023876009852D-13
   3   1   3   1  0.30779582287783D+02 -0.51521287236511D-15
   1   2   3   1 -0.28390528136246D+02  0.58373197968123D-15
   2   2   3   1 -0.35877150371000D+02 -0.98903926584710D-14
   3   2   3   1 -0.53934324089867D+02 -0.15261669982244D-13
   1   1   1   2 -0.16668530195797D+02 -0.80650701432058D-14
   2   1   1   2 -0.20197465104891D+02 -0.64011492486777D-14
   3   1   1   2 -0.28390528136246D+02 -0.36298841736318D-15
   1   2   1   2  0.42397884917259D+01 -0.82399365108897D-17
   2   2   1   2  0.17351223859132D+02  0.65445926146425D-14
   3   2   1   2  0.31046305341181D+02  0.82048257417545D-14
   1   1   2   2 -0.20197464892593D+02 -0.64133411102511D-14
   2   1   2   2 -0.25091217750767D+02 -0.19714805096015D-14
   3   1   2   2 -0.35877150371000D+02  0.10144095966833D-13
   1   2   2   2  0.17351223859132D+02 -0.66580001618845D-14
   2   2   2   2  0.14805495461976D+02 -0.90517328875384D-16
   3   2   2   2  0.29706578892666D+02  0.58464643633612D-15
   1   1   3   2 -0.28390524097441D+02 -0.10459080892677D-13
   2   1   3   2 -0.35877146083046D+02 -0.33274828597156D-14
   3   1   3   2 -0.53934324089867D+02  0.15295497090026D-13
   1   2   3   2  0.31046305341181D+02 -0.79194637299563D-14
   2   2   3   2  0.29706578892666D+02 -0.32787530540995D-16
   3   2   3   2  0.30779589990963D+02  0.59847959921200D-15
 Band:  6
   1   1   1   1  0.10576557874803D+01  0.98532293435483D-15
   2   1   1   1 -0.86523466891830D+01 -0.11574889625143D-14
   3   1   1   1 -0.28397581385866D+02 -0.65427972916878D-14
   1   2   1   1 -0.39614587290428D+02 -0.59489724109305D-14
   2   2   1   1 -0.13976702246217D+02  0.24296773428231D-14
   3   2   1   1  0.24896617923863D+00 -0.24965515404506D-14
   1   1   2   1 -0.86523466891830D+01  0.16310684714560D-14
   2   1   2   1 -0.15759912092385D+02  0.91072982488783D-16
   3   1   2   1 -0.17144277313881D+02 -0.20292150817339D-14
   1   2   2   1 -0.13976702227482D+02 -0.88454012617292D-14
   2   2   2   1 -0.62014021622276D+01 -0.26019440643622D-14
   3   2   2   1 -0.21537208388114D+01 -0.50115689054269D-14
   1   1   3   1 -0.28397581385866D+02  0.72921978333097D-14
   2   1   3   1 -0.17144277313881D+02  0.23640167125974D-14
   3   1   3   1 -0.25482148542826D+02  0.22898349882894D-15
   1   2   3   1  0.24896891093343D+00 -0.62926687895758D-14
   2   2   3   1 -0.21537188280148D+01 -0.12244721902118D-15
   3   2   3   1 -0.23487920893847D+01  0.14699792082829D-14
   1   1   1   2 -0.39614587290428D+02  0.63895921738286D-14
   2   1   1   2 -0.13976702227482D+02  0.85964684429265D-14
   3   1   1   2  0.24896891093344D+00  0.57618434059269D-14
   1   2   1   2  0.10576541267187D+01 -0.71470607210244D-15
   2   2   1   2 -0.86523483359937D+01 -0.36062845535188D-14
   3   2   1   2 -0.28397582493265D+02  0.20133052810663D-14
   1   1   2   2 -0.13976702246217D+02 -0.23706967446399D-14
   2   1   2   2 -0.62014021622276D+01  0.24844165488648D-14
   3   1   2   2 -0.21537188280148D+01  0.27904789580445D-16
   1   2   2   2 -0.86523483359937D+01  0.27369712516199D-14
   2   2   2   2 -0.15759913376350D+02  0.94976110309730D-16
   3   2   2   2 -0.17144278864426D+02 -0.55012208444677D-15
   1   1   3   2  0.24896617923863D+00  0.29232935155409D-14
   2   1   3   2 -0.21537208388114D+01  0.50566717158023D-14
   3   1   3   2 -0.23487920893847D+01 -0.17371266235833D-14
   1   2   3   2 -0.28397582493265D+02 -0.15137049199850D-14
   2   2   3   2 -0.17144278864426D+02  0.13541664155620D-14
   3   2   3   2 -0.25482148968284D+02 -0.83266726846887D-16
 Band:  7
   1   1   1   1 -0.97580151523371D+01  0.16653345369377D-15
   2   1   1   1 -0.62150419555551D+01 -0.17572508897073D-14
   3   1   1   1 -0.88871104633304D+01 -0.20423649580590D-14
   1   2   1   1  0.80045070361787D+01 -0.14906050355202D-14
   2   2   1   1  0.52977444458777D+01 -0.13321794574477D-14
   3   2   1   1  0.78887286048750D+01 -0.26370195815893D-15
   1   1   2   1 -0.62150419555551D+01  0.18752120860738D-14
   2   1   2   1 -0.65344582237061D+01 -0.34694469519536D-17
   3   1   2   1 -0.45181233331720D+01 -0.21837521526392D-14
   1   2   2   1  0.52977451864589D+01 -0.18517585978297D-14
   2   2   2   1  0.23274222516032D+01 -0.79375389464276D-15
   3   2   2   1  0.36319017030974D+01  0.53279543815182D-15
   1   1   3   1 -0.88871104633304D+01  0.18480759287496D-14
   2   1   3   1 -0.45181233331720D+01  0.26902914076244D-14
   3   1   3   1 -0.46672604231072D+01  0.97144514654701D-16
   1   2   3   1  0.78887285557834D+01 -0.81761194097218D-15
   2   2   3   1  0.36319016945477D+01 -0.28880091987448D-15
   3   2   3   1  0.30069774170599D+01  0.37622980211438D-15
   1   1   1   2  0.80045070361787D+01  0.14316244373370D-14
   2   1   1   2  0.52977451864589D+01  0.17528793596991D-14
   3   1   1   2  0.78887285557834D+01  0.65454793423036D-15
   1   2   1   2 -0.97580119067554D+01 -0.16653345369377D-15
   2   2   1   2 -0.62150397760114D+01  0.63070934272125D-15
   3   2   1   2 -0.88871096850514D+01 -0.17861732182620D-16
   1   1   2   2  0.52977444458777D+01  0.14917740172376D-14
   2   1   2   2  0.23274222516032D+01  0.91865398491309D-15
   3   1   2   2  0.36319016945477D+01 -0.41896625832405D-15
   1   2   2   2 -0.62150397760114D+01 -0.12135764306495D-14
   2   2   2   2 -0.65344575903168D+01 -0.69388939039072D-15
   3   2   2   2 -0.45181226571787D+01 -0.32503524956595D-16
   1   1   3   2  0.78887286048750D+01  0.45126800185850D-16
   2   1   3   2  0.36319017030974D+01 -0.51718292686803D-15
   3   1   3   2  0.30069774170599D+01 -0.28602418136359D-15
   1   2   3   2 -0.88871096850514D+01  0.39839443748056D-17
   2   2   3   2 -0.45181226571787D+01  0.66047342326020D-15
   3   2   3   2 -0.46672596218642D+01 -0.48572257327351D-16
 Band:  8
   1   1   1   1 -0.11558689467428D+02 -0.97361355089198D-16
   2   1   1   1 -0.57582190910204D+01 -0.16623213780812D-14
   3   1   1   1 -0.57159680974497D+01 -0.26979493641792D-15
   1   2   1   1  0.16300577611728D+01 -0.30345313452220D-15
   2   2   1   1  0.83650076782556D+00  0.87322254220559D-15
   3   2   1   1  0.87944433462382D+00  0.22733923266828D-16
   1   1   2   1 -0.57582190910204D+01  0.10133179576314D-14
   2   1   2   1 -0.23684285461968D+02  0.46230380634782D-15
   3   1   2   1 -0.57853029143657D+01 -0.11800680467674D-14
   1   2   2   1  0.83650123346557D+00 -0.23019967158035D-14
   2   2   2   1 -0.82227931077206D+01 -0.71360557249198D-14
   3   2   2   1  0.80915112733687D+00  0.20324454179052D-14
   1   1   3   1 -0.57159680974497D+01  0.11841320808463D-15
   2   1   3   1 -0.57853029143657D+01 -0.33277345461026D-15
   3   1   3   1 -0.11639942685059D+02 -0.65160550566379D-16
   1   2   3   1  0.87944463052612D+00  0.32525839664032D-15
   2   2   3   1  0.80915059384649D+00 -0.11262662899365D-14
   3   2   3   1  0.15480077987996D+01 -0.37969881866108D-15
   1   1   1   2  0.16300577611728D+01  0.44643907228230D-15
   2   1   1   2  0.83650123346557D+00  0.19984201075076D-14
   3   1   1   2  0.87944463052612D+00 -0.21838994375114D-15
   1   2   1   2 -0.11558689951751D+02 -0.21510571102112D-15
   2   2   1   2 -0.57582200899194D+01 -0.29588057696398D-14
   3   2   1   2 -0.57159685021483D+01  0.30875970384405D-15
   1   1   2   2  0.83650076782556D+00 -0.16125264510963D-14
   2   1   2   2 -0.82227931077206D+01  0.77883117518871D-14
   3   1   2   2  0.80915059384649D+00  0.17569737987257D-14
   1   2   2   2 -0.57582200899194D+01  0.18589910858705D-14
   2   2   2   2 -0.23684288440361D+02  0.00000000000000D+00
   3   2   2   2 -0.57853044827983D+01  0.15968929058650D-14
   1   1   3   2  0.87944433462382D+00  0.25008822977721D-17
   2   1   3   2  0.80915112733687D+00 -0.45319676173749D-16
   3   1   3   2  0.15480077987996D+01 -0.45654631697698D-15
   1   2   3   2 -0.57159685021483D+01 -0.27406523432451D-15
   2   2   3   2 -0.57853044827983D+01 -0.21763989678022D-16
   3   2   3   2 -0.11639942681981D+02  0.20816681711722D-16
 K-point:  5.00000000E-01  5.00000000E-01  0.00000000E+00
 Band:  1
   1   1   1   1 -0.11185906489815D+02  0.28460307027744D-16
   2   1   1   1 -0.86696819066217D+01  0.77360732656215D-15
   3   1   1   1 -0.41168945011940D+01  0.36804967322184D-15
   1   2   1   1  0.11185196924905D+01  0.19205080703771D-15
   2   2   1   1  0.13541953120824D+01  0.13320067619686D-15
   3   2   1   1  0.23577378458393D+01 -0.30174677763648D-15
   1   1   2   1 -0.86696819066217D+01 -0.66616289126884D-15
   2   1   2   1 -0.11180801382997D+02  0.67762635780344D-16
   3   1   2   1 -0.41117886919782D+01 -0.76287844909747D-16
   1   2   2   1  0.13204979833271D+01  0.75068428628820D-15
   2   2   2   1  0.11477411218555D+01  0.58733394872231D-15
   3   2   2   1  0.23532589413924D+01  0.20434940971209D-15
   1   1   3   1 -0.41168945011940D+01 -0.21933973495837D-15
   2   1   3   1 -0.41117886919782D+01  0.24660816122629D-15
   3   1   3   1 -0.82286803440765D+01  0.77032829052891D-16
   1   2   3   1  0.23240420372419D+01 -0.77276679076680D-16
   2   2   3   1  0.23869608612183D+01  0.23883348901881D-16
   3   2   3   1  0.47110009669061D+01 -0.25166275736216D-15
   1   1   1   2  0.11185196924905D+01  0.15521914880940D-15
   2   1   1   2  0.13204979833271D+01 -0.46196124775531D-15
   3   1   1   2  0.23240420372419D+01  0.40366911516067D-16
   1   2   1   2 -0.74217782516934D+01 -0.26525006149858D-15
   2   2   1   2 -0.54233833030134D+01 -0.23910196354994D-15
   3   2   1   2 -0.36444309173216D+01 -0.49900156417000D-15
   1   1   2   2  0.13541953120824D+01 -0.74816389208519D-16
   2   1   2   2  0.11477411218555D+01 -0.47360114082858D-15
   3   1   2   2  0.23869608612183D+01  0.16503948819632D-16
   1   2   2   2 -0.54233833030134D+01  0.31418296399456D-15
   2   2   2   2 -0.74896361578084D+01  0.10411051361292D-15
   3   2   2   2 -0.37122871659109D+01 -0.15946861738733D-15
   1   1   3   2  0.23577378458393D+01  0.24948447090526D-15
   2   1   3   2  0.23532589413924D+01 -0.24798722366565D-15
   3   1   3   2  0.47110009669061D+01  0.16426777721881D-15
   1   2   3   2 -0.36444309173216D+01  0.44373686106249D-15
   2   2   3   2 -0.37122871659109D+01 -0.54709717874416D-16
   3   2   3   2 -0.73567158936921D+01  0.76701248741266D-17
 Band:  2
   1   1   1   1 -0.79765405335953D+01 -0.23245294578089D-15
   2   1   1   1 -0.46174762551728D+01 -0.57318461593169D-15
   3   1   1   1 -0.21118215531157D+01 -0.67246833526813D-15
   1   2   1   1  0.16489326533049D+01  0.31266207408574D-15
   2   2   1   1 -0.40808883268058D+00  0.12832235332677D-14
   3   2   1   1 -0.20978562457022D+00 -0.11399759710331D-15
   1   1   2   1 -0.46174762551728D+01  0.35114001100666D-15
   2   1   2   1 -0.79086849206236D+01  0.14745149545803D-16
   3   1   2   1 -0.20439654400965D+01 -0.55403259161881D-15
   1   2   2   1 -0.37439389947260D+00  0.57267809048664D-15
   2   2   2   1  0.16197078216729D+01  0.68445684387113D-15
   3   2   2   1 -0.20530758336836D+00 -0.23762105873267D-15
   1   1   3   1 -0.21118215531157D+01  0.35961646473685D-15
   2   1   3   1 -0.20439654400965D+01  0.42611823534401D-15
   3   1   3   1 -0.41557861366144D+01  0.76556187731603D-16
   1   2   3   1 -0.17608874284897D+00 -0.11991291945476D-15
   2   2   3   1 -0.23900818763528D+00 -0.21259509841372D-15
   3   2   3   1 -0.41509447499715D+00  0.28532469552695D-16
   1   1   1   2  0.16489326533049D+01 -0.70991375008443D-15
   2   1   1   2 -0.37439389947260D+00 -0.15634445625220D-15
   3   1   1   2 -0.17608874284897D+00  0.87432534502340D-16
   1   2   1   2 -0.11679536201663D+02  0.85001450322864D-16
   2   2   1   2 -0.78756045379761D+01 -0.17281796664519D-15
   3   2   1   2 -0.25113199448551D+01 -0.15388485342815D-16
   1   1   2   2 -0.40808883268058D+00 -0.13127138323593D-14
   2   1   2   2  0.16197078216729D+01 -0.65583390651752D-15
   3   1   2   2 -0.23900818763528D+00  0.30330945840230D-15
   1   2   2   2 -0.78756045379761D+01  0.44430219063556D-15
   2   2   2   2 -0.11684648885237D+02 -0.86736173798840D-17
   3   2   2   2 -0.25164265460714D+01  0.24585634219385D-16
   1   1   3   2 -0.20978562457022D+00  0.16646837650996D-15
   2   1   3   2 -0.20530758336836D+00  0.34178364501951D-15
   3   1   3   2 -0.41509447499715D+00  0.11878181959052D-16
   1   2   3   2 -0.25113199448551D+01 -0.14298712786150D-15
   2   2   3   2 -0.25164265460714D+01 -0.99345847405013D-16
   3   2   3   2 -0.50277511687047D+01 -0.73618902463652D-16
 Band:  3
   1   1   1   1 -0.16337443436634D+02 -0.82833045977893D-16
   2   1   1   1 -0.81517079860403D+01 -0.59302324801272D-14
   3   1   1   1 -0.18837080198501D+02  0.19146828372751D-14
   1   2   1   1 -0.23101478953195D+01  0.99544507878236D-14
   2   2   1   1 -0.20996167767542D+01  0.17707215995347D-13
   3   2   1   1 -0.11456261429341D+01  0.10594602060266D-13
   1   1   2   1 -0.81517079860403D+01  0.57931351154164D-14
   2   1   2   1 -0.11124693167307D+02  0.79309388917315D-16
   3   1   2   1 -0.13624330984972D+02  0.32838823488461D-14
   1   2   2   1 -0.23006506630914D+01  0.41414748630805D-14
   2   2   2   1 -0.21839769545690D+01  0.11629325562708D-13
   3   2   2   1 -0.12204902494289D+01  0.10398294225112D-13
   1   1   3   1 -0.18837080198501D+02 -0.17312932524136D-14
   2   1   3   1 -0.13624330984972D+02 -0.29684256075443D-14
   3   1   3   1 -0.32461393776256D+02  0.32337454338668D-15
   1   2   3   1 -0.13466724218602D+01  0.55811299091880D-14
   2   2   3   1 -0.10194646355380D+01  0.52403719235893D-14
   3   2   3   1 -0.23661200907519D+01 -0.21782323247760D-15
   1   1   1   2 -0.23101478953195D+01 -0.10411550423743D-13
   2   1   1   2 -0.23006506630914D+01 -0.44390883594278D-14
   3   1   1   2 -0.13466724218602D+01 -0.61318986712305D-14
   1   2   1   2 -0.11087019439252D+02 -0.28026626158751D-16
   2   2   1   2 -0.82603505879625D+01 -0.83685460429591D-14
   3   2   1   2 -0.13695314117321D+02 -0.95836929604636D-14
   1   1   2   2 -0.20996167767542D+01 -0.17614841970252D-13
   2   1   2   2 -0.21839769545690D+01 -0.11746419397336D-13
   3   1   2   2 -0.10194646355380D+01 -0.50415203736951D-14
   1   2   2   2 -0.82603505879625D+01  0.84167930396347D-14
   2   2   2   2 -0.16615780603498D+02 -0.22139408362154D-15
   3   2   2   2 -0.19224074153645D+02 -0.89542385999284D-14
   1   1   3   2 -0.11456261429341D+01 -0.10334534689745D-13
   2   1   3   2 -0.12204902494289D+01 -0.98298640490476D-14
   3   1   3   2 -0.23661200907519D+01  0.12086510939531D-14
   1   2   3   2 -0.13695314117321D+02  0.98721511163967D-14
   2   2   3   2 -0.19224074153645D+02  0.86539638175935D-14
   3   2   3   2 -0.32919395138553D+02  0.11041167757923D-15
 Band:  4
   1   1   1   1 -0.12673621673136D+02 -0.50632241455073D-16
   2   1   1   1 -0.11557267572372D+01  0.71618536130535D-15
   3   1   1   1 -0.30805081614209D+01  0.15330988981350D-15
   1   2   1   1 -0.45725623409807D+00 -0.71835342041683D-15
   2   2   1   1  0.23014125384053D+01  0.75773225998446D-15
   3   2   1   1  0.44160576877097D-02  0.15223370716029D-14
   1   1   2   1 -0.11557267572372D+01 -0.80747518422863D-15
   2   1   2   1 -0.17886363990645D+02  0.19233746539893D-15
   3   1   2   1 -0.82932574688395D+01  0.25743912518131D-16
   1   2   2   1  0.25024515926263D+01  0.27594828084805D-14
   2   2   2   1 -0.58342061476606D+00  0.29301323176480D-14
   3   2   2   1  0.79280077496433D-01  0.94498410316128D-15
   1   1   3   1 -0.30805081614209D+01 -0.35923773721648D-15
   2   1   3   1 -0.82932574688395D+01  0.18255852129148D-16
   3   1   3   1 -0.11373761688269D+02 -0.37475824311152D-17
   1   2   3   1  0.20544985662728D+00  0.62342075751379D-16
   2   2   3   1 -0.12175806923293D+00  0.72761431270866D-15
   3   2   3   1  0.83694216427614D-01 -0.82933955735611D-15
   1   1   1   2 -0.45725623409807D+00  0.64397715138432D-15
   2   1   1   2  0.25024515926263D+01 -0.29821779347090D-14
   3   1   1   2  0.20544985662728D+00 -0.32141753586586D-15
   1   2   1   2 -0.18164733189905D+02 -0.98608187587557D-16
   2   2   1   2 -0.10470841994778D+01  0.19113035929770D-14
   3   2   1   2 -0.84629494367764D+01 -0.93878270474641D-15
   1   1   2   2  0.23014125384053D+01 -0.48153175654378D-15
   2   1   2   2 -0.58342061476606D+00 -0.26008601178642D-14
   3   1   2   2 -0.12175806923293D+00 -0.69557128622501D-15
   1   2   2   2 -0.10470841994778D+01 -0.19329876364267D-14
   2   2   2   2 -0.12635970364114D+02 -0.18187491443444D-15
   3   2   2   2 -0.29341894285073D+01 -0.16621048375013D-14
   1   1   3   2  0.44160576877097D-02 -0.11984803455991D-14
   2   1   3   2  0.79280077496434D-01 -0.16266375069038D-14
   3   1   3   2  0.83694216427614D-01  0.39699970568045D-15
   1   2   3   2 -0.84629494367764D+01  0.82453207099710D-15
   2   2   3   2 -0.29341894285073D+01  0.16081862139866D-14
   3   2   3   2 -0.11397140032113D+02  0.28729151218447D-16
 Band:  5
   1   1   1   1 -0.78929728262916D+01  0.51044238280618D-15
   2   1   1   1 -0.63962355690300D+01  0.36646466135479D-15
   3   1   1   1 -0.60198980510664D+01  0.45821539996209D-15
   1   2   1   1  0.34951185159131D+01 -0.89277826972522D-16
   2   2   1   1  0.37157303633579D+01 -0.25718052572349D-15
   3   2   1   1  0.67608616928709D+01  0.44714863142317D-15
   1   1   2   1 -0.63962355690300D+01  0.10928325193185D-15
   2   1   2   1 -0.78724246151014D+01  0.72858385991026D-16
   3   1   2   1 -0.59993468872886D+01 -0.18305532111970D-14
   1   2   2   1  0.36465381336429D+01  0.24817800289538D-14
   2   2   2   1  0.34656420760099D+01  0.21415012069348D-14
   3   2   2   1  0.66622050090971D+01  0.27925495803913D-14
   1   1   3   1 -0.60198980510664D+01 -0.14613458087571D-15
   2   1   3   1 -0.59993468872886D+01  0.18869359593309D-14
   3   1   3   1 -0.12019168398430D+02 -0.89476113624971D-16
   1   2   3   1  0.66915988684661D+01  0.16901289553655D-15
   2   2   3   1  0.67313154101552D+01 -0.49403571204773D-15
   3   2   3   1  0.13422989891344D+02  0.37258608395664D-15
   1   1   1   2  0.34951185159131D+01  0.14305425472780D-15
   2   1   1   2  0.36465381336429D+01 -0.23390990230547D-14
   3   1   1   2  0.66915988684661D+01 -0.91533733060019D-16
   1   2   1   2 -0.74283148237543D+01 -0.25804011705155D-15
   2   2   1   2 -0.59324096901118D+01  0.79476179250447D-15
   3   2   1   2 -0.60103082403019D+01  0.11725242486170D-14
   1   1   2   2  0.37157303633579D+01  0.10799430678949D-15
   2   1   2   2  0.34656420760099D+01 -0.20179021592714D-14
   3   1   2   2  0.67313154101552D+01  0.38693506625188D-15
   1   2   2   2 -0.59324096901118D+01 -0.10484651008661D-14
   2   2   2   2 -0.74115729233480D+01 -0.46403852982380D-16
   3   2   2   2 -0.59935637946223D+01  0.27245492123158D-15
   1   1   3   2  0.67608616928709D+01 -0.61544507831753D-15
   2   1   3   2  0.66622050090971D+01 -0.29283922775490D-14
   3   1   3   2  0.13422989891344D+02 -0.35834491901445D-15
   1   2   3   2 -0.60103082403019D+01 -0.78544141490834D-15
   2   2   3   2 -0.59935637946223D+01 -0.91674161606753D-16
   3   2   3   2 -0.12003947201621D+02  0.97301427508180D-16
 Band:  6
   1   1   1   1 -0.72960998969837D+01  0.20111950299606D-15
   2   1   1   1 -0.14947766953235D+01  0.12531891925820D-14
   3   1   1   1 -0.14891809154987D+01  0.42836542581341D-16
   1   2   1   1  0.36579541797313D+01  0.41691457273257D-15
   2   2   1   1 -0.34336944163146D+01  0.23209244005857D-15
   3   2   1   1 -0.23600698688799D+00  0.48025692256144D-15
   1   1   2   1 -0.14947766953235D+01 -0.10942451540956D-14
   2   1   2   1 -0.73128308763709D+01  0.54318528841524D-16
   3   1   2   1 -0.15059443122580D+01  0.24641161500585D-15
   1   2   2   1 -0.33644074664723D+01  0.29058316043802D-15
   2   2   2   1  0.36875110974851D+01 -0.33344970276746D-15
   3   2   2   1 -0.13732128444646D+00  0.10232672780342D-15
   1   1   3   1 -0.14891809154987D+01 -0.72138669664120D-16
   2   1   3   1 -0.15059443122580D+01 -0.15741652510505D-15
   3   1   3   1 -0.29951241040061D+01  0.71557062142635D-16
   1   2   3   1 -0.16681369649738D+00 -0.20756349602418D-15
   2   2   3   1 -0.20651081572453D+00  0.20307308166467D-15
   3   2   3   1 -0.37332586739551D+00  0.10244396125083D-15
   1   1   1   2  0.36579541797313D+01 -0.15703131198779D-15
   2   1   1   2 -0.33644074664723D+01 -0.68755395947481D-16
   3   1   1   2 -0.16681369649738D+00  0.19505069602060D-15
   1   2   1   2 -0.77044617113821D+01 -0.70147880559812D-16
   2   2   1   2 -0.19063014518995D+01 -0.21883855345468D-15
   3   2   1   2 -0.14948860290551D+01  0.30854950393774D-16
   1   1   2   2 -0.34336944163146D+01 -0.37249662139544D-15
   2   1   2   2  0.36875110974851D+01  0.92756820475675D-16
   3   1   2   2 -0.20651081572453D+00 -0.17008453980963D-15
   1   2   2   2 -0.19063014518995D+01 -0.13764712085855D-15
   2   2   2   2 -0.77251992729755D+01 -0.18832591736073D-15
   3   2   2   2 -0.15154647942141D+01 -0.23435012748093D-15
   1   1   3   2 -0.23600698688799D+00 -0.49011542653796D-15
   2   1   3   2 -0.13732128444646D+00 -0.12141613066468D-15
   3   1   3   2 -0.37332586739551D+00 -0.78181928358400D-16
   1   2   3   2 -0.14948860290551D+01 -0.10794593355245D-15
   2   2   3   2 -0.15154647942141D+01  0.65419676425542D-16
   3   2   3   2 -0.30103612834830D+01  0.30684284674989D-16
 Band:  7
   1   1   1   1 -0.40646446524320D+02 -0.13804062060085D-14
   2   1   1   1 -0.15974189480452D+02 -0.25621347579188D-14
   3   1   1   1 -0.42292518223656D+02  0.10949880694111D-14
   1   2   1   1 -0.76119437743095D+01  0.20727809200416D-14
   2   2   1   1 -0.63899486453583D+01  0.17355268784178D-14
   3   2   1   1 -0.64442125317822D+01 -0.46827051084065D-14
   1   1   2   1 -0.15974189480452D+02  0.15863528026819D-14
   2   1   2   1 -0.18861540185829D+02 -0.41546627249645D-15
   3   1   2   1 -0.20507506175373D+02  0.18884606878453D-14
   1   2   2   1 -0.63012332124242D+01  0.35157296183332D-15
   2   2   2   1 -0.74674302553974D+01 -0.95042179895976D-15
   3   2   2   1 -0.62110877556157D+01 -0.28147759002265D-14
   1   1   3   1 -0.42292518223656D+02 -0.32885810980101D-14
   2   1   3   1 -0.20507506175373D+02 -0.28027494027247D-14
   3   1   3   1 -0.62800455644521D+02  0.34778600612073D-15
   1   2   3   1 -0.63557339164823D+01  0.25004726660385D-14
   2   2   3   1 -0.62999548815568D+01  0.26948702912139D-14
   3   2   3   1 -0.12655259978430D+02 -0.35009291658346D-14
   1   1   1   2 -0.76119437743095D+01 -0.89273527550841D-15
   2   1   1   2 -0.63012332124242D+01  0.34231642855741D-15
   3   1   1   2 -0.63557339164823D+01 -0.11939685444676D-14
   1   2   1   2 -0.18691720577446D+02  0.80317696937726D-15
   2   2   1   2 -0.15956667265870D+02 -0.46672533378389D-15
   3   2   1   2 -0.20320016402176D+02  0.23495001564044D-14
   1   1   2   2 -0.63899486453583D+01 -0.80094460573531D-15
   2   1   2   2 -0.74674302553974D+01  0.62906427503505D-15
   3   1   2   2 -0.62999548815568D+01 -0.36850750263411D-14
   1   2   2   2 -0.15956667265870D+02  0.25462251006111D-14
   2   2   2   2 -0.40768828160312D+02  0.12017296879829D-14
   3   2   2   2 -0.42397104748262D+02  0.25340713958650D-14
   1   1   3   2 -0.64442125317822D+01  0.71336953945140D-14
   2   1   3   2 -0.62110877556157D+01  0.24484808349584D-14
   3   1   3   2 -0.12655259978430D+02  0.26749957944072D-14
   1   2   3   2 -0.20320016402176D+02 -0.46585283077620D-15
   2   2   3   2 -0.42397104748262D+02 -0.10466570075503D-14
   3   2   3   2 -0.62717160349525D+02  0.55558811785830D-15
 Band:  8
   1   1   1   1 -0.17604777274592D+02 -0.17885270087864D-15
   2   1   1   1  0.75604404381101D+00 -0.18727118254279D-14
   3   1   1   1 -0.32066187815701D+01 -0.18843729701028D-14
   1   2   1   1 -0.87212532519815D+01  0.26458644912611D-15
   2   2   1   1 -0.26797367928702D+00  0.18108333231741D-14
   3   2   1   1 -0.75710582006769D+00 -0.44200649330773D-15
   1   1   2   1  0.75604404381102D+00  0.26358952871676D-14
   2   1   2   1 -0.39389819397429D+02 -0.58872177965963D-16
   3   1   2   1 -0.24991631054000D+02 -0.13315135100569D-14
   1   2   2   1 -0.35658981094485D+00 -0.11268655738426D-14
   2   2   2   1 -0.88657335740463D+01 -0.19047937666025D-14
   3   2   2   1 -0.99023042415542D+00  0.71232568751266D-15
   1   1   3   1 -0.32066187815701D+01  0.22613444377527D-14
   2   1   3   1 -0.24991631054000D+02  0.18034990336864D-14
   3   1   3   1 -0.28198422318153D+02  0.43260441388514D-16
   1   2   3   1 -0.84588930455731D+00 -0.25604496914692D-14
   2   2   3   1 -0.90166835863336D+00 -0.33794063415003D-14
   3   2   3   1 -0.17473860011906D+01 -0.20412633373958D-15
   1   1   1   2 -0.87212532519815D+01 -0.21192497904341D-14
   2   1   1   2 -0.35658981094484D+00  0.11902914009330D-14
   3   1   1   2 -0.84588930455731D+00  0.18605122165878D-14
   1   2   1   2 -0.39511779751989D+02 -0.61799523831674D-16
   2   2   1   2  0.73850131485563D+00 -0.49394718674911D-15
   3   2   1   2 -0.25131584084537D+02 -0.78310357927976D-15
   1   1   2   2 -0.26797367928702D+00 -0.22238059306738D-14
   2   1   2   2 -0.88657335740463D+01  0.46899838210707D-15
   3   1   2   2 -0.90166835863336D+00  0.29315533148997D-14
   1   2   2   2  0.73850131485563D+00 -0.15280651419281D-15
   2   2   2   2 -0.17434606099029D+02 -0.78604657505199D-16
   3   2   2   2 -0.30544960462534D+01 -0.24818102045598D-16
   1   1   3   2 -0.75710582006769D+00  0.39126402264311D-15
   2   1   3   2 -0.99023042415542D+00 -0.98102241003245D-15
   3   1   3   2 -0.17473860011906D+01  0.32198798124573D-15
   1   2   3   2 -0.25131584084537D+02  0.57979221847323D-15
   2   2   3   2 -0.30544960462534D+01  0.19957826270470D-16
   3   2   3   2 -0.28186029388709D+02 -0.20139534332852D-15
 K-point:  0.00000000E+00  0.00000000E+00  5.00000000E-01
 Band:  1
   1   1   1   1 -0.39041294510812D+01 -0.19949319973733D-16
   2   1   1   1 -0.20424499444000D+01 -0.10026207900822D-15
   3   1   1   1 -0.19821925267183D+01 -0.42347357041661D-15
   1   2   1   1  0.17999965305785D+01  0.57659215361323D-15
   2   2   1   1  0.99992956205951D+00  0.35065501688869D-15
   3   2   1   1  0.93330778949525D+00  0.55858621494596D-15
   1   1   2   1 -0.20424499444000D+01  0.90721099890344D-16
   2   1   2   1 -0.39458093003449D+01 -0.34694469519536D-17
   3   1   2   1 -0.19960853376907D+01  0.11819668902158D-15
   1   2   2   1  0.99992957806235D+00  0.37025014580030D-15
   2   2   2   1  0.18450137272071D+01  0.19430094195948D-15
   3   2   2   1  0.94831373095824D+00  0.52083184188217D-15
   1   1   3   1 -0.19821925267183D+01  0.38762713608881D-15
   2   1   3   1 -0.19960853376907D+01 -0.73581769623805D-16
   3   1   3   1 -0.64197824748462D+01 -0.36290957218521D-15
   1   2   3   1  0.93330927225948D+00  0.44997326953938D-16
   2   2   3   1  0.94831554587517D+00 -0.14127836419779D-15
   3   2   3   1  0.21662147056401D+01 -0.59537338728768D-14
   1   1   1   2  0.17999965305785D+01 -0.57485743013726D-15
   2   1   1   2  0.99992957806235D+00 -0.34506955034432D-15
   3   1   1   2  0.93330927225948D+00  0.29094339008290D-16
   1   2   1   2 -0.39041302257312D+01 -0.27538735181132D-16
   2   2   1   2 -0.20424505106611D+01  0.13710646854452D-15
   3   2   1   2 -0.19821943056710D+01 -0.44664364315919D-15
   1   1   2   2  0.99992956205951D+00 -0.36496648556550D-15
   2   1   2   2  0.18450137272071D+01 -0.20329981999111D-15
   3   1   2   2  0.94831554587517D+00  0.15398385840660D-15
   1   2   2   2 -0.20424505106611D+01 -0.15326108091456D-15
   2   2   2   2 -0.39458089969128D+01 -0.32092384305571D-16
   3   2   2   2 -0.19960880437022D+01 -0.56751452507354D-15
   1   1   3   2  0.93330778949525D+00 -0.55034627843507D-15
   2   1   3   2  0.94831373095824D+00 -0.42412100809647D-15
   3   1   3   2  0.21662147056401D+01  0.60735517654636D-14
   1   2   3   2 -0.19821943056710D+01  0.32683930309954D-15
   2   2   3   2 -0.19960880437022D+01  0.63446400922452D-15
   3   2   3   2 -0.64197838962841D+01  0.21141942363467D-15
 Band:  2
   1   1   1   1 -0.54756717570401D+01  0.60715321659188D-16
   2   1   1   1 -0.27428212696438D+01  0.14415679111423D-15
   3   1   1   1 -0.27394971685549D+01  0.14240315414770D-15
   1   2   1   1 -0.19072441542884D+00  0.40674984285808D-15
   2   2   1   1 -0.10187589617986D+00  0.33458701912799D-15
   3   2   1   1 -0.97533799980841D-01  0.36811334442436D-16
   1   1   2   1 -0.27428212696438D+01 -0.19099432496560D-15
   2   1   2   1 -0.54780239124182D+01 -0.15612511283791D-16
   3   1   2   1 -0.27402817424218D+01 -0.27700728068386D-15
   1   2   2   1 -0.10187599805398D+00 -0.34193857664700D-16
   2   2   2   1 -0.19361098910973D+00  0.56481807619445D-15
   3   2   2   1 -0.98496190449947D-01 -0.23656123736989D-15
   1   1   3   1 -0.27394971685549D+01 -0.26014050931380D-16
   2   1   3   1 -0.27402817424218D+01  0.27982620633232D-15
   3   1   3   1 -0.15633591039680D+02 -0.19889688854247D-15
   1   2   3   1 -0.97532970376987D-01 -0.63026938457389D-16
   2   2   3   1 -0.98494880014640D-01  0.25213185545721D-15
   3   2   3   1  0.29270153535612D+01  0.13344766224014D-14
   1   1   1   2 -0.19072441542883D+00 -0.45315369584046D-15
   2   1   1   2 -0.10187599805398D+00 -0.49506550051181D-16
   3   1   1   2 -0.97532970376987D-01  0.20570794435648D-15
   1   2   1   2 -0.54756719530066D+01 -0.62450045135165D-16
   2   2   1   2 -0.27428215456948D+01 -0.10501131612993D-15
   3   2   1   2 -0.27394980472159D+01  0.56370281431983D-15
   1   1   2   2 -0.10187589617986D+00 -0.41568534162990D-15
   2   1   2   2 -0.19361098910973D+00 -0.31545157652279D-15
   3   1   2   2 -0.98494880014640D-01 -0.27506273140527D-15
   1   2   2   2 -0.27428215456948D+01  0.20009865807068D-16
   2   2   2   2 -0.54780239804864D+01 -0.15612511283791D-16
   3   2   2   2 -0.27402820932728D+01  0.26806502332257D-15
   1   1   3   2 -0.97533799980841D-01 -0.31284920755725D-15
   2   1   3   2 -0.98496190449947D-01  0.75415935451447D-15
   3   1   3   2  0.29270153535612D+01 -0.88523745223200D-15
   1   2   3   2 -0.27394980472159D+01 -0.20472347500988D-15
   2   2   3   2 -0.27402820932728D+01 -0.43904370592354D-15
   3   2   3   2 -0.15633590140942D+02  0.22128566340429D-15
 Band:  3
   1   1   1   1 -0.28267106736578D+02 -0.28622937353617D-15
   2   1   1   1 -0.31466320217860D+02 -0.78869517644540D-14
   3   1   1   1 -0.19931438650870D+02 -0.92671762623416D-15
   1   2   1   1 -0.42293554316971D+01 -0.39731204262964D-14
   2   2   1   1  0.20364614445163D+01  0.13388246769971D-13
   3   2   1   1  0.16305574576475D+00  0.17394704580079D-14
   1   1   2   1 -0.31466320217860D+02  0.71402075181546D-14
   2   1   2   1 -0.27907008648541D+02 -0.56551985316844D-15
   3   1   2   1 -0.19837433309813D+02 -0.16126133548191D-14
   1   2   2   1  0.20364614030887D+01  0.87920166792419D-14
   2   2   2   1 -0.11424440279729D+02 -0.90892375369341D-14
   3   2   2   1 -0.24297682097224D+01 -0.15098241730769D-14
   1   1   3   1 -0.19931438650870D+02  0.11302223740097D-14
   2   1   3   1 -0.19837433309813D+02  0.17810577148419D-14
   3   1   3   1 -0.21644376875183D+02  0.27235158572836D-15
   1   2   3   1  0.16305637663005D+00  0.33693394013085D-14
   2   2   3   1 -0.24297672481890D+01 -0.25812373166469D-14
   3   2   3   1  0.40583206707354D+00 -0.11409571613746D-15
   1   1   1   2 -0.42293554316971D+01  0.59082044637486D-14
   2   1   1   2  0.20364614030887D+01 -0.90353658568563D-14
   3   1   1   2  0.16305637663005D+00 -0.29642814696679D-14
   1   2   1   2 -0.28267106515136D+02 -0.80491169285324D-15
   2   2   1   2 -0.31466319654439D+02  0.29147373560473D-14
[...]
   3   2   1   1  0.19325140707623D+01  0.41724590246329D-03
   1   1   2   1 -0.70916019172010D+01  0.43358671952800D-03
   2   1   2   1 -0.28628511120454D+02  0.10030079928656D-14
   3   1   2   1  0.90853266896772D+01 -0.12250509104434D-01
   1   2   2   1  0.11333576525310D+01  0.93111012172303D-03
   2   2   2   1  0.70874690570744D+01  0.47652013419970D-03
   3   2   2   1  0.11857592378978D+01  0.12293500983913D-01
   1   1   3   1 -0.12015228014277D+02  0.41734578589910D-03
   2   1   3   1  0.90853266896772D+01  0.12250509104433D-01
   3   1   3   1 -0.32418532593243D+02 -0.36771718504135D-15
   1   2   3   1  0.12593915499989D+01 -0.84887118227120D-03
   2   2   3   1  0.15351078026472D+01  0.10944081341977D-01
   3   2   3   1 -0.52300956703937D+01  0.11582039613689D-04
   1   1   1   2 -0.25806872996127D+00 -0.60456416110635D-04
   2   1   1   2  0.11333576525310D+01 -0.93111012172262D-03
   3   1   1   2  0.12593915499989D+01  0.84887118227119D-03
   1   2   1   2 -0.18288708016023D+02 -0.29380166270711D-16
   2   2   1   2 -0.10669154504680D+02 -0.86481629703920D-03
   3   2   1   2 -0.81064455123717D+01 -0.85349717642239D-03
   1   1   2   2  0.17066889522340D+01  0.37326392246537D-03
   2   1   2   2  0.70874690570744D+01 -0.47652013420093D-03
   3   1   2   2  0.15351078026472D+01 -0.10944081341976D-01
   1   2   2   2 -0.10669154504680D+02  0.86481629703932D-03
   2   2   2   2 -0.32205615652976D+02 -0.67309583453927D-15
   3   2   2   2  0.92797574341646D+01  0.10982823680409D-01
   1   1   3   2  0.19325140707623D+01 -0.41724590246403D-03
   2   1   3   2  0.11857592378978D+01 -0.12293500983911D-01
   3   1   3   2 -0.52300956703937D+01 -0.11582039613597D-04
   1   2   3   2 -0.81064455123717D+01  0.85349717642296D-03
   2   2   3   2  0.92797574341646D+01 -0.10982823680408D-01
   3   2   3   2 -0.28498574351639D+02 -0.63473013503190D-15
 K-point:  5.00000000E-01  5.00000000E-01  5.00000000E-01
 Band:  1
   1   1   1   1 -0.93788298043226D+01 -0.30558460510606D-17
   2   1   1   1 -0.75065823905483D+01  0.12361852480338D-05
   3   1   1   1 -0.24780507254739D+01  0.42704279218993D-05
   1   2   1   1 -0.54448796407316D+01 -0.37389565529789D-05
   2   2   1   1 -0.44260104314473D+01 -0.40424078071642D-05
   3   2   1   1 -0.26508153234956D+00  0.23805067666185D-06
   1   1   2   1 -0.75065823905483D+01 -0.12361852482507D-05
   2   1   2   1 -0.93808601813792D+01  0.75850905679228D-16
   3   1   2   1 -0.24699366542909D+01  0.47622865102537D-05
   1   2   2   1 -0.44260119088328D+01 -0.55410498056173D-05
   2   2   2   1 -0.54460973459972D+01 -0.55134942250985D-05
   3   2   2   1 -0.25706102638798D+00 -0.27360675535849D-06
   1   1   3   1 -0.24780507254739D+01 -0.42704279216445D-05
   2   1   3   1 -0.24699366542909D+01 -0.47622865100413D-05
   3   1   3   1 -0.57217057525061D+01  0.21261199957305D-15
   1   2   3   1 -0.26505903173218D+00 -0.26002323890049D-05
   2   2   3   1 -0.25703670006110D+00 -0.20149202564865D-05
   3   2   3   1  0.19199797053323D+01  0.14513549472326D-06
   1   1   1   2 -0.54448796407316D+01  0.37389565528936D-05
   2   1   1   2 -0.44260119088328D+01  0.55410498054867D-05
   3   1   1   2 -0.26505903173218D+00  0.26002323890341D-05
   1   2   1   2 -0.93788538269493D+01 -0.12021082777747D-15
   2   2   1   2 -0.75066024276620D+01  0.24510184922948D-06
   3   2   1   2 -0.24780727679513D+01  0.16325943652531D-05
   1   1   2   2 -0.44260104314473D+01  0.40424078070120D-05
   2   1   2   2 -0.54460973459972D+01  0.55134942249703D-05
   3   1   2   2 -0.25703670006110D+00  0.20149202565240D-05
   1   2   2   2 -0.75066024276620D+01 -0.24510184946838D-06
   2   2   2   2 -0.93808763100658D+01  0.58005690248497D-17
   3   2   2   2 -0.24699607432875D+01  0.20746645654895D-05
   1   1   3   2 -0.26508153234956D+00 -0.23805067666067D-06
   2   1   3   2 -0.25706102638798D+00  0.27360675534608D-06
   3   1   3   2  0.19199797053323D+01 -0.14513549465560D-06
   1   2   3   2 -0.24780727679513D+01 -0.16325943653817D-05
   2   2   3   2 -0.24699607432875D+01 -0.20746645654932D-05
   3   2   3   2 -0.57217016918499D+01 -0.16707551471992D-15
 Band:  2
   1   1   1   1 -0.11747981426261D+02 -0.23929606885676D-15
   2   1   1   1 -0.88495210560906D+01  0.20099202046739D-05
   3   1   1   1 -0.85981020038694D+01 -0.70584198559178D-06
   1   2   1   1 -0.27525305828090D+01 -0.48501019845515D-06
   2   2   1   1 -0.21426882847073D+01 -0.56625846010368D-06
   3   2   1   1 -0.13750670826836D+01  0.14041603508595D-06
   1   1   2   1 -0.88495210560906D+01 -0.20099202049612D-05
   2   1   2   1 -0.11751424648859D+02 -0.41708771116900D-17
   3   1   2   1 -0.85977043672493D+01 -0.24685570885897D-05
   1   2   2   1 -0.21426913743385D+01  0.14310484652937D-05
   2   2   2   1 -0.27784289488435D+01  0.16018407496972D-05
   3   2   2   1 -0.13820480463630D+01  0.16536967155733D-05
   1   1   3   1 -0.85981020038694D+01  0.70584198483155D-06
   2   1   3   1 -0.85977043672493D+01  0.24685570878973D-05
   3   1   3   1 -0.11487407956045D+02 -0.59739561006437D-15
   1   2   3   1 -0.13750643408648D+01 -0.64408616013705D-06
   2   2   3   1 -0.13820422442639D+01 -0.61273873623166D-06
   3   2   3   1 -0.96913441753913D+00 -0.37011739354134D-06
   1   1   1   2 -0.27525305828090D+01  0.48501019881682D-06
   2   1   1   2 -0.21426913743385D+01 -0.14310484650861D-05
   3   1   1   2 -0.13750643408648D+01  0.64408616011758D-06
   1   2   1   2 -0.11747986223007D+02 -0.12663487870937D-15
   2   2   1   2 -0.88495281152120D+01  0.14665948266127D-06
   3   2   1   2 -0.85981058709579D+01 -0.41849526678609D-06
   1   1   2   2 -0.21426882847073D+01  0.56625846004419D-06
   2   1   2   2 -0.27784289488435D+01 -0.16018407492974D-05
   3   1   2   2 -0.13820422442639D+01  0.61273873622359D-06
   1   2   2   2 -0.88495281152120D+01 -0.14665948403382D-06
   2   2   2   2 -0.11751434423837D+02 -0.25169752262254D-15
   3   2   2   2 -0.85977113466510D+01 -0.40801516285183D-06
   1   1   3   2 -0.13750670826836D+01 -0.14041603527876D-06
   2   1   3   2 -0.13820480463630D+01 -0.16536967158848D-05
   3   1   3   2 -0.96913441753913D+00  0.37011739324644D-06
   1   2   3   2 -0.85981058709579D+01  0.41849526647612D-06
   2   2   3   2 -0.85977113466510D+01  0.40801516271148D-06
   3   2   3   2 -0.11487409068387D+02  0.46035216364193D-15
 Band:  3
   1   1   1   1 -0.93816864820989D+01 -0.41110217202748D-15
   2   1   1   1  0.10325905306624D+02 -0.33333680653926D-05
   3   1   1   1 -0.88298410740656D+01 -0.43967439700829D-05
   1   2   1   1  0.12756808195940D+02  0.34043453986679D-05
   2   2   1   1  0.12120111045099D+02  0.49523371036031D-05
   3   2   1   1  0.27514968210466D+01 -0.45853726482090D-06
   1   1   2   1  0.10325905306624D+02  0.33333680645444D-05
   2   1   2   1 -0.11181660753900D+02  0.46326502846459D-15
   3   1   2   1 -0.58173620452117D+01 -0.30272720836251D-05
   1   2   2   1  0.12120117152460D+02  0.43882502210398D-05
   2   2   2   1  0.13240692163078D+02  0.59142985034555D-05
   3   2   2   1  0.28267403035524D+01 -0.21714834384878D-05
   1   1   3   1 -0.88298410740656D+01  0.43967439699621D-05
   2   1   3   1 -0.58173620452117D+01  0.30272720836753D-05
   3   1   3   1 -0.13300637840268D+02 -0.26012713628512D-15
   1   2   3   1  0.27514648670854D+01  0.53457624299847D-05
   2   2   3   1  0.28267035954331D+01  0.59571383843354D-05
   3   2   3   1  0.29962595979676D+01  0.51407171714603D-06
   1   1   1   2  0.12756808195940D+02 -0.34043453985860D-05
   2   1   1   2  0.12120117152460D+02 -0.43882502216271D-05
   3   1   1   2  0.27514648670854D+01 -0.53457624296860D-05
   1   2   1   2 -0.93816504586390D+01  0.43839751147906D-15
   2   2   1   2  0.10325941565707D+02  0.10947504843932D-05
   3   2   1   2 -0.88298090876739D+01 -0.34795568791374D-06
   1   1   2   2  0.12120111045099D+02 -0.49523371035144D-05
   2   1   2   2  0.13240692163078D+02 -0.59142985027784D-05
   3   1   2   2  0.28267035954331D+01 -0.59571383843774D-05
   1   2   2   2  0.10325941565707D+02 -0.10947504849630D-05
   2   2   2   2 -0.11181623851041D+02 -0.19222859523986D-15
   3   2   2   2 -0.58173255123781D+01 -0.12748846823503D-06
   1   1   3   2  0.27514968210466D+01  0.45853726432747D-06
   2   1   3   2  0.28267403035524D+01  0.21714834383774D-05
   3   1   3   2  0.29962595979676D+01 -0.51407171678489D-06
   1   2   3   2 -0.88298090876739D+01  0.34795568818906D-06
   2   2   3   2 -0.58173255123781D+01  0.12748846867349D-06
   3   2   3   2 -0.13300636789631D+02  0.20504975234385D-15
 Band:  4
   1   1   1   1 -0.12365220224085D+02  0.20870821855326D-16
   2   1   1   1 -0.10450991813044D+02 -0.13456912505488D-05
   3   1   1   1 -0.13985841869020D+00 -0.85636884814993D-06
   1   2   1   1  0.35454013719548D+01  0.65670061427547D-06
   2   2   1   1 -0.10844189366441D+01 -0.27445426814749D-06
   3   2   1   1  0.13922174810493D+01  0.16972922663304D-05
   1   1   2   1 -0.10450991813044D+02  0.13456912503613D-05
   2   1   2   1 -0.12150506135466D+02 -0.17553230387369D-15
   3   1   2   1 -0.31125514783121D+01  0.48451766789667D-06
   1   2   2   1 -0.10844216027017D+01  0.10279183182204D-05
   2   2   2   1  0.13116900297469D+01  0.38320107220567D-06
   3   2   2   1  0.12771891245877D+01  0.25665743274873D-06
   1   1   3   1 -0.13985841869020D+00  0.85636884815936D-06
   2   1   3   1 -0.31125514783121D+01 -0.48451766778391D-06
   3   1   3   1 -0.22712237129307D+02 -0.52909048698199D-16
   1   2   3   1  0.13922152324988D+01 -0.61314493180883D-06
   2   2   3   1  0.12771899122874D+01 -0.81589989986781D-06
   3   2   3   1  0.29318652255802D+01  0.61136739011195D-06
   1   1   1   2  0.35454013719548D+01 -0.65670061377636D-06
   2   1   1   2 -0.10844216027017D+01 -0.10279183178705D-05
   3   1   1   2  0.13922152324988D+01  0.61314493171992D-06
   1   2   1   2 -0.12365216143017D+02  0.34976360042422D-15
   2   2   1   2 -0.10450992107303D+02 -0.99047848053574D-06
   3   2   1   2 -0.13985444136902D+00 -0.54514056340859D-06
   1   1   2   2 -0.10844189366441D+01  0.27445426797158D-06
   2   1   2   2  0.13116900297469D+01 -0.38320107234941D-06
   3   1   2   2  0.12771899122874D+01  0.81589990072194D-06
   1   2   2   2 -0.10450992107303D+02  0.99047848085385D-06
   2   2   2   2 -0.12150508330879D+02 -0.24465026125505D-15
   3   2   2   2 -0.31125510529076D+01 -0.99551779216075D-06
   1   1   3   2  0.13922174810493D+01 -0.16972922663147D-05
   2   1   3   2  0.12771891245877D+01 -0.25665743332542D-06
   3   1   3   2  0.29318652255802D+01 -0.61136739034267D-06
   1   2   3   2 -0.13985444136902D+00  0.54514056430772D-06
   2   2   3   2 -0.31125510529076D+01  0.99551779191376D-06
   3   2   3   2 -0.22712235251059D+02 -0.46490583791783D-15
 Band:  5
   1   1   1   1 -0.97922270020130D+01  0.45970182752027D-16
   2   1   1   1 -0.12651073706240D+02  0.11338486534109D-05
   3   1   1   1  0.14886185220646D+01 -0.26010744606465D-05
   1   2   1   1  0.56669575187399D+01 -0.11196758869823D-05
   2   2   1   1 -0.36288652345559D+01 -0.15014321301393D-06
   3   2   1   1  0.78264973675029D+00  0.64399682817149D-06
   1   1   2   1 -0.12651073706240D+02 -0.11338486546428D-05
   2   1   2   1 -0.10455166880939D+02 -0.71719973037590D-15
   3   1   2   1 -0.14796625693742D+01 -0.33903409155644D-06
   1   2   2   1 -0.36288640547096D+01 -0.11504736233753D-05
   2   2   2   1  0.18322324985600D+01  0.26999512184351D-06
   3   2   2   1 -0.91753128150369D+00 -0.12626961109934D-05
   1   1   3   1  0.14886185220646D+01  0.26010744603698D-05
   2   1   3   1 -0.14796625693742D+01  0.33903409400717D-06
   3   1   3   1 -0.21614417187594D+02  0.55023357017615D-16
   1   2   3   1  0.78265308413126D+00 -0.15259151227690D-05
   2   2   3   1 -0.91753750883730D+00 -0.21945695173020D-05
   3   2   3   1  0.36599414413680D+01 -0.10773287323740D-05
   1   1   1   2  0.56669575187399D+01  0.11196758877955D-05
   2   1   1   2 -0.36288640547096D+01  0.11504736237719D-05
   3   1   1   2  0.78265308413126D+00  0.15259151221912D-05
   1   2   1   2 -0.97922301159064D+01  0.70895641349288D-15
   2   2   1   2 -0.12651074565119D+02  0.30844568038369D-06
   3   2   1   2  0.14886129680684D+01 -0.12769886716906D-05
   1   1   2   2 -0.36288652345559D+01  0.15014321369774D-06
   2   1   2   2  0.18322324985600D+01 -0.26999512058345D-06
   3   1   2   2 -0.91753750883730D+00  0.21945695164178D-05
   1   2   2   2 -0.12651074565119D+02 -0.30844568032283D-06
   2   2   2   2 -0.10455168252171D+02 -0.61777839965090D-15
   3   2   2   2 -0.14796571005037D+01 -0.23801250525828D-05
   1   1   3   2  0.78264973675029D+00 -0.64399682760721D-06
   2   1   3   2 -0.91753128150369D+00  0.12626961116544D-05
   3   1   3   2  0.36599414413680D+01  0.10773287333648D-05
   1   2   3   2  0.14886129680684D+01  0.12769886694308D-05
   2   2   3   2 -0.14796571005037D+01  0.23801250535286D-05
   3   2   3   2 -0.21614423714967D+02 -0.96385575038739D-16
 Band:  6
   1   1   1   1 -0.42231632806530D+01  0.11076210755705D-14
   2   1   1   1  0.94415971524671D+01 -0.85304533364444D-07
   3   1   1   1 -0.65510708720280D+01 -0.53846178838880D-07
   1   2   1   1  0.13899733480675D+02 -0.62846153391333D-06
   2   2   1   1  0.54586770206823D+01 -0.17502514595306D-05
   3   2   1   1 -0.18169063870107D+01  0.17486724727774D-06
   1   1   2   1  0.94415971524672D+01  0.85304531824009D-07
   2   1   2   1 -0.42671156045864D+01  0.23158567214955D-15
   3   1   2   1 -0.35899514798985D+01  0.33759048491466D-05
   1   2   2   1  0.54586779637828D+01 -0.35309683500389D-05
   2   2   2   1  0.17020596739653D+02 -0.44635265337883D-05
   3   2   2   1 -0.10956186045906D+00 -0.16844204671456D-05
   1   1   3   1 -0.65510708720280D+01  0.53846178953521D-07
   2   1   3   1 -0.35899514798985D+01 -0.33759048491463D-05
   3   1   3   1 -0.10512412188988D+02 -0.31364858762072D-15
   1   2   3   1 -0.18168931198777D+01 -0.25776326323748D-05
   2   2   3   1 -0.10954947500667D+00 -0.12892265104219D-05
   3   2   3   1 -0.23316750953620D+01  0.24257313527294D-06
   1   1   1   2  0.13899733480675D+02  0.62846153327668D-06
   2   1   1   2  0.54586779637828D+01  0.35309683506039D-05
   3   1   1   2 -0.18168931198777D+01  0.25776326320601D-05
   1   2   1   2 -0.42231818454171D+01 -0.67653750104970D-16
   2   2   1   2  0.94415799140048D+01 -0.14588823217106D-05
   3   2   1   2 -0.65510862260840D+01  0.36795624890127D-06
   1   1   2   2  0.54586770206823D+01  0.17502514602792D-05
   2   1   2   2  0.17020596739653D+02  0.44635265330949D-05
   3   1   2   2 -0.10954947500667D+00  0.12892265105669D-05
   1   2   2   2  0.94415799140048D+01  0.14588823218377D-05
   2   2   2   2 -0.42671310561436D+01  0.11440504279863D-14
   3   2   2   2 -0.35899690180865D+01 -0.11156644290942D-05
   1   1   3   2 -0.18169063870107D+01 -0.17486724713263D-06
   2   1   3   2 -0.10956186045906D+00  0.16844204669387D-05
   3   1   3   2 -0.23316750953620D+01 -0.24257313530459D-06
   1   2   3   2 -0.65510862260840D+01 -0.36795624880334D-06
   2   2   3   2 -0.35899690180865D+01  0.11156644293528D-05
   3   2   3   2 -0.10512419284342D+02  0.24321531477712D-15
 Band:  7
   1   1   1   1 -0.23589808533223D+01 -0.47596525044956D-16
   2   1   1   1 -0.94510593089819D+01 -0.83602541021574D-06
   3   1   1   1 -0.14872610779937D+01 -0.11561920194899D-05
   1   2   1   1  0.48893460133018D+01  0.16587324610819D-05
   2   2   1   1 -0.30851778436061D+01  0.14952522602413D-05
   3   2   1   1 -0.22477802138026D+01 -0.18729058752074D-05
   1   1   2   1 -0.94510593089819D+01  0.83602541021596D-06
   2   1   2   1 -0.14006529074988D+01 -0.51174327616522D-16
   3   1   2   1 -0.85846095122204D+00 -0.14702072534645D-05
   1   2   2   1 -0.30851749327102D+01 -0.70233631627346D-06
   2   2   2   1  0.58251551621754D+01  0.36656342093439D-06
   3   2   2   1 -0.16473005771854D+01 -0.10388491363040D-05
   1   1   3   1 -0.14872610779937D+01  0.11561920197983D-05
   2   1   3   1 -0.85846095122204D+00  0.14702072539858D-05
   3   1   3   1 -0.83902838886612D+01  0.65225601931586D-15
   1   2   3   1 -0.22477782989023D+01 -0.98539360309148D-06
   2   2   3   1 -0.16473006247518D+01 -0.14216082142826D-05
   3   2   3   1 -0.34256872185226D+00  0.60556458142190D-06
   1   1   1   2  0.48893460133018D+01 -0.16587324608208D-05
   2   1   1   2 -0.30851749327102D+01  0.70233631648306D-06
   3   1   1   2 -0.22477782989023D+01  0.98539360251728D-06
   1   2   1   2 -0.23589847899852D+01  0.37535073839136D-15
   2   2   1   2 -0.94510588158034D+01  0.82672515141324D-06
   3   2   1   2 -0.14872616547544D+01 -0.15390233481621D-06
   1   1   2   2 -0.30851778436061D+01 -0.14952522601527D-05
   2   1   2   2  0.58251551621754D+01 -0.36656342093030D-06
   3   1   2   2 -0.16473006247518D+01  0.14216082141462D-05
   1   2   2   2 -0.94510588158034D+01 -0.82672515104716D-06
   2   2   2   2 -0.14006510575549D+01  0.99529729138074D-16
   3   2   2   2 -0.85845852619318D+00 -0.83512110917483D-06
   1   1   3   2 -0.22477802138026D+01  0.18729058752590D-05
   2   1   3   2 -0.16473005771854D+01  0.10388491361353D-05
   3   1   3   2 -0.34256872185226D+00 -0.60556458117904D-06
   1   2   3   2 -0.14872616547544D+01  0.15390233421578D-06
   2   2   3   2 -0.85845852619318D+00  0.83512110862558D-06
   3   2   3   2 -0.83902964721174D+01 -0.66613387879112D-15
 Band:  8
   1   1   1   1 -0.13781507989186D+02  0.72923445279991D-15
   2   1   1   1 -0.10406395803788D+02 -0.36597795153363D-05
   3   1   1   1 -0.19589069230776D+02  0.10116861078447D-06
   1   2   1   1 -0.10235640398530D+02  0.58156692114455D-06
   2   2   1   1 -0.81553163385416D+01  0.77574863740335D-06
   3   2   1   1 -0.10244007174031D+02 -0.19452532784680D-05
   1   1   2   1 -0.10406395803788D+02  0.36597795179508D-05
   2   1   2   1 -0.14003861825254D+02  0.22156755847025D-14
   3   1   2   1 -0.19704193431244D+02  0.12430907249212D-05
   1   2   2   1 -0.81553117534844D+01 -0.53420288178046D-06
   2   2   2   1 -0.10013075469135D+02 -0.15870524147930D-06
   3   2   2   1 -0.10128742703723D+02 -0.33031342556240D-05
   1   1   3   1 -0.19589069230776D+02 -0.10116860941014D-06
   2   1   3   1 -0.19704193431244D+02 -0.12430907227555D-05
   3   1   3   1 -0.27983544209571D+02  0.74387102922011D-15
   1   2   3   1 -0.10244017201344D+02  0.36254404657639D-05
   2   2   3   1 -0.10128756006456D+02  0.27577266098962D-05
   3   2   3   1 -0.80648560527330D+01  0.54685170631797D-06
   1   1   1   2 -0.10235640398530D+02 -0.58156692090993D-06
   2   1   1   2 -0.81553117534844D+01  0.53420288004487D-06
   3   1   1   2 -0.10244017201344D+02 -0.36254404661078D-05
   1   2   1   2 -0.13781502079615D+02  0.15400007217537D-14
   2   2   1   2 -0.10406383149438D+02  0.18548386743620D-05
   3   2   1   2 -0.19589061165255D+02  0.63211334700573D-06
   1   1   2   2 -0.81553163385416D+01 -0.77574863658239D-06
   2   1   2   2 -0.10013075469135D+02  0.15870524108118D-06
   3   1   2   2 -0.10128756006456D+02 -0.27577266082927D-05
   1   2   2   2 -0.10406383149438D+02 -0.18548386709563D-05
   2   2   2   2 -0.14003843643410D+02 -0.12849964555660D-14
   3   2   2   2 -0.19704181753392D+02 -0.27626466850998D-06
   1   1   3   2 -0.10244007174031D+02  0.19452532765511D-05
   2   1   3   2 -0.10128742703723D+02  0.33031342521415D-05
   3   1   3   2 -0.80648560527330D+01 -0.54685170821381D-06
   1   2   3   2 -0.19589061165255D+02 -0.63211334696128D-06
   2   2   3   2 -0.19704181753392D+02  0.27626466840438D-06
   3   2   3   2 -0.27983546237121D+02 -0.23800405047120D-14

 List of bloks and their characteristics 
  
 2nd eigenvalue derivatives   - # elements :      36
 qpt  0.00000000E+00  0.00000000E+00  0.00000000E+00   1.0
  
 2nd eigenvalue derivatives   - # elements :      36
 qpt  5.00000000E-01  0.00000000E+00  0.00000000E+00   1.0
  
 2nd eigenvalue derivatives   - # elements :      36
 qpt  5.00000000E-01  5.00000000E-01  0.00000000E+00   1.0
