
.Version 10.1.4.3 of ABINIT, released Jun 2024.
.(MPI version, prepared for a x86_64_darwin23.4.0_gnu13.2 computer) 

.Copyright (C) 1998-2024 ABINIT group . 
 ABINIT comes with ABSOLUTELY NO WARRANTY.
 It is free software, and you are welcome to redistribute it
 under certain conditions (GNU General Public License,
 see ~abinit/COPYING or http://www.gnu.org/copyleft/gpl.txt).

 ABINIT is a project of the Universite Catholique de Louvain,
 Corning Inc. and other collaborators, see ~abinit/doc/developers/contributors.txt .
 Please read https://docs.abinit.org/theory/acknowledgments for suggested
 acknowledgments of the ABINIT effort.
 For more information, see https://www.abinit.org .

.Starting date : Tue 23 Jul 2024.
- ( at 17h42 )
  
- input  file    -> /Users/antonius/Software/Abinit/abinit-gitlab/build1/Test_suite/v7_t58-t59/t58.abi
- output file    -> t58.abo
- root for input  files -> t58i
- root for output files -> t58o

 DATASET    1 : space group P1 (#  1); Bravais aP (primitive triclinic)
================================================================================
 Values of the parameters that define the memory need for DATASET  1.
     intxc =       0    ionmov =       0      iscf =       7    lmnmax =       1
     lnmax =       1     mgfft =      15  mpssoang =       2    mqgrid =    3001
     natom =       2  nloc_mem =       1    nspden =       1   nspinor =       1
    nsppol =       1      nsym =       1    n1xccc =    2501    ntypat =       1
    occopt =       1   xclevel =       1
-    mband =          12        mffmem =           1         mkmem =           8
       mpw =         116          nfft =        3375          nkpt =           8
================================================================================
P This job should need less than                       1.660 Mbytes of memory.
  Rough estimation (10% accuracy) of disk space for files :
_ WF disk file :      0.172 Mbytes ; DEN or POT disk file :      0.028 Mbytes.
================================================================================

 DATASET    2 : space group P1 (#  1); Bravais aP (primitive triclinic)
================================================================================
 Values of the parameters that define the memory need for DATASET  2 (RF).
     intxc =       0      iscf =      -3    lmnmax =       1     lnmax =       1
     mgfft =      15  mpssoang =       2    mqgrid =    3001     natom =       2
  nloc_mem =       1    nspden =       1   nspinor =       1    nsppol =       1
      nsym =       1    n1xccc =    2501    ntypat =       1    occopt =       1
   xclevel =       1
-    mband =          12        mffmem =           1         mkmem =           8
-   mkqmem =           8        mk1mem =           8           mpw =         116
      nfft =        3375          nkpt =           8
================================================================================
P This job should need less than                       1.698 Mbytes of memory.
  Rough estimation (10% accuracy) of disk space for files :
_ WF disk file :      0.172 Mbytes ; DEN or POT disk file :      0.028 Mbytes.
================================================================================

 DATASET    3 : space group P1 (#  1); Bravais aP (primitive triclinic)
================================================================================
 Values of the parameters that define the memory need for DATASET  3 (RF).
     intxc =       0      iscf =       7    lmnmax =       1     lnmax =       1
     mgfft =      15  mpssoang =       2    mqgrid =    3001     natom =       2
  nloc_mem =       1    nspden =       1   nspinor =       1    nsppol =       1
      nsym =       1    n1xccc =    2501    ntypat =       1    occopt =       1
   xclevel =       1
-    mband =          12        mffmem =           1         mkmem =           8
-   mkqmem =           8        mk1mem =           8           mpw =         116
      nfft =        3375          nkpt =           8
================================================================================
P This job should need less than                       1.723 Mbytes of memory.
  Rough estimation (10% accuracy) of disk space for files :
_ WF disk file :      0.172 Mbytes ; DEN or POT disk file :      0.028 Mbytes.
================================================================================

 DATASET    4 : space group P1 (#  1); Bravais aP (primitive triclinic)
================================================================================
 Values of the parameters that define the memory need for DATASET  4.
     intxc =       0    ionmov =       0      iscf =      -2    lmnmax =       1
     lnmax =       1     mgfft =      15  mpssoang =       2    mqgrid =    3001
     natom =       2  nloc_mem =       1    nspden =       1   nspinor =       1
    nsppol =       1      nsym =       1    n1xccc =    2501    ntypat =       1
    occopt =       1   xclevel =       1
-    mband =          12        mffmem =           1         mkmem =           8
       mpw =         116          nfft =        3375          nkpt =           8
================================================================================
P This job should need less than                       1.248 Mbytes of memory.
  Rough estimation (10% accuracy) of disk space for files :
_ WF disk file :      0.172 Mbytes ; DEN or POT disk file :      0.028 Mbytes.
================================================================================

 DATASET    5 : space group P1 (#  1); Bravais aP (primitive triclinic)
================================================================================
 Values of the parameters that define the memory need for DATASET  5 (RF).
     intxc =       0      iscf =       7    lmnmax =       1     lnmax =       1
     mgfft =      15  mpssoang =       2    mqgrid =    3001     natom =       2
  nloc_mem =       1    nspden =       1   nspinor =       1    nsppol =       1
      nsym =       1    n1xccc =    2501    ntypat =       1    occopt =       1
   xclevel =       1
-    mband =          12        mffmem =           1         mkmem =           8
-   mkqmem =           8        mk1mem =           8           mpw =         116
      nfft =        3375          nkpt =           8
================================================================================
P This job should need less than                       1.904 Mbytes of memory.
  Rough estimation (10% accuracy) of disk space for files :
_ WF disk file :      0.172 Mbytes ; DEN or POT disk file :      0.028 Mbytes.
================================================================================

 DATASET    6 : space group P1 (#  1); Bravais aP (primitive triclinic)
================================================================================
 Values of the parameters that define the memory need for DATASET  6 (RF).
     intxc =       0      iscf =       7    lmnmax =       1     lnmax =       1
     mgfft =      15  mpssoang =       2    mqgrid =    3001     natom =       2
  nloc_mem =       1    nspden =       1   nspinor =       1    nsppol =       1
      nsym =       1    n1xccc =    2501    ntypat =       1    occopt =       1
   xclevel =       1
-    mband =          12        mffmem =           1         mkmem =           8
-   mkqmem =           8        mk1mem =           8           mpw =         116
      nfft =        3375          nkpt =           8
================================================================================
P This job should need less than                       1.904 Mbytes of memory.
  Rough estimation (10% accuracy) of disk space for files :
_ WF disk file :      0.172 Mbytes ; DEN or POT disk file :      0.028 Mbytes.
================================================================================

--------------------------------------------------------------------------------
------------- Echo of variables that govern the present computation ------------
--------------------------------------------------------------------------------
-
- outvars: echo of selected default values                                      
-   iomode0 =  3 , fftalg0 =112 , wfoptalg0 =  0
-
- outvars: echo of global parameters not present in the input file              
-  max_nthreads =    0
-
 -outvars: echo values of preprocessed input variables --------
            acell      6.6709983131E+00  6.6709983131E+00  6.6709983131E+00 Bohr
              amu      1.20110000E+01
           diemac      6.00000000E+00
             ecut      1.00000000E+01 Hartree
    elph2_imagden      3.67493254E-03 Hartree
           enunit           2
-          fftalg         112
           getddb1          0
           getddb2          0
           getddb3          0
           getddb4          0
           getddb5          0
           getddb6          3
           getddk1          0
           getddk2          0
           getddk3          2
           getddk4          0
           getddk5          0
           getddk6          0
           getden1          0
           getden2          0
           getden3          0
           getden4          1
           getden5          0
           getden6          0
           getwfk1          0
           getwfk2          1
           getwfk3          1
           getwfk4          1
           getwfk5          1
           getwfk6          1
           getwfq1          0
           getwfq2          0
           getwfq3          0
           getwfq4          0
           getwfq5          4
           getwfq6          4
          ieig2rf1          0
          ieig2rf2          0
          ieig2rf3          0
          ieig2rf4          0
          ieig2rf5          4
          ieig2rf6          4
             iscf1          7
             iscf2         -3
             iscf3          7
             iscf4         -2
             iscf5          7
             iscf6          7
           istwfk1       1    1    1    1    1    1    1    1
           istwfk2       1    1    1    1    1    1    1    1
           istwfk3       1    1    1    1    1    1    1    1
           istwfk4       0    0    0    0    0    0    0    0
           istwfk5       1    1    1    1    1    1    1    1
           istwfk6       1    1    1    1    1    1    1    1
           jdtset        1    2    3    4    5    6
              kpt      0.00000000E+00  0.00000000E+00  0.00000000E+00
                       5.00000000E-01  0.00000000E+00  0.00000000E+00
                       0.00000000E+00  5.00000000E-01  0.00000000E+00
                       5.00000000E-01  5.00000000E-01  0.00000000E+00
                       0.00000000E+00  0.00000000E+00  5.00000000E-01
                       5.00000000E-01  0.00000000E+00  5.00000000E-01
                       0.00000000E+00  5.00000000E-01  5.00000000E-01
                       5.00000000E-01  5.00000000E-01  5.00000000E-01
           kptopt1          1
           kptopt2          2
           kptopt3          2
           kptopt4          1
           kptopt5          3
           kptopt6          3
         kptrlatt        2    0    0      0    2    0      0    0    2
          kptrlen      9.43421629E+00
P           mkmem           8
P          mkqmem           8
P          mk1mem           8
            natom           2
            nband          12
           nbdbuf           2
           ndtset           6
            ngfft          15      15      15
             nkpt           8
             nqpt1          0
             nqpt2          1
             nqpt3          1
             nqpt4          1
             nqpt5          1
             nqpt6          1
            nstep          50
             nsym           1
           ntypat           1
              occ      2.000000  2.000000  2.000000  2.000000  0.000000  0.000000
                       0.000000  0.000000  0.000000  0.000000  0.000000  0.000000
        optdriver1          0
        optdriver2          1
        optdriver3          1
        optdriver4          0
        optdriver5          1
        optdriver6          1
           prtpot1          0
           prtpot2          1
           prtpot3          1
           prtpot4          0
           prtpot5          1
           prtpot6          1
              qpt1     0.00000000E+00  0.00000000E+00  0.00000000E+00
              qpt2     0.00000000E+00  0.00000000E+00  0.00000000E+00
              qpt3     0.00000000E+00  0.00000000E+00  0.00000000E+00
              qpt4     6.66666667E-03  0.00000000E+00  0.00000000E+00
              qpt5     6.66666667E-03  0.00000000E+00  0.00000000E+00
              qpt6     6.66666667E-03  0.00000000E+00  0.00000000E+00
           rfelfd1          0
           rfelfd2          2
           rfelfd3          3
           rfelfd4          0
           rfelfd5          0
           rfelfd6          0
           rfphon1          0
           rfphon2          0
           rfphon3          1
           rfphon4          0
           rfphon5          1
           rfphon6          1
            rprim      0.0000000000E+00  5.0000000000E-01  5.0000000000E-01
                       5.0000000000E-01  0.0000000000E+00  5.0000000000E-01
                       5.0000000000E-01  5.0000000000E-01  0.0000000000E+00
          smdelta1          0
          smdelta2          0
          smdelta3          0
          smdelta4          0
          smdelta5          1
          smdelta6          1
          spgroup           1
           tolwfr      1.00000000E-16
            typat      1  1
              wtk        0.12500    0.12500    0.12500    0.12500    0.12500    0.12500
                         0.12500    0.12500
           xangst      0.0000000000E+00  0.0000000000E+00  0.0000000000E+00
                       8.8253506646E-01  8.8253506646E-01  8.8253506646E-01
            xcart      0.0000000000E+00  0.0000000000E+00  0.0000000000E+00
                       1.6677495783E+00  1.6677495783E+00  1.6677495783E+00
             xred      0.0000000000E+00  0.0000000000E+00  0.0000000000E+00
                       2.5000000000E-01  2.5000000000E-01  2.5000000000E-01
            znucl        6.00000

================================================================================

 chkinp: Checking input parameters for consistency, jdtset=   1.

 chkinp: Checking input parameters for consistency, jdtset=   2.

 chkinp: Checking input parameters for consistency, jdtset=   3.

 chkinp: Checking input parameters for consistency, jdtset=   4.

 chkinp: Checking input parameters for consistency, jdtset=   5.

 chkinp: Checking input parameters for consistency, jdtset=   6.

================================================================================
== DATASET  1 ==================================================================
-   mpi_nproc: 1, omp_nthreads: -1 (-1 if OMP is not activated)


--- !DatasetInfo
iteration_state: {dtset: 1, }
dimensions: {natom: 2, nkpt: 8, mband: 12, nsppol: 1, nspinor: 1, nspden: 1, mpw: 116, }
cutoff_energies: {ecut:  10.0, pawecutdg:  -1.0, }
electrons: {nelect:   8.00000000E+00, charge:   0.00000000E+00, occopt:   1.00000000E+00, tsmear:   1.00000000E-02, }
meta: {optdriver: 0, ionmov: 0, optcell: 0, iscf: 7, paral_kgb: 0, }
...

 Exchange-correlation functional for the present dataset will be:
  LDA: new Teter (4/93) with spin-polarized option - ixc=1
 Citation for XC functional:
  S. Goedecker, M. Teter, J. Huetter, PRB 54, 1703 (1996)

 Real(R)+Recip(G) space primitive vectors, cartesian coordinates (Bohr,Bohr^-1):
 R(1)=  0.0000000  3.3354992  3.3354992  G(1)= -0.1499026  0.1499026  0.1499026
 R(2)=  3.3354992  0.0000000  3.3354992  G(2)=  0.1499026 -0.1499026  0.1499026
 R(3)=  3.3354992  3.3354992  0.0000000  G(3)=  0.1499026  0.1499026 -0.1499026
 Unit cell volume ucvol=  7.4218556E+01 bohr^3
 Angles (23,13,12)=  6.00000000E+01  6.00000000E+01  6.00000000E+01 degrees

 getcut: wavevector=  0.0000  0.0000  0.0000  ngfft=  15  15  15
         ecut(hartree)=     10.000   => boxcut(ratio)=   2.09552

--- Pseudopotential description ------------------------------------------------
- pspini: atom type   1  psp file is /Users/antonius/Software/Abinit/abinit-gitlab/tests/Psps_for_tests/PseudosTM_pwteter/6c.pspnc
- pspatm: opening atomic psp file    /Users/antonius/Software/Abinit/abinit-gitlab/tests/Psps_for_tests/PseudosTM_pwteter/6c.pspnc
-  Troullier-Martins psp for element  C         Thu Oct 27 17:29:33 EDT 1994
-  6.00000   4.00000    940714                znucl, zion, pspdat
    1    1    1    1      2001   0.00000      pspcod,pspxc,lmax,lloc,mmax,r2well
    0  10.372  24.987    1   1.4850707        l,e99.0,e99.9,nproj,rcpsp
   0.00000000   0.00000000   0.00000000   0.00000000     rms, ekb1, ekb2, epsatm
    1  15.431  21.987    0   1.4850707        l,e99.0,e99.9,nproj,rcpsp
   0.00000000   0.00000000   0.00000000   0.00000000     rms, ekb1, ekb2, epsatm
    0.83985002509544    0.99012430797080    0.51184907750884   rchrg,fchrg,qchrg
  pspatm : epsatm=    0.92590353
         --- l  ekb(1:nproj) -->
             0    4.921466
 pspatm: atomic psp has been read  and splines computed

   1.48144565E+01                                ecore*ucvol(ha*bohr**3)
--------------------------------------------------------------------------------

_setup2: Arith. and geom. avg. npw (full set) are     111.625     111.563

================================================================================

--- !BeginCycle
iteration_state: {dtset: 1, }
solver: {iscf: 7, nstep: 50, nline: 4, wfoptalg: 0, }
tolerances: {tolwfr: 1.00E-16, }
...

     iter   Etot(hartree)      deltaE(h)  residm     vres2
 ETOT  1  -11.684679261107    -1.168E+01 5.586E-03 8.608E+00
 ETOT  2  -11.692113102297    -7.434E-03 1.784E-06 2.345E-02
 ETOT  3  -11.692125317990    -1.222E-05 1.368E-06 5.691E-04
 ETOT  4  -11.692125542331    -2.243E-07 1.507E-07 3.932E-05
 ETOT  5  -11.692125607793    -6.546E-08 1.634E-07 5.285E-06
 ETOT  6  -11.692125618049    -1.026E-08 8.671E-09 1.095E-08
 ETOT  7  -11.692125618065    -1.589E-11 8.310E-09 1.260E-11
 ETOT  8  -11.692125618065    -7.105E-15 6.195E-10 6.921E-14
 ETOT  9  -11.692125618065     1.066E-14 6.826E-10 5.844E-16
 ETOT 10  -11.692125618065    -2.132E-14 4.006E-11 3.116E-18
 ETOT 11  -11.692125618065     1.776E-14 4.434E-11 4.308E-21
 ETOT 12  -11.692125618065     7.105E-15 2.733E-12 1.076E-23
 ETOT 13  -11.692125618065    -7.105E-15 3.089E-12 2.926E-26
 ETOT 14  -11.692125618065     8.882E-15 2.092E-12 1.997E-27
 ETOT 15  -11.692125618065    -7.105E-15 2.558E-13 4.724E-28
 ETOT 16  -11.692125618065     3.553E-15 1.295E-13 2.255E-28
 ETOT 17  -11.692125618065     0.000E+00 2.049E-14 1.777E-28
 ETOT 18  -11.692125618065     1.776E-15 9.944E-15 2.704E-28
 ETOT 19  -11.692125618065    -1.776E-15 1.612E-15 2.509E-28
 ETOT 20  -11.692125618065    -1.776E-15 7.792E-16 1.793E-28
 ETOT 21  -11.692125618065     0.000E+00 1.266E-16 9.321E-28
 ETOT 22  -11.692125618065     3.553E-15 7.775E-17 3.280E-28

 At SCF step   22   max residual=  7.77E-17 < tolwfr=  1.00E-16 =>converged.

 Cartesian components of stress tensor (hartree/bohr^3)
  sigma(1 1)=  3.32487060E-03  sigma(3 2)=  1.00799402E-11
  sigma(2 2)=  3.32487060E-03  sigma(3 1)= -6.71221884E-11
  sigma(3 3)=  3.32487059E-03  sigma(2 1)=  3.14827531E-12


--- !ResultsGS
iteration_state: {dtset: 1, }
comment   : Summary of ground state results
lattice_vectors:
- [  0.0000000,   3.3354992,   3.3354992, ]
- [  3.3354992,   0.0000000,   3.3354992, ]
- [  3.3354992,   3.3354992,   0.0000000, ]
lattice_lengths: [   4.71711,    4.71711,    4.71711, ]
lattice_angles: [ 60.000,  60.000,  60.000, ] # degrees, (23, 13, 12)
lattice_volume:   7.4218556E+01
convergence: {deltae:  3.553E-15, res2:  3.280E-28, residm:  7.775E-17, diffor: null, }
etotal    :  -1.16921256E+01
entropy   :   0.00000000E+00
fermie    :   5.21038707E-01
cartesian_stress_tensor: # hartree/bohr^3
- [  3.32487060E-03,   3.14827531E-12,  -6.71221884E-11, ]
- [  3.14827531E-12,   3.32487060E-03,   1.00799402E-11, ]
- [ -6.71221884E-11,   1.00799402E-11,   3.32487059E-03, ]
pressure_GPa:  -9.7821E+01
xred      :
- [  0.0000E+00,   0.0000E+00,   0.0000E+00,  C]
- [  2.5000E-01,   2.5000E-01,   2.5000E-01,  C]
cartesian_forces: # hartree/bohr
- [  1.20713234E-09,  -8.00625431E-09,   7.76076254E-10, ]
- [ -1.20713234E-09,   8.00625431E-09,  -7.76076254E-10, ]
force_length_stats: {min:   8.13385338E-09, max:   8.13385338E-09, mean:   8.13385338E-09, }
...

 Integrated electronic density in atomic spheres:
 ------------------------------------------------
 Atom  Sphere_radius  Integrated_density
    1        2.00000          4.79819072
    2        2.00000          4.91959914
================================================================================

 ----iterations are completed or convergence reached----

 Mean square residual over all n,k,spin=   13.275E-18; max=  77.746E-18
 reduced coordinates (array xred) for    2 atoms
       0.000000000000      0.000000000000      0.000000000000
       0.250000000000      0.250000000000      0.250000000000
 rms dE/dt=  1.9736E-08; max dE/dt=  2.5997E-08; dE/dt below (all hartree)
    1       0.000000024912     -0.000000010768      0.000000025997
    2      -0.000000023320      0.000000002462     -0.000000019360

 cartesian coordinates (angstrom) at end:
    1      0.00000000000000     0.00000000000000     0.00000000000000
    2      0.88253506645871     0.88253506645871     0.88253506645871

 cartesian forces (hartree/bohr) at end:
    1      0.00000000120713    -0.00000000800625     0.00000000077608
    2     -0.00000000120713     0.00000000800625    -0.00000000077608
 frms,max,avg= 4.6960824E-09 8.0062543E-09   2.445E-10 -1.239E-09  1.001E-09 h/b

 cartesian forces (eV/Angstrom) at end:
    1      0.00000006207324    -0.00000041169811     0.00000003990744
    2     -0.00000006207324     0.00000041169811    -0.00000003990744
 frms,max,avg= 2.4148225E-07 4.1169811E-07   1.257E-08 -6.373E-08  5.145E-08 e/A
 length scales=  6.670998313100  6.670998313100  6.670998313100 bohr
              =  3.530140265835  3.530140265835  3.530140265835 angstroms
 prteigrs : about to open file t58o_DS1_EIG
 Fermi (or HOMO) energy (hartree) =   0.52104   Average Vxc (hartree)=  -0.50804
 Eigenvalues (hartree) for nkpt=   8  k points:
 kpt#   1, nband= 12, wtk=  0.12500, kpt=  0.0000  0.0000  0.0000 (reduced coord)
  -0.31566    0.52104    0.52104    0.52104    0.75482    0.75482    0.75482    0.99990
   1.19500    1.48731    1.48731    1.51083
 prteigrs : prtvol=0 or 1, do not print more k-points.

 Fermi (or HOMO) energy (eV) =  14.17818   Average Vxc (eV)= -13.82455
 Eigenvalues (   eV  ) for nkpt=   8  k points:
 kpt#   1, nband= 12, wtk=  0.12500, kpt=  0.0000  0.0000  0.0000 (reduced coord)
  -8.58958   14.17818   14.17818   14.17818   20.53956   20.53956   20.53956   27.20858
  32.51757   40.47171   40.47171   41.11182
 prteigrs : prtvol=0 or 1, do not print more k-points.


--- !EnergyTerms
iteration_state     : {dtset: 1, }
comment             : Components of total free energy in Hartree
kinetic             :  8.31278107654033E+00
hartree             :  9.59210800763781E-01
xc                  : -4.35176893019233E+00
Ewald energy        : -1.29199206267251E+01
psp_core            :  1.99605829694358E-01
local_psp           : -5.14255450435438E+00
non_local_psp       :  1.25052073620804E+00
total_energy        : -1.16921256180653E+01
total_energy_eV     : -3.18158918332516E+02
band_energy         :  1.53084956964084E+00
...


 Cartesian components of stress tensor (hartree/bohr^3)
  sigma(1 1)=  3.32487060E-03  sigma(3 2)=  1.00799402E-11
  sigma(2 2)=  3.32487060E-03  sigma(3 1)= -6.71221884E-11
  sigma(3 3)=  3.32487059E-03  sigma(2 1)=  3.14827531E-12

-Cartesian components of stress tensor (GPa)         [Pressure= -9.7821E+01 GPa]
- sigma(1 1)=  9.78210537E+01  sigma(3 2)=  2.96562031E-07
- sigma(2 2)=  9.78210537E+01  sigma(3 1)= -1.97480263E-06
- sigma(3 3)=  9.78210537E+01  sigma(2 1)=  9.26254418E-08

================================================================================
== DATASET  2 ==================================================================
-   mpi_nproc: 1, omp_nthreads: -1 (-1 if OMP is not activated)


--- !DatasetInfo
iteration_state: {dtset: 2, }
dimensions: {natom: 2, nkpt: 8, mband: 12, nsppol: 1, nspinor: 1, nspden: 1, mpw: 116, }
cutoff_energies: {ecut:  10.0, pawecutdg:  -1.0, }
electrons: {nelect:   8.00000000E+00, charge:   0.00000000E+00, occopt:   1.00000000E+00, tsmear:   1.00000000E-02, }
meta: {optdriver: 1, rfelfd: 2, }
...

 mkfilename : getwfk/=0, take file _WFK from output of DATASET   1.

 Exchange-correlation functional for the present dataset will be:
  LDA: new Teter (4/93) with spin-polarized option - ixc=1
 Citation for XC functional:
  S. Goedecker, M. Teter, J. Huetter, PRB 54, 1703 (1996)

 Real(R)+Recip(G) space primitive vectors, cartesian coordinates (Bohr,Bohr^-1):
 R(1)=  0.0000000  3.3354992  3.3354992  G(1)= -0.1499026  0.1499026  0.1499026
 R(2)=  3.3354992  0.0000000  3.3354992  G(2)=  0.1499026 -0.1499026  0.1499026
 R(3)=  3.3354992  3.3354992  0.0000000  G(3)=  0.1499026  0.1499026 -0.1499026
 Unit cell volume ucvol=  7.4218556E+01 bohr^3
 Angles (23,13,12)=  6.00000000E+01  6.00000000E+01  6.00000000E+01 degrees
 setup1 : take into account q-point for computing boxcut.

 getcut: wavevector=  0.0000  0.0000  0.0000  ngfft=  15  15  15
         ecut(hartree)=     10.000   => boxcut(ratio)=   2.09552
--------------------------------------------------------------------------------


 ==>  initialize data related to q vector <== 

 The list of irreducible perturbations for this q vector is:
    1)    idir= 1    ipert=   3
    2)    idir= 2    ipert=   3
    3)    idir= 3    ipert=   3

================================================================================

--------------------------------------------------------------------------------
 Perturbation wavevector (in red.coord.)   0.000000  0.000000  0.000000
 Perturbation : derivative vs k along direction   1
 The set of symmetries contains only one element for this perturbation.
 symkpt : not enough symmetry to change the number of k points.

--------------------------------------------------------------------------------

--------------------------------------------------------------------------------

 Initialisation of the first-order wave-functions :
  ireadwf=   0

--- !BeginCycle
iteration_state: {dtset: 2, }
solver: {iscf: -3, nstep: 50, nline: 4, wfoptalg: 0, }
tolerances: {tolwfr: 1.00E-16, }
...

     iter   2DEtotal(Ha)        deltaE(Ha) residm    vres2
-ETOT  1  -34.429003317417     -3.443E+01 1.217E-01 0.000E+00
 ETOT  2  -34.429032528509     -2.921E-05 1.841E-05 0.000E+00
 ETOT  3  -34.429032528565     -5.623E-11 4.888E-09 0.000E+00
 ETOT  4  -34.429032528565     -2.842E-14 6.856E-13 0.000E+00
 ETOT  5  -34.429032528565      1.421E-14 3.600E-15 0.000E+00
 ETOT  6  -34.429032528565     -7.105E-15 7.863E-17 0.000E+00

 At SCF step    6   max residual=  7.86E-17 < tolwfr=  1.00E-16 =>converged.
================================================================================

 ----iterations are completed or convergence reached----

 Mean square residual over all n,k,spin=   32.094E-18; max=  78.626E-18
 dfpt_looppert : ek2=    4.2581338845E+01
          f-sum rule ratio=    1.7154234614E+00
 prteigrs : about to open file t58t_1WF1_EIG
 Expectation of eigenvalue derivatives (hartree) for nkpt=   8  k points:
  (in case of degenerate eigenvalues, averaged derivative)
 kpt#   1, nband= 12, wtk=  0.12500, kpt=  0.0000  0.0000  0.0000 (reduced coord)
   0.00000    0.00000    0.00000    0.00000    0.00000    0.00000    0.00000    0.00000
   0.00000    0.00000    0.00000   -0.00000
 prteigrs : prtvol=0 or 1, do not print more k-points.

 Expectation of eigenvalue derivatives (   eV  ) for nkpt=   8  k points:
 kpt#   1, nband= 12, wtk=  0.12500, kpt=  0.0000  0.0000  0.0000 (reduced coord)
   0.00000    0.00000    0.00000    0.00000    0.00000    0.00000    0.00000    0.00000
   0.00000    0.00000    0.00000   -0.00000
 prteigrs : prtvol=0 or 1, do not print more k-points.


 Eight components of 2nd-order total energy (hartree) are
 1,2,3: 0th-order hamiltonian combined with 1st-order wavefunctions
     kin0=   3.51579924E+00 eigvalue=  -2.21285955E-01  local=  -8.32266066E-01
 4,5,6: 1st-order hamiltonian combined with 1st and 0th-order wfs
     kin1=  -7.30450277E+01  Hartree=   0.00000000E+00     xc=   0.00000000E+00
 7,8,9: eventually, occupation + non-local contributions
    edocc=   3.19427585E+01     enl0=   2.40268500E-02   enl1=   4.18696262E+00
 1-9 gives the relaxation energy (to be shifted if some occ is /=2.0)
   erelax=  -3.44290325E+01
  No Ewald or frozen-wf contrib.: the relaxation energy is the total one
 2DEtotal=   -0.3442903253E+02 Ha. Also 2DEtotal=   -0.936861620063E+03 eV
    (  non-var. 2DEtotal :   -3.4429032528E+01 Ha)

--------------------------------------------------------------------------------
 Perturbation wavevector (in red.coord.)   0.000000  0.000000  0.000000
 Perturbation : derivative vs k along direction   2
 The set of symmetries contains only one element for this perturbation.
 symkpt : not enough symmetry to change the number of k points.

--------------------------------------------------------------------------------

--------------------------------------------------------------------------------

 Initialisation of the first-order wave-functions :
  ireadwf=   0

--- !BeginCycle
iteration_state: {dtset: 2, }
solver: {iscf: -3, nstep: 50, nline: 4, wfoptalg: 0, }
tolerances: {tolwfr: 1.00E-16, }
...

     iter   2DEtotal(Ha)        deltaE(Ha) residm    vres2
-ETOT  1  -34.429003361392     -3.443E+01 1.229E-01 0.000E+00
 ETOT  2  -34.429032537623     -2.918E-05 1.841E-05 0.000E+00
 ETOT  3  -34.429032537679     -5.593E-11 4.888E-09 0.000E+00
 ETOT  4  -34.429032537679      3.553E-14 6.856E-13 0.000E+00
 ETOT  5  -34.429032537679     -7.105E-15 2.678E-15 0.000E+00
 ETOT  6  -34.429032537679      0.000E+00 9.731E-17 0.000E+00

 At SCF step    6   max residual=  9.73E-17 < tolwfr=  1.00E-16 =>converged.
================================================================================

 ----iterations are completed or convergence reached----

 Mean square residual over all n,k,spin=   33.286E-18; max=  97.312E-18
 dfpt_looppert : ek2=    4.2581338845E+01
          f-sum rule ratio=    1.7154234620E+00
 prteigrs : about to open file t58t_1WF1_EIG
 Expectation of eigenvalue derivatives (hartree) for nkpt=   8  k points:
  (in case of degenerate eigenvalues, averaged derivative)
 kpt#   1, nband= 12, wtk=  0.12500, kpt=  0.0000  0.0000  0.0000 (reduced coord)
  -0.00000   -0.00000   -0.00000   -0.00000    0.00000    0.00000    0.00000    0.00000
  -0.00000   -0.00000   -0.00000    0.00000
 prteigrs : prtvol=0 or 1, do not print more k-points.

 Expectation of eigenvalue derivatives (   eV  ) for nkpt=   8  k points:
 kpt#   1, nband= 12, wtk=  0.12500, kpt=  0.0000  0.0000  0.0000 (reduced coord)
  -0.00000   -0.00000   -0.00000   -0.00000    0.00000    0.00000    0.00000    0.00000
  -0.00000   -0.00001   -0.00001    0.00000
 prteigrs : prtvol=0 or 1, do not print more k-points.


 Eight components of 2nd-order total energy (hartree) are
 1,2,3: 0th-order hamiltonian combined with 1st-order wavefunctions
     kin0=   3.51579925E+00 eigvalue=  -2.21285956E-01  local=  -8.32266066E-01
 4,5,6: 1st-order hamiltonian combined with 1st and 0th-order wfs
     kin1=  -7.30450277E+01  Hartree=   0.00000000E+00     xc=   0.00000000E+00
 7,8,9: eventually, occupation + non-local contributions
    edocc=   3.19427585E+01     enl0=   2.40268500E-02   enl1=   4.18696262E+00
 1-9 gives the relaxation energy (to be shifted if some occ is /=2.0)
   erelax=  -3.44290325E+01
  No Ewald or frozen-wf contrib.: the relaxation energy is the total one
 2DEtotal=   -0.3442903254E+02 Ha. Also 2DEtotal=   -0.936861620311E+03 eV
    (  non-var. 2DEtotal :   -3.4429032537E+01 Ha)

--------------------------------------------------------------------------------
 Perturbation wavevector (in red.coord.)   0.000000  0.000000  0.000000
 Perturbation : derivative vs k along direction   3
 The set of symmetries contains only one element for this perturbation.
 symkpt : not enough symmetry to change the number of k points.

--------------------------------------------------------------------------------

--------------------------------------------------------------------------------

 Initialisation of the first-order wave-functions :
  ireadwf=   0

--- !BeginCycle
iteration_state: {dtset: 2, }
solver: {iscf: -3, nstep: 50, nline: 4, wfoptalg: 0, }
tolerances: {tolwfr: 1.00E-16, }
...

     iter   2DEtotal(Ha)        deltaE(Ha) residm    vres2
-ETOT  1  -34.429003286156     -3.443E+01 1.196E-01 0.000E+00
 ETOT  2  -34.429032530157     -2.924E-05 1.841E-05 0.000E+00
 ETOT  3  -34.429032530214     -5.654E-11 4.888E-09 0.000E+00
 ETOT  4  -34.429032530214     -1.421E-14 6.856E-13 0.000E+00
 ETOT  5  -34.429032530214      1.421E-14 4.650E-15 0.000E+00
 ETOT  6  -34.429032530214      0.000E+00 7.863E-17 0.000E+00

 At SCF step    6   max residual=  7.86E-17 < tolwfr=  1.00E-16 =>converged.
================================================================================

 ----iterations are completed or convergence reached----

 Mean square residual over all n,k,spin=   31.890E-18; max=  78.626E-18
 dfpt_looppert : ek2=    4.2581338845E+01
          f-sum rule ratio=    1.7154234615E+00
 prteigrs : about to open file t58t_1WF1_EIG
 Expectation of eigenvalue derivatives (hartree) for nkpt=   8  k points:
  (in case of degenerate eigenvalues, averaged derivative)
 kpt#   1, nband= 12, wtk=  0.12500, kpt=  0.0000  0.0000  0.0000 (reduced coord)
  -0.00000   -0.00000   -0.00000   -0.00000   -0.00000   -0.00000   -0.00000   -0.00000
  -0.00000    0.00000    0.00000    0.00000
 prteigrs : prtvol=0 or 1, do not print more k-points.

 Expectation of eigenvalue derivatives (   eV  ) for nkpt=   8  k points:
 kpt#   1, nband= 12, wtk=  0.12500, kpt=  0.0000  0.0000  0.0000 (reduced coord)
  -0.00000   -0.00000   -0.00000   -0.00000   -0.00000   -0.00000   -0.00000   -0.00000
  -0.00000    0.00000    0.00000    0.00000
 prteigrs : prtvol=0 or 1, do not print more k-points.


 Eight components of 2nd-order total energy (hartree) are
 1,2,3: 0th-order hamiltonian combined with 1st-order wavefunctions
     kin0=   3.51579925E+00 eigvalue=  -2.21285955E-01  local=  -8.32266066E-01
 4,5,6: 1st-order hamiltonian combined with 1st and 0th-order wfs
     kin1=  -7.30450277E+01  Hartree=   0.00000000E+00     xc=   0.00000000E+00
 7,8,9: eventually, occupation + non-local contributions
    edocc=   3.19427585E+01     enl0=   2.40268500E-02   enl1=   4.18696262E+00
 1-9 gives the relaxation energy (to be shifted if some occ is /=2.0)
   erelax=  -3.44290325E+01
  No Ewald or frozen-wf contrib.: the relaxation energy is the total one
 2DEtotal=   -0.3442903253E+02 Ha. Also 2DEtotal=   -0.936861620108E+03 eV
    (  non-var. 2DEtotal :   -3.4429032530E+01 Ha)
================================================================================

 ---- first-order wavefunction calculations are completed ----


 Total localisation tensor (bohr^2) in cartesian coordinates
  WARNING : still subject to testing - especially symmetries.
      direction              matrix element
   alpha     beta       real part   imaginary part
     1        1       2.9523463035    0.0000000000
     1        2       1.4761731518    0.0000000000
     1        3       1.4761731517    0.0000000000
     2        1       1.4761731518    0.0000000000
     2        2       2.9523463035    0.0000000000
     2        3       1.4761731517    0.0000000000
     3        1       1.4761731517    0.0000000000
     3        2       1.4761731517    0.0000000000
     3        3       2.9523463034    0.0000000000

 respfn : d/dk was computed, but no 2DTE, so no DDB output.

================================================================================
== DATASET  3 ==================================================================
-   mpi_nproc: 1, omp_nthreads: -1 (-1 if OMP is not activated)


--- !DatasetInfo
iteration_state: {dtset: 3, }
dimensions: {natom: 2, nkpt: 8, mband: 12, nsppol: 1, nspinor: 1, nspden: 1, mpw: 116, }
cutoff_energies: {ecut:  10.0, pawecutdg:  -1.0, }
electrons: {nelect:   8.00000000E+00, charge:   0.00000000E+00, occopt:   1.00000000E+00, tsmear:   1.00000000E-02, }
meta: {optdriver: 1, rfelfd: 3, rfphon: 1, }
...

 mkfilename : getwfk/=0, take file _WFK from output of DATASET   1.

 mkfilename : getddk/=0, take file _1WF from output of DATASET   2.

 Exchange-correlation functional for the present dataset will be:
  LDA: new Teter (4/93) with spin-polarized option - ixc=1
 Citation for XC functional:
  S. Goedecker, M. Teter, J. Huetter, PRB 54, 1703 (1996)

 Real(R)+Recip(G) space primitive vectors, cartesian coordinates (Bohr,Bohr^-1):
 R(1)=  0.0000000  3.3354992  3.3354992  G(1)= -0.1499026  0.1499026  0.1499026
 R(2)=  3.3354992  0.0000000  3.3354992  G(2)=  0.1499026 -0.1499026  0.1499026
 R(3)=  3.3354992  3.3354992  0.0000000  G(3)=  0.1499026  0.1499026 -0.1499026
 Unit cell volume ucvol=  7.4218556E+01 bohr^3
 Angles (23,13,12)=  6.00000000E+01  6.00000000E+01  6.00000000E+01 degrees
 setup1 : take into account q-point for computing boxcut.

 getcut: wavevector=  0.0000  0.0000  0.0000  ngfft=  15  15  15
         ecut(hartree)=     10.000   => boxcut(ratio)=   2.09552
--------------------------------------------------------------------------------


 ==>  initialize data related to q vector <== 

 The list of irreducible perturbations for this q vector is:
    1)    idir= 1    ipert=   1
    2)    idir= 2    ipert=   1
    3)    idir= 3    ipert=   1
    4)    idir= 1    ipert=   2
    5)    idir= 2    ipert=   2
    6)    idir= 3    ipert=   2
    7)    idir= 1    ipert=   4
    8)    idir= 2    ipert=   4
    9)    idir= 3    ipert=   4

================================================================================

--------------------------------------------------------------------------------
 Perturbation wavevector (in red.coord.)   0.000000  0.000000  0.000000
 Perturbation : displacement of atom   1   along direction   1
 The set of symmetries contains only one element for this perturbation.
 symkpt : not enough symmetry to change the number of k points.

--------------------------------------------------------------------------------

--------------------------------------------------------------------------------

 Initialisation of the first-order wave-functions :
  ireadwf=   0

--- !BeginCycle
iteration_state: {dtset: 3, }
solver: {iscf: 7, nstep: 50, nline: 4, wfoptalg: 0, }
tolerances: {tolwfr: 1.00E-16, }
...

     iter   2DEtotal(Ha)        deltaE(Ha) residm    vres2
-ETOT  1   25.947567294846     -1.786E+02 7.195E-01 3.974E+03
 ETOT  2   17.916898661104     -8.031E+00 3.894E-01 9.805E+01
 ETOT  3   17.650344982715     -2.666E-01 9.526E-04 7.097E-01
 ETOT  4   17.648650667053     -1.694E-03 4.746E-04 3.694E-03
 ETOT  5   17.648645892902     -4.774E-06 8.874E-06 5.178E-06
 ETOT  6   17.648645888872     -4.030E-09 5.093E-06 1.373E-07
 ETOT  7   17.648645888695     -1.768E-10 8.301E-08 8.485E-08
 ETOT  8   17.648645888364     -3.312E-10 4.759E-08 1.317E-11
 ETOT  9   17.648645888364     -1.137E-13 8.919E-10 1.264E-14
 ETOT 10   17.648645888364     -1.990E-13 2.324E-10 8.492E-17
 ETOT 11   17.648645888364      1.990E-13 5.887E-11 1.358E-18
 ETOT 12   17.648645888364     -2.274E-13 1.829E-11 1.091E-20
 ETOT 13   17.648645888364      1.705E-13 4.694E-12 1.016E-23
 ETOT 14   17.648645888364      5.684E-14 1.460E-12 9.343E-26
 ETOT 15   17.648645888364      2.842E-14 3.765E-13 7.205E-27
 ETOT 16   17.648645888364      0.000E+00 1.170E-13 4.042E-27
 ETOT 17   17.648645888364      2.842E-14 3.023E-14 2.044E-27
 ETOT 18   17.648645888364     -2.842E-14 9.389E-15 2.012E-27
 ETOT 19   17.648645888364      5.684E-14 2.428E-15 2.369E-27
 ETOT 20   17.648645888364     -2.842E-14 7.540E-16 3.761E-27
 ETOT 21   17.648645888364      2.842E-14 1.951E-16 1.514E-26
 ETOT 22   17.648645888364     -8.527E-14 9.199E-17 9.003E-27

 At SCF step   22   max residual=  9.20E-17 < tolwfr=  1.00E-16 =>converged.
-open ddk wf file :t58o_DS2_1WF7.nc
-open ddk wf file :t58o_DS2_1WF8.nc
-open ddk wf file :t58o_DS2_1WF9.nc
================================================================================

 ----iterations are completed or convergence reached----

 Mean square residual over all n,k,spin=   27.116E-18; max=  91.991E-18

 Thirteen components of 2nd-order total energy (hartree) are
 1,2,3: 0th-order hamiltonian combined with 1st-order wavefunctions
     kin0=   1.93385865E+02 eigvalue=  -1.37724382E+01  local=  -8.22010847E+01
 4,5,6: 1st-order hamiltonian combined with 1st and 0th-order wfs
 loc psp =  -1.02457460E+02  Hartree=   2.32970458E+01     xc=  -8.65000537E+00
 note that "loc psp" includes a xc core correction that could be resolved
 7,8,9: eventually, occupation + non-local contributions
    edocc=   2.34079354E+01     enl0=   5.14805918E+01   enl1=  -2.71438360E+02
 1-9 gives the relaxation energy (to be shifted if some occ is /=2.0)
   erelax=  -1.86947910E+02
 10,11,12 Non-relaxation  contributions : frozen-wavefunctions and Ewald
 fr.local=   3.35591145E+01 fr.nonlo=   1.52998630E+02  Ewald=   2.00931375E+01
 13,14 Frozen wf xc core corrections (1) and (2)
 frxc 1  =  -1.12473741E+01  frxc 2 =   9.19304716E+00
 Resulting in :
 2DEtotal=    0.1764864589E+02 Ha. Also 2DEtotal=    0.480244077877E+03 eV
    (2DErelax=   -1.8694790968E+02 Ha. 2DEnonrelax=    2.0459655556E+02 Ha)
    (  non-var. 2DEtotal :    1.7648645909E+01 Ha)


--------------------------------------------------------------------------------
 Perturbation wavevector (in red.coord.)   0.000000  0.000000  0.000000
 Perturbation : displacement of atom   1   along direction   2
 The set of symmetries contains only one element for this perturbation.
 symkpt : not enough symmetry to change the number of k points.

--------------------------------------------------------------------------------

--------------------------------------------------------------------------------

 Initialisation of the first-order wave-functions :
  ireadwf=   0

--- !BeginCycle
iteration_state: {dtset: 3, }
solver: {iscf: 7, nstep: 50, nline: 4, wfoptalg: 0, }
tolerances: {tolwfr: 1.00E-16, }
...

     iter   2DEtotal(Ha)        deltaE(Ha) residm    vres2
-ETOT  1   25.947144466633     -1.786E+02 6.480E-01 3.974E+03
 ETOT  2   17.917027810053     -8.030E+00 7.799E-01 9.808E+01
 ETOT  3   17.650347463768     -2.667E-01 3.878E-03 7.105E-01
 ETOT  4   17.648650745013     -1.697E-03 4.223E-04 3.706E-03
 ETOT  5   17.648645965097     -4.780E-06 5.162E-05 1.106E-05
 ETOT  6   17.648645965201      1.039E-10 4.454E-06 7.061E-06
 ETOT  7   17.648645937617     -2.758E-08 4.712E-07 1.638E-08
 ETOT  8   17.648645937561     -5.642E-11 4.188E-08 9.668E-12
 ETOT  9   17.648645937561      5.400E-13 4.326E-09 1.303E-14
 ETOT 10   17.648645937561     -4.263E-13 1.924E-10 7.713E-17
 ETOT 11   17.648645937561      3.695E-13 1.339E-10 7.916E-19
 ETOT 12   17.648645937561     -1.705E-13 8.660E-12 6.455E-21
 ETOT 13   17.648645937561      2.274E-13 6.607E-12 1.852E-23
 ETOT 14   17.648645937561     -5.684E-14 4.297E-13 4.047E-26
 ETOT 15   17.648645937561     -1.137E-13 3.266E-13 3.785E-27
 ETOT 16   17.648645937561      0.000E+00 2.123E-14 2.150E-27
 ETOT 17   17.648645937561      0.000E+00 1.615E-14 3.571E-27
 ETOT 18   17.648645937561      2.842E-14 1.049E-15 7.864E-27
 ETOT 19   17.648645937561      8.527E-14 7.988E-16 6.384E-27
 ETOT 20   17.648645937561      5.684E-14 9.623E-17 3.528E-27

 At SCF step   20   max residual=  9.62E-17 < tolwfr=  1.00E-16 =>converged.
-open ddk wf file :t58o_DS2_1WF7.nc
-open ddk wf file :t58o_DS2_1WF8.nc
-open ddk wf file :t58o_DS2_1WF9.nc
================================================================================

 ----iterations are completed or convergence reached----

 Mean square residual over all n,k,spin=   27.655E-18; max=  96.230E-18

 Thirteen components of 2nd-order total energy (hartree) are
 1,2,3: 0th-order hamiltonian combined with 1st-order wavefunctions
     kin0=   1.93520694E+02 eigvalue=  -1.37978995E+01  local=  -8.22608482E+01
 4,5,6: 1st-order hamiltonian combined with 1st and 0th-order wfs
 loc psp =  -1.02457460E+02  Hartree=   2.32970458E+01     xc=  -8.65000538E+00
 note that "loc psp" includes a xc core correction that could be resolved
 7,8,9: eventually, occupation + non-local contributions
    edocc=   2.33583316E+01     enl0=   5.14805918E+01   enl1=  -2.71438360E+02
 1-9 gives the relaxation energy (to be shifted if some occ is /=2.0)
   erelax=  -1.86947910E+02
 10,11,12 Non-relaxation  contributions : frozen-wavefunctions and Ewald
 fr.local=   3.35591146E+01 fr.nonlo=   1.52998630E+02  Ewald=   2.00931375E+01
 13,14 Frozen wf xc core corrections (1) and (2)
 frxc 1  =  -1.12473741E+01  frxc 2 =   9.19304716E+00
 Resulting in :
 2DEtotal=    0.1764864594E+02 Ha. Also 2DEtotal=    0.480244079216E+03 eV
    (2DErelax=   -1.8694790971E+02 Ha. 2DEnonrelax=    2.0459655564E+02 Ha)
    (  non-var. 2DEtotal :    1.7648645961E+01 Ha)


--------------------------------------------------------------------------------
 Perturbation wavevector (in red.coord.)   0.000000  0.000000  0.000000
 Perturbation : displacement of atom   1   along direction   3
 The set of symmetries contains only one element for this perturbation.
 symkpt : not enough symmetry to change the number of k points.

--------------------------------------------------------------------------------

--------------------------------------------------------------------------------

 Initialisation of the first-order wave-functions :
  ireadwf=   0

--- !BeginCycle
iteration_state: {dtset: 3, }
solver: {iscf: 7, nstep: 50, nline: 4, wfoptalg: 0, }
tolerances: {tolwfr: 1.00E-16, }
...

     iter   2DEtotal(Ha)        deltaE(Ha) residm    vres2
-ETOT  1   25.946450685206     -1.787E+02 8.983E-01 3.974E+03
 ETOT  2   17.916854283456     -8.030E+00 9.406E-01 9.803E+01
 ETOT  3   17.650345690639     -2.665E-01 7.168E-03 7.099E-01
 ETOT  4   17.648650687312     -1.695E-03 2.466E-04 3.699E-03
 ETOT  5   17.648645914867     -4.772E-06 8.847E-05 1.050E-05
 ETOT  6   17.648645914788     -7.941E-11 1.723E-06 6.464E-06
 ETOT  7   17.648645889550     -2.524E-08 5.397E-07 1.751E-08
 ETOT  8   17.648645889490     -5.971E-11 9.296E-09 9.675E-12
 ETOT  9   17.648645889489     -5.684E-13 2.928E-09 1.469E-14
 ETOT 10   17.648645889490      8.527E-14 4.631E-10 1.473E-16
 ETOT 11   17.648645889490      0.000E+00 2.023E-10 2.638E-18
 ETOT 12   17.648645889489     -8.527E-14 3.269E-11 1.500E-20
 ETOT 13   17.648645889489     -1.137E-13 1.491E-11 1.573E-23
 ETOT 14   17.648645889489      0.000E+00 2.510E-12 1.347E-25
 ETOT 15   17.648645889490      2.274E-13 1.181E-12 4.954E-27
 ETOT 16   17.648645889490      2.842E-14 2.068E-13 3.849E-27
 ETOT 17   17.648645889490     -2.842E-14 9.826E-14 2.202E-27
 ETOT 18   17.648645889489     -1.705E-13 1.767E-14 3.490E-27
 ETOT 19   17.648645889490      1.705E-13 8.392E-15 8.931E-27
 ETOT 20   17.648645889490      0.000E+00 1.529E-15 5.651E-27
 ETOT 21   17.648645889490      2.842E-14 7.242E-16 5.984E-27
 ETOT 22   17.648645889490     -8.527E-14 1.327E-16 7.356E-27
 ETOT 23   17.648645889490      5.684E-14 9.695E-17 8.776E-27

 At SCF step   23   max residual=  9.69E-17 < tolwfr=  1.00E-16 =>converged.
-open ddk wf file :t58o_DS2_1WF7.nc
-open ddk wf file :t58o_DS2_1WF8.nc
-open ddk wf file :t58o_DS2_1WF9.nc
================================================================================

 ----iterations are completed or convergence reached----

 Mean square residual over all n,k,spin=   27.204E-18; max=  96.946E-18

 Thirteen components of 2nd-order total energy (hartree) are
 1,2,3: 0th-order hamiltonian combined with 1st-order wavefunctions
     kin0=   1.93493332E+02 eigvalue=  -1.37909366E+01  local=  -8.22509952E+01
 4,5,6: 1st-order hamiltonian combined with 1st and 0th-order wfs
 loc psp =  -1.02457460E+02  Hartree=   2.32970458E+01     xc=  -8.65000538E+00
 note that "loc psp" includes a xc core correction that could be resolved
 7,8,9: eventually, occupation + non-local contributions
    edocc=   2.33688769E+01     enl0=   5.14805918E+01   enl1=  -2.71438360E+02
 1-9 gives the relaxation energy (to be shifted if some occ is /=2.0)
   erelax=  -1.86947910E+02
 10,11,12 Non-relaxation  contributions : frozen-wavefunctions and Ewald
 fr.local=   3.35591146E+01 fr.nonlo=   1.52998630E+02  Ewald=   2.00931375E+01
 13,14 Frozen wf xc core corrections (1) and (2)
 frxc 1  =  -1.12473741E+01  frxc 2 =   9.19304716E+00
 Resulting in :
 2DEtotal=    0.1764864589E+02 Ha. Also 2DEtotal=    0.480244077908E+03 eV
    (2DErelax=   -1.8694790969E+02 Ha. 2DEnonrelax=    2.0459655558E+02 Ha)
    (  non-var. 2DEtotal :    1.7648645913E+01 Ha)


--------------------------------------------------------------------------------
 Perturbation wavevector (in red.coord.)   0.000000  0.000000  0.000000
 Perturbation : displacement of atom   2   along direction   1
 The set of symmetries contains only one element for this perturbation.
 symkpt : not enough symmetry to change the number of k points.

--------------------------------------------------------------------------------

--------------------------------------------------------------------------------

 Initialisation of the first-order wave-functions :
  ireadwf=   0

--- !BeginCycle
iteration_state: {dtset: 3, }
solver: {iscf: 7, nstep: 50, nline: 4, wfoptalg: 0, }
tolerances: {tolwfr: 1.00E-16, }
...

     iter   2DEtotal(Ha)        deltaE(Ha) residm    vres2
-ETOT  1   25.948197558063     -1.786E+02 7.195E-01 3.974E+03
 ETOT  2   17.917495397207     -8.031E+00 3.894E-01 9.805E+01
 ETOT  3   17.650940882670     -2.666E-01 9.524E-04 7.097E-01
 ETOT  4   17.649246561573     -1.694E-03 4.746E-04 3.694E-03
 ETOT  5   17.649241787536     -4.774E-06 8.871E-06 5.292E-06
 ETOT  6   17.649241783632     -3.903E-09 5.093E-06 2.832E-07
 ETOT  7   17.649241782942     -6.908E-10 8.293E-08 9.967E-08
 ETOT  8   17.649241782553     -3.888E-10 4.783E-08 1.135E-11
 ETOT  9   17.649241782553     -2.274E-13 8.694E-10 1.234E-14
 ETOT 10   17.649241782552     -5.684E-13 2.059E-10 6.806E-17
 ETOT 11   17.649241782553      6.253E-13 5.958E-11 6.620E-19
 ETOT 12   17.649241782553      1.705E-13 1.703E-11 4.989E-21
 ETOT 13   17.649241782553     -2.842E-14 4.989E-12 1.476E-23
 ETOT 14   17.649241782553     -2.842E-14 1.426E-12 4.257E-26
 ETOT 15   17.649241782553      0.000E+00 4.206E-13 2.689E-27
 ETOT 16   17.649241782553      0.000E+00 1.201E-13 2.187E-27
 ETOT 17   17.649241782553     -5.684E-14 3.556E-14 5.389E-27
 ETOT 18   17.649241782553      8.527E-14 1.014E-14 3.582E-27
 ETOT 19   17.649241782553     -5.684E-14 3.009E-15 2.488E-27
 ETOT 20   17.649241782553     -2.842E-14 8.579E-16 5.390E-27
 ETOT 21   17.649241782553     -5.684E-14 2.548E-16 7.299E-27
 ETOT 22   17.649241782553      1.421E-13 9.215E-17 1.740E-27

 At SCF step   22   max residual=  9.22E-17 < tolwfr=  1.00E-16 =>converged.
-open ddk wf file :t58o_DS2_1WF7.nc
-open ddk wf file :t58o_DS2_1WF8.nc
-open ddk wf file :t58o_DS2_1WF9.nc
================================================================================

 ----iterations are completed or convergence reached----

 Mean square residual over all n,k,spin=   27.565E-18; max=  92.154E-18

 Thirteen components of 2nd-order total energy (hartree) are
 1,2,3: 0th-order hamiltonian combined with 1st-order wavefunctions
     kin0=   1.93386595E+02 eigvalue=  -1.37724853E+01  local=  -8.22014787E+01
 4,5,6: 1st-order hamiltonian combined with 1st and 0th-order wfs
 loc psp =  -1.02458184E+02  Hartree=   2.32970488E+01     xc=  -8.64996460E+00
 note that "loc psp" includes a xc core correction that could be resolved
 7,8,9: eventually, occupation + non-local contributions
    edocc=   2.34079079E+01     enl0=   5.14808527E+01   enl1=  -2.71438767E+02
 1-9 gives the relaxation energy (to be shifted if some occ is /=2.0)
   erelax=  -1.86948476E+02
 10,11,12 Non-relaxation  contributions : frozen-wavefunctions and Ewald
 fr.local=   3.35590570E+01 fr.nonlo=   1.52998493E+02  Ewald=   2.00931375E+01
 13,14 Frozen wf xc core corrections (1) and (2)
 frxc 1  =  -1.12462100E+01  frxc 2 =   9.19323942E+00
 Resulting in :
 2DEtotal=    0.1764924178E+02 Ha. Also 2DEtotal=    0.480260292983E+03 eV
    (2DErelax=   -1.8694847554E+02 Ha. 2DEnonrelax=    2.0459771732E+02 Ha)
    (  non-var. 2DEtotal :    1.7649241804E+01 Ha)


--------------------------------------------------------------------------------
 Perturbation wavevector (in red.coord.)   0.000000  0.000000  0.000000
 Perturbation : displacement of atom   2   along direction   2
 The set of symmetries contains only one element for this perturbation.
 symkpt : not enough symmetry to change the number of k points.

--------------------------------------------------------------------------------

--------------------------------------------------------------------------------

 Initialisation of the first-order wave-functions :
  ireadwf=   0

--- !BeginCycle
iteration_state: {dtset: 3, }
solver: {iscf: 7, nstep: 50, nline: 4, wfoptalg: 0, }
tolerances: {tolwfr: 1.00E-16, }
...

     iter   2DEtotal(Ha)        deltaE(Ha) residm    vres2
-ETOT  1   25.947728627651     -1.786E+02 6.480E-01 3.974E+03
 ETOT  2   17.917623965102     -8.030E+00 7.799E-01 9.808E+01
 ETOT  3   17.650943447336     -2.667E-01 3.878E-03 7.105E-01
 ETOT  4   17.649246684361     -1.697E-03 4.222E-04 3.707E-03
 ETOT  5   17.649241904521     -4.780E-06 5.163E-05 1.211E-05
 ETOT  6   17.649241904884      3.631E-10 4.454E-06 8.180E-06
 ETOT  7   17.649241872910     -3.197E-08 4.710E-07 1.448E-08
 ETOT  8   17.649241872862     -4.809E-11 4.140E-08 9.671E-12
 ETOT  9   17.649241872862      0.000E+00 4.201E-09 1.321E-14
 ETOT 10   17.649241872862     -2.842E-13 2.723E-10 8.463E-17
 ETOT 11   17.649241872861     -2.274E-13 2.373E-10 1.119E-18
 ETOT 12   17.649241872862      4.263E-13 2.039E-11 9.860E-21
 ETOT 13   17.649241872862      1.137E-13 1.786E-11 1.907E-23
 ETOT 14   17.649241872862      2.842E-14 1.539E-12 6.916E-26
 ETOT 15   17.649241872862      0.000E+00 1.353E-12 4.304E-27
 ETOT 16   17.649241872862     -5.684E-14 1.165E-13 2.659E-27
 ETOT 17   17.649241872862      5.684E-14 1.025E-13 2.673E-27
 ETOT 18   17.649241872862     -5.684E-14 8.828E-15 4.148E-27
 ETOT 19   17.649241872862      2.842E-14 7.773E-15 4.666E-27
 ETOT 20   17.649241872862      0.000E+00 6.692E-16 2.222E-27
 ETOT 21   17.649241872862      8.527E-14 5.894E-16 1.199E-26
 ETOT 22   17.649241872862     -1.137E-13 9.904E-17 6.184E-27

 At SCF step   22   max residual=  9.90E-17 < tolwfr=  1.00E-16 =>converged.
-open ddk wf file :t58o_DS2_1WF7.nc
-open ddk wf file :t58o_DS2_1WF8.nc
-open ddk wf file :t58o_DS2_1WF9.nc
================================================================================

 ----iterations are completed or convergence reached----

 Mean square residual over all n,k,spin=   29.261E-18; max=  99.037E-18

 Thirteen components of 2nd-order total energy (hartree) are
 1,2,3: 0th-order hamiltonian combined with 1st-order wavefunctions
     kin0=   1.93521423E+02 eigvalue=  -1.37979466E+01  local=  -8.22612422E+01
 4,5,6: 1st-order hamiltonian combined with 1st and 0th-order wfs
 loc psp =  -1.02458184E+02  Hartree=   2.32970488E+01     xc=  -8.64996460E+00
 note that "loc psp" includes a xc core correction that could be resolved
 7,8,9: eventually, occupation + non-local contributions
    edocc=   2.33583042E+01     enl0=   5.14808527E+01   enl1=  -2.71438767E+02
 1-9 gives the relaxation energy (to be shifted if some occ is /=2.0)
   erelax=  -1.86948476E+02
 10,11,12 Non-relaxation  contributions : frozen-wavefunctions and Ewald
 fr.local=   3.35590571E+01 fr.nonlo=   1.52998493E+02  Ewald=   2.00931375E+01
 13,14 Frozen wf xc core corrections (1) and (2)
 frxc 1  =  -1.12462100E+01  frxc 2 =   9.19323942E+00
 Resulting in :
 2DEtotal=    0.1764924187E+02 Ha. Also 2DEtotal=    0.480260295440E+03 eV
    (2DErelax=   -1.8694847560E+02 Ha. 2DEnonrelax=    2.0459771747E+02 Ha)
    (  non-var. 2DEtotal :    1.7649241897E+01 Ha)


--------------------------------------------------------------------------------
 Perturbation wavevector (in red.coord.)   0.000000  0.000000  0.000000
 Perturbation : displacement of atom   2   along direction   3
 The set of symmetries contains only one element for this perturbation.
 symkpt : not enough symmetry to change the number of k points.

--------------------------------------------------------------------------------

--------------------------------------------------------------------------------

 Initialisation of the first-order wave-functions :
  ireadwf=   0

--- !BeginCycle
iteration_state: {dtset: 3, }
solver: {iscf: 7, nstep: 50, nline: 4, wfoptalg: 0, }
tolerances: {tolwfr: 1.00E-16, }
...

     iter   2DEtotal(Ha)        deltaE(Ha) residm    vres2
-ETOT  1   25.947078782983     -1.787E+02 8.983E-01 3.974E+03
 ETOT  2   17.917450950985     -8.030E+00 9.406E-01 9.803E+01
 ETOT  3   17.650941565741     -2.665E-01 7.168E-03 7.099E-01
 ETOT  4   17.649246560339     -1.695E-03 2.466E-04 3.697E-03
 ETOT  5   17.649241786977     -4.773E-06 8.847E-05 7.769E-06
 ETOT  6   17.649241785367     -1.610E-09 1.721E-06 3.346E-06
 ETOT  7   17.649241772394     -1.297E-08 5.391E-07 3.021E-08
 ETOT  8   17.649241772284     -1.103E-10 7.890E-09 9.742E-12
 ETOT  9   17.649241772284      1.990E-13 4.486E-09 1.339E-14
 ETOT 10   17.649241772284     -3.126E-13 2.805E-10 9.689E-17
 ETOT 11   17.649241772284      1.421E-13 2.019E-10 1.569E-18
 ETOT 12   17.649241772284      3.126E-13 1.508E-11 1.234E-20
 ETOT 13   17.649241772284     -2.274E-13 1.122E-11 1.766E-23
 ETOT 14   17.649241772284      1.137E-13 9.116E-13 9.970E-26
 ETOT 15   17.649241772284     -2.842E-14 6.838E-13 4.221E-27
 ETOT 16   17.649241772284      2.842E-14 5.683E-14 5.730E-27
 ETOT 17   17.649241772284      0.000E+00 4.242E-14 1.198E-26
 ETOT 18   17.649241772284     -2.842E-14 3.546E-15 4.021E-27
 ETOT 19   17.649241772284      2.842E-14 2.639E-15 4.360E-27
 ETOT 20   17.649241772284      0.000E+00 2.209E-16 1.670E-27
 ETOT 21   17.649241772284     -5.684E-14 1.642E-16 1.884E-27
 ETOT 22   17.649241772284      1.137E-13 8.977E-17 1.756E-27

 At SCF step   22   max residual=  8.98E-17 < tolwfr=  1.00E-16 =>converged.
-open ddk wf file :t58o_DS2_1WF7.nc
-open ddk wf file :t58o_DS2_1WF8.nc
-open ddk wf file :t58o_DS2_1WF9.nc
================================================================================

 ----iterations are completed or convergence reached----

 Mean square residual over all n,k,spin=   27.940E-18; max=  89.773E-18

 Thirteen components of 2nd-order total energy (hartree) are
 1,2,3: 0th-order hamiltonian combined with 1st-order wavefunctions
     kin0=   1.93494062E+02 eigvalue=  -1.37909837E+01  local=  -8.22513891E+01
 4,5,6: 1st-order hamiltonian combined with 1st and 0th-order wfs
 loc psp =  -1.02458184E+02  Hartree=   2.32970488E+01     xc=  -8.64996460E+00
 note that "loc psp" includes a xc core correction that could be resolved
 7,8,9: eventually, occupation + non-local contributions
    edocc=   2.33688494E+01     enl0=   5.14808527E+01   enl1=  -2.71438767E+02
 1-9 gives the relaxation energy (to be shifted if some occ is /=2.0)
   erelax=  -1.86948476E+02
 10,11,12 Non-relaxation  contributions : frozen-wavefunctions and Ewald
 fr.local=   3.35590570E+01 fr.nonlo=   1.52998493E+02  Ewald=   2.00931375E+01
 13,14 Frozen wf xc core corrections (1) and (2)
 frxc 1  =  -1.12462100E+01  frxc 2 =   9.19323942E+00
 Resulting in :
 2DEtotal=    0.1764924177E+02 Ha. Also 2DEtotal=    0.480260292704E+03 eV
    (2DErelax=   -1.8694847555E+02 Ha. 2DEnonrelax=    2.0459771732E+02 Ha)
    (  non-var. 2DEtotal :    1.7649241796E+01 Ha)


--------------------------------------------------------------------------------
 Perturbation wavevector (in red.coord.)   0.000000  0.000000  0.000000
 Perturbation : homogeneous electric field along direction   1
 The set of symmetries contains only one element for this perturbation.
 symkpt : not enough symmetry to change the number of k points.

--------------------------------------------------------------------------------

--------------------------------------------------------------------------------

 Initialisation of the first-order wave-functions :
  ireadwf=   0
- dfpt_looppert: read the DDK wavefunctions from file: t58o_DS2_1WF7.nc

--- !BeginCycle
iteration_state: {dtset: 3, }
solver: {iscf: 7, nstep: 50, nline: 4, wfoptalg: 0, }
tolerances: {tolwfr: 1.00E-16, }
...

     iter   2DEtotal(Ha)        deltaE(Ha) residm    vres2
-ETOT  1  -228.13787584396     -2.281E+02 1.326E+02 1.124E+03
 ETOT  2  -230.60179695772     -2.464E+00 1.032E-01 2.524E+01
 ETOT  3  -230.67330940305     -7.151E-02 3.744E-03 3.235E-01
 ETOT  4  -230.67409613194     -7.867E-04 1.478E-05 3.081E-04
 ETOT  5  -230.67409650517     -3.732E-07 3.873E-07 4.208E-06
 ETOT  6  -230.67409651267     -7.503E-09 7.452E-10 2.143E-06
 ETOT  7  -230.67409652104     -8.374E-09 3.184E-09 3.618E-11
 ETOT  8  -230.67409652104     -3.979E-13 8.707E-12 2.641E-14
 ETOT  9  -230.67409652104      4.263E-13 2.636E-11 2.724E-16
 ETOT 10  -230.67409652104     -3.979E-13 1.269E-13 2.660E-18
 ETOT 11  -230.67409652104      3.411E-13 3.280E-13 3.381E-20
 ETOT 12  -230.67409652104     -1.421E-13 1.854E-15 7.677E-23
 ETOT 13  -230.67409652104     -8.527E-14 4.787E-15 6.666E-26
 ETOT 14  -230.67409652104     -5.684E-14 9.731E-17 6.281E-28

 At SCF step   14   max residual=  9.73E-17 < tolwfr=  1.00E-16 =>converged.
-open ddk wf file :t58o_DS2_1WF7.nc
-open ddk wf file :t58o_DS2_1WF8.nc
-open ddk wf file :t58o_DS2_1WF9.nc
================================================================================

 ----iterations are completed or convergence reached----

 Mean square residual over all n,k,spin=   35.458E-18; max=  97.313E-18

 Seven components of 2nd-order total energy (hartree) are
 1,2,3: 0th-order hamiltonian combined with 1st-order wavefunctions
     kin0=   4.70937329E-01 eigvalue=  -3.75793789E-02  local=  -1.06318295E-01
 4,5,6: 1st-order hamiltonian combined with 1st and 0th-order wfs
    dotwf=  -4.61348193E+02  Hartree=   2.62446705E+01     xc=  -1.68721215E+01
 7,8,9: eventually, occupation + non-local contributions
    edocc=   2.20954841E+02     enl0=   1.96667288E-02   enl1=   0.00000000E+00
 1-9 gives the relaxation energy (to be shifted if some occ is /=2.0)
   erelax=  -2.30674097E+02
  No Ewald or frozen-wf contrib.: the relaxation energy is the total one
 2DEtotal=   -0.2306740965E+03 Ha. Also 2DEtotal=   -0.627696138699E+04 eV
    (  non-var. 2DEtotal :   -2.3067409652E+02 Ha)

--------------------------------------------------------------------------------
 Perturbation wavevector (in red.coord.)   0.000000  0.000000  0.000000
 Perturbation : homogeneous electric field along direction   2
 The set of symmetries contains only one element for this perturbation.
 symkpt : not enough symmetry to change the number of k points.

--------------------------------------------------------------------------------

--------------------------------------------------------------------------------

 Initialisation of the first-order wave-functions :
  ireadwf=   0
- dfpt_looppert: read the DDK wavefunctions from file: t58o_DS2_1WF8.nc

--- !BeginCycle
iteration_state: {dtset: 3, }
solver: {iscf: 7, nstep: 50, nline: 4, wfoptalg: 0, }
tolerances: {tolwfr: 1.00E-16, }
...

     iter   2DEtotal(Ha)        deltaE(Ha) residm    vres2
-ETOT  1  -228.13787489651     -2.281E+02 1.506E+02 1.124E+03
 ETOT  2  -230.60179687341     -2.464E+00 9.527E-02 2.524E+01
 ETOT  3  -230.67330921816     -7.151E-02 3.534E-03 3.235E-01
 ETOT  4  -230.67409595913     -7.867E-04 1.762E-05 3.086E-04
 ETOT  5  -230.67409633128     -3.721E-07 5.855E-07 5.018E-06
 ETOT  6  -230.67409634166     -1.038E-08 4.034E-11 2.220E-06
 ETOT  7  -230.67409635033     -8.671E-09 1.449E-10 3.548E-11
 ETOT  8  -230.67409635033     -1.990E-13 1.732E-13 2.256E-14
 ETOT  9  -230.67409635033      1.421E-13 4.534E-13 1.866E-16
 ETOT 10  -230.67409635033     -1.705E-13 1.043E-15 2.352E-18
 ETOT 11  -230.67409635033      8.527E-14 1.143E-15 3.304E-20
 ETOT 12  -230.67409635033     -1.137E-13 9.732E-17 7.345E-23

 At SCF step   12   max residual=  9.73E-17 < tolwfr=  1.00E-16 =>converged.
-open ddk wf file :t58o_DS2_1WF7.nc
-open ddk wf file :t58o_DS2_1WF8.nc
-open ddk wf file :t58o_DS2_1WF9.nc
================================================================================

 ----iterations are completed or convergence reached----

 Mean square residual over all n,k,spin=   35.607E-18; max=  97.318E-18

 Seven components of 2nd-order total energy (hartree) are
 1,2,3: 0th-order hamiltonian combined with 1st-order wavefunctions
     kin0=   4.70937327E-01 eigvalue=  -3.75793788E-02  local=  -1.06318295E-01
 4,5,6: 1st-order hamiltonian combined with 1st and 0th-order wfs
    dotwf=  -4.61348193E+02  Hartree=   2.62446704E+01     xc=  -1.68721215E+01
 7,8,9: eventually, occupation + non-local contributions
    edocc=   2.20954841E+02     enl0=   1.96667288E-02   enl1=   0.00000000E+00
 1-9 gives the relaxation energy (to be shifted if some occ is /=2.0)
   erelax=  -2.30674096E+02
  No Ewald or frozen-wf contrib.: the relaxation energy is the total one
 2DEtotal=   -0.2306740964E+03 Ha. Also 2DEtotal=   -0.627696138235E+04 eV
    (  non-var. 2DEtotal :   -2.3067409635E+02 Ha)

--------------------------------------------------------------------------------
 Perturbation wavevector (in red.coord.)   0.000000  0.000000  0.000000
 Perturbation : homogeneous electric field along direction   3
 The set of symmetries contains only one element for this perturbation.
 symkpt : not enough symmetry to change the number of k points.

--------------------------------------------------------------------------------

--------------------------------------------------------------------------------

 Initialisation of the first-order wave-functions :
  ireadwf=   0
- dfpt_looppert: read the DDK wavefunctions from file: t58o_DS2_1WF9.nc

--- !BeginCycle
iteration_state: {dtset: 3, }
solver: {iscf: 7, nstep: 50, nline: 4, wfoptalg: 0, }
tolerances: {tolwfr: 1.00E-16, }
...

     iter   2DEtotal(Ha)        deltaE(Ha) residm    vres2
-ETOT  1  -228.13787660448     -2.281E+02 1.101E+02 1.124E+03
 ETOT  2  -230.60180457161     -2.464E+00 1.122E-01 2.524E+01
 ETOT  3  -230.67330974565     -7.151E-02 3.954E-03 3.234E-01
 ETOT  4  -230.67409614988     -7.864E-04 1.267E-05 3.085E-04
 ETOT  5  -230.67409652128     -3.714E-07 1.415E-07 5.263E-06
 ETOT  6  -230.67409653255     -1.127E-08 9.445E-09 2.238E-06
 ETOT  7  -230.67409654129     -8.738E-09 9.638E-09 3.774E-11
 ETOT  8  -230.67409654129      8.527E-14 5.423E-10 3.002E-13
 ETOT  9  -230.67409654129     -2.274E-13 4.882E-10 6.753E-16
 ETOT 10  -230.67409654129     -2.842E-14 2.629E-11 4.266E-18
 ETOT 11  -230.67409654129      8.527E-14 2.295E-11 4.567E-20
 ETOT 12  -230.67409654129     -2.842E-14 1.265E-12 8.904E-23
 ETOT 13  -230.67409654129      8.527E-14 1.103E-12 1.913E-25
 ETOT 14  -230.67409654129     -2.842E-14 6.342E-14 2.001E-27
 ETOT 15  -230.67409654129      2.842E-14 5.668E-14 3.581E-28
 ETOT 16  -230.67409654129     -5.684E-14 3.396E-15 2.183E-28
 ETOT 17  -230.67409654129      2.842E-14 3.138E-15 4.146E-28
 ETOT 18  -230.67409654129     -5.684E-14 1.930E-16 2.984E-28
 ETOT 19  -230.67409654129      0.000E+00 1.826E-16 2.372E-28
 ETOT 20  -230.67409654129      5.684E-14 9.647E-17 4.567E-28

 At SCF step   20   max residual=  9.65E-17 < tolwfr=  1.00E-16 =>converged.
-open ddk wf file :t58o_DS2_1WF7.nc
-open ddk wf file :t58o_DS2_1WF8.nc
-open ddk wf file :t58o_DS2_1WF9.nc
================================================================================

 ----iterations are completed or convergence reached----

 Mean square residual over all n,k,spin=   49.774E-18; max=  96.471E-18

 Seven components of 2nd-order total energy (hartree) are
 1,2,3: 0th-order hamiltonian combined with 1st-order wavefunctions
     kin0=   4.70937329E-01 eigvalue=  -3.75793788E-02  local=  -1.06318295E-01
 4,5,6: 1st-order hamiltonian combined with 1st and 0th-order wfs
    dotwf=  -4.61348193E+02  Hartree=   2.62446705E+01     xc=  -1.68721215E+01
 7,8,9: eventually, occupation + non-local contributions
    edocc=   2.20954841E+02     enl0=   1.96667288E-02   enl1=   0.00000000E+00
 1-9 gives the relaxation energy (to be shifted if some occ is /=2.0)
   erelax=  -2.30674097E+02
  No Ewald or frozen-wf contrib.: the relaxation energy is the total one
 2DEtotal=   -0.2306740965E+03 Ha. Also 2DEtotal=   -0.627696138754E+04 eV
    (  non-var. 2DEtotal :   -2.3067409654E+02 Ha)
================================================================================

 ---- first-order wavefunction calculations are completed ----


 ==> Compute Derivative Database <==
 The violation of the charge neutrality conditions
 by the effective charges is as follows :
    atom        electric field
 displacement     direction
       1               1       -5.723321        0.000000
       1               2       -0.000000        0.000000
       1               3       -0.000000        0.000000
       2               1        0.000000        0.000000
       2               2       -5.723321        0.000000
       2               3        0.000000        0.000000
       3               1       -0.000000        0.000000
       3               2        0.000000        0.000000
       3               3       -5.723321        0.000000

 Effective charge tensors after 
 imposition of the charge neutrality (if requested by user),
 and eventual restriction to some part :
   atom    displacement
         1         1   -1.142214E-05   -8.263019E-10    8.781835E-10
         1         2   -4.749199E-10   -1.142239E-05   -3.191934E-10
         1         3    6.299776E-10    1.357467E-10   -1.142239E-05
         2         1    1.142214E-05    8.263019E-10   -8.781835E-10
         2         2    4.749199E-10    1.142239E-05    3.191934E-10
         2         3   -6.299776E-10   -1.357467E-10    1.142239E-05
 Now, the imaginary part of the dynamical matrix is zeroed
  
  2nd-order matrix (non-cartesian coordinates, masses not included,
   asr not included )
     j1       j2             matrix element
  dir pert dir pert     real part     imaginary part
  
   1    1   1    1        17.6486459090         0.0000000000
   1    1   2    1         8.8243229870         0.0000000000
   1    1   3    1         8.8243229811         0.0000000000
   1    1   1    2       -17.6487682704         0.0000000000
   1    1   2    2        -8.8243841523        -0.0000000000
   1    1   3    2        -8.8243841542         0.0000000000
   1    1   1    4       -43.1131552313         0.0000000000
   1    1   2    4        -0.0000000355         0.0000000000
   1    1   3    4        -0.0000000373         0.0000000000
  
   2    1   1    1         8.8243229853         0.0000000000
   2    1   2    1        17.6486459611         0.0000000000
   2    1   3    1         8.8243229743         0.0000000000
   2    1   1    2        -8.8243841509        -0.0000000000
   2    1   2    2       -17.6487683230         0.0000000000
   2    1   3    2        -8.8243841599        -0.0000000000
   2    1   1    4         0.0000000068         0.0000000000
   2    1   2    4       -43.1131553574         0.0000000000
   2    1   3    4        -0.0000000125         0.0000000000
  
   3    1   1    1         8.8243229784         0.0000000000
   3    1   2    1         8.8243229750         0.0000000000
   3    1   3    1        17.6486459132         0.0000000000
   3    1   1    2        -8.8243841567         0.0000000000
   3    1   2    2        -8.8243841586        -0.0000000000
   3    1   3    2       -17.6487682788         0.0000000000
   3    1   1    4        -0.0000000349         0.0000000000
   3    1   2    4        -0.0000000286         0.0000000000
   3    1   3    4       -43.1131552461         0.0000000000
  
   1    2   1    1       -17.6487682711        -0.0000000000
   1    2   2    1        -8.8243841517         0.0000000000
   1    2   3    1        -8.8243841572        -0.0000000000
   1    2   1    2        17.6492418043         0.0000000000
   1    2   2    2         8.8246209381         0.0000000000
   1    2   3    2         8.8246209354         0.0000000000
   1    2   1    4       -43.1130116912         0.0000000000
   1    2   2    4        -0.0000000337         0.0000000000
   1    2   3    4        -0.0000000411         0.0000000000
  
   2    2   1    1        -8.8243841519         0.0000000000
   2    2   2    1       -17.6487683231        -0.0000000000
   2    2   3    1        -8.8243841589         0.0000000000
   2    2   1    2         8.8246209372         0.0000000000
   2    2   2    2        17.6492418966         0.0000000000
   2    2   3    2         8.8246209314         0.0000000000
   2    2   1    4         0.0000000111         0.0000000000
   2    2   2    4       -43.1130118348         0.0000000000
   2    2   3    4        -0.0000000081         0.0000000000
  
   3    2   1    1        -8.8243841543        -0.0000000000
   3    2   2    1        -8.8243841597         0.0000000000
   3    2   3    1       -17.6487682789        -0.0000000000
   3    2   1    2         8.8246209345         0.0000000000
   3    2   2    2         8.8246209316         0.0000000000
   3    2   3    2        17.6492417958         0.0000000000
   3    2   1    4        -0.0000000346         0.0000000000
   3    2   2    4        -0.0000000358         0.0000000000
   3    2   3    4       -43.1130116979         0.0000000000
  
   1    4   1    1       -43.1131552154         0.0000000000
   1    4   2    1         0.0000000088         0.0000000000
   1    4   3    1        -0.0000000329         0.0000000000
   1    4   1    2       -43.1130116757         0.0000000000
   1    4   2    2         0.0000000129         0.0000000000
   1    4   3    2        -0.0000000335         0.0000000000
   1    4   1    4      -230.6740965212         0.0000000000
   1    4   2    4        76.8913654595         0.0000000000
   1    4   3    4        76.8913655666         0.0000000000
  
   2    4   1    1        -0.0000000362         0.0000000000
   2    4   2    1       -43.1131553431         0.0000000000
   2    4   3    1        -0.0000000306         0.0000000000
   2    4   1    2        -0.0000000343         0.0000000000
   2    4   2    2       -43.1130118203         0.0000000000
   2    4   3    2        -0.0000000371         0.0000000000
   2    4   1    4        76.8913654596         0.0000000000
   2    4   2    4      -230.6740963505         0.0000000000
   2    4   3    4        76.8913654844         0.0000000000
  
   3    4   1    1        -0.0000000334         0.0000000000
   3    4   2    1         0.0000000079         0.0000000000
   3    4   3    1       -43.1131552240         0.0000000000
   3    4   1    2        -0.0000000377         0.0000000000
   3    4   2    2         0.0000000120         0.0000000000
   3    4   3    2       -43.1130116768         0.0000000000
   3    4   1    4        76.8913655671         0.0000000000
   3    4   2    4        76.8913654829         0.0000000000
   3    4   3    4      -230.6740965413         0.0000000000
  
  
  Dynamical matrix, in cartesian coordinates,
   if specified in the inputs, asr has been imposed
     j1       j2             matrix element
  dir pert dir pert     real part    imaginary part
  
   1    1   1    1         0.7931635269         0.0000000000
   1    1   2    1        -0.0000000002         0.0000000000
   1    1   3    1         0.0000000018         0.0000000000
   1    1   1    2        -0.7931635269         0.0000000000
   1    1   2    2         0.0000000002         0.0000000000
   1    1   3    2        -0.0000000018         0.0000000000
  
   2    1   1    1        -0.0000000003         0.0000000000
   2    1   2    1         0.7931635266         0.0000000000
   2    1   3    1        -0.0000000002         0.0000000000
   2    1   1    2         0.0000000003         0.0000000000
   2    1   2    2        -0.7931635266         0.0000000000
   2    1   3    2         0.0000000002         0.0000000000
  
   3    1   1    1         0.0000000020         0.0000000000
   3    1   2    1        -0.0000000004         0.0000000000
   3    1   3    1         0.7931635262         0.0000000000
   3    1   1    2        -0.0000000020         0.0000000000
   3    1   2    2         0.0000000004         0.0000000000
   3    1   3    2        -0.7931635262         0.0000000000
  
   1    2   1    1        -0.7931635269         0.0000000000
   1    2   2    1         0.0000000003         0.0000000000
   1    2   3    1        -0.0000000019         0.0000000000
   1    2   1    2         0.7931635269         0.0000000000
   1    2   2    2        -0.0000000003         0.0000000000
   1    2   3    2         0.0000000019         0.0000000000
  
   2    2   1    1         0.0000000002         0.0000000000
   2    2   2    1        -0.7931635266         0.0000000000
   2    2   3    1         0.0000000003         0.0000000000
   2    2   1    2        -0.0000000002         0.0000000000
   2    2   2    2         0.7931635266         0.0000000000
   2    2   3    2        -0.0000000003         0.0000000000
  
   3    2   1    1        -0.0000000019         0.0000000000
   3    2   2    1         0.0000000002         0.0000000000
   3    2   3    1        -0.7931635263         0.0000000000
   3    2   1    2         0.0000000019         0.0000000000
   3    2   2    2        -0.0000000002         0.0000000000
   3    2   3    2         0.7931635263         0.0000000000
  
  Dielectric tensor, in cartesian coordinates,
     j1       j2             matrix element
  dir pert dir pert     real part    imaginary part
  
   1    4   1    4        15.6756336285        -0.0000000000
   1    4   2    4         0.0000000014        -0.0000000000
   1    4   3    4        -0.0000000076        -0.0000000000
  
   2    4   1    4         0.0000000015        -0.0000000000
   2    4   2    4        15.6756336287        -0.0000000000
   2    4   3    4         0.0000000006        -0.0000000000
  
   3    4   1    4        -0.0000000076        -0.0000000000
   3    4   2    4         0.0000000005        -0.0000000000
   3    4   3    4        15.6756336298        -0.0000000000
  
  Effective charges, in cartesian coordinates,
  (from electric field response) 
   if specified in the inputs, charge neutrality has been imposed
     j1       j2             matrix element
  dir pert dir pert     real part    imaginary part
  
   1    1   1    4        -0.0000114221         0.0000000000
   2    1   1    4        -0.0000000005         0.0000000000
   3    1   1    4         0.0000000006         0.0000000000
   1    2   1    4         0.0000114221         0.0000000000
   2    2   1    4         0.0000000005         0.0000000000
   3    2   1    4        -0.0000000006         0.0000000000
  
   1    1   2    4        -0.0000000008         0.0000000000
   2    1   2    4        -0.0000114224         0.0000000000
   3    1   2    4         0.0000000001         0.0000000000
   1    2   2    4         0.0000000008         0.0000000000
[...]
   2    1   2    2        -0.7631364814         0.0100797944
   2    1   3    2         0.0294887495         0.0008603323
  
   3    1   1    1        -0.0294157122        -0.0000037715
   3    1   2    1         0.0294172927         0.0000016475
   3    1   3    1         0.8223392962         0.0000000000
   3    1   1    2        -0.0294962654        -0.0008505645
   3    1   2    2         0.0294932329         0.0008541538
   3    1   3    2        -0.7631312315         0.0100799358
  
   1    2   1    1        -0.7631387394        -0.0100797663
   1    2   2    1        -0.0294945988         0.0008519452
   1    2   3    1        -0.0294962654         0.0008505645
   1    2   1    2         0.8223660375        -0.0000000000
   1    2   2    2        -0.0294149391         0.0000023715
   1    2   3    2        -0.0294151588         0.0000068474
  
   2    2   1    1        -0.0294913098         0.0008564558
   2    2   2    1        -0.7631364812        -0.0100797944
   2    2   3    1         0.0294932331        -0.0008541538
   2    2   1    2        -0.0294149399        -0.0000023715
   2    2   2    2         0.8223673933         0.0000000000
   2    2   3    2         0.0294160428        -0.0000043773
  
   3    2   1    1        -0.0294883001         0.0008614293
   3    2   2    1         0.0294887489        -0.0008603324
   3    2   3    1        -0.7631312311        -0.0100799357
   3    2   1    2        -0.0294151597        -0.0000068473
   3    2   2    2         0.0294160426         0.0000043773
   3    2   3    2         0.8223664507        -0.0000000001

  Phonon wavevector (reduced coordinates) :  0.00667  0.00000  0.00000
 Phonon energies in Hartree :
   1.078204E-04  1.087052E-04  2.842738E-03  8.509507E-03  8.509994E-03
   8.510018E-03
 Phonon energies in meV     :
-  2.933941E+00  2.958019E+00  7.735483E+01  2.315555E+02  2.315687E+02
-  2.315694E+02
 Phonon frequencies in cm-1    :
-  2.366384E+01  2.385804E+01  6.239088E+02  1.867621E+03  1.867728E+03
-  1.867733E+03
 Phonon frequencies in Thz     :
-  7.094239E-01  7.152459E-01  1.870432E+01  5.598987E+01  5.599307E+01
-  5.599323E+01
 Phonon energies in Kelvin  :
-  3.404694E+01  3.432635E+01  8.976645E+02  2.687087E+03  2.687240E+03
-  2.687248E+03
 Components of second-order derivatives of the electronic energy, EIGR2D.
 For automatic tests, printing the matrix for the first k-point, first band, first atom.
   1   1   1   1   -2.3148403840E+00    9.8442023266E-06
   1   1   2   1   -8.6510852201E-01    6.5403568750E-05
   1   1   3   1   -8.6511942508E-01    8.8614496735E-05
   2   1   1   1   -8.6878668321E-01   -7.3473422394E-05
   2   1   2   1   -1.6873134864E+00    0.0000000000E+00
   2   1   3   1   -8.4365768062E-01   -1.1816118284E-07
   3   1   1   1   -8.6879511742E-01   -9.2048711918E-05
   3   1   2   1   -8.4365761864E-01    1.1815636853E-07
   3   1   3   1   -1.6873177735E+00    0.0000000000E+00
 
 Components of second-order derivatives of the electronic energy, EIGI2D.
 For automatic tests, printing the matrix for the first k-point, first band, first atom.
   1   1   1   1    3.4582486745E+00    0.0000000000E+00
   1   1   2   1   -6.9112551231E-05    1.4693832479E-04
   1   1   3   1   -4.2465378276E-05    7.0521775409E-05
   2   1   1   1   -6.9112551231E-05   -1.4693832479E-04
   2   1   2   1    7.6244997140E-09    0.0000000000E+00
   2   1   3   1    3.8450798144E-09    3.9495474677E-10
   3   1   1   1   -4.2465378276E-05   -7.0521775409E-05
   3   1   2   1    3.8450798144E-09   -3.9495474677E-10
   3   1   3   1    1.9595551959E-09    0.0000000000E+00
 
================================================================================

 ---- T=0 shift of eigenenergies due to electron-phonon interation at q ---- 
 Warning : the total shift must be computed through anaddb,                  
 here, only the contribution of one q point is printed.                      
 Print first the electronic eigenvalues, then the q-dependent Fan shift of eigenvalues.

 Eigenvalues (hartree) for nkpt=   8  k points:
 kpt#   1, nband= 12, wtk=  0.12500, kpt=  0.0000  0.0000  0.0000 (reduced coord)
  -0.31566    0.52104    0.52104    0.52104    0.75482    0.75482    0.75482    0.99990
   1.19500    1.48731    1.48731    1.51083
 prteigrs : prtvol=0 or 1, do not print more k-points.

 Eigenvalues (   eV  ) for nkpt=   8  k points:
 kpt#   1, nband= 12, wtk=  0.12500, kpt=  0.0000  0.0000  0.0000 (reduced coord)
  -8.58958   14.17818   14.17818   14.17818   20.53956   20.53956   20.53956   27.20858
  32.51757   40.47171   40.47171   41.11182
 prteigrs : prtvol=0 or 1, do not print more k-points.



 Fan corrections to eigenvalues at T=0 (hartree) for nkpt=   8  k points:
  (in case of degenerate eigenvalues, averaged derivative)
 kpt#   1, nband= 12, wtk=  0.12500, kpt=  0.0000  0.0000  0.0000 (reduced coord)
  -0.02156   -0.39554   -0.39554   -0.39554   -0.28246   -0.28246   -0.28246   -0.03347
   0.02025    0.08864    0.08864    0.04145
 prteigrs : prtvol=0 or 1, do not print more k-points.

 Fan corrections to eigenvalues at T=0 (   eV  ) for nkpt=   8  k points:
 kpt#   1, nband= 12, wtk=  0.12500, kpt=  0.0000  0.0000  0.0000 (reduced coord)
  -0.58672  -10.76307  -10.76307  -10.76307   -7.68601   -7.68601   -7.68601   -0.91087
   0.55112    2.41192    2.41192    1.12803
 prteigrs : prtvol=0 or 1, do not print more k-points.


== END DATASET(S) ==============================================================
================================================================================
  
 -outvars: echo values of variables after computation  --------
            acell      6.6709983131E+00  6.6709983131E+00  6.6709983131E+00 Bohr
              amu      1.20110000E+01
           diemac      6.00000000E+00
             ecut      1.00000000E+01 Hartree
    elph2_imagden      3.67493254E-03 Hartree
           enunit           2
           etotal1    -1.1692125618E+01
           etotal2    -3.4429032530E+01
           etotal3    -2.3067409654E+02
           etotal5     1.7644056581E+01
           etotal6     1.7644056581E+01
            fcart1     1.2071323378E-09 -8.0062543084E-09  7.7607625441E-10
                      -1.2071323378E-09  8.0062543084E-09 -7.7607625441E-10
            fcart3     0.0000000000E+00  0.0000000000E+00  0.0000000000E+00
                       0.0000000000E+00  0.0000000000E+00  0.0000000000E+00
            fcart5     0.0000000000E+00  0.0000000000E+00  0.0000000000E+00
                       0.0000000000E+00  0.0000000000E+00  0.0000000000E+00
            fcart6     0.0000000000E+00  0.0000000000E+00  0.0000000000E+00
                       0.0000000000E+00  0.0000000000E+00  0.0000000000E+00
-          fftalg         112
           getddb1          0
           getddb2          0
           getddb3          0
           getddb4          0
           getddb5          0
           getddb6          3
           getddk1          0
           getddk2          0
           getddk3          2
           getddk4          0
           getddk5          0
           getddk6          0
           getden1          0
           getden2          0
           getden3          0
           getden4          1
           getden5          0
           getden6          0
           getwfk1          0
           getwfk2          1
           getwfk3          1
           getwfk4          1
           getwfk5          1
           getwfk6          1
           getwfq1          0
           getwfq2          0
           getwfq3          0
           getwfq4          0
           getwfq5          4
           getwfq6          4
          ieig2rf1          0
          ieig2rf2          0
          ieig2rf3          0
          ieig2rf4          0
          ieig2rf5          4
          ieig2rf6          4
             iscf1          7
             iscf2         -3
             iscf3          7
             iscf4         -2
             iscf5          7
             iscf6          7
           istwfk1       1    1    1    1    1    1    1    1
           istwfk2       1    1    1    1    1    1    1    1
           istwfk3       1    1    1    1    1    1    1    1
           istwfk4       0    0    0    0    0    0    0    0
           istwfk5       1    1    1    1    1    1    1    1
           istwfk6       1    1    1    1    1    1    1    1
           jdtset        1    2    3    4    5    6
              kpt      0.00000000E+00  0.00000000E+00  0.00000000E+00
                       5.00000000E-01  0.00000000E+00  0.00000000E+00
                       0.00000000E+00  5.00000000E-01  0.00000000E+00
                       5.00000000E-01  5.00000000E-01  0.00000000E+00
                       0.00000000E+00  0.00000000E+00  5.00000000E-01
                       5.00000000E-01  0.00000000E+00  5.00000000E-01
                       0.00000000E+00  5.00000000E-01  5.00000000E-01
                       5.00000000E-01  5.00000000E-01  5.00000000E-01
           kptopt1          1
           kptopt2          2
           kptopt3          2
           kptopt4          1
           kptopt5          3
           kptopt6          3
         kptrlatt        2    0    0      0    2    0      0    0    2
          kptrlen      9.43421629E+00
P           mkmem           8
P          mkqmem           8
P          mk1mem           8
            natom           2
            nband          12
           nbdbuf           2
           ndtset           6
            ngfft          15      15      15
             nkpt           8
             nqpt1          0
             nqpt2          1
             nqpt3          1
             nqpt4          1
             nqpt5          1
             nqpt6          1
            nstep          50
             nsym           1
           ntypat           1
              occ      2.000000  2.000000  2.000000  2.000000  0.000000  0.000000
                       0.000000  0.000000  0.000000  0.000000  0.000000  0.000000
        optdriver1          0
        optdriver2          1
        optdriver3          1
        optdriver4          0
        optdriver5          1
        optdriver6          1
           prtpot1          0
           prtpot2          1
           prtpot3          1
           prtpot4          0
           prtpot5          1
           prtpot6          1
              qpt1     0.00000000E+00  0.00000000E+00  0.00000000E+00
              qpt2     0.00000000E+00  0.00000000E+00  0.00000000E+00
              qpt3     0.00000000E+00  0.00000000E+00  0.00000000E+00
              qpt4     6.66666667E-03  0.00000000E+00  0.00000000E+00
              qpt5     6.66666667E-03  0.00000000E+00  0.00000000E+00
              qpt6     6.66666667E-03  0.00000000E+00  0.00000000E+00
           rfelfd1          0
           rfelfd2          2
           rfelfd3          3
           rfelfd4          0
           rfelfd5          0
           rfelfd6          0
           rfphon1          0
           rfphon2          0
           rfphon3          1
           rfphon4          0
           rfphon5          1
           rfphon6          1
            rprim      0.0000000000E+00  5.0000000000E-01  5.0000000000E-01
                       5.0000000000E-01  0.0000000000E+00  5.0000000000E-01
                       5.0000000000E-01  5.0000000000E-01  0.0000000000E+00
          smdelta1          0
          smdelta2          0
          smdelta3          0
          smdelta4          0
          smdelta5          1
          smdelta6          1
          spgroup           1
           strten1     3.3248705965E-03  3.3248705955E-03  3.3248705945E-03
                       1.0079940247E-11 -6.7122188373E-11  3.1482753050E-12
           strten3     0.0000000000E+00  0.0000000000E+00  0.0000000000E+00
                       0.0000000000E+00  0.0000000000E+00  0.0000000000E+00
           strten5     0.0000000000E+00  0.0000000000E+00  0.0000000000E+00
                       0.0000000000E+00  0.0000000000E+00  0.0000000000E+00
           strten6     0.0000000000E+00  0.0000000000E+00  0.0000000000E+00
                       0.0000000000E+00  0.0000000000E+00  0.0000000000E+00
           tolwfr      1.00000000E-16
            typat      1  1
              wtk        0.12500    0.12500    0.12500    0.12500    0.12500    0.12500
                         0.12500    0.12500
           xangst      0.0000000000E+00  0.0000000000E+00  0.0000000000E+00
                       8.8253506646E-01  8.8253506646E-01  8.8253506646E-01
            xcart      0.0000000000E+00  0.0000000000E+00  0.0000000000E+00
                       1.6677495783E+00  1.6677495783E+00  1.6677495783E+00
             xred      0.0000000000E+00  0.0000000000E+00  0.0000000000E+00
                       2.5000000000E-01  2.5000000000E-01  2.5000000000E-01
            znucl        6.00000

================================================================================

 The spacegroup number, the magnetic point group, and/or the number of symmetries
 have changed between the initial recognition based on the input file
 and a postprocessing based on the final acell, rprim, and xred.
 More details in the log file.


- Timing analysis has been suppressed with timopt=0



================================================================================

 Suggested references for the acknowledgment of ABINIT usage.

 The users of ABINIT have little formal obligations with respect to the ABINIT group
 (those specified in the GNU General Public License, http://www.gnu.org/copyleft/gpl.txt).
 However, it is common practice in the scientific literature,
 to acknowledge the efforts of people that have made the research possible.
 In this spirit, please find below suggested citations of work written by ABINIT developers,
 corresponding to implementations inside of ABINIT that you have used in the present run.
 Note also that it will be of great value to readers of publications presenting these results,
 to read papers enabling them to understand the theoretical formalism and details
 of the ABINIT implementation.
 For information on why they are suggested, see also https://docs.abinit.org/theory/acknowledgments.
-
- [1] Specification of an extensible and portable file format for electronic structure and crystallographic data
- X. Gonze, C.-O. Almbladh, A. Cucca, D. Caliste, C. Freysoldt, M. Marques, V. Olevano, Y. Pouillon, M.J. Verstraete,
- Comput. Material Science 43, 1056 (2008).
- Comment: to be cited in case the ETSF_IO file format is used, i.e. iomode=3.
- DOI and bibtex: see https://docs.abinit.org/theory/bibliography/#gonze2008
-
- [2] Verification of first-principles codes: Comparison of total energies, phonon frequencies,
- electron--phonon coupling and zero-point motion correction to the gap between ABINIT and QE/Yambo
- S. Ponce, G. Antonius, P. Boulanger, E. Cannuccia, A. Marini, M. Cote and X. Gonze. Computational Material Science 83, 341 (2014)
- Comment: the temperature-dependence of the electronic structure is computed (or the zero-point renormalisation).
- Strong suggestion to cite this paper in your publications.
- DOI and bibtex : see https://docs.abinit.org/theory/bibliography/#ponce2014
-
- [3] Temperature dependence of the electronic structure of semiconductors and insulators 
- S. Ponce, Y. Gillet, J. Laflamme Janssen, A. Marini, M. Verstraete and X. Gonze. J. Chem. Phys. 143, 102813 (2015)
- Comment: the temperature-dependence of the electronic structure is computed (or the zero-point renormalisation).
- Strong suggestion to cite this paper in your publications.
- DOI and bibtex: see https://docs.abinit.org/theory/bibliography/#ponce2015
-
- [4] The Abinit project: Impact, environment and recent developments.
- Computer Phys. Comm. 248, 107042 (2020).
- X.Gonze, B. Amadon, G. Antonius, F.Arnardi, L.Baguet, J.-M.Beuken,
- J.Bieder, F.Bottin, J.Bouchet, E.Bousquet, N.Brouwer, F.Bruneval,
- G.Brunin, T.Cavignac, J.-B. Charraud, Wei Chen, M.Cote, S.Cottenier,
- J.Denier, G.Geneste, Ph.Ghosez, M.Giantomassi, Y.Gillet, O.Gingras,
- D.R.Hamann, G.Hautier, Xu He, N.Helbig, N.Holzwarth, Y.Jia, F.Jollet,
- W.Lafargue-Dit-Hauret, K.Lejaeghere, M.A.L.Marques, A.Martin, C.Martins,
- H.P.C. Miranda, F.Naccarato, K. Persson, G.Petretto, V.Planes, Y.Pouillon,
- S.Prokhorenko, F.Ricci, G.-M.Rignanese, A.H.Romero, M.M.Schmitt, M.Torrent,
- M.J.van Setten, B.Van Troeye, M.J.Verstraete, G.Zerah and J.W.Zwanzig
- Comment: the fifth generic paper describing the ABINIT project.
- Note that a version of this paper, that is not formatted for Computer Phys. Comm. 
- is available at https://www.abinit.org/sites/default/files/ABINIT20.pdf .
- The licence allows the authors to put it on the Web.
- DOI and bibtex: see https://docs.abinit.org/theory/bibliography/#gonze2020
-
- [5] First-principles responses of solids to atomic displacements and homogeneous electric fields:,
- implementation of a conjugate-gradient algorithm. X. Gonze, Phys. Rev. B55, 10337 (1997).
- Comment: Non-vanishing rfphon and/or rfelfd, in the norm-conserving case.
- DOI and bibtex: see https://docs.abinit.org/theory/bibliography/#gonze1997
-
- [6] Dynamical matrices, Born effective charges, dielectric permittivity tensors, and ,
- interatomic force constants from density-functional perturbation theory,
- X. Gonze and C. Lee, Phys. Rev. B55, 10355 (1997).
- Comment: Non-vanishing rfphon and/or rfelfd, in the norm-conserving case.
- DOI and bibtex: see https://docs.abinit.org/theory/bibliography/#gonze1997a
-
- [7] ABINIT: Overview, and focus on selected capabilities
- J. Chem. Phys. 152, 124102 (2020).
- A. Romero, D.C. Allan, B. Amadon, G. Antonius, T. Applencourt, L.Baguet,
- J.Bieder, F.Bottin, J.Bouchet, E.Bousquet, F.Bruneval,
- G.Brunin, D.Caliste, M.Cote,
- J.Denier, C. Dreyer, Ph.Ghosez, M.Giantomassi, Y.Gillet, O.Gingras,
- D.R.Hamann, G.Hautier, F.Jollet, G. Jomard,
- A.Martin, 
- H.P.C. Miranda, F.Naccarato, G.Petretto, N.A. Pike, V.Planes,
- S.Prokhorenko, T. Rangel, F.Ricci, G.-M.Rignanese, M.Royo, M.Stengel, M.Torrent,
- M.J.van Setten, B.Van Troeye, M.J.Verstraete, J.Wiktor, J.W.Zwanziger, and X.Gonze.
- Comment: a global overview of ABINIT, with focus on selected capabilities .
- Note that a version of this paper, that is not formatted for J. Chem. Phys 
- is available at https://www.abinit.org/sites/default/files/ABINIT20_JPC.pdf .
- The licence allows the authors to put it on the Web.
- DOI and bibtex: see https://docs.abinit.org/theory/bibliography/#romero2020
-
- [8] Recent developments in the ABINIT software package.
- Computer Phys. Comm. 205, 106 (2016).
- X.Gonze, F.Jollet, F.Abreu Araujo, D.Adams, B.Amadon, T.Applencourt,
- C.Audouze, J.-M.Beuken, J.Bieder, A.Bokhanchuk, E.Bousquet, F.Bruneval
- D.Caliste, M.Cote, F.Dahm, F.Da Pieve, M.Delaveau, M.Di Gennaro,
- B.Dorado, C.Espejo, G.Geneste, L.Genovese, A.Gerossier, M.Giantomassi,
- Y.Gillet, D.R.Hamann, L.He, G.Jomard, J.Laflamme Janssen, S.Le Roux,
- A.Levitt, A.Lherbier, F.Liu, I.Lukacevic, A.Martin, C.Martins,
- M.J.T.Oliveira, S.Ponce, Y.Pouillon, T.Rangel, G.-M.Rignanese,
- A.H.Romero, B.Rousseau, O.Rubel, A.A.Shukri, M.Stankovski, M.Torrent,
- M.J.Van Setten, B.Van Troeye, M.J.Verstraete, D.Waroquier, J.Wiktor,
- B.Xu, A.Zhou, J.W.Zwanziger.
- Comment: the fourth generic paper describing the ABINIT project.
- Note that a version of this paper, that is not formatted for Computer Phys. Comm. 
- is available at https://www.abinit.org/sites/default/files/ABINIT16.pdf .
- The licence allows the authors to put it on the Web.
- DOI and bibtex: see https://docs.abinit.org/theory/bibliography/#gonze2016
-
- Proc.   0 individual time (sec): cpu=         56.0  wall=         56.3

================================================================================

 Calculation completed.
.Delivered  67 WARNINGs and  20 COMMENTs to log file.
+Overall time at end (sec) : cpu=         56.0  wall=         56.3
