
.Version 9.0.0 of ABINIT 
.(MPI version, prepared for a x86_64_linux_gnu9.2 computer) 

.Copyright (C) 1998-2020 ABINIT group . 
 ABINIT comes with ABSOLUTELY NO WARRANTY.
 It is free software, and you are welcome to redistribute it
 under certain conditions (GNU General Public License,
 see ~abinit/COPYING or http://www.gnu.org/copyleft/gpl.txt).

 ABINIT is a project of the Universite Catholique de Louvain,
 Corning Inc. and other collaborators, see ~abinit/doc/developers/contributors.txt .
 Please read https://docs.abinit.org/theory/acknowledgments for suggested
 acknowledgments of the ABINIT effort.
 For more information, see https://www.abinit.org .

.Starting date : Sat 15 Feb 2020.
- ( at 16h51 )
  
- input  file    -> /home/gmatteo/git_repos/abinit/_abiref_gnu9.2_openmpi/tests/Test_suite/v7_t77/t77.in
- output file    -> t77.out
- root for input  files -> t77i
- root for output files -> t77o


 DATASET    1 : space group Fm -3 m (#225); Bravais cF (face-center cubic)
================================================================================
 Values of the parameters that define the memory need for DATASET  1.
     intxc =       0    ionmov =       0      iscf =      17    lmnmax =      18
     lnmax =       6     mgfft =      15  mpssoang =       3    mqgrid =    3001
     natom =       1  nloc_mem =       2    nspden =       1   nspinor =       1
    nsppol =       1      nsym =      48    n1xccc =       1    ntypat =       1
    occopt =       3   xclevel =       1
-    mband =          30        mffmem =           1         mkmem =           4
       mpw =          89          nfft =        3375          nkpt =           4
 PAW method is used; the additional fine FFT grid is defined by:
   mgfftf=        16    nfftf =      4096
================================================================================
P This job should need less than                       4.365 Mbytes of memory.
  Rough estimation (10% accuracy) of disk space for files :
_ WF disk file :      0.165 Mbytes ; DEN or POT disk file :      0.033 Mbytes.
================================================================================


 DATASET    2 : space group P1 (#  1); Bravais aP (primitive triclinic)
================================================================================
 Values of the parameters that define the memory need for DATASET  2.
     intxc =       0    ionmov =       0      iscf =      17    lmnmax =      18
     lnmax =       6     mgfft =      15  mpssoang =       3    mqgrid =    3001
     natom =       1  nloc_mem =       2    nspden =       1   nspinor =       1
    nsppol =       1      nsym =       1    n1xccc =       1    ntypat =       1
    occopt =       3   xclevel =       1
-    mband =          30        mffmem =           1         mkmem =          14
       mpw =          89          nfft =        3375          nkpt =          14
 PAW method is used; the additional fine FFT grid is defined by:
   mgfftf=        16    nfftf =      4096
================================================================================
P This job should need less than                       4.880 Mbytes of memory.
  Rough estimation (10% accuracy) of disk space for files :
_ WF disk file :      0.572 Mbytes ; DEN or POT disk file :      0.033 Mbytes.
================================================================================


 DATASET    3 : space group P1 (#  1); Bravais aP (primitive triclinic)
================================================================================
 Values of the parameters that define the memory need for DATASET  3.
     intxc =       0    ionmov =       0      iscf =      17    lmnmax =      18
     lnmax =       6     mgfft =      15  mpssoang =       3    mqgrid =    3001
     natom =       1  nloc_mem =       2    nspden =       1   nspinor =       1
    nsppol =       1      nsym =       1    n1xccc =       1    ntypat =       1
    occopt =       3   xclevel =       1
-    mband =          30        mffmem =           1         mkmem =          14
       mpw =          89          nfft =        3375          nkpt =          14
 PAW method is used; the additional fine FFT grid is defined by:
   mgfftf=        16    nfftf =      4096
================================================================================
P This job should need less than                       4.880 Mbytes of memory.
  Rough estimation (10% accuracy) of disk space for files :
_ WF disk file :      0.572 Mbytes ; DEN or POT disk file :      0.033 Mbytes.
================================================================================


 DATASET    4 : space group P1 (#  1); Bravais aP (primitive triclinic)
================================================================================
 Values of the parameters that define the memory need for DATASET  4.
     intxc =       0    ionmov =       0      iscf =      -2    lmnmax =      18
     lnmax =       6     mgfft =      15  mpssoang =       3    mqgrid =    3001
     natom =       1  nloc_mem =       2    nspden =       1   nspinor =       1
    nsppol =       1      nsym =       1    n1xccc =       1    ntypat =       1
    occopt =       3   xclevel =       1
-    mband =          30        mffmem =           1         mkmem =          41
       mpw =          92          nfft =        3375          nkpt =          41
 PAW method is used; the additional fine FFT grid is defined by:
   mgfftf=        16    nfftf =      4096
================================================================================
P This job should need less than                       6.043 Mbytes of memory.
  Rough estimation (10% accuracy) of disk space for files :
_ WF disk file :      1.729 Mbytes ; DEN or POT disk file :      0.033 Mbytes.
================================================================================

--------------------------------------------------------------------------------
------------- Echo of variables that govern the present computation ------------
--------------------------------------------------------------------------------
-
- outvars: echo of selected default values                                      
-   iomode0 =  0 , fftalg0 =312 , wfoptalg0 = 10
-
- outvars: echo of global parameters not present in the input file              
-  max_nthreads =    0
-
 -outvars: echo values of preprocessed input variables --------
            acell      6.8220000000E+00  6.8220000000E+00  6.8220000000E+00 Bohr
              amu      6.35460000E+01
             ecut      8.00000000E+00 Hartree
-          fftalg         312
           getden1          0
           getden2         -1
           getden3          2
           getden4          2
           getwfk1          0
           getwfk2          0
           getwfk3          2
           getwfk4          0
           iatsph3       1
           iatsph4       1
             iscf1         17
             iscf2         17
             iscf3         17
             iscf4         -2
           istwfk1       1    0    0    0
           istwfk2       1    0    0    0    0    0    0    0    0    0
                         0    0    0    0
           istwfk3       1    0    0    0    0    0    0    0    0    0
                         0    0    0    0
           istwfk4       1    0    0    0    0    0    0    0    0    0
                         1    0    0    0    0    0    0    0    0    0
                         0    0    1    0    0    0    0    0    0    1
                         0    0    0    0    0    0    0    0    0    0
                         0
              ixc           7
           jdtset        1    2    3    4
              kpt1     0.00000000E+00  0.00000000E+00  0.00000000E+00
                       3.33333333E-01  0.00000000E+00  0.00000000E+00
                       3.33333333E-01  3.33333333E-01  0.00000000E+00
                      -3.33333333E-01  3.33333333E-01  0.00000000E+00
              kpt2     0.00000000E+00  0.00000000E+00  0.00000000E+00
                       3.33333333E-01  0.00000000E+00  0.00000000E+00
                       0.00000000E+00  3.33333333E-01  0.00000000E+00
                       3.33333333E-01  3.33333333E-01  0.00000000E+00
                      -3.33333333E-01  3.33333333E-01  0.00000000E+00
                       0.00000000E+00  0.00000000E+00  3.33333333E-01
                       3.33333333E-01  0.00000000E+00  3.33333333E-01
                      -3.33333333E-01  0.00000000E+00  3.33333333E-01
                       0.00000000E+00  3.33333333E-01  3.33333333E-01
                       3.33333333E-01  3.33333333E-01  3.33333333E-01
                      -3.33333333E-01  3.33333333E-01  3.33333333E-01
                       0.00000000E+00 -3.33333333E-01  3.33333333E-01
                       3.33333333E-01 -3.33333333E-01  3.33333333E-01
                      -3.33333333E-01 -3.33333333E-01  3.33333333E-01
              kpt3     0.00000000E+00  0.00000000E+00  0.00000000E+00
                       3.33333333E-01  0.00000000E+00  0.00000000E+00
                       0.00000000E+00  3.33333333E-01  0.00000000E+00
                       3.33333333E-01  3.33333333E-01  0.00000000E+00
                      -3.33333333E-01  3.33333333E-01  0.00000000E+00
                       0.00000000E+00  0.00000000E+00  3.33333333E-01
                       3.33333333E-01  0.00000000E+00  3.33333333E-01
                      -3.33333333E-01  0.00000000E+00  3.33333333E-01
                       0.00000000E+00  3.33333333E-01  3.33333333E-01
                       3.33333333E-01  3.33333333E-01  3.33333333E-01
                      -3.33333333E-01  3.33333333E-01  3.33333333E-01
                       0.00000000E+00 -3.33333333E-01  3.33333333E-01
                       3.33333333E-01 -3.33333333E-01  3.33333333E-01
                      -3.33333333E-01 -3.33333333E-01  3.33333333E-01
              kpt4     0.00000000E+00  0.00000000E+00  0.00000000E+00
                       0.00000000E+00  5.00000000E-02  5.00000000E-02
                       0.00000000E+00  1.00000000E-01  1.00000000E-01
                       0.00000000E+00  1.50000000E-01  1.50000000E-01
                       0.00000000E+00  2.00000000E-01  2.00000000E-01
                       0.00000000E+00  2.50000000E-01  2.50000000E-01
                       0.00000000E+00  3.00000000E-01  3.00000000E-01
                       0.00000000E+00  3.50000000E-01  3.50000000E-01
                       0.00000000E+00  4.00000000E-01  4.00000000E-01
                       0.00000000E+00  4.50000000E-01  4.50000000E-01
                       0.00000000E+00  5.00000000E-01  5.00000000E-01
                       5.00000000E-02  5.00000000E-01  5.50000000E-01
                       1.00000000E-01  5.00000000E-01  6.00000000E-01
                       1.50000000E-01  5.00000000E-01  6.50000000E-01
                       2.00000000E-01  5.00000000E-01  7.00000000E-01
                       2.50000000E-01  5.00000000E-01  7.50000000E-01
                       2.85714286E-01  5.00000000E-01  7.14285714E-01
                       3.21428571E-01  5.00000000E-01  6.78571429E-01
                       3.57142857E-01  5.00000000E-01  6.42857143E-01
                       3.92857143E-01  5.00000000E-01  6.07142857E-01
                       4.28571429E-01  5.00000000E-01  5.71428571E-01
                       4.64285714E-01  5.00000000E-01  5.35714286E-01
                       5.00000000E-01  5.00000000E-01  5.00000000E-01
                       4.28571429E-01  4.28571429E-01  4.28571429E-01
                       3.57142857E-01  3.57142857E-01  3.57142857E-01
                       2.85714286E-01  2.85714286E-01  2.85714286E-01
                       2.14285714E-01  2.14285714E-01  2.14285714E-01
                       1.42857143E-01  1.42857143E-01  1.42857143E-01
                       7.14285714E-02  7.14285714E-02  7.14285714E-02
                       0.00000000E+00  0.00000000E+00  0.00000000E+00
                       3.40909091E-02  3.40909091E-02  6.81818182E-02
                       6.81818182E-02  6.81818182E-02  1.36363636E-01
                       1.02272727E-01  1.02272727E-01  2.04545455E-01
                       1.36363636E-01  1.36363636E-01  2.72727273E-01
                       1.70454545E-01  1.70454545E-01  3.40909091E-01
                       2.04545455E-01  2.04545455E-01  4.09090909E-01
                       2.38636364E-01  2.38636364E-01  4.77272727E-01
                       2.72727273E-01  2.72727273E-01  5.45454545E-01
                       3.06818182E-01  3.06818182E-01  6.13636364E-01
                       3.40909091E-01  3.40909091E-01  6.81818182E-01
                       3.75000000E-01  3.75000000E-01  7.50000000E-01
           kptopt1          1
           kptopt2          1
           kptopt3          1
           kptopt4         -5
         kptrlatt        3    0    0      0    3    0      0    0    3
          kptrlen1     1.44716474E+01
          kptrlen2     1.44716474E+01
          kptrlen3     1.44716474E+01
          kptrlen4     3.00000000E+01
          kssform1          1
          kssform2          1
          kssform3          3
          kssform4          3
P           mkmem1          4
P           mkmem2         14
P           mkmem3         14
P           mkmem4         41
            natom           1
           natsph3       1
           natsph4       1
            nband1         30
            nband2         30
            nband3         30
            nband4         30
         nbandkss1          0
         nbandkss2          0
         nbandkss3          2
         nbandkss4          2
           nbdbuf1          0
           nbdbuf2          0
           nbdbuf3          0
           nbdbuf4          2
           ndtset           4
            ngfft          15      15      15
          ngfftdg          16      16      16
             nkpt1          4
             nkpt2         14
             nkpt3         14
             nkpt4         41
            nline1          5
            nline2          3
            nline3          5
            nline4          5
           nnsclo1          2
           nnsclo2          3
           nnsclo3          2
           nnsclo4          2
            nstep          20
             nsym1         48
             nsym2          1
             nsym3          1
             nsym4          1
           ntypat           1
              occ1     2.000000  2.000000  2.000000  2.000000  2.000000  2.000000
                       2.000000  2.000000  2.000000  1.000000  0.000000  0.000000
                       0.000000  0.000000  0.000000  0.000000  0.000000  0.000000
                       0.000000  0.000000  0.000000  0.000000  0.000000  0.000000
                       0.000000  0.000000  0.000000  0.000000  0.000000  0.000000
                       2.000000  2.000000  2.000000  2.000000  2.000000  2.000000
                       2.000000  2.000000  2.000000  1.000000  0.000000  0.000000
                       0.000000  0.000000  0.000000  0.000000  0.000000  0.000000
                       0.000000  0.000000  0.000000  0.000000  0.000000  0.000000
                       0.000000  0.000000  0.000000  0.000000  0.000000  0.000000
                       2.000000  2.000000  2.000000  2.000000  2.000000  2.000000
                       2.000000  2.000000  2.000000  1.000000  0.000000  0.000000
                       0.000000  0.000000  0.000000  0.000000  0.000000  0.000000
                       0.000000  0.000000  0.000000  0.000000  0.000000  0.000000
                       0.000000  0.000000  0.000000  0.000000  0.000000  0.000000
                       2.000000  2.000000  2.000000  2.000000  2.000000  2.000000
                       2.000000  2.000000  2.000000  1.000000  0.000000  0.000000
                       0.000000  0.000000  0.000000  0.000000  0.000000  0.000000
                       0.000000  0.000000  0.000000  0.000000  0.000000  0.000000
                       0.000000  0.000000  0.000000  0.000000  0.000000  0.000000
              occ2     2.000000  2.000000  2.000000  2.000000  2.000000  2.000000
                       2.000000  2.000000  2.000000  1.000000  0.000000  0.000000
                       0.000000  0.000000  0.000000  0.000000  0.000000  0.000000
                       0.000000  0.000000  0.000000  0.000000  0.000000  0.000000
                       0.000000  0.000000  0.000000  0.000000  0.000000  0.000000
                       2.000000  2.000000  2.000000  2.000000  2.000000  2.000000
                       2.000000  2.000000  2.000000  1.000000  0.000000  0.000000
                       0.000000  0.000000  0.000000  0.000000  0.000000  0.000000
                       0.000000  0.000000  0.000000  0.000000  0.000000  0.000000
                       0.000000  0.000000  0.000000  0.000000  0.000000  0.000000
                       2.000000  2.000000  2.000000  2.000000  2.000000  2.000000
                       2.000000  2.000000  2.000000  1.000000  0.000000  0.000000
                       0.000000  0.000000  0.000000  0.000000  0.000000  0.000000
                       0.000000  0.000000  0.000000  0.000000  0.000000  0.000000
                       0.000000  0.000000  0.000000  0.000000  0.000000  0.000000
                       2.000000  2.000000  2.000000  2.000000  2.000000  2.000000
                       2.000000  2.000000  2.000000  1.000000  0.000000  0.000000
                       0.000000  0.000000  0.000000  0.000000  0.000000  0.000000
                       0.000000  0.000000  0.000000  0.000000  0.000000  0.000000
                       0.000000  0.000000  0.000000  0.000000  0.000000  0.000000
                       2.000000  2.000000  2.000000  2.000000  2.000000  2.000000
                       2.000000  2.000000  2.000000  1.000000  0.000000  0.000000
                       0.000000  0.000000  0.000000  0.000000  0.000000  0.000000
                       0.000000  0.000000  0.000000  0.000000  0.000000  0.000000
                       0.000000  0.000000  0.000000  0.000000  0.000000  0.000000
                       2.000000  2.000000  2.000000  2.000000  2.000000  2.000000
                       2.000000  2.000000  2.000000  1.000000  0.000000  0.000000
                       0.000000  0.000000  0.000000  0.000000  0.000000  0.000000
                       0.000000  0.000000  0.000000  0.000000  0.000000  0.000000
                       0.000000  0.000000  0.000000  0.000000  0.000000  0.000000
                       2.000000  2.000000  2.000000  2.000000  2.000000  2.000000
                       2.000000  2.000000  2.000000  1.000000  0.000000  0.000000
                       0.000000  0.000000  0.000000  0.000000  0.000000  0.000000
                       0.000000  0.000000  0.000000  0.000000  0.000000  0.000000
                       0.000000  0.000000  0.000000  0.000000  0.000000  0.000000
                       2.000000  2.000000  2.000000  2.000000  2.000000  2.000000
                       2.000000  2.000000  2.000000  1.000000  0.000000  0.000000
                       0.000000  0.000000  0.000000  0.000000  0.000000  0.000000
                       0.000000  0.000000  0.000000  0.000000  0.000000  0.000000
                       0.000000  0.000000  0.000000  0.000000  0.000000  0.000000
                       2.000000  2.000000  2.000000  2.000000  2.000000  2.000000
                       2.000000  2.000000  2.000000  1.000000  0.000000  0.000000
                       0.000000  0.000000  0.000000  0.000000  0.000000  0.000000
                       0.000000  0.000000  0.000000  0.000000  0.000000  0.000000
                       0.000000  0.000000  0.000000  0.000000  0.000000  0.000000
                       2.000000  2.000000  2.000000  2.000000  2.000000  2.000000
                       2.000000  2.000000  2.000000  1.000000  0.000000  0.000000
                       0.000000  0.000000  0.000000  0.000000  0.000000  0.000000
                       0.000000  0.000000  0.000000  0.000000  0.000000  0.000000
                       0.000000  0.000000  0.000000  0.000000  0.000000  0.000000
                       2.000000  2.000000  2.000000  2.000000  2.000000  2.000000
                       2.000000  2.000000  2.000000  1.000000  0.000000  0.000000
                       0.000000  0.000000  0.000000  0.000000  0.000000  0.000000
                       0.000000  0.000000  0.000000  0.000000  0.000000  0.000000
                       0.000000  0.000000  0.000000  0.000000  0.000000  0.000000
                       2.000000  2.000000  2.000000  2.000000  2.000000  2.000000
                       2.000000  2.000000  2.000000  1.000000  0.000000  0.000000
                       0.000000  0.000000  0.000000  0.000000  0.000000  0.000000
                       0.000000  0.000000  0.000000  0.000000  0.000000  0.000000
                       0.000000  0.000000  0.000000  0.000000  0.000000  0.000000
                       2.000000  2.000000  2.000000  2.000000  2.000000  2.000000
                       2.000000  2.000000  2.000000  1.000000  0.000000  0.000000
                       0.000000  0.000000  0.000000  0.000000  0.000000  0.000000
                       0.000000  0.000000  0.000000  0.000000  0.000000  0.000000
                       0.000000  0.000000  0.000000  0.000000  0.000000  0.000000
                       2.000000  2.000000  2.000000  2.000000  2.000000  2.000000
                       2.000000  2.000000  2.000000  1.000000  0.000000  0.000000
                       0.000000  0.000000  0.000000  0.000000  0.000000  0.000000
                       0.000000  0.000000  0.000000  0.000000  0.000000  0.000000
                       0.000000  0.000000  0.000000  0.000000  0.000000  0.000000
              occ3     2.000000  2.000000  2.000000  2.000000  2.000000  2.000000
                       2.000000  2.000000  2.000000  1.000000  0.000000  0.000000
                       0.000000  0.000000  0.000000  0.000000  0.000000  0.000000
                       0.000000  0.000000  0.000000  0.000000  0.000000  0.000000
                       0.000000  0.000000  0.000000  0.000000  0.000000  0.000000
                       2.000000  2.000000  2.000000  2.000000  2.000000  2.000000
                       2.000000  2.000000  2.000000  1.000000  0.000000  0.000000
                       0.000000  0.000000  0.000000  0.000000  0.000000  0.000000
                       0.000000  0.000000  0.000000  0.000000  0.000000  0.000000
                       0.000000  0.000000  0.000000  0.000000  0.000000  0.000000
                       2.000000  2.000000  2.000000  2.000000  2.000000  2.000000
                       2.000000  2.000000  2.000000  1.000000  0.000000  0.000000
                       0.000000  0.000000  0.000000  0.000000  0.000000  0.000000
                       0.000000  0.000000  0.000000  0.000000  0.000000  0.000000
                       0.000000  0.000000  0.000000  0.000000  0.000000  0.000000
                       2.000000  2.000000  2.000000  2.000000  2.000000  2.000000
                       2.000000  2.000000  2.000000  1.000000  0.000000  0.000000
                       0.000000  0.000000  0.000000  0.000000  0.000000  0.000000
                       0.000000  0.000000  0.000000  0.000000  0.000000  0.000000
                       0.000000  0.000000  0.000000  0.000000  0.000000  0.000000
                       2.000000  2.000000  2.000000  2.000000  2.000000  2.000000
                       2.000000  2.000000  2.000000  1.000000  0.000000  0.000000
                       0.000000  0.000000  0.000000  0.000000  0.000000  0.000000
                       0.000000  0.000000  0.000000  0.000000  0.000000  0.000000
                       0.000000  0.000000  0.000000  0.000000  0.000000  0.000000
                       2.000000  2.000000  2.000000  2.000000  2.000000  2.000000
                       2.000000  2.000000  2.000000  1.000000  0.000000  0.000000
                       0.000000  0.000000  0.000000  0.000000  0.000000  0.000000
                       0.000000  0.000000  0.000000  0.000000  0.000000  0.000000
                       0.000000  0.000000  0.000000  0.000000  0.000000  0.000000
                       2.000000  2.000000  2.000000  2.000000  2.000000  2.000000
                       2.000000  2.000000  2.000000  1.000000  0.000000  0.000000
                       0.000000  0.000000  0.000000  0.000000  0.000000  0.000000
                       0.000000  0.000000  0.000000  0.000000  0.000000  0.000000
                       0.000000  0.000000  0.000000  0.000000  0.000000  0.000000
                       2.000000  2.000000  2.000000  2.000000  2.000000  2.000000
                       2.000000  2.000000  2.000000  1.000000  0.000000  0.000000
                       0.000000  0.000000  0.000000  0.000000  0.000000  0.000000
                       0.000000  0.000000  0.000000  0.000000  0.000000  0.000000
                       0.000000  0.000000  0.000000  0.000000  0.000000  0.000000
                       2.000000  2.000000  2.000000  2.000000  2.000000  2.000000
                       2.000000  2.000000  2.000000  1.000000  0.000000  0.000000
                       0.000000  0.000000  0.000000  0.000000  0.000000  0.000000
                       0.000000  0.000000  0.000000  0.000000  0.000000  0.000000
                       0.000000  0.000000  0.000000  0.000000  0.000000  0.000000
                       2.000000  2.000000  2.000000  2.000000  2.000000  2.000000
                       2.000000  2.000000  2.000000  1.000000  0.000000  0.000000
                       0.000000  0.000000  0.000000  0.000000  0.000000  0.000000
                       0.000000  0.000000  0.000000  0.000000  0.000000  0.000000
                       0.000000  0.000000  0.000000  0.000000  0.000000  0.000000
                       2.000000  2.000000  2.000000  2.000000  2.000000  2.000000
                       2.000000  2.000000  2.000000  1.000000  0.000000  0.000000
                       0.000000  0.000000  0.000000  0.000000  0.000000  0.000000
                       0.000000  0.000000  0.000000  0.000000  0.000000  0.000000
                       0.000000  0.000000  0.000000  0.000000  0.000000  0.000000
                       2.000000  2.000000  2.000000  2.000000  2.000000  2.000000
                       2.000000  2.000000  2.000000  1.000000  0.000000  0.000000
                       0.000000  0.000000  0.000000  0.000000  0.000000  0.000000
                       0.000000  0.000000  0.000000  0.000000  0.000000  0.000000
                       0.000000  0.000000  0.000000  0.000000  0.000000  0.000000
                       2.000000  2.000000  2.000000  2.000000  2.000000  2.000000
                       2.000000  2.000000  2.000000  1.000000  0.000000  0.000000
                       0.000000  0.000000  0.000000  0.000000  0.000000  0.000000
                       0.000000  0.000000  0.000000  0.000000  0.000000  0.000000
                       0.000000  0.000000  0.000000  0.000000  0.000000  0.000000
                       2.000000  2.000000  2.000000  2.000000  2.000000  2.000000
                       2.000000  2.000000  2.000000  1.000000  0.000000  0.000000
                       0.000000  0.000000  0.000000  0.000000  0.000000  0.000000
                       0.000000  0.000000  0.000000  0.000000  0.000000  0.000000
                       0.000000  0.000000  0.000000  0.000000  0.000000  0.000000
           occopt           3
        pawecutdg      1.20000000E+01 Hartree
        pawfatbnd1          0
        pawfatbnd2          0
        pawfatbnd3          0
        pawfatbnd4          1
          pawovlp     -1.0000000000E+00
        pawprtvol           3
     plowan_bandi1          0
     plowan_bandi2          0
     plowan_bandi3          5
     plowan_bandi4          5
     plowan_bandf1          0
     plowan_bandf2          0
     plowan_bandf3         10
     plowan_bandf4         10
   plowan_compute1          0
   plowan_compute2          0
   plowan_compute3          1
   plowan_compute4          1
     plowan_natom1          0
     plowan_natom2          0
     plowan_natom3          1
     plowan_natom4          1
        plowan_nt1          0
        plowan_nt2          0
        plowan_nt3         13
        plowan_nt4         13
 plowan_realspace1          0
 plowan_realspace2          0
 plowan_realspace3          1
 plowan_realspace4          2
        plowan_it3       0    0    0    1    0    0   -1    0    0    0
                         1    0    0   -1    0    0    0    1    0    0
                        -1    1   -1    0   -1    1    0    0    1   -1
                         0   -1    1    1    0   -1   -1    0    1
        plowan_it4       0    0    0    1    0    0   -1    0    0    0
                         1    0    0   -1    0    0    0    1    0    0
                        -1    1   -1    0   -1    1    0    0    1   -1
                         0   -1    1    1    0   -1   -1    0    1
     plowan_iatom3       1
     plowan_iatom4       1
       plowan_nbl3       1
       plowan_nbl4       1
     plowan_lcalc3       2
     plowan_lcalc4       2
  plowan_projcalc3       5
  plowan_projcalc4       5
           prtdos1          0
           prtdos2          0
           prtdos3          3
           prtdos4          0
            rprim      5.0000000000E-01  5.0000000000E-01  0.0000000000E+00
                       0.0000000000E+00  5.0000000000E-01  5.0000000000E-01
                       5.0000000000E-01  0.0000000000E+00  5.0000000000E-01
           shiftk1     0.00000000E+00  0.00000000E+00  0.00000000E+00
           shiftk2     0.00000000E+00  0.00000000E+00  0.00000000E+00
           shiftk3     0.00000000E+00  0.00000000E+00  0.00000000E+00
           shiftk4     5.00000000E-01  5.00000000E-01  5.00000000E-01
          spgroup1        225
          spgroup2          1
          spgroup3          1
          spgroup4          1
           symafm1       1    1    1    1    1    1    1    1    1    1
                         1    1    1    1    1    1    1    1    1    1
                         1    1    1    1    1    1    1    1    1    1
                         1    1    1    1    1    1    1    1    1    1
                         1    1    1    1    1    1    1    1
           symafm2       1
           symafm3       1
           symafm4       1
           symrel1     1  0  0   0  1  0   0  0  1      -1  0  0   0 -1  0   0  0 -1
                       0 -1  1   0 -1  0   1 -1  0       0  1 -1   0  1  0  -1  1  0
                      -1  0  0  -1  0  1  -1  1  0       1  0  0   1  0 -1   1 -1  0
                       0  1 -1   1  0 -1   0  0 -1       0 -1  1  -1  0  1   0  0  1
                      -1  0  0  -1  1  0  -1  0  1       1  0  0   1 -1  0   1  0 -1
                       0 -1  1   1 -1  0   0 -1  0       0  1 -1  -1  1  0   0  1  0
                       1  0  0   0  0  1   0  1  0      -1  0  0   0  0 -1   0 -1  0
                       0  1 -1   0  0 -1   1  0 -1       0 -1  1   0  0  1  -1  0  1
                      -1  0  1  -1  1  0  -1  0  0       1  0 -1   1 -1  0   1  0  0
                       0 -1  0   1 -1  0   0 -1  1       0  1  0  -1  1  0   0  1 -1
                       1  0 -1   0  0 -1   0  1 -1      -1  0  1   0  0  1   0 -1  1
                       0  1  0   0  0  1   1  0  0       0 -1  0   0  0 -1  -1  0  0
                       1  0 -1   0  1 -1   0  0 -1      -1  0  1   0 -1  1   0  0  1
                       0 -1  0   0 -1  1   1 -1  0       0  1  0   0  1 -1  -1  1  0
                      -1  0  1  -1  0  0  -1  1  0       1  0 -1   1  0  0   1 -1  0
                       0  1  0   1  0  0   0  0  1       0 -1  0  -1  0  0   0  0 -1
                       0  0 -1   0  1 -1   1  0 -1       0  0  1   0 -1  1  -1  0  1
                       1 -1  0   0 -1  1   0 -1  0      -1  1  0   0  1 -1   0  1  0
                       0  0  1   1  0  0   0  1  0       0  0 -1  -1  0  0   0 -1  0
                      -1  1  0  -1  0  0  -1  0  1       1 -1  0   1  0  0   1  0 -1
                       0  0  1   0  1  0   1  0  0       0  0 -1   0 -1  0  -1  0  0
                       1 -1  0   0 -1  0   0 -1  1      -1  1  0   0  1  0   0  1 -1
                       0  0 -1   1  0 -1   0  1 -1       0  0  1  -1  0  1   0 -1  1
                      -1  1  0  -1  0  1  -1  0  0       1 -1  0   1  0 -1   1  0  0
           symrel2     1  0  0   0  1  0   0  0  1
           symrel3     1  0  0   0  1  0   0  0  1
           symrel4     1  0  0   0  1  0   0  0  1
            tnons1     0.0000000  0.0000000  0.0000000     0.0000000  0.0000000  0.0000000
                       0.0000000  0.0000000  0.0000000     0.0000000  0.0000000  0.0000000
                       0.0000000  0.0000000  0.0000000     0.0000000  0.0000000  0.0000000
                       0.0000000  0.0000000  0.0000000     0.0000000  0.0000000  0.0000000
                       0.0000000  0.0000000  0.0000000     0.0000000  0.0000000  0.0000000
                       0.0000000  0.0000000  0.0000000     0.0000000  0.0000000  0.0000000
                       0.0000000  0.0000000  0.0000000     0.0000000  0.0000000  0.0000000
                       0.0000000  0.0000000  0.0000000     0.0000000  0.0000000  0.0000000
                       0.0000000  0.0000000  0.0000000     0.0000000  0.0000000  0.0000000
                       0.0000000  0.0000000  0.0000000     0.0000000  0.0000000  0.0000000
                       0.0000000  0.0000000  0.0000000     0.0000000  0.0000000  0.0000000
                       0.0000000  0.0000000  0.0000000     0.0000000  0.0000000  0.0000000
                       0.0000000  0.0000000  0.0000000     0.0000000  0.0000000  0.0000000
                       0.0000000  0.0000000  0.0000000     0.0000000  0.0000000  0.0000000
                       0.0000000  0.0000000  0.0000000     0.0000000  0.0000000  0.0000000
                       0.0000000  0.0000000  0.0000000     0.0000000  0.0000000  0.0000000
                       0.0000000  0.0000000  0.0000000     0.0000000  0.0000000  0.0000000
                       0.0000000  0.0000000  0.0000000     0.0000000  0.0000000  0.0000000
                       0.0000000  0.0000000  0.0000000     0.0000000  0.0000000  0.0000000
                       0.0000000  0.0000000  0.0000000     0.0000000  0.0000000  0.0000000
                       0.0000000  0.0000000  0.0000000     0.0000000  0.0000000  0.0000000
                       0.0000000  0.0000000  0.0000000     0.0000000  0.0000000  0.0000000
                       0.0000000  0.0000000  0.0000000     0.0000000  0.0000000  0.0000000
                       0.0000000  0.0000000  0.0000000     0.0000000  0.0000000  0.0000000
            tnons2     0.0000000  0.0000000  0.0000000
            tnons3     0.0000000  0.0000000  0.0000000
            tnons4     0.0000000  0.0000000  0.0000000
           tolwfr      1.00000000E-10
           tsmear      3.67490000E-03 Hartree
            typat      1
           useylm           1
              wtk1       0.03704    0.29630    0.22222    0.44444
              wtk2       0.03704    0.07407    0.07407    0.07407    0.07407    0.07407
                         0.07407    0.07407    0.07407    0.07407    0.07407    0.07407
                         0.07407    0.07407
              wtk3       0.03704    0.07407    0.07407    0.07407    0.07407    0.07407
                         0.07407    0.07407    0.07407    0.07407    0.07407    0.07407
                         0.07407    0.07407
              wtk4       1.00000    1.00000    1.00000    1.00000    1.00000    1.00000
                         1.00000    1.00000    1.00000    1.00000    1.00000    1.00000
                         1.00000    1.00000    1.00000    1.00000    1.00000    1.00000
                         1.00000    1.00000    1.00000    1.00000    1.00000    1.00000
                         1.00000    1.00000    1.00000    1.00000    1.00000    1.00000
                         1.00000    1.00000    1.00000    1.00000    1.00000    1.00000
                         1.00000    1.00000    1.00000    1.00000    1.00000
            znucl       29.00000

================================================================================

 chkinp: Checking input parameters for consistency, jdtset=   1.

 chkinp: Checking input parameters for consistency, jdtset=   2.

 chkinp: Checking input parameters for consistency, jdtset=   3.

 chkinp: Checking input parameters for consistency, jdtset=   4.

================================================================================
== DATASET  1 ==================================================================
-   mpi_nproc: 1, omp_nthreads: -1 (-1 if OMP is not activated)

 Exchange-correlation functional for the present dataset will be:
  LDA: Perdew-Wang 92 LSD fit to Ceperley-Alder data - ixc=7
 Citation for XC functional:
  J.P.Perdew and Y.Wang, PRB 45, 13244 (1992)

 Real(R)+Recip(G) space primitive vectors, cartesian coordinates (Bohr,Bohr^-1):
 R(1)=  3.4110000  3.4110000  0.0000000  G(1)=  0.1465846  0.1465846 -0.1465846
 R(2)=  0.0000000  3.4110000  3.4110000  G(2)= -0.1465846  0.1465846  0.1465846
 R(3)=  3.4110000  0.0000000  3.4110000  G(3)=  0.1465846 -0.1465846  0.1465846
 Unit cell volume ucvol=  7.9373431E+01 bohr^3
 Angles (23,13,12)=  6.00000000E+01  6.00000000E+01  6.00000000E+01 degrees

 Coarse grid specifications (used for wave-functions):

 getcut: wavevector=  0.0000  0.0000  0.0000  ngfft=  15  15  15
         ecut(hartree)=      8.000   => boxcut(ratio)=   2.29100

 getcut : COMMENT -
  Note that boxcut > 2.2 ; recall that boxcut=Gcut(box)/Gcut(sphere) = 2
  is sufficient for exact treatment of convolution.
  Such a large boxcut is a waste : you could raise ecut
  e.g. ecut=   10.497394 Hartrees makes boxcut=2


 Fine grid specifications (used for densities):

 getcut: wavevector=  0.0000  0.0000  0.0000  ngfft=  16  16  16
         ecut(hartree)=     12.000   => boxcut(ratio)=   2.12700

--- Pseudopotential description ------------------------------------------------
- pspini: atom type   1  psp file is /home/gmatteo/git_repos/abinit/tests/Psps_for_tests/Cu_LDA_abinit
- pspatm: opening atomic psp file    /home/gmatteo/git_repos/abinit/tests/Psps_for_tests/Cu_LDA_abinit
- Paw atomic data for element Cu - Generated by AtomPAW (N. Holzwarth) + AtomPAW2Abinit v3.1.1
- 29.00000  19.00000  20070404                znucl, zion, pspdat
    7    7    2    0      1445   0.00000      pspcod,pspxc,lmax,lloc,mmax,r2well
 Pseudopotential format is: paw3
 basis_size (lnmax)=  6 (lmn_size= 18), orbitals=   0   0   1   1   2   2
 Spheres core radius: rc_sph= 2.20631958
 3 radial meshes are used:
  - mesh 1: r(i)=AA*[exp(BB*(i-1))-1], size=1445 , AA= 0.22070E-03 BB= 0.64004E-02
  - mesh 2: r(i)=AA*[exp(BB*(i-1))-1], size=1440 , AA= 0.22070E-03 BB= 0.64004E-02
  - mesh 3: r(i)=AA*[exp(BB*(i-1))-1], size=1676 , AA= 0.22070E-03 BB= 0.64004E-02
 Shapefunction is SIN type: shapef(r)=[sin(pi*r/rshp)/(pi*r/rshp)]**2
 Radius for shape functions = sphere core radius
 Radial grid used for partial waves is grid 1
 Radial grid used for projectors is grid  2
 Radial grid used for (t)core density is grid 1
 Radial grid used for Vloc is grid 3
 Compensation charge density is taken into account in XC energy/potential
 pspatm: atomic psp has been read  and splines computed

   1.01847678E+03                                ecore*ucvol(ha*bohr**3)
--------------------------------------------------------------------------------

_setup2: Arith. and geom. avg. npw (full set) are      84.333      84.147

================================================================================

     iter   Etot(hartree)      deltaE(h)  residm     nres2
 ETOT  1  -197.17766875177    -1.972E+02 1.025E+02 3.486E+01
 ETOT  2  -198.06676707897    -8.891E-01 4.099E-02 9.223E+00
 ETOT  3  -197.83947027414     2.273E-01 7.549E-03 1.403E+01
 ETOT  4  -197.52059300735     3.189E-01 7.149E-05 3.711E+00
 ETOT  5  -197.44809963502     7.249E-02 8.209E-05 8.929E-01
 ETOT  6  -197.42611743320     2.198E-02 5.564E-07 3.744E-03
 ETOT  7  -197.42607344971     4.398E-05 9.351E-09 4.906E-04
 ETOT  8  -197.42605753690     1.591E-05 1.353E-10 8.842E-05
 ETOT  9  -197.42605590079     1.636E-06 8.626E-10 4.767E-06
 ETOT 10  -197.42605583210     6.869E-08 3.206E-10 1.957E-07
 ETOT 11  -197.42605582932     2.780E-09 8.317E-11 2.907E-08

 At SCF step   11   max residual=  8.32E-11 < tolwfr=  1.00E-10 =>converged.

 Cartesian components of stress tensor (hartree/bohr^3)
  sigma(1 1)=  4.54866924E-03  sigma(3 2)=  0.00000000E+00
  sigma(2 2)=  4.54866924E-03  sigma(3 1)=  0.00000000E+00
  sigma(3 3)=  4.54866924E-03  sigma(2 1)=  0.00000000E+00


--- !ResultsGS
iteration_state: {dtset: 1, }
comment   : Summary of ground state results
rprimd    :
- [  3.4110000,   3.4110000,   0.0000000, ]
- [  0.0000000,   3.4110000,   3.4110000, ]
- [  3.4110000,   0.0000000,   3.4110000, ]
lattice_lengths: [   4.82388,    4.82388,    4.82388, ]
lattice_angles: [ 60.000,  60.000,  60.000, ]
lattice_volume:   7.9373431E+01
convergence: {deltae:  2.780E-09, res2:  2.907E-08, residm:  8.317E-11, diffor: null, }
etotal    :  -1.97426056E+02
entropy   :   0.00000000E+00
fermie    :   1.36205295E-01
cartesian_stress_tensor:
- [  4.54866924E-03,   0.00000000E+00,   0.00000000E+00, ]
- [  0.00000000E+00,   4.54866924E-03,   0.00000000E+00, ]
- [  0.00000000E+00,   0.00000000E+00,   4.54866924E-03, ]
pressure_GPa:  -1.3383E+02
cartesian_forces:
- [ -0.00000000E+00,  -0.00000000E+00,  -0.00000000E+00, ]
force_length_stats: {min:   0.00000000E+00, max:   0.00000000E+00, mean:   0.00000000E+00, }
...

 Integrated electronic density in atomic spheres:
 ------------------------------------------------
 Atom  Sphere_radius  Integrated_density
    1        2.20632         17.92749396

 PAW TEST:
 ==== Compensation charge inside spheres ============
 The following values must be close to each other ...
 Compensation charge over spherical meshes =     14.329454804129679
 Compensation charge over fine fft grid    =     14.329685499540695

 ==== Results concerning PAW augmentation regions ====

 Total pseudopotential strength Dij (hartree):
  -3.61165   0.23352   0.00000   0.00000   0.00000   0.00000   0.00000   0.00000   0.00000   0.00000   0.00000   0.00000 ...
   0.23352   0.21601   0.00000   0.00000   0.00000   0.00000   0.00000   0.00000   0.00000   0.00000   0.00000   0.00000 ...
   0.00000   0.00000  -2.33596   0.00000   0.00000   0.04838   0.00000   0.00000   0.00000   0.00000   0.00000   0.00000 ...
   0.00000   0.00000   0.00000  -2.33596   0.00000   0.00000   0.04838   0.00000   0.00000   0.00000   0.00000   0.00000 ...
   0.00000   0.00000   0.00000   0.00000  -2.33596   0.00000   0.00000   0.04838   0.00000   0.00000   0.00000   0.00000 ...
   0.00000   0.00000   0.04838   0.00000   0.00000   0.03132   0.00000   0.00000   0.00000   0.00000   0.00000   0.00000 ...
   0.00000   0.00000   0.00000   0.04838   0.00000   0.00000   0.03132   0.00000   0.00000   0.00000   0.00000   0.00000 ...
   0.00000   0.00000   0.00000   0.00000   0.04838   0.00000   0.00000   0.03132   0.00000   0.00000   0.00000   0.00000 ...
   0.00000   0.00000   0.00000   0.00000   0.00000   0.00000   0.00000   0.00000  -0.16734   0.00000   0.00000   0.00000 ...
   0.00000   0.00000   0.00000   0.00000   0.00000   0.00000   0.00000   0.00000   0.00000  -0.16734   0.00000   0.00000 ...
   0.00000   0.00000   0.00000   0.00000   0.00000   0.00000   0.00000   0.00000   0.00000   0.00000  -0.16669   0.00000 ...
   0.00000   0.00000   0.00000   0.00000   0.00000   0.00000   0.00000   0.00000   0.00000   0.00000   0.00000  -0.16734 ...
   ...  only 12  components have been written...


 Augmentation waves occupancies Rhoij:
   1.99932  -0.00858   0.00000   0.00000   0.00000   0.00000   0.00000   0.00000   0.00000   0.00000   0.00000   0.00000 ...
  -0.00858   1.29317   0.00000   0.00000   0.00000   0.00000   0.00000   0.00000   0.00000   0.00000   0.00000   0.00000 ...
   0.00000   0.00000   1.99827   0.00000   0.00000  -0.04120   0.00000   0.00000   0.00000   0.00000   0.00000   0.00000 ...
   0.00000   0.00000   0.00000   1.99827   0.00000   0.00000  -0.04120   0.00000   0.00000   0.00000   0.00000   0.00000 ...
   0.00000   0.00000   0.00000   0.00000   1.99827   0.00000   0.00000  -0.04120   0.00000   0.00000   0.00000   0.00000 ...
   0.00000   0.00000  -0.04120   0.00000   0.00000   1.31818   0.00000   0.00000   0.00000   0.00000   0.00000   0.00000 ...
   0.00000   0.00000   0.00000  -0.04120   0.00000   0.00000   1.31818   0.00000   0.00000   0.00000   0.00000   0.00000 ...
   0.00000   0.00000   0.00000   0.00000  -0.04120   0.00000   0.00000   1.31818   0.00000   0.00000   0.00000   0.00000 ...
   0.00000   0.00000   0.00000   0.00000   0.00000   0.00000   0.00000   0.00000   1.95202   0.00000   0.00000   0.00000 ...
   0.00000   0.00000   0.00000   0.00000   0.00000   0.00000   0.00000   0.00000   0.00000   1.95202   0.00000   0.00000 ...
   0.00000   0.00000   0.00000   0.00000   0.00000   0.00000   0.00000   0.00000   0.00000   0.00000   1.97448   0.00000 ...
   0.00000   0.00000   0.00000   0.00000   0.00000   0.00000   0.00000   0.00000   0.00000   0.00000   0.00000   1.95202 ...
   ...  only 12  components have been written...


================================================================================

 ----iterations are completed or convergence reached----

 Mean square residual over all n,k,spin=   12.069E-12; max=  83.175E-12
 reduced coordinates (array xred) for    1 atoms
       0.000000000000      0.000000000000      0.000000000000
 rms dE/dt=  0.0000E+00; max dE/dt=  0.0000E+00; dE/dt below (all hartree)
    1       0.000000000000      0.000000000000      0.000000000000

 cartesian coordinates (angstrom) at end:
    1      0.00000000000000     0.00000000000000     0.00000000000000

 cartesian forces (hartree/bohr) at end:
    1     -0.00000000000000    -0.00000000000000    -0.00000000000000
 frms,max,avg= 0.0000000E+00 0.0000000E+00   0.000E+00  0.000E+00  0.000E+00 h/b

 cartesian forces (eV/Angstrom) at end:
    1     -0.00000000000000    -0.00000000000000    -0.00000000000000
 frms,max,avg= 0.0000000E+00 0.0000000E+00   0.000E+00  0.000E+00  0.000E+00 e/A
 length scales=  6.822000000000  6.822000000000  6.822000000000 bohr
              =  3.610046917001  3.610046917001  3.610046917001 angstroms
 prteigrs : about to open file t77o_DS1_EIG
 Fermi (or HOMO) energy (hartree) =   0.13621   Average Vxc (hartree)=  -0.55081
 Eigenvalues (hartree) for nkpt=   4  k points:
 kpt#   1, nband= 30, wtk=  0.03704, kpt=  0.0000  0.0000  0.0000 (reduced coord)
  -3.77543   -2.32171   -2.32171   -2.32171   -0.13064    0.09912    0.09912    0.09912
   0.11798    0.11798    1.04608    1.15547    1.15547    1.15547    1.22050    1.22050
   1.22050    1.38206    1.61271    1.61271    1.61271    1.62759    1.62759    2.42497
   2.89780    2.89780    2.89780    3.19753    3.19753    3.41819
      occupation numbers for kpt#   1
   2.00000    2.00000    2.00000    2.00000    2.00000    1.99992    1.99992    1.99992
   1.98606    1.98606    0.00000    0.00000    0.00000    0.00000    0.00000    0.00000
   0.00000    0.00000    0.00000    0.00000    0.00000    0.00000    0.00000    0.00000
   0.00000    0.00000    0.00000    0.00000    0.00000    0.00000
 prteigrs : prtvol=0 or 1, do not print more k-points.


--- !EnergyTerms
iteration_state     : {dtset: 1, }
comment             : Components of total free energy in Hartree
kinetic             :  6.31962427156263E+00
hartree             :  2.57465927135713E+01
xc                  : -1.36913857690699E+01
Ewald energy        : -1.21308649131859E+02
psp_core            :  1.28314572079917E+01
local_psp           : -6.66720992207793E+01
spherical_terms     : -4.06497676071530E+01
internal            : -1.97424227535736E+02
'-kT*entropy'       : -1.83459720046560E-03
total_energy        : -1.97426062132937E+02
total_energy_eV     : -5.37223636066755E+03
...


--- !EnergyTermsDC
iteration_state     : {dtset: 1, }
comment             : '"Double-counting" decomposition of free energy'
band_energy         : -2.05637137985947E+01
Ewald energy        : -1.21308649131859E+02
psp_core            :  1.28314572079917E+01
xc_dc               : -2.14546568829352E+01
spherical_terms     : -4.69286586267264E+01
internal            : -1.97424221232124E+02
'-kT*entropy'       : -1.83459720046560E-03
total_energy_dc     : -1.97426055829325E+02
total_energy_dc_eV  : -5.37223618913754E+03
...


 Cartesian components of stress tensor (hartree/bohr^3)
  sigma(1 1)=  4.54866924E-03  sigma(3 2)=  0.00000000E+00
  sigma(2 2)=  4.54866924E-03  sigma(3 1)=  0.00000000E+00
  sigma(3 3)=  4.54866924E-03  sigma(2 1)=  0.00000000E+00

-Cartesian components of stress tensor (GPa)         [Pressure= -1.3383E+02 GPa]
- sigma(1 1)=  1.33826447E+02  sigma(3 2)=  0.00000000E+00
- sigma(2 2)=  1.33826447E+02  sigma(3 1)=  0.00000000E+00
- sigma(3 3)=  1.33826447E+02  sigma(2 1)=  0.00000000E+00

================================================================================
== DATASET  2 ==================================================================
-   mpi_nproc: 1, omp_nthreads: -1 (-1 if OMP is not activated)

 mkfilename : getden/=0, take file _DEN from output of DATASET   1.

 Exchange-correlation functional for the present dataset will be:
  LDA: Perdew-Wang 92 LSD fit to Ceperley-Alder data - ixc=7
 Citation for XC functional:
  J.P.Perdew and Y.Wang, PRB 45, 13244 (1992)

 Real(R)+Recip(G) space primitive vectors, cartesian coordinates (Bohr,Bohr^-1):
 R(1)=  3.4110000  3.4110000  0.0000000  G(1)=  0.1465846  0.1465846 -0.1465846
 R(2)=  0.0000000  3.4110000  3.4110000  G(2)= -0.1465846  0.1465846  0.1465846
 R(3)=  3.4110000  0.0000000  3.4110000  G(3)=  0.1465846 -0.1465846  0.1465846
 Unit cell volume ucvol=  7.9373431E+01 bohr^3
 Angles (23,13,12)=  6.00000000E+01  6.00000000E+01  6.00000000E+01 degrees

 Coarse grid specifications (used for wave-functions):

 getcut: wavevector=  0.0000  0.0000  0.0000  ngfft=  15  15  15
         ecut(hartree)=      8.000   => boxcut(ratio)=   2.29100

 getcut : COMMENT -
  Note that boxcut > 2.2 ; recall that boxcut=Gcut(box)/Gcut(sphere) = 2
  is sufficient for exact treatment of convolution.
  Such a large boxcut is a waste : you could raise ecut
  e.g. ecut=   10.497394 Hartrees makes boxcut=2


 Fine grid specifications (used for densities):

 getcut: wavevector=  0.0000  0.0000  0.0000  ngfft=  16  16  16
         ecut(hartree)=     12.000   => boxcut(ratio)=   2.12700
--------------------------------------------------------------------------------

_setup2: Arith. and geom. avg. npw (full set) are      84.333      84.147

================================================================================

     iter   Etot(hartree)      deltaE(h)  residm     nres2
 ETOT  1  -197.38187340586    -1.974E+02 9.506E-01 3.538E-03
 ETOT  2  -197.42670689481    -4.483E-02 6.910E-03 2.244E-02
 ETOT  3  -197.42608158214     6.253E-04 6.137E-04 1.058E-03
 ETOT  4  -197.42606644970     1.513E-05 1.667E-04 4.438E-04
 ETOT  5  -197.42606109249     5.357E-06 6.266E-05 2.205E-04
 ETOT  6  -197.42605866910     2.423E-06 1.384E-05 1.190E-04
 ETOT  7  -197.42605757293     1.096E-06 5.056E-06 7.311E-05
 ETOT  8  -197.42605759104    -1.812E-08 1.097E-06 7.386E-05
 ETOT  9  -197.42605724627     3.448E-07 4.132E-07 5.945E-05
 ETOT 10  -197.42605582872     1.418E-06 1.052E-07 7.044E-10
 ETOT 11  -197.42605582871     1.100E-11 3.044E-08 5.481E-11
 ETOT 12  -197.42605582871    -3.979E-13 8.079E-09 4.088E-11
 ETOT 13  -197.42605582871     4.547E-13 2.333E-09 2.096E-11
 ETOT 14  -197.42605582871     5.684E-14 6.227E-10 2.088E-11
 ETOT 15  -197.42605582871     0.000E+00 1.797E-10 2.358E-11
 ETOT 16  -197.42605582871     4.547E-13 9.971E-11 2.007E-14

 At SCF step   16   max residual=  9.97E-11 < tolwfr=  1.00E-10 =>converged.

 Cartesian components of stress tensor (hartree/bohr^3)
  sigma(1 1)=  4.55055743E-03  sigma(3 2)=  3.52117196E-10
  sigma(2 2)=  4.55052797E-03  sigma(3 1)= -6.46070033E-08
  sigma(3 3)=  4.55051239E-03  sigma(2 1)= -5.19840192E-08


--- !ResultsGS
iteration_state: {dtset: 2, }
comment   : Summary of ground state results
rprimd    :
- [  3.4110000,   3.4110000,   0.0000000, ]
- [  0.0000000,   3.4110000,   3.4110000, ]
- [  3.4110000,   0.0000000,   3.4110000, ]
lattice_lengths: [   4.82388,    4.82388,    4.82388, ]
lattice_angles: [ 60.000,  60.000,  60.000, ]
lattice_volume:   7.9373431E+01
convergence: {deltae:  4.547E-13, res2:  2.007E-14, residm:  9.971E-11, diffor: null, }
etotal    :  -1.97426056E+02
entropy   :   0.00000000E+00
fermie    :   1.36195627E-01
cartesian_stress_tensor:
- [  4.55055743E-03,  -5.19840192E-08,  -6.46070033E-08, ]
- [ -5.19840192E-08,   4.55052797E-03,   3.52117196E-10, ]
- [ -6.46070033E-08,   3.52117196E-10,   4.55051239E-03, ]
pressure_GPa:  -1.3388E+02
cartesian_forces:
- [  0.00000000E+00,   0.00000000E+00,   0.00000000E+00, ]
force_length_stats: {min:   0.00000000E+00, max:   0.00000000E+00, mean:   0.00000000E+00, }
...

 Integrated electronic density in atomic spheres:
 ------------------------------------------------
 Atom  Sphere_radius  Integrated_density
    1        2.20632         17.92752377

 PAW TEST:
 ==== Compensation charge inside spheres ============
 The following values must be close to each other ...
 Compensation charge over spherical meshes =     14.329426767002776
 Compensation charge over fine fft grid    =     14.329751666326002

 ==== Results concerning PAW augmentation regions ====

 Total pseudopotential strength Dij (hartree):
  -3.61166   0.23352   0.00000  -0.00000  -0.00000  -0.00000   0.00000   0.00000  -0.00000   0.00000  -0.00000  -0.00000 ...
   0.23352   0.21601  -0.00000  -0.00000   0.00000   0.00000   0.00000  -0.00000  -0.00000   0.00000  -0.00000  -0.00000 ...
   0.00000  -0.00000  -2.33597   0.00000  -0.00000   0.04838  -0.00000   0.00000  -0.00000  -0.00000  -0.00000  -0.00000 ...
  -0.00000  -0.00000   0.00000  -2.33597  -0.00000  -0.00000   0.04838   0.00000  -0.00000   0.00000  -0.00000  -0.00000 ...
  -0.00000   0.00000  -0.00000  -0.00000  -2.33597   0.00000   0.00000   0.04838   0.00000  -0.00000   0.00000  -0.00000 ...
  -0.00000   0.00000   0.04838  -0.00000   0.00000   0.03132   0.00000  -0.00000   0.00000   0.00000   0.00000   0.00000 ...
   0.00000   0.00000  -0.00000   0.04838   0.00000   0.00000   0.03132   0.00000   0.00000  -0.00000  -0.00000   0.00000 ...
   0.00000  -0.00000   0.00000   0.00000   0.04838  -0.00000   0.00000   0.03132  -0.00000   0.00000  -0.00000   0.00000 ...
  -0.00000  -0.00000  -0.00000  -0.00000   0.00000   0.00000   0.00000  -0.00000  -0.16735  -0.00000   0.00000   0.00000 ...
   0.00000   0.00000  -0.00000   0.00000  -0.00000   0.00000  -0.00000   0.00000  -0.00000  -0.16735   0.00000  -0.00000 ...
  -0.00000  -0.00000  -0.00000  -0.00000   0.00000   0.00000  -0.00000  -0.00000   0.00000   0.00000  -0.16670  -0.00000 ...
  -0.00000  -0.00000  -0.00000  -0.00000  -0.00000   0.00000   0.00000   0.00000   0.00000  -0.00000  -0.00000  -0.16735 ...
   ...  only 12  components have been written...


 Augmentation waves occupancies Rhoij:
   1.99932  -0.00858   0.00000  -0.00000   0.00000  -0.00000   0.00000   0.00000  -0.00000  -0.00000  -0.00000  -0.00000 ...
  -0.00858   1.29315   0.00000  -0.00000  -0.00000  -0.00000   0.00000   0.00000  -0.00000   0.00000  -0.00000  -0.00000 ...
   0.00000   0.00000   1.99827   0.00000  -0.00000  -0.04120   0.00000  -0.00000   0.00000  -0.00000   0.00000   0.00000 ...
  -0.00000  -0.00000   0.00000   1.99827  -0.00000   0.00000  -0.04120  -0.00000   0.00000  -0.00000  -0.00000   0.00000 ...
   0.00000  -0.00000  -0.00000  -0.00000   1.99827  -0.00000  -0.00000  -0.04120  -0.00000  -0.00000  -0.00000  -0.00000 ...
  -0.00000  -0.00000  -0.04120   0.00000  -0.00000   1.31814   0.00000   0.00000   0.00000   0.00000   0.00000  -0.00000 ...
   0.00000   0.00000   0.00000  -0.04120  -0.00000   0.00000   1.31814   0.00000  -0.00000  -0.00000   0.00000   0.00000 ...
   0.00000   0.00000  -0.00000  -0.00000  -0.04120   0.00000   0.00000   1.31814  -0.00000  -0.00000   0.00000   0.00000 ...
  -0.00000  -0.00000   0.00000   0.00000  -0.00000   0.00000  -0.00000  -0.00000   1.95203   0.00000  -0.00000  -0.00000 ...
  -0.00000   0.00000  -0.00000  -0.00000  -0.00000   0.00000  -0.00000  -0.00000   0.00000   1.95203  -0.00000   0.00000 ...
  -0.00000  -0.00000   0.00000  -0.00000  -0.00000   0.00000   0.00000   0.00000  -0.00000  -0.00000   1.97448   0.00000 ...
  -0.00000  -0.00000   0.00000   0.00000  -0.00000  -0.00000   0.00000   0.00000  -0.00000   0.00000   0.00000   1.95203 ...
   ...  only 12  components have been written...


================================================================================

 ----iterations are completed or convergence reached----

 Mean square residual over all n,k,spin=   34.301E-12; max=  99.707E-12
 reduced coordinates (array xred) for    1 atoms
       0.000000000000      0.000000000000      0.000000000000
 rms dE/dt=  1.1718E-05; max dE/dt=  1.6135E-05; dE/dt below (all hartree)
    1      -0.000006890511     -0.000010205492      0.000016134608

 cartesian coordinates (angstrom) at end:
    1      0.00000000000000     0.00000000000000     0.00000000000000

 cartesian forces (hartree/bohr) at end:
    1      0.00000000000000     0.00000000000000     0.00000000000000
 frms,max,avg= 0.0000000E+00 0.0000000E+00  -2.851E-06  4.871E-06 -1.879E-06 h/b

 cartesian forces (eV/Angstrom) at end:
    1      0.00000000000000     0.00000000000000     0.00000000000000
 frms,max,avg= 0.0000000E+00 0.0000000E+00  -1.466E-04  2.505E-04 -9.663E-05 e/A
 length scales=  6.822000000000  6.822000000000  6.822000000000 bohr
              =  3.610046917001  3.610046917001  3.610046917001 angstroms
 prteigrs : about to open file t77o_DS2_EIG
 Fermi (or HOMO) energy (hartree) =   0.13620   Average Vxc (hartree)=  -0.55081
 Eigenvalues (hartree) for nkpt=  14  k points:
 kpt#   1, nband= 30, wtk=  0.03704, kpt=  0.0000  0.0000  0.0000 (reduced coord)
  -3.77544   -2.32172   -2.32172   -2.32172   -0.13064    0.09911    0.09911    0.09911
   0.11797    0.11797    1.04608    1.15547    1.15547    1.15547    1.22050    1.22050
   1.22050    1.38206    1.61271    1.61271    1.61271    1.62759    1.62759    2.42497
   2.89780    2.89780    2.89780    3.19753    3.19753    3.41819
      occupation numbers for kpt#   1
   2.00000    2.00000    2.00000    2.00000    2.00000    1.99992    1.99992    1.99992
   1.98606    1.98606    0.00000    0.00000    0.00000    0.00000    0.00000    0.00000
   0.00000    0.00000    0.00000    0.00000    0.00000    0.00000    0.00000    0.00000
   0.00000    0.00000    0.00000    0.00000    0.00000    0.00000
 prteigrs : prtvol=0 or 1, do not print more k-points.


--- !EnergyTerms
iteration_state     : {dtset: 2, }
comment             : Components of total free energy in Hartree
kinetic             :  6.31959145201565E+00
hartree             :  2.57464895364170E+01
xc                  : -1.36913700676236E+01
Ewald energy        : -1.21308649131859E+02
psp_core            :  1.28314572079917E+01
local_psp           : -6.66719661566389E+01
spherical_terms     : -4.06497740936897E+01
internal            : -1.97424221253387E+02
'-kT*entropy'       : -1.83453984176360E-03
total_energy        : -1.97426055793229E+02
total_energy_eV     : -5.37223618815534E+03
...


--- !EnergyTermsDC
iteration_state     : {dtset: 2, }
comment             : '"Double-counting" decomposition of free energy'
band_energy         : -2.05639074938293E+01
Ewald energy        : -1.21308649131859E+02
psp_core            :  1.28314572079917E+01
xc_dc               : -2.14545587695786E+01
spherical_terms     : -4.69285631015928E+01
internal            : -1.97424221288869E+02
'-kT*entropy'       : -1.83453984176360E-03
total_energy_dc     : -1.97426055828710E+02
total_energy_dc_eV  : -5.37223618912083E+03
...


 Cartesian components of stress tensor (hartree/bohr^3)
  sigma(1 1)=  4.55055743E-03  sigma(3 2)=  3.52117196E-10
  sigma(2 2)=  4.55052797E-03  sigma(3 1)= -6.46070033E-08
  sigma(3 3)=  4.55051239E-03  sigma(2 1)= -5.19840192E-08

-Cartesian components of stress tensor (GPa)         [Pressure= -1.3388E+02 GPa]
- sigma(1 1)=  1.33881999E+02  sigma(3 2)=  1.03596438E-05
- sigma(2 2)=  1.33881133E+02  sigma(3 1)= -1.90080334E-03
- sigma(3 3)=  1.33880674E+02  sigma(2 1)= -1.52942239E-03

================================================================================
== DATASET  3 ==================================================================
-   mpi_nproc: 1, omp_nthreads: -1 (-1 if OMP is not activated)

 mkfilename : getwfk/=0, take file _WFK from output of DATASET   2.

 mkfilename : getden/=0, take file _DEN from output of DATASET   2.

 Exchange-correlation functional for the present dataset will be:
  LDA: Perdew-Wang 92 LSD fit to Ceperley-Alder data - ixc=7
 Citation for XC functional:
  J.P.Perdew and Y.Wang, PRB 45, 13244 (1992)

 Real(R)+Recip(G) space primitive vectors, cartesian coordinates (Bohr,Bohr^-1):
 R(1)=  3.4110000  3.4110000  0.0000000  G(1)=  0.1465846  0.1465846 -0.1465846
 R(2)=  0.0000000  3.4110000  3.4110000  G(2)= -0.1465846  0.1465846  0.1465846
 R(3)=  3.4110000  0.0000000  3.4110000  G(3)=  0.1465846 -0.1465846  0.1465846
 Unit cell volume ucvol=  7.9373431E+01 bohr^3
 Angles (23,13,12)=  6.00000000E+01  6.00000000E+01  6.00000000E+01 degrees

 Coarse grid specifications (used for wave-functions):

 getcut: wavevector=  0.0000  0.0000  0.0000  ngfft=  15  15  15
         ecut(hartree)=      8.000   => boxcut(ratio)=   2.29100

 getcut : COMMENT -
  Note that boxcut > 2.2 ; recall that boxcut=Gcut(box)/Gcut(sphere) = 2
  is sufficient for exact treatment of convolution.
  Such a large boxcut is a waste : you could raise ecut
  e.g. ecut=   10.497394 Hartrees makes boxcut=2


 Fine grid specifications (used for densities):

 getcut: wavevector=  0.0000  0.0000  0.0000  ngfft=  16  16  16
         ecut(hartree)=     12.000   => boxcut(ratio)=   2.12700
--------------------------------------------------------------------------------

-inwffil : will read wavefunctions from disk file t77o_DS2_WFK
_setup2: Arith. and geom. avg. npw (full set) are      84.333      84.147

================================================================================

     iter   Etot(hartree)      deltaE(h)  residm     nres2
 ETOT  1  -197.42605582871    -1.974E+02 9.959E-11 1.248E-13

 At SCF step    1   max residual=  9.96E-11 < tolwfr=  1.00E-10 =>converged.

 Cartesian components of stress tensor (hartree/bohr^3)
  sigma(1 1)=  4.55056227E-03  sigma(3 2)=  2.74134200E-10
  sigma(2 2)=  4.55053309E-03  sigma(3 1)= -6.43545364E-08
  sigma(3 3)=  4.55051786E-03  sigma(2 1)= -5.17762420E-08


--- !ResultsGS
iteration_state: {dtset: 3, }
comment   : Summary of ground state results
rprimd    :
- [  3.4110000,   3.4110000,   0.0000000, ]
- [  0.0000000,   3.4110000,   3.4110000, ]
- [  3.4110000,   0.0000000,   3.4110000, ]
lattice_lengths: [   4.82388,    4.82388,    4.82388, ]
lattice_angles: [ 60.000,  60.000,  60.000, ]
lattice_volume:   7.9373431E+01
convergence: {deltae: -1.974E+02, res2:  1.248E-13, residm:  9.959E-11, diffor: null, }
etotal    :  -1.97426056E+02
entropy   :   0.00000000E+00
fermie    :   1.36195598E-01
cartesian_stress_tensor:
- [  4.55056227E-03,  -5.17762420E-08,  -6.43545364E-08, ]
- [ -5.17762420E-08,   4.55053309E-03,   2.74134200E-10, ]
- [ -6.43545364E-08,   2.74134200E-10,   4.55051786E-03, ]
pressure_GPa:  -1.3388E+02
cartesian_forces:
- [  0.00000000E+00,   0.00000000E+00,   0.00000000E+00, ]
force_length_stats: {min:   0.00000000E+00, max:   0.00000000E+00, mean:   0.00000000E+00, }
...

 Integrated electronic density in atomic spheres:
 ------------------------------------------------
 Atom  Sphere_radius  Integrated_density
    1        2.20632         17.92752387

 PAW TEST:
 ==== Compensation charge inside spheres ============
 The following values must be close to each other ...
 Compensation charge over spherical meshes =     14.329426716294117
 Compensation charge over fine fft grid    =     14.329751861844747

 ==== Results concerning PAW augmentation regions ====

 Total pseudopotential strength Dij (hartree):
  -3.61166   0.23352   0.00000  -0.00000  -0.00000  -0.00000   0.00000   0.00000  -0.00000   0.00000  -0.00000  -0.00000 ...
   0.23352   0.21601  -0.00000  -0.00000   0.00000   0.00000   0.00000  -0.00000  -0.00000   0.00000  -0.00000  -0.00000 ...
   0.00000  -0.00000  -2.33597   0.00000  -0.00000   0.04838  -0.00000   0.00000  -0.00000  -0.00000  -0.00000  -0.00000 ...
  -0.00000  -0.00000   0.00000  -2.33597  -0.00000  -0.00000   0.04838   0.00000  -0.00000   0.00000  -0.00000  -0.00000 ...
  -0.00000   0.00000  -0.00000  -0.00000  -2.33597   0.00000   0.00000   0.04838   0.00000  -0.00000   0.00000  -0.00000 ...
  -0.00000   0.00000   0.04838  -0.00000   0.00000   0.03132   0.00000  -0.00000   0.00000   0.00000   0.00000   0.00000 ...
   0.00000   0.00000  -0.00000   0.04838   0.00000   0.00000   0.03132   0.00000   0.00000  -0.00000  -0.00000   0.00000 ...
   0.00000  -0.00000   0.00000   0.00000   0.04838  -0.00000   0.00000   0.03132  -0.00000   0.00000  -0.00000   0.00000 ...
  -0.00000  -0.00000  -0.00000  -0.00000   0.00000   0.00000   0.00000  -0.00000  -0.16735  -0.00000   0.00000   0.00000 ...
   0.00000   0.00000  -0.00000   0.00000  -0.00000   0.00000  -0.00000   0.00000  -0.00000  -0.16735   0.00000  -0.00000 ...
  -0.00000  -0.00000  -0.00000  -0.00000   0.00000   0.00000  -0.00000  -0.00000   0.00000   0.00000  -0.16670  -0.00000 ...
  -0.00000  -0.00000  -0.00000  -0.00000  -0.00000   0.00000   0.00000   0.00000   0.00000  -0.00000  -0.00000  -0.16735 ...
   ...  only 12  components have been written...


 Augmentation waves occupancies Rhoij:
   1.99932  -0.00858   0.00000  -0.00000   0.00000  -0.00000   0.00000   0.00000  -0.00000  -0.00000  -0.00000  -0.00000 ...
  -0.00858   1.29315   0.00000  -0.00000  -0.00000  -0.00000   0.00000   0.00000  -0.00000   0.00000  -0.00000  -0.00000 ...
   0.00000   0.00000   1.99827   0.00000  -0.00000  -0.04120   0.00000  -0.00000   0.00000  -0.00000   0.00000   0.00000 ...
  -0.00000  -0.00000   0.00000   1.99827  -0.00000   0.00000  -0.04120  -0.00000   0.00000  -0.00000  -0.00000   0.00000 ...
   0.00000  -0.00000  -0.00000  -0.00000   1.99827  -0.00000  -0.00000  -0.04120  -0.00000  -0.00000  -0.00000  -0.00000 ...
  -0.00000  -0.00000  -0.04120   0.00000  -0.00000   1.31814   0.00000   0.00000   0.00000   0.00000   0.00000  -0.00000 ...
   0.00000   0.00000   0.00000  -0.04120  -0.00000   0.00000   1.31814   0.00000  -0.00000  -0.00000   0.00000   0.00000 ...
   0.00000   0.00000  -0.00000  -0.00000  -0.04120   0.00000   0.00000   1.31814  -0.00000  -0.00000   0.00000   0.00000 ...
  -0.00000  -0.00000   0.00000   0.00000  -0.00000   0.00000  -0.00000  -0.00000   1.95203   0.00000  -0.00000  -0.00000 ...
  -0.00000   0.00000  -0.00000  -0.00000  -0.00000   0.00000  -0.00000  -0.00000   0.00000   1.95203  -0.00000   0.00000 ...
  -0.00000  -0.00000   0.00000  -0.00000  -0.00000   0.00000   0.00000   0.00000  -0.00000  -0.00000   1.97448   0.00000 ...
  -0.00000  -0.00000   0.00000   0.00000  -0.00000  -0.00000   0.00000   0.00000  -0.00000   0.00000   0.00000   1.95203 ...
   ...  only 12  components have been written...



 ======================================================================================

 == Start computation of Projected Local Orbitals Wannier functions ==   2

 == Lower and upper values of the selected bands    5   10
 == Number of atoms                                      1
 == Atoms selected                                1
 == Nb of angular momenta used for each atom      1
 == Value of the angular momenta for atom 1 is :  2
 == Value of the projectors      for atom 1 is :  5

 == For each k-point of the path, gives the eigenvalues (in eV) of the Hamiltonian in the Wannier basis

   (The band structure is shifted by fermie =       3.7060 eV )

 Wannier band structure for atom  1
 1      -1.009      -1.009      -1.009      -0.496      -0.496
 2      -2.023      -1.255      -1.255      -0.361      -0.361
 3      -2.023      -1.255      -1.255      -0.361      -0.361
 4      -2.353      -1.795      -0.434      -0.434      -0.301
 5      -2.319      -1.555      -0.720      -0.639      -0.358
 6      -2.023      -1.255      -1.255      -0.361      -0.361
 7      -2.353      -1.795      -0.434      -0.434      -0.301
 8      -2.319      -1.555      -0.720      -0.639      -0.358
 9      -2.353      -1.795      -0.434      -0.434      -0.301
 10      -2.023      -1.255      -1.255      -0.361      -0.361
 11      -2.319      -1.555      -0.720      -0.639      -0.358
 12      -2.319      -1.555      -0.720      -0.639      -0.358
 13      -2.319      -1.555      -0.720      -0.639      -0.358
 14      -2.319      -1.555      -0.720      -0.639      -0.358

 Print the psichi coefficients in data.plowann

======================================================================
 Calculating and writing out Kohn-Sham electronic Structure file
 Using conjugate gradient wavefunctions and energies (kssform=3)
 number of Gamma centered plane waves    135
 number of Gamma centered shells    135
 number of bands      2
 maximum angular momentum components      3
 Conjugate gradient eigenvalues
   k    eigenvalues [Hartree]
   1     -3.7754 -2.3217
   2     -3.7750 -2.3252
   3     -3.7750 -2.3252
   4     -3.7748 -2.3252
   5     -3.7747 -2.3251
   6     -3.7750 -2.3252
   7     -3.7748 -2.3252
   8     -3.7747 -2.3251
   9     -3.7748 -2.3252
  10     -3.7750 -2.3252
  11     -3.7747 -2.3251
  12     -3.7747 -2.3251
  13     -3.7747 -2.3251
  14     -3.7747 -2.3251
 Test on the normalization of the wavefunctions
  min sum_G |a(n,k,G)| =  1.000000
  max sum_G |a(n,k,G)| =  1.000000
 Test on the orthogonalization of the wavefunctions
  min sum_G a(n,k,G)a(n',k,G) =  0.000000
  max sum_G a(n,k,G)a(n',k,G) =  0.000000

================================================================================

 ----iterations are completed or convergence reached----

 Mean square residual over all n,k,spin=   34.091E-12; max=  99.589E-12
 reduced coordinates (array xred) for    1 atoms
       0.000000000000      0.000000000000      0.000000000000
 rms dE/dt=  1.1720E-05; max dE/dt=  1.6137E-05; dE/dt below (all hartree)
    1      -0.000006890868     -0.000010207338      0.000016137128

 cartesian coordinates (angstrom) at end:
    1      0.00000000000000     0.00000000000000     0.00000000000000

 cartesian forces (hartree/bohr) at end:
    1      0.00000000000000     0.00000000000000     0.00000000000000
 frms,max,avg= 0.0000000E+00 0.0000000E+00  -2.852E-06  4.872E-06 -1.879E-06 h/b

 cartesian forces (eV/Angstrom) at end:
    1      0.00000000000000     0.00000000000000     0.00000000000000
 frms,max,avg= 0.0000000E+00 0.0000000E+00  -1.466E-04  2.505E-04 -9.664E-05 e/A
 length scales=  6.822000000000  6.822000000000  6.822000000000 bohr
              =  3.610046917001  3.610046917001  3.610046917001 angstroms
 prteigrs : about to open file t77o_DS3_EIG
 Fermi (or HOMO) energy (hartree) =   0.13620   Average Vxc (hartree)=  -0.55081
 Eigenvalues (hartree) for nkpt=  14  k points:
 kpt#   1, nband= 30, wtk=  0.03704, kpt=  0.0000  0.0000  0.0000 (reduced coord)
  -3.77544   -2.32172   -2.32172   -2.32172   -0.13064    0.09911    0.09911    0.09911
   0.11797    0.11797    1.04608    1.15547    1.15547    1.15547    1.22050    1.22050
   1.22050    1.38206    1.61271    1.61271    1.61271    1.62759    1.62759    2.42497
   2.89780    2.89780    2.89780    3.19753    3.19753    3.41819
      occupation numbers for kpt#   1
   2.00000    2.00000    2.00000    2.00000    2.00000    1.99992    1.99992    1.99992
   1.98606    1.98606    0.00000    0.00000    0.00000    0.00000    0.00000    0.00000
   0.00000    0.00000    0.00000    0.00000    0.00000    0.00000    0.00000    0.00000
   0.00000    0.00000    0.00000    0.00000    0.00000    0.00000
 prteigrs : prtvol=0 or 1, do not print more k-points.


--- !EnergyTerms
iteration_state     : {dtset: 3, }
comment             : Components of total free energy in Hartree
kinetic             :  6.31959136283257E+00
hartree             :  2.57464893441882E+01
xc                  : -1.36913700398606E+01
Ewald energy        : -1.21308649131859E+02
psp_core            :  1.28314572079917E+01
local_psp           : -6.66719659063751E+01
spherical_terms     : -4.06497742149691E+01
internal            : -1.97424221378052E+02
'-kT*entropy'       : -1.83453969282007E-03
total_energy        : -1.97426055917745E+02
total_energy_eV     : -5.37223619154357E+03
...


--- !EnergyTermsDC
iteration_state     : {dtset: 3, }
comment             : '"Double-counting" decomposition of free energy'
band_energy         : -2.05639080708518E+01
Ewald energy        : -1.21308649131859E+02
psp_core            :  1.28314572079917E+01
xc_dc               : -2.14545585863123E+01
spherical_terms     : -4.69285627079854E+01
internal            : -1.97424221289017E+02
'-kT*entropy'       : -1.83453969282007E-03
total_energy_dc     : -1.97426055828710E+02
total_energy_dc_eV  : -5.37223618912082E+03
...


 Cartesian components of stress tensor (hartree/bohr^3)
  sigma(1 1)=  4.55056227E-03  sigma(3 2)=  2.74134200E-10
  sigma(2 2)=  4.55053309E-03  sigma(3 1)= -6.43545364E-08
  sigma(3 3)=  4.55051786E-03  sigma(2 1)= -5.17762420E-08

-Cartesian components of stress tensor (GPa)         [Pressure= -1.3388E+02 GPa]
- sigma(1 1)=  1.33882142E+02  sigma(3 2)=  8.06530525E-06
- sigma(2 2)=  1.33881283E+02  sigma(3 1)= -1.89337551E-03
- sigma(3 3)=  1.33880835E+02  sigma(2 1)= -1.52330937E-03

================================================================================
== DATASET  4 ==================================================================
-   mpi_nproc: 1, omp_nthreads: -1 (-1 if OMP is not activated)

 mkfilename : getden/=0, take file _DEN from output of DATASET   2.

 Exchange-correlation functional for the present dataset will be:
  LDA: Perdew-Wang 92 LSD fit to Ceperley-Alder data - ixc=7
 Citation for XC functional:
  J.P.Perdew and Y.Wang, PRB 45, 13244 (1992)

 Real(R)+Recip(G) space primitive vectors, cartesian coordinates (Bohr,Bohr^-1):
 R(1)=  3.4110000  3.4110000  0.0000000  G(1)=  0.1465846  0.1465846 -0.1465846
 R(2)=  0.0000000  3.4110000  3.4110000  G(2)= -0.1465846  0.1465846  0.1465846
 R(3)=  3.4110000  0.0000000  3.4110000  G(3)=  0.1465846 -0.1465846  0.1465846
 Unit cell volume ucvol=  7.9373431E+01 bohr^3
 Angles (23,13,12)=  6.00000000E+01  6.00000000E+01  6.00000000E+01 degrees

 Coarse grid specifications (used for wave-functions):

 getcut: wavevector=  0.0000  0.0000  0.0000  ngfft=  15  15  15
         ecut(hartree)=      8.000   => boxcut(ratio)=   2.29100

 getcut : COMMENT -
  Note that boxcut > 2.2 ; recall that boxcut=Gcut(box)/Gcut(sphere) = 2
  is sufficient for exact treatment of convolution.
  Such a large boxcut is a waste : you could raise ecut
  e.g. ecut=   10.497394 Hartrees makes boxcut=2


 Fine grid specifications (used for densities):

 getcut: wavevector=  0.0000  0.0000  0.0000  ngfft=  16  16  16
         ecut(hartree)=     12.000   => boxcut(ratio)=   2.12700
--------------------------------------------------------------------------------


================================================================================
 prteigrs : about to open file t77o_DS4_EIG
 Non-SCF case, kpt    1 (  0.00000  0.00000  0.00000), residuals and eigenvalues=
  1.29E-11  2.56E-11  1.48E-11  2.48E-11  4.14E-11  1.12E-11  3.84E-12  1.94E-12
  4.40E-12  1.80E-12  9.58E-12  7.85E-12  2.80E-12  2.10E-12  6.17E-13  3.43E-12
  1.02E-11  4.17E-12  1.36E-11  5.10E-12  3.71E-11  8.74E-12  6.71E-11  3.72E-12
  9.25E-12  6.95E-12  1.15E-11  5.45E-11  5.10E-11  6.06E-11
 -3.7754E+00 -2.3217E+00 -2.3217E+00 -2.3217E+00 -1.3064E-01  9.9108E-02
  9.9108E-02  9.9108E-02  1.1797E-01  1.1797E-01  1.0461E+00  1.1555E+00
  1.1555E+00  1.1555E+00  1.2205E+00  1.2205E+00  1.2205E+00  1.3821E+00
  1.6127E+00  1.6127E+00  1.6127E+00  1.6276E+00  1.6276E+00  2.4250E+00
  2.8978E+00  2.8978E+00  2.8978E+00  3.1975E+00  3.1975E+00  3.4182E+00
 Non-SCF case, kpt    2 (  0.00000  0.05000  0.05000), residuals and eigenvalues=
  1.94E-11  3.67E-12  5.57E-12  5.33E-11  1.77E-11  6.47E-12  4.82E-11  3.14E-11
  4.97E-11  3.85E-11  3.59E-11  9.50E-13  1.99E-11  1.28E-12  7.76E-11  5.95E-11
  7.28E-12  8.77E-12  1.55E-12  1.15E-12  9.85E-11  1.32E-11  3.76E-11  1.70E-11
  9.27E-11  3.37E-11  4.04E-11  3.25E-11  2.03E-07  4.59E-06
 -3.7754E+00 -2.3221E+00 -2.3221E+00 -2.3221E+00 -1.2624E-01  8.6763E-02
  8.8970E-02  8.8970E-02  1.1480E-01  1.1594E-01  1.0286E+00  1.1031E+00
  1.1031E+00  1.1346E+00  1.2450E+00  1.2720E+00  1.2720E+00  1.3980E+00
  1.4950E+00  1.6167E+00  1.6167E+00  1.6264E+00  1.7438E+00  2.4394E+00
  2.8311E+00  2.8732E+00  2.8732E+00  3.1663E+00  3.2607E+00  3.3397E+00
  prteigrs : nnsclo,ikpt=   20    2 max resid (incl. the buffer)=  4.58743E-06
 Non-SCF case, kpt    3 (  0.00000  0.10000  0.10000), residuals and eigenvalues=
  2.51E-11  1.54E-11  7.01E-11  3.93E-12  2.24E-11  2.44E-11  9.45E-12  3.67E-11
  8.78E-11  3.89E-11  2.88E-11  8.20E-11  9.77E-11  8.04E-11  1.49E-11  6.67E-13
  2.35E-11  1.87E-11  5.14E-11  2.67E-11  1.71E-11  1.38E-12  5.80E-11  5.65E-11
  1.95E-11  1.24E-11  3.59E-11  8.43E-11  4.81E-08  1.15E-07
 -3.7754E+00 -2.3226E+00 -2.3223E+00 -2.3223E+00 -1.1320E-01  8.2491E-02
  8.8912E-02  8.8912E-02  1.0801E-01  1.1684E-01  9.9419E-01  1.0321E+00
  1.0321E+00  1.0891E+00  1.3080E+00  1.3329E+00  1.3474E+00  1.3474E+00
  1.4903E+00  1.6316E+00  1.6433E+00  1.6433E+00  1.8638E+00  2.4856E+00
  2.7203E+00  2.8280E+00  2.8280E+00  3.0742E+00  3.2774E+00  3.2774E+00
  prteigrs : nnsclo,ikpt=   20    3 max resid (incl. the buffer)=  1.14675E-07
 Non-SCF case, kpt    4 (  0.00000  0.15000  0.15000), residuals and eigenvalues=
  3.79E-12  2.45E-11  9.55E-12  1.54E-11  1.95E-11  8.26E-12  7.85E-11  4.00E-11
  9.80E-11  2.89E-12  9.41E-12  1.24E-11  8.22E-12  1.50E-11  2.23E-12  3.67E-11
  2.33E-11  3.39E-12  9.04E-11  2.19E-11  5.34E-12  1.43E-11  2.35E-12  8.54E-11
  1.14E-11  3.80E-11  1.74E-11  6.25E-11  7.52E-09  2.99E-07
 -3.7753E+00 -2.3231E+00 -2.3224E+00 -2.3224E+00 -9.2005E-02  7.6448E-02
  9.3070E-02  9.3070E-02  1.0325E-01  1.1893E-01  9.5905E-01  9.6356E-01
  9.6356E-01  1.0357E+00  1.2191E+00  1.3904E+00  1.4247E+00  1.4247E+00
  1.5607E+00  1.6416E+00  1.6881E+00  1.6881E+00  1.9747E+00  2.5596E+00
  2.6042E+00  2.7534E+00  2.7534E+00  2.9797E+00  3.2457E+00  3.2457E+00
  prteigrs : nnsclo,ikpt=   20    4 max resid (incl. the buffer)=  2.98725E-07
 Non-SCF case, kpt    5 (  0.00000  0.20000  0.20000), residuals and eigenvalues=
  2.71E-12  2.01E-11  1.17E-11  6.36E-12  1.15E-11  1.62E-12  2.38E-12  2.34E-11
  9.86E-11  5.78E-11  4.44E-11  6.64E-11  3.85E-12  1.96E-12  1.22E-12  1.68E-12
  7.13E-11  1.73E-12  4.91E-11  1.32E-11  3.10E-12  2.79E-12  1.51E-11  5.74E-11
  3.85E-11  5.64E-11  4.71E-11  8.06E-11  4.30E-07  1.84E-05
 -3.7752E+00 -2.3237E+00 -2.3228E+00 -2.3228E+00 -6.3777E-02  6.9227E-02
  9.7928E-02  9.7928E-02  9.9623E-02  1.1772E-01  8.9887E-01  8.9887E-01
  9.2828E-01  9.7000E-01  1.1227E+00  1.4865E+00  1.5016E+00  1.5016E+00
  1.6391E+00  1.6510E+00  1.7504E+00  1.7504E+00  2.0738E+00  2.4913E+00
[...]
                       2.000000  2.000000  2.000000  2.000000  2.000000  1.999993
                       1.999993  1.999993  1.947329  1.947328  0.000000  0.000000
                       0.000000  0.000000  0.000000  0.000000  0.000000  0.000000
                       0.000000  0.000000  0.000000  0.000000  0.000000  0.000000
                       0.000000  0.000000  0.000000  0.000000  0.000000  0.000000
                       2.000000  2.000000  2.000000  2.000000  2.000000  2.000000
                       1.974151  1.974151  1.906083  1.902585  0.000000  0.000000
                       0.000000  0.000000  0.000000  0.000000  0.000000  0.000000
                       0.000000  0.000000  0.000000  0.000000  0.000000  0.000000
                       0.000000  0.000000  0.000000  0.000000  0.000000  0.000000
                       2.000000  2.000000  2.000000  2.000000  2.000000  2.000000
                       2.000000  1.998509  1.945594  0.000000  0.000000  0.000000
                       0.000000  0.000000  0.000000  0.000000  0.000000  0.000000
                       0.000000  0.000000  0.000000  0.000000  0.000000  0.000000
                       0.000000  0.000000  0.000000  0.000000  0.000000  0.000000
                       2.000000  2.000000  2.000000  2.000000  2.000000  1.999993
                       1.999993  1.999993  1.947329  1.947328  0.000000  0.000000
                       0.000000  0.000000  0.000000  0.000000  0.000000  0.000000
                       0.000000  0.000000  0.000000  0.000000  0.000000  0.000000
                       0.000000  0.000000  0.000000  0.000000  0.000000  0.000000
                       2.000000  2.000000  2.000000  2.000000  2.000000  2.000000
                       1.974151  1.974151  1.906083  1.902584  0.000000  0.000000
                       0.000000  0.000000  0.000000  0.000000  0.000000  0.000000
                       0.000000  0.000000  0.000000  0.000000  0.000000  0.000000
                       0.000000  0.000000  0.000000  0.000000  0.000000  0.000000
                       2.000000  2.000000  2.000000  2.000000  2.000000  2.000000
                       2.000000  1.998509  1.945593  0.000000  0.000000  0.000000
                       0.000000  0.000000  0.000000  0.000000  0.000000  0.000000
                       0.000000  0.000000  0.000000  0.000000  0.000000  0.000000
                       0.000000  0.000000  0.000000  0.000000  0.000000  0.000000
                       2.000000  2.000000  2.000000  2.000000  2.000000  2.000000
                       1.974151  1.974151  1.906083  1.902585  0.000000  0.000000
                       0.000000  0.000000  0.000000  0.000000  0.000000  0.000000
                       0.000000  0.000000  0.000000  0.000000  0.000000  0.000000
                       0.000000  0.000000  0.000000  0.000000  0.000000  0.000000
                       2.000000  2.000000  2.000000  2.000000  2.000000  1.999993
                       1.999993  1.999993  1.947329  1.947329  0.000000  0.000000
                       0.000000  0.000000  0.000000  0.000000  0.000000  0.000000
                       0.000000  0.000000  0.000000  0.000000  0.000000  0.000000
                       0.000000  0.000000  0.000000  0.000000  0.000000  0.000000
                       2.000000  2.000000  2.000000  2.000000  2.000000  2.000000
                       2.000000  1.998509  1.945593  0.000000  0.000000  0.000000
                       0.000000  0.000000  0.000000  0.000000  0.000000  0.000000
                       0.000000  0.000000  0.000000  0.000000  0.000000  0.000000
                       0.000000  0.000000  0.000000  0.000000  0.000000  0.000000
                       2.000000  2.000000  2.000000  2.000000  2.000000  2.000000
                       2.000000  1.998509  1.945594  0.000000  0.000000  0.000000
                       0.000000  0.000000  0.000000  0.000000  0.000000  0.000000
                       0.000000  0.000000  0.000000  0.000000  0.000000  0.000000
                       0.000000  0.000000  0.000000  0.000000  0.000000  0.000000
                       2.000000  2.000000  2.000000  2.000000  2.000000  2.000000
                       2.000000  1.998509  1.945593  0.000000  0.000000  0.000000
                       0.000000  0.000000  0.000000  0.000000  0.000000  0.000000
                       0.000000  0.000000  0.000000  0.000000  0.000000  0.000000
                       0.000000  0.000000  0.000000  0.000000  0.000000  0.000000
                       2.000000  2.000000  2.000000  2.000000  2.000000  2.000000
                       2.000000  1.998509  1.945593  0.000000  0.000000  0.000000
                       0.000000  0.000000  0.000000  0.000000  0.000000  0.000000
                       0.000000  0.000000  0.000000  0.000000  0.000000  0.000000
                       0.000000  0.000000  0.000000  0.000000  0.000000  0.000000
           occopt           3
        pawecutdg      1.20000000E+01 Hartree
        pawfatbnd1          0
        pawfatbnd2          0
        pawfatbnd3          0
        pawfatbnd4          1
          pawovlp     -1.0000000000E+00
        pawprtvol           3
     plowan_bandi1          0
     plowan_bandi2          0
     plowan_bandi3          5
     plowan_bandi4          5
     plowan_bandf1          0
     plowan_bandf2          0
     plowan_bandf3         10
     plowan_bandf4         10
   plowan_compute1          0
   plowan_compute2          0
   plowan_compute3          1
   plowan_compute4          1
     plowan_natom1          0
     plowan_natom2          0
     plowan_natom3          1
     plowan_natom4          1
        plowan_nt1          0
        plowan_nt2          0
        plowan_nt3         13
        plowan_nt4         13
 plowan_realspace1          0
 plowan_realspace2          0
 plowan_realspace3          1
 plowan_realspace4          2
        plowan_it3       0    0    0    1    0    0   -1    0    0    0
                         1    0    0   -1    0    0    0    1    0    0
                        -1    1   -1    0   -1    1    0    0    1   -1
                         0   -1    1    1    0   -1   -1    0    1
        plowan_it4       0    0    0    1    0    0   -1    0    0    0
                         1    0    0   -1    0    0    0    1    0    0
                        -1    1   -1    0   -1    1    0    0    1   -1
                         0   -1    1    1    0   -1   -1    0    1
     plowan_iatom3       1
     plowan_iatom4       1
       plowan_nbl3       1
       plowan_nbl4       1
     plowan_lcalc3       2
     plowan_lcalc4       2
  plowan_projcalc3       5
  plowan_projcalc4       5
           prtdos1          0
           prtdos2          0
           prtdos3          3
           prtdos4          0
            rprim      5.0000000000E-01  5.0000000000E-01  0.0000000000E+00
                       0.0000000000E+00  5.0000000000E-01  5.0000000000E-01
                       5.0000000000E-01  0.0000000000E+00  5.0000000000E-01
           shiftk1     0.00000000E+00  0.00000000E+00  0.00000000E+00
           shiftk2     0.00000000E+00  0.00000000E+00  0.00000000E+00
           shiftk3     0.00000000E+00  0.00000000E+00  0.00000000E+00
           shiftk4     5.00000000E-01  5.00000000E-01  5.00000000E-01
          spgroup1        225
          spgroup2          1
          spgroup3          1
          spgroup4          1
           strten1     4.5486692388E-03  4.5486692388E-03  4.5486692388E-03
                       0.0000000000E+00  0.0000000000E+00  0.0000000000E+00
           strten2     4.5505574264E-03  4.5505279697E-03  4.5505123896E-03
                       3.5211719567E-10 -6.4607003268E-08 -5.1984019178E-08
           strten3     4.5505622683E-03  4.5505330925E-03  4.5505178582E-03
                       2.7413419952E-10 -6.4354536358E-08 -5.1776241987E-08
           symafm1       1    1    1    1    1    1    1    1    1    1
                         1    1    1    1    1    1    1    1    1    1
                         1    1    1    1    1    1    1    1    1    1
                         1    1    1    1    1    1    1    1    1    1
                         1    1    1    1    1    1    1    1
           symafm2       1
           symafm3       1
           symafm4       1
           symrel1     1  0  0   0  1  0   0  0  1      -1  0  0   0 -1  0   0  0 -1
                       0 -1  1   0 -1  0   1 -1  0       0  1 -1   0  1  0  -1  1  0
                      -1  0  0  -1  0  1  -1  1  0       1  0  0   1  0 -1   1 -1  0
                       0  1 -1   1  0 -1   0  0 -1       0 -1  1  -1  0  1   0  0  1
                      -1  0  0  -1  1  0  -1  0  1       1  0  0   1 -1  0   1  0 -1
                       0 -1  1   1 -1  0   0 -1  0       0  1 -1  -1  1  0   0  1  0
                       1  0  0   0  0  1   0  1  0      -1  0  0   0  0 -1   0 -1  0
                       0  1 -1   0  0 -1   1  0 -1       0 -1  1   0  0  1  -1  0  1
                      -1  0  1  -1  1  0  -1  0  0       1  0 -1   1 -1  0   1  0  0
                       0 -1  0   1 -1  0   0 -1  1       0  1  0  -1  1  0   0  1 -1
                       1  0 -1   0  0 -1   0  1 -1      -1  0  1   0  0  1   0 -1  1
                       0  1  0   0  0  1   1  0  0       0 -1  0   0  0 -1  -1  0  0
                       1  0 -1   0  1 -1   0  0 -1      -1  0  1   0 -1  1   0  0  1
                       0 -1  0   0 -1  1   1 -1  0       0  1  0   0  1 -1  -1  1  0
                      -1  0  1  -1  0  0  -1  1  0       1  0 -1   1  0  0   1 -1  0
                       0  1  0   1  0  0   0  0  1       0 -1  0  -1  0  0   0  0 -1
                       0  0 -1   0  1 -1   1  0 -1       0  0  1   0 -1  1  -1  0  1
                       1 -1  0   0 -1  1   0 -1  0      -1  1  0   0  1 -1   0  1  0
                       0  0  1   1  0  0   0  1  0       0  0 -1  -1  0  0   0 -1  0
                      -1  1  0  -1  0  0  -1  0  1       1 -1  0   1  0  0   1  0 -1
                       0  0  1   0  1  0   1  0  0       0  0 -1   0 -1  0  -1  0  0
                       1 -1  0   0 -1  0   0 -1  1      -1  1  0   0  1  0   0  1 -1
                       0  0 -1   1  0 -1   0  1 -1       0  0  1  -1  0  1   0 -1  1
                      -1  1  0  -1  0  1  -1  0  0       1 -1  0   1  0 -1   1  0  0
           symrel2     1  0  0   0  1  0   0  0  1
           symrel3     1  0  0   0  1  0   0  0  1
           symrel4     1  0  0   0  1  0   0  0  1
            tnons1     0.0000000  0.0000000  0.0000000     0.0000000  0.0000000  0.0000000
                       0.0000000  0.0000000  0.0000000     0.0000000  0.0000000  0.0000000
                       0.0000000  0.0000000  0.0000000     0.0000000  0.0000000  0.0000000
                       0.0000000  0.0000000  0.0000000     0.0000000  0.0000000  0.0000000
                       0.0000000  0.0000000  0.0000000     0.0000000  0.0000000  0.0000000
                       0.0000000  0.0000000  0.0000000     0.0000000  0.0000000  0.0000000
                       0.0000000  0.0000000  0.0000000     0.0000000  0.0000000  0.0000000
                       0.0000000  0.0000000  0.0000000     0.0000000  0.0000000  0.0000000
                       0.0000000  0.0000000  0.0000000     0.0000000  0.0000000  0.0000000
                       0.0000000  0.0000000  0.0000000     0.0000000  0.0000000  0.0000000
                       0.0000000  0.0000000  0.0000000     0.0000000  0.0000000  0.0000000
                       0.0000000  0.0000000  0.0000000     0.0000000  0.0000000  0.0000000
                       0.0000000  0.0000000  0.0000000     0.0000000  0.0000000  0.0000000
                       0.0000000  0.0000000  0.0000000     0.0000000  0.0000000  0.0000000
                       0.0000000  0.0000000  0.0000000     0.0000000  0.0000000  0.0000000
                       0.0000000  0.0000000  0.0000000     0.0000000  0.0000000  0.0000000
                       0.0000000  0.0000000  0.0000000     0.0000000  0.0000000  0.0000000
                       0.0000000  0.0000000  0.0000000     0.0000000  0.0000000  0.0000000
                       0.0000000  0.0000000  0.0000000     0.0000000  0.0000000  0.0000000
                       0.0000000  0.0000000  0.0000000     0.0000000  0.0000000  0.0000000
                       0.0000000  0.0000000  0.0000000     0.0000000  0.0000000  0.0000000
                       0.0000000  0.0000000  0.0000000     0.0000000  0.0000000  0.0000000
                       0.0000000  0.0000000  0.0000000     0.0000000  0.0000000  0.0000000
                       0.0000000  0.0000000  0.0000000     0.0000000  0.0000000  0.0000000
            tnons2     0.0000000  0.0000000  0.0000000
            tnons3     0.0000000  0.0000000  0.0000000
            tnons4     0.0000000  0.0000000  0.0000000
           tolwfr      1.00000000E-10
           tsmear      3.67490000E-03 Hartree
            typat      1
           useylm           1
              wtk1       0.03704    0.29630    0.22222    0.44444
              wtk2       0.03704    0.07407    0.07407    0.07407    0.07407    0.07407
                         0.07407    0.07407    0.07407    0.07407    0.07407    0.07407
                         0.07407    0.07407
              wtk3       0.03704    0.07407    0.07407    0.07407    0.07407    0.07407
                         0.07407    0.07407    0.07407    0.07407    0.07407    0.07407
                         0.07407    0.07407
              wtk4       1.00000    1.00000    1.00000    1.00000    1.00000    1.00000
                         1.00000    1.00000    1.00000    1.00000    1.00000    1.00000
                         1.00000    1.00000    1.00000    1.00000    1.00000    1.00000
                         1.00000    1.00000    1.00000    1.00000    1.00000    1.00000
                         1.00000    1.00000    1.00000    1.00000    1.00000    1.00000
                         1.00000    1.00000    1.00000    1.00000    1.00000    1.00000
                         1.00000    1.00000    1.00000    1.00000    1.00000
            znucl       29.00000

================================================================================


- Timing analysis has been suppressed with timopt=0



================================================================================

 Suggested references for the acknowledgment of ABINIT usage.

 The users of ABINIT have little formal obligations with respect to the ABINIT group
 (those specified in the GNU General Public License, http://www.gnu.org/copyleft/gpl.txt).
 However, it is common practice in the scientific literature,
 to acknowledge the efforts of people that have made the research possible.
 In this spirit, please find below suggested citations of work written by ABINIT developers,
 corresponding to implementations inside of ABINIT that you have used in the present run.
 Note also that it will be of great value to readers of publications presenting these results,
 to read papers enabling them to understand the theoretical formalism and details
 of the ABINIT implementation.
 For information on why they are suggested, see also https://docs.abinit.org/theory/acknowledgments.
-
- [1] Implementation of the Projector Augmented-Wave Method in the ABINIT code.
- M. Torrent, F. Jollet, F. Bottin, G. Zerah, and X. Gonze Comput. Mat. Science 42, 337, (2008).
- Comment: PAW calculations. Strong suggestion to cite this paper.
- DOI and bibtex: see https://docs.abinit.org/theory/bibliography/#torrent2008
-
- [2] The Abinit project: Impact, environment and recent developments.
- Computer Phys. Comm. 248, 107042 (2020).
- X.Gonze, B. Amadon, G. Antonius, F.Arnardi, L.Baguet, J.-M.Beuken,
- J.Bieder, F.Bottin, J.Bouchet, E.Bousquet, N.Brouwer, F.Bruneval,
- G.Brunin, T.Cavignac, J.-B. Charraud, Wei Chen, M.Cote, S.Cottenier,
- J.Denier, G.Geneste, Ph.Ghosez, M.Giantomassi, Y.Gillet, O.Gingras,
- D.R.Hamann, G.Hautier, Xu He, N.Helbig, N.Holzwarth, Y.Jia, F.Jollet,
- W.Lafargue-Dit-Hauret, K.Lejaeghere, M.A.L.Marques, A.Martin, C.Martins,
- H.P.C. Miranda, F.Naccarato, K. Persson, G.Petretto, V.Planes, Y.Pouillon,
- S.Prokhorenko, F.Ricci, G.-M.Rignanese, A.H.Romero, M.M.Schmitt, M.Torrent,
- M.J.van Setten, B.Van Troeye, M.J.Verstraete, G.Zerah and J.W.Zwanzig
- Comment: the fifth generic paper describing the ABINIT project.
- Note that a version of this paper, that is not formatted for Computer Phys. Comm. 
- is available at https://www.abinit.org/sites/default/files/ABINIT20.pdf .
- The licence allows the authors to put it on the Web.
- DOI and bibtex: see https://docs.abinit.org/theory/bibliography/#gonze2020
-
- [3] Recent developments in the ABINIT software package.
- Computer Phys. Comm. 205, 106 (2016).
- X.Gonze, F.Jollet, F.Abreu Araujo, D.Adams, B.Amadon, T.Applencourt,
- C.Audouze, J.-M.Beuken, J.Bieder, A.Bokhanchuk, E.Bousquet, F.Bruneval
- D.Caliste, M.Cote, F.Dahm, F.Da Pieve, M.Delaveau, M.Di Gennaro,
- B.Dorado, C.Espejo, G.Geneste, L.Genovese, A.Gerossier, M.Giantomassi,
- Y.Gillet, D.R.Hamann, L.He, G.Jomard, J.Laflamme Janssen, S.Le Roux,
- A.Levitt, A.Lherbier, F.Liu, I.Lukacevic, A.Martin, C.Martins,
- M.J.T.Oliveira, S.Ponce, Y.Pouillon, T.Rangel, G.-M.Rignanese,
- A.H.Romero, B.Rousseau, O.Rubel, A.A.Shukri, M.Stankovski, M.Torrent,
- M.J.Van Setten, B.Van Troeye, M.J.Verstraete, D.Waroquier, J.Wiktor,
- B.Xu, A.Zhou, J.W.Zwanziger.
- Comment: the fourth generic paper describing the ABINIT project.
- Note that a version of this paper, that is not formatted for Computer Phys. Comm. 
- is available at https://www.abinit.org/sites/default/files/ABINIT16.pdf .
- The licence allows the authors to put it on the Web.
- DOI and bibtex: see https://docs.abinit.org/theory/bibliography/#gonze2016
-
- [4] ABINIT: First-principles approach of materials and nanosystem properties.
- Computer Phys. Comm. 180, 2582-2615 (2009).
- X. Gonze, B. Amadon, P.-M. Anglade, J.-M. Beuken, F. Bottin, P. Boulanger, F. Bruneval,
- D. Caliste, R. Caracas, M. Cote, T. Deutsch, L. Genovese, Ph. Ghosez, M. Giantomassi
- S. Goedecker, D.R. Hamann, P. Hermet, F. Jollet, G. Jomard, S. Leroux, M. Mancini, S. Mazevet,
- M.J.T. Oliveira, G. Onida, Y. Pouillon, T. Rangel, G.-M. Rignanese, D. Sangalli, R. Shaltaf,
- M. Torrent, M.J. Verstraete, G. Zerah, J.W. Zwanziger
- Comment: the third generic paper describing the ABINIT project.
- Note that a version of this paper, that is not formatted for Computer Phys. Comm. 
- is available at https://www.abinit.org/sites/default/files/ABINIT_CPC_v10.pdf .
- The licence allows the authors to put it on the Web.
- DOI and bibtex: see https://docs.abinit.org/theory/bibliography/#gonze2009
-
- And optionally:
-
- [5] A brief introduction to the ABINIT software package.
- Z. Kristallogr. 220, 558-562 (2005).
- X. Gonze, G.-M. Rignanese, M. Verstraete, J.-M. Beuken, Y. Pouillon, R. Caracas, F. Jollet,
- M. Torrent, G. Zerah, M. Mikami, Ph. Ghosez, M. Veithen, J.-Y. Raty, V. Olevano, F. Bruneval,
- L. Reining, R. Godby, G. Onida, D.R. Hamann, and D.C. Allan.
- Comment: the second generic paper describing the ABINIT project. Note that this paper
- should be cited especially if you are using the GW part of ABINIT, as several authors
- of this part are not in the list of authors of the first or third paper.
- The .pdf of the latter paper is available at https://www.abinit.org/sites/default/files/zfk_0505-06_558-562.pdf.
- Note that it should not redistributed (Copyright by Oldenburg Wissenschaftverlag,
- the licence allows the authors to put it on the Web).
- DOI and bibtex: see https://docs.abinit.org/theory/bibliography/#gonze2005
-
- Proc.   0 individual time (sec): cpu=         15.7  wall=         15.9

================================================================================

 Calculation completed.
.Delivered  11 WARNINGs and  21 COMMENTs to log file.
+Overall time at end (sec) : cpu=         15.7  wall=         15.9
