  BEGIN_INFO
    #
    # this is a Band-XCRYSDEN-Structure-File for Visualization of Fermi Surface
    # generated by the ABINIT package
    #
    #  bands between            1  and            3
    #
    # Launch as: xcrysden --bxsf 
    #
   Fermi Energy:   0.00000000E+00
  END_INFO
  
  BEGIN_BLOCK_BANDGRID_3D
  band_energies
  BEGIN_BANDGRID_3D
             3
            17          17          17
     0.0000000000000000        0.0000000000000000        0.0000000000000000     
   -0.25196348438475241       0.25196348438475241       0.25196348438475241     
    0.25196348438475241      -0.25196348438475241       0.25196348438475241     
    0.25196348438475241       0.25196348438475241      -0.25196348438475241     
  BAND:            1
  0.00000000E+00  5.92716253E-05  1.22506654E-04  1.90609549E-04  2.60454967E-04  3.25908193E-04  3.79653726E-04
  4.15004082E-04  4.27336032E-04  4.15004082E-04  3.79653726E-04  3.25908193E-04  2.60454967E-04  1.90609549E-04
  1.22506654E-04  5.92716253E-05  0.00000000E+00  5.92716253E-05 -1.45830675E-04 -2.49685838E-04 -2.35196267E-04
 -1.40800107E-04  1.96376762E-04  3.32052018E-04  3.99512777E-04  4.22120058E-04  4.26332754E-04  4.12502864E-04
  3.82152449E-04  3.37593014E-04  2.81418426E-04  2.15978477E-04  1.42770899E-04  5.92716253E-05  1.22506654E-04
 -2.49685838E-04 -1.94480312E-04 -2.73928930E-04 -1.01013539E-04  2.93222106E-04  3.57875885E-04  3.86833908E-04
  4.13262446E-04  4.36539551E-04  4.51328155E-04  4.50206901E-04  4.26844851E-04  3.78249396E-04  3.05852000E-04
  2.15978477E-04  1.22506654E-04  1.90609549E-04 -2.35196267E-04 -2.73928930E-04  1.40100978E-04  2.27996509E-04
  3.61231632E-04  3.76449320E-04  3.91207489E-04  4.17303154E-04  4.54440421E-04  4.90427300E-04  5.09492929E-04
  4.99414969E-04  4.54802672E-04  3.78249396E-04  2.81418426E-04  1.90609549E-04  2.60454967E-04 -1.40800107E-04
 -1.01013539E-04  2.27996509E-04  3.76073291E-04  4.00488592E-04  4.11029399E-04  4.22501977E-04  4.47594064E-04
  4.86195906E-04  5.25253045E-04  5.47834159E-04  5.40994483E-04  4.99414969E-04  4.26844851E-04  3.37593014E-04
  2.60454967E-04  3.25908193E-04  1.96376762E-04  2.93222106E-04  3.61231632E-04  4.00488592E-04  5.09397085E-04
  4.53854680E-04  4.75364339E-04  5.00610747E-04  5.28624679E-04  5.52076911E-04  5.61106591E-04  5.47834159E-04
  5.09492929E-04  4.50206901E-04  3.82152449E-04  3.25908193E-04  3.79653726E-04  3.32052018E-04  3.57875885E-04
  3.76449320E-04  4.11029399E-04  4.53854680E-04  5.77763682E-04  5.33285817E-04  5.58643448E-04  5.70368363E-04
  5.67849048E-04  5.52076911E-04  5.25253045E-04  4.90427300E-04  4.51328155E-04  4.12502864E-04  3.79653726E-04
  4.15004082E-04  3.99512777E-04  3.86833908E-04  3.91207489E-04  4.22501977E-04  4.75364339E-04  5.33285817E-04
  6.08927069E-04  6.02327417E-04  5.98183312E-04  5.70368363E-04  5.28624679E-04  4.86195906E-04  4.54440421E-04
  4.36539551E-04  4.26332754E-04  4.15004082E-04  4.27336032E-04  4.22120058E-04  4.13262446E-04  4.17303154E-04
  4.47594064E-04  5.00610747E-04  5.58643448E-04  6.02327417E-04  6.18417114E-04  6.02327417E-04  5.58643448E-04
  5.00610747E-04  4.47594064E-04  4.17303154E-04  4.13262446E-04  4.22120058E-04  4.27336032E-04  4.15004082E-04
  4.26332754E-04  4.36539551E-04  4.54440421E-04  4.86195906E-04  5.28624679E-04  5.70368363E-04  5.98183312E-04
  6.02327417E-04  6.08927069E-04  5.33285817E-04  4.75364339E-04  4.22501977E-04  3.91207489E-04  3.86833908E-04
  3.99512777E-04  4.15004082E-04  3.79653726E-04  4.12502864E-04  4.51328155E-04  4.90427300E-04  5.25253045E-04
  5.52076911E-04  5.67849048E-04  5.70368363E-04  5.58643448E-04  5.33285817E-04  5.77763682E-04  4.53854680E-04
  4.11029399E-04  3.76449320E-04  3.57875885E-04  3.32052018E-04  3.79653726E-04  3.25908193E-04  3.82152449E-04
  4.50206901E-04  5.09492929E-04  5.47834159E-04  5.61106591E-04  5.52076911E-04  5.28624679E-04  5.00610747E-04
  4.75364339E-04  4.53854680E-04  5.09397085E-04  4.00488592E-04  3.61231632E-04  2.93222106E-04  1.96376762E-04
  3.25908193E-04  2.60454967E-04  3.37593014E-04  4.26844851E-04  4.99414969E-04  5.40994483E-04  5.47834159E-04
  5.25253045E-04  4.86195906E-04  4.47594064E-04  4.22501977E-04  4.11029399E-04  4.00488592E-04  3.76073291E-04
  2.27996509E-04 -1.01013539E-04 -1.40800107E-04  2.60454967E-04  1.90609549E-04  2.81418426E-04  3.78249396E-04
  4.54802672E-04  4.99414969E-04  5.09492929E-04  4.90427300E-04  4.54440421E-04  4.17303154E-04  3.91207489E-04
  3.76449320E-04  3.61231632E-04  2.27996509E-04  1.40100978E-04 -2.73928930E-04 -2.35196267E-04  1.90609549E-04
  1.22506654E-04  2.15978477E-04  3.05852000E-04  3.78249396E-04  4.26844851E-04  4.50206901E-04  4.51328155E-04
  4.36539551E-04  4.13262446E-04  3.86833908E-04  3.57875885E-04  2.93222106E-04 -1.01013539E-04 -2.73928930E-04
 -1.94480312E-04 -2.49685838E-04  1.22506654E-04  5.92716253E-05  1.42770899E-04  2.15978477E-04  2.81418426E-04
  3.37593014E-04  3.82152449E-04  4.12502864E-04  4.26332754E-04  4.22120058E-04  3.99512777E-04  3.32052018E-04
  1.96376762E-04 -1.40800107E-04 -2.35196267E-04 -2.49685838E-04 -1.45830675E-04  5.92716253E-05  0.00000000E+00
  5.92716253E-05  1.22506654E-04  1.90609549E-04  2.60454967E-04  3.25908193E-04  3.79653726E-04  4.15004082E-04
  4.27336032E-04  4.15004082E-04  3.79653726E-04  3.25908193E-04  2.60454967E-04  1.90609549E-04  1.22506654E-04
  5.92716253E-05  0.00000000E+00  5.92716253E-05 -1.45830675E-04 -2.49685838E-04 -2.35196267E-04 -1.40800107E-04
  1.96376762E-04  3.32052018E-04  3.99512777E-04  4.22120058E-04  4.26332754E-04  4.12502864E-04  3.82152449E-04
  3.37593014E-04  2.81418426E-04  2.15978477E-04  1.42770899E-04  5.92716253E-05 -1.45830675E-04  5.92716253E-05
  1.42770899E-04  2.15978477E-04  2.81418426E-04  3.37593014E-04  3.82152449E-04  4.12502864E-04  4.26332754E-04
  4.22120058E-04  3.99512777E-04  3.32052018E-04  1.96376762E-04 -1.40800107E-04 -2.35196267E-04 -2.49685838E-04
 -1.45830675E-04 -2.49685838E-04  1.42770899E-04 -2.49685838E-04 -3.72552984E-04 -3.05031735E-04 -1.46793253E-04
  2.33105413E-04  3.64227664E-04  4.57065087E-04  5.32925965E-04  4.57065087E-04  3.64227664E-04  2.33105413E-04
 -1.46793253E-04 -3.05031735E-04 -3.72552984E-04 -2.49685838E-04 -2.35196267E-04  2.15978477E-04 -3.72552984E-04
 -2.73928930E-04 -1.46064900E-04  2.03452606E-04  3.16093372E-04  4.00539636E-04  4.73060754E-04  5.31701217E-04
  5.68201488E-04  5.74331013E-04  5.44726404E-04  4.76744546E-04  3.71205182E-04 -3.05031735E-04 -2.35196267E-04
 -1.40800107E-04  2.81418426E-04 -3.05031735E-04 -1.46064900E-04  2.27996509E-04  3.93078991E-04  3.96202496E-04
  4.57167882E-04  5.12688555E-04  5.59167771E-04  5.87941103E-04  5.90026863E-04  5.59265175E-04  4.94939383E-04
  4.76744546E-04 -1.46793253E-04 -1.40800107E-04  1.96376762E-04  3.37593014E-04 -1.46793253E-04  2.03452606E-04
  3.93078991E-04  4.00488592E-04  5.56404798E-04  5.25508658E-04  5.68725367E-04  5.99114285E-04  6.11409428E-04
  6.00794065E-04  5.65304606E-04  5.59265175E-04  5.44726404E-04  2.33105413E-04  1.96376762E-04  3.32052018E-04
  3.82152449E-04  2.33105413E-04  3.16093372E-04  3.96202496E-04  5.56404798E-04  4.53854680E-04  6.33537424E-04
  6.25076257E-04  6.38807065E-04  6.31015893E-04  6.03424505E-04  6.00794065E-04  5.90026863E-04  5.74331013E-04
  3.64227664E-04  3.32052018E-04  3.99512777E-04  4.12502864E-04  3.64227664E-04  4.00539636E-04  4.57167882E-04
  5.25508658E-04  6.33537424E-04  5.33285817E-04  6.61043890E-04  6.64815244E-04  6.39426150E-04  6.31015893E-04
  6.11409428E-04  5.87941103E-04  5.68201488E-04  4.57065087E-04  3.99512777E-04  4.22120058E-04  4.26332754E-04
  4.57065087E-04  4.73060754E-04  5.12688555E-04  5.68725367E-04  6.25076257E-04  6.61043890E-04  6.02327417E-04
  6.65923295E-04  6.64815244E-04  6.38807065E-04  5.99114285E-04  5.59167771E-04  5.31701217E-04  5.32925965E-04
  4.22120058E-04  4.26332754E-04  4.22120058E-04  5.32925965E-04  5.31701217E-04  5.59167771E-04  5.99114285E-04
  6.38807065E-04  6.64815244E-04  6.65923295E-04  6.02327417E-04  6.61043890E-04  6.25076257E-04  5.68725367E-04
  5.12688555E-04  4.73060754E-04  4.57065087E-04  4.26332754E-04  4.12502864E-04  3.99512777E-04  4.57065087E-04
  5.68201488E-04  5.87941103E-04  6.11409428E-04  6.31015893E-04  6.39426150E-04  6.64815244E-04  6.61043890E-04
  5.33285817E-04  6.33537424E-04  5.25508658E-04  4.57167882E-04  4.00539636E-04  3.64227664E-04  4.12502864E-04
  3.82152449E-04  3.32052018E-04  3.64227664E-04  5.74331013E-04  5.90026863E-04  6.00794065E-04  6.03424505E-04
  6.31015893E-04  6.38807065E-04  6.25076257E-04  6.33537424E-04  4.53854680E-04  5.56404798E-04  3.96202496E-04
  3.16093372E-04  2.33105413E-04  3.82152449E-04  3.37593014E-04  1.96376762E-04  2.33105413E-04  5.44726404E-04
  5.59265175E-04  5.65304606E-04  6.00794065E-04  6.11409428E-04  5.99114285E-04  5.68725367E-04  5.25508658E-04
  5.56404798E-04  4.00488592E-04  3.93078991E-04  2.03452606E-04 -1.46793253E-04  3.37593014E-04  2.81418426E-04
 -1.40800107E-04 -1.46793253E-04  4.76744546E-04  4.94939383E-04  5.59265175E-04  5.90026863E-04  5.87941103E-04
  5.59167771E-04  5.12688555E-04  4.57167882E-04  3.96202496E-04  3.93078991E-04  2.27996509E-04 -1.46064900E-04
 -3.05031735E-04  2.81418426E-04  2.15978477E-04 -2.35196267E-04 -3.05031735E-04  3.71205182E-04  4.76744546E-04
  5.44726404E-04  5.74331013E-04  5.68201488E-04  5.31701217E-04  4.73060754E-04  4.00539636E-04  3.16093372E-04
  2.03452606E-04 -1.46064900E-04 -2.73928930E-04 -3.72552984E-04  2.15978477E-04  1.42770899E-04 -2.49685838E-04
 -3.72552984E-04 -3.05031735E-04 -1.46793253E-04  2.33105413E-04  3.64227664E-04  4.57065087E-04  5.32925965E-04
  4.57065087E-04  3.64227664E-04  2.33105413E-04 -1.46793253E-04 -3.05031735E-04 -3.72552984E-04 -2.49685838E-04
  1.42770899E-04  5.92716253E-05 -1.45830675E-04 -2.49685838E-04 -2.35196267E-04 -1.40800107E-04  1.96376762E-04
  3.32052018E-04  3.99512777E-04  4.22120058E-04  4.26332754E-04  4.12502864E-04  3.82152449E-04  3.37593014E-04
  2.81418426E-04  2.15978477E-04  1.42770899E-04  5.92716253E-05  1.22506654E-04 -2.49685838E-04 -1.94480312E-04
 -2.73928930E-04 -1.01013539E-04  2.93222106E-04  3.57875885E-04  3.86833908E-04  4.13262446E-04  4.36539551E-04
  4.51328155E-04  4.50206901E-04  4.26844851E-04  3.78249396E-04  3.05852000E-04  2.15978477E-04  1.22506654E-04
 -2.49685838E-04  1.42770899E-04 -2.49685838E-04 -3.72552984E-04 -3.05031735E-04 -1.46793253E-04  2.33105413E-04
  3.64227664E-04  4.57065087E-04  5.32925965E-04  4.57065087E-04  3.64227664E-04  2.33105413E-04 -1.46793253E-04
 -3.05031735E-04 -3.72552984E-04 -2.49685838E-04 -1.94480312E-04 -2.49685838E-04  1.22506654E-04  2.15978477E-04
  3.05852000E-04  3.78249396E-04  4.26844851E-04  4.50206901E-04  4.51328155E-04  4.36539551E-04  4.13262446E-04
  3.86833908E-04  3.57875885E-04  2.93222106E-04 -1.01013539E-04 -2.73928930E-04 -1.94480312E-04 -2.73928930E-04
 -3.72552984E-04  2.15978477E-04 -2.35196267E-04 -3.05031735E-04  3.71205182E-04  4.76744546E-04  5.44726404E-04
  5.74331013E-04  5.68201488E-04  5.31701217E-04  4.73060754E-04  4.00539636E-04  3.16093372E-04  2.03452606E-04
 -1.46064900E-04 -2.73928930E-04 -1.01013539E-04 -3.05031735E-04  3.05852000E-04 -3.05031735E-04 -1.01013539E-04
  2.03452606E-04  4.30573088E-04  5.02258337E-04  5.78143108E-04  6.27198073E-04  6.44350301E-04  6.27198073E-04
  5.78143108E-04  5.02258337E-04  4.30573088E-04  2.03452606E-04 -1.01013539E-04  2.93222106E-04 -1.46793253E-04
  3.78249396E-04  3.71205182E-04  2.03452606E-04  3.61231632E-04  3.96202496E-04  6.09884411E-04  6.49159869E-04
  6.84995743E-04  6.90398071E-04  6.64224441E-04  6.12172374E-04  5.53520612E-04  5.02258337E-04  3.16093372E-04
  2.93222106E-04  3.57875885E-04  2.33105413E-04  4.26844851E-04  4.76744546E-04  4.30573088E-04  3.96202496E-04
  4.11029399E-04  5.25508658E-04  7.04351329E-04  7.47284226E-04  7.48674089E-04  7.17631105E-04  6.67388120E-04
  6.12172374E-04  5.78143108E-04  4.00539636E-04  3.57875885E-04  3.86833908E-04  3.64227664E-04  4.50206901E-04
  5.44726404E-04  5.02258337E-04  6.09884411E-04  5.25508658E-04  4.75364339E-04  6.25076257E-04  7.57186836E-04
  7.87596134E-04  7.54116396E-04  7.17631105E-04  6.64224441E-04  6.27198073E-04  4.73060754E-04  3.86833908E-04
  4.13262446E-04  4.57065087E-04  4.51328155E-04  5.74331013E-04  5.78143108E-04  6.49159869E-04  7.04351329E-04
  6.25076257E-04  5.58643448E-04  6.64815244E-04  7.86050263E-04  7.87596134E-04  7.48674089E-04  6.90398071E-04
  6.44350301E-04  5.31701217E-04  4.13262446E-04  4.36539551E-04  5.32925965E-04  4.36539551E-04  5.68201488E-04
  6.27198073E-04  6.84995743E-04  7.47284226E-04  7.57186836E-04  6.64815244E-04  5.98183312E-04  6.64815244E-04
  7.57186836E-04  7.47284226E-04  6.84995743E-04  6.27198073E-04  5.68201488E-04  4.36539551E-04  4.51328155E-04
  4.57065087E-04  4.13262446E-04  5.31701217E-04  6.44350301E-04  6.90398071E-04  7.48674089E-04  7.87596134E-04
  7.86050263E-04  6.64815244E-04  5.58643448E-04  6.25076257E-04  7.04351329E-04  6.49159869E-04  5.78143108E-04
  5.74331013E-04  4.51328155E-04  4.50206901E-04  3.64227664E-04  3.86833908E-04  4.73060754E-04  6.27198073E-04
  6.64224441E-04  7.17631105E-04  7.54116396E-04  7.87596134E-04  7.57186836E-04  6.25076257E-04  4.75364339E-04
  5.25508658E-04  6.09884411E-04  5.02258337E-04  5.44726404E-04  4.50206901E-04  4.26844851E-04  2.33105413E-04
  3.57875885E-04  4.00539636E-04  5.78143108E-04  6.12172374E-04  6.67388120E-04  7.17631105E-04  7.48674089E-04
  7.47284226E-04  7.04351329E-04  5.25508658E-04  4.11029399E-04  3.96202496E-04  4.30573088E-04  4.76744546E-04
  4.26844851E-04  3.78249396E-04 -1.46793253E-04  2.93222106E-04  3.16093372E-04  5.02258337E-04  5.53520612E-04
  6.12172374E-04  6.64224441E-04  6.90398071E-04  6.84995743E-04  6.49159869E-04  6.09884411E-04  3.96202496E-04
  3.61231632E-04  2.03452606E-04  3.71205182E-04  3.78249396E-04  3.05852000E-04 -3.05031735E-04 -1.01013539E-04
  2.03452606E-04  4.30573088E-04  5.02258337E-04  5.78143108E-04  6.27198073E-04  6.44350301E-04  6.27198073E-04
  5.78143108E-04  5.02258337E-04  4.30573088E-04  2.03452606E-04 -1.01013539E-04 -3.05031735E-04  3.05852000E-04
  2.15978477E-04 -3.72552984E-04 -2.73928930E-04 -1.46064900E-04  2.03452606E-04  3.16093372E-04  4.00539636E-04
  4.73060754E-04  5.31701217E-04  5.68201488E-04  5.74331013E-04  5.44726404E-04  4.76744546E-04  3.71205182E-04
 -3.05031735E-04 -2.35196267E-04  2.15978477E-04  1.22506654E-04 -2.49685838E-04 -1.94480312E-04 -2.73928930E-04
 -1.01013539E-04  2.93222106E-04  3.57875885E-04  3.86833908E-04  4.13262446E-04  4.36539551E-04  4.51328155E-04
  4.50206901E-04  4.26844851E-04  3.78249396E-04  3.05852000E-04  2.15978477E-04  1.22506654E-04  1.90609549E-04
 -2.35196267E-04 -2.73928930E-04  1.40100978E-04  2.27996509E-04  3.61231632E-04  3.76449320E-04  3.91207489E-04
  4.17303154E-04  4.54440421E-04  4.90427300E-04  5.09492929E-04  4.99414969E-04  4.54802672E-04  3.78249396E-04
  2.81418426E-04  1.90609549E-04 -2.35196267E-04  2.15978477E-04 -3.72552984E-04 -2.73928930E-04 -1.46064900E-04
  2.03452606E-04  3.16093372E-04  4.00539636E-04  4.73060754E-04  5.31701217E-04  5.68201488E-04  5.74331013E-04
  5.44726404E-04  4.76744546E-04  3.71205182E-04 -3.05031735E-04 -2.35196267E-04 -2.73928930E-04 -3.72552984E-04
  2.15978477E-04 -2.35196267E-04 -3.05031735E-04  3.71205182E-04  4.76744546E-04  5.44726404E-04  5.74331013E-04
  5.68201488E-04  5.31701217E-04  4.73060754E-04  4.00539636E-04  3.16093372E-04  2.03452606E-04 -1.46064900E-04
 -2.73928930E-04  1.40100978E-04 -2.73928930E-04 -2.35196267E-04  1.90609549E-04  2.81418426E-04  3.78249396E-04
  4.54802672E-04  4.99414969E-04  5.09492929E-04  4.90427300E-04  4.54440421E-04  4.17303154E-04  3.91207489E-04
  3.76449320E-04  3.61231632E-04  2.27996509E-04  1.40100978E-04  2.27996509E-04 -1.46064900E-04 -3.05031735E-04
  2.81418426E-04 -1.40800107E-04 -1.46793253E-04  4.76744546E-04  4.94939383E-04  5.59265175E-04  5.90026863E-04
  5.87941103E-04  5.59167771E-04  5.12688555E-04  4.57167882E-04  3.96202496E-04  3.93078991E-04  2.27996509E-04
  3.61231632E-04  2.03452606E-04  3.71205182E-04  3.78249396E-04 -1.46793253E-04  2.93222106E-04  3.16093372E-04
  5.02258337E-04  5.53520612E-04  6.12172374E-04  6.64224441E-04  6.90398071E-04  6.84995743E-04  6.49159869E-04
  6.09884411E-04  3.96202496E-04  3.61231632E-04  3.76449320E-04  3.16093372E-04  4.76744546E-04  4.54802672E-04
  4.76744546E-04  3.16093372E-04  3.76449320E-04  4.57167882E-04  6.49159869E-04  7.13574934E-04  7.58465667E-04
  7.71201456E-04  7.58465667E-04  7.13574934E-04  6.49159869E-04  4.57167882E-04  3.76449320E-04  3.91207489E-04
  4.00539636E-04  5.44726404E-04  4.99414969E-04  4.94939383E-04  5.02258337E-04  4.57167882E-04  4.22501977E-04
  5.68725367E-04  7.47284226E-04  8.34324290E-04  8.79921611E-04  8.48241176E-04  7.58465667E-04  6.84995743E-04
  5.12688555E-04  3.91207489E-04  4.17303154E-04  4.73060754E-04  5.74331013E-04  5.09492929E-04  5.59265175E-04
  5.53520612E-04  6.49159869E-04  5.68725367E-04  5.00610747E-04  6.38807065E-04  7.87596134E-04  9.11399916E-04
  8.79921611E-04  7.71201456E-04  6.90398071E-04  5.59167771E-04  4.17303154E-04  4.54440421E-04  5.31701217E-04
  5.68201488E-04  4.90427300E-04  5.90026863E-04  6.12172374E-04  7.13574934E-04  7.47284226E-04  6.38807065E-04
  5.70368363E-04  6.39426150E-04  7.87596134E-04  8.34324290E-04  7.58465667E-04  6.64224441E-04  5.87941103E-04
  4.54440421E-04  4.90427300E-04  5.68201488E-04  5.31701217E-04  4.54440421E-04  5.87941103E-04  6.64224441E-04
  7.58465667E-04  8.34324290E-04  7.87596134E-04  6.39426150E-04  5.70368363E-04  6.38807065E-04  7.47284226E-04
  7.13574934E-04  6.12172374E-04  5.90026863E-04  4.90427300E-04  5.09492929E-04  5.74331013E-04  4.73060754E-04
  4.17303154E-04  5.59167771E-04  6.90398071E-04  7.71201456E-04  8.79921611E-04  9.11399916E-04  7.87596134E-04
  6.38807065E-04  5.00610747E-04  5.68725367E-04  6.49159869E-04  5.53520612E-04  5.59265175E-04  5.09492929E-04
  4.99414969E-04  5.44726404E-04  4.00539636E-04  3.91207489E-04  5.12688555E-04  6.84995743E-04  7.58465667E-04
  8.48241176E-04  8.79921611E-04  8.34324290E-04  7.47284226E-04  5.68725367E-04  4.22501977E-04  4.57167882E-04
  5.02258337E-04  4.94939383E-04  4.99414969E-04  4.54802672E-04  4.76744546E-04  3.16093372E-04  3.76449320E-04
  4.57167882E-04  6.49159869E-04  7.13574934E-04  7.58465667E-04  7.71201456E-04  7.58465667E-04  7.13574934E-04
  6.49159869E-04  4.57167882E-04  3.76449320E-04  3.16093372E-04  4.76744546E-04  4.54802672E-04  3.78249396E-04
  3.71205182E-04  2.03452606E-04  3.61231632E-04  3.96202496E-04  6.09884411E-04  6.49159869E-04  6.84995743E-04
  6.90398071E-04  6.64224441E-04  6.12172374E-04  5.53520612E-04  5.02258337E-04  3.16093372E-04  2.93222106E-04
 -1.46793253E-04  3.78249396E-04  2.81418426E-04 -3.05031735E-04 -1.46064900E-04  2.27996509E-04  3.93078991E-04
  3.96202496E-04  4.57167882E-04  5.12688555E-04  5.59167771E-04  5.87941103E-04  5.90026863E-04  5.59265175E-04
  4.94939383E-04  4.76744546E-04 -1.46793253E-04 -1.40800107E-04  2.81418426E-04  1.90609549E-04 -2.35196267E-04
 -2.73928930E-04  1.40100978E-04  2.27996509E-04  3.61231632E-04  3.76449320E-04  3.91207489E-04  4.17303154E-04
  4.54440421E-04  4.90427300E-04  5.09492929E-04  4.99414969E-04  4.54802672E-04  3.78249396E-04  2.81418426E-04
  1.90609549E-04  2.60454967E-04 -1.40800107E-04 -1.01013539E-04  2.27996509E-04  3.76073291E-04  4.00488592E-04
  4.11029399E-04  4.22501977E-04  4.47594064E-04  4.86195906E-04  5.25253045E-04  5.47834159E-04  5.40994483E-04
  4.99414969E-04  4.26844851E-04  3.37593014E-04  2.60454967E-04 -1.40800107E-04  2.81418426E-04 -3.05031735E-04
 -1.46064900E-04  2.27996509E-04  3.93078991E-04  3.96202496E-04  4.57167882E-04  5.12688555E-04  5.59167771E-04
  5.87941103E-04  5.90026863E-04  5.59265175E-04  4.94939383E-04  4.76744546E-04 -1.46793253E-04 -1.40800107E-04
 -1.01013539E-04 -3.05031735E-04  3.05852000E-04 -3.05031735E-04 -1.01013539E-04  2.03452606E-04  4.30573088E-04
  5.02258337E-04  5.78143108E-04  6.27198073E-04  6.44350301E-04  6.27198073E-04  5.78143108E-04  5.02258337E-04
  4.30573088E-04  2.03452606E-04 -1.01013539E-04  2.27996509E-04 -1.46064900E-04 -3.05031735E-04  2.81418426E-04
 -1.40800107E-04 -1.46793253E-04  4.76744546E-04  4.94939383E-04  5.59265175E-04  5.90026863E-04  5.87941103E-04
  5.59167771E-04  5.12688555E-04  4.57167882E-04  3.96202496E-04  3.93078991E-04  2.27996509E-04  3.76073291E-04
  2.27996509E-04 -1.01013539E-04 -1.40800107E-04  2.60454967E-04  3.37593014E-04  4.26844851E-04  4.99414969E-04
  5.40994483E-04  5.47834159E-04  5.25253045E-04  4.86195906E-04  4.47594064E-04  4.22501977E-04  4.11029399E-04
  4.00488592E-04  3.76073291E-04  4.00488592E-04  3.93078991E-04  2.03452606E-04 -1.46793253E-04  3.37593014E-04
  1.96376762E-04  2.33105413E-04  5.44726404E-04  5.59265175E-04  5.65304606E-04  6.00794065E-04  6.11409428E-04
  5.99114285E-04  5.68725367E-04  5.25508658E-04  5.56404798E-04  4.00488592E-04  4.11029399E-04  3.96202496E-04
  4.30573088E-04  4.76744546E-04  4.26844851E-04  2.33105413E-04  3.57875885E-04  4.00539636E-04  5.78143108E-04
  6.12172374E-04  6.67388120E-04  7.17631105E-04  7.48674089E-04  7.47284226E-04  7.04351329E-04  5.25508658E-04
  4.11029399E-04  4.22501977E-04  4.57167882E-04  5.02258337E-04  4.94939383E-04  4.99414969E-04  5.44726404E-04
  4.00539636E-04  3.91207489E-04  5.12688555E-04  6.84995743E-04  7.58465667E-04  8.48241176E-04  8.79921611E-04
  8.34324290E-04  7.47284226E-04  5.68725367E-04  4.22501977E-04  4.47594064E-04  5.12688555E-04  5.78143108E-04
  5.59265175E-04  5.40994483E-04  5.59265175E-04  5.78143108E-04  5.12688555E-04  4.47594064E-04  5.99114285E-04
  7.48674089E-04  8.79921611E-04  9.64374160E-04  8.79921611E-04  7.48674089E-04  5.99114285E-04  4.47594064E-04
  4.86195906E-04  5.59167771E-04  6.27198073E-04  5.90026863E-04  5.47834159E-04  5.65304606E-04  6.12172374E-04
  6.84995743E-04  5.99114285E-04  5.28624679E-04  6.31015893E-04  7.54116396E-04  8.79921611E-04  8.48241176E-04
  7.17631105E-04  6.11409428E-04  4.86195906E-04  5.25253045E-04  5.87941103E-04  6.44350301E-04  5.87941103E-04
  5.25253045E-04  6.00794065E-04  6.67388120E-04  7.58465667E-04  7.48674089E-04  6.31015893E-04  5.67849048E-04
  6.31015893E-04  7.48674089E-04  7.58465667E-04  6.67388120E-04  6.00794065E-04  5.25253045E-04  5.47834159E-04
  5.90026863E-04  6.27198073E-04  5.59167771E-04  4.86195906E-04  6.11409428E-04  7.17631105E-04  8.48241176E-04
  8.79921611E-04  7.54116396E-04  6.31015893E-04  5.28624679E-04  5.99114285E-04  6.84995743E-04  6.12172374E-04
  5.65304606E-04  5.47834159E-04  5.40994483E-04  5.59265175E-04  5.78143108E-04  5.12688555E-04  4.47594064E-04
  5.99114285E-04  7.48674089E-04  8.79921611E-04  9.64374160E-04  8.79921611E-04  7.48674089E-04  5.99114285E-04
  4.47594064E-04  5.12688555E-04  5.78143108E-04  5.59265175E-04  5.40994483E-04  4.99414969E-04  4.94939383E-04
  5.02258337E-04  4.57167882E-04  4.22501977E-04  5.68725367E-04  7.47284226E-04  8.34324290E-04  8.79921611E-04
  8.48241176E-04  7.58465667E-04  6.84995743E-04  5.12688555E-04  3.91207489E-04  4.00539636E-04  5.44726404E-04
  4.99414969E-04  4.26844851E-04  4.76744546E-04  4.30573088E-04  3.96202496E-04  4.11029399E-04  5.25508658E-04
  7.04351329E-04  7.47284226E-04  7.48674089E-04  7.17631105E-04  6.67388120E-04  6.12172374E-04  5.78143108E-04
  4.00539636E-04  3.57875885E-04  2.33105413E-04  4.26844851E-04  3.37593014E-04 -1.46793253E-04  2.03452606E-04
  3.93078991E-04  4.00488592E-04  5.56404798E-04  5.25508658E-04  5.68725367E-04  5.99114285E-04  6.11409428E-04
  6.00794065E-04  5.65304606E-04  5.59265175E-04  5.44726404E-04  2.33105413E-04  1.96376762E-04  3.37593014E-04
  2.60454967E-04 -1.40800107E-04 -1.01013539E-04  2.27996509E-04  3.76073291E-04  4.00488592E-04  4.11029399E-04
  4.22501977E-04  4.47594064E-04  4.86195906E-04  5.25253045E-04  5.47834159E-04  5.40994483E-04  4.99414969E-04
  4.26844851E-04  3.37593014E-04  2.60454967E-04  3.25908193E-04  1.96376762E-04  2.93222106E-04  3.61231632E-04
  4.00488592E-04  5.09397085E-04  4.53854680E-04  4.75364339E-04  5.00610747E-04  5.28624679E-04  5.52076911E-04
  5.61106591E-04  5.47834159E-04  5.09492929E-04  4.50206901E-04  3.82152449E-04  3.25908193E-04  1.96376762E-04
  3.37593014E-04 -1.46793253E-04  2.03452606E-04  3.93078991E-04  4.00488592E-04  5.56404798E-04  5.25508658E-04
  5.68725367E-04  5.99114285E-04  6.11409428E-04  6.00794065E-04  5.65304606E-04  5.59265175E-04  5.44726404E-04
  2.33105413E-04  1.96376762E-04  2.93222106E-04 -1.46793253E-04  3.78249396E-04  3.71205182E-04  2.03452606E-04
  3.61231632E-04  3.96202496E-04  6.09884411E-04  6.49159869E-04  6.84995743E-04  6.90398071E-04  6.64224441E-04
  6.12172374E-04  5.53520612E-04  5.02258337E-04  3.16093372E-04  2.93222106E-04  3.61231632E-04  2.03452606E-04
  3.71205182E-04  3.78249396E-04 -1.46793253E-04  2.93222106E-04  3.16093372E-04  5.02258337E-04  5.53520612E-04
  6.12172374E-04  6.64224441E-04  6.90398071E-04  6.84995743E-04  6.49159869E-04  6.09884411E-04  3.96202496E-04
  3.61231632E-04  4.00488592E-04  3.93078991E-04  2.03452606E-04 -1.46793253E-04  3.37593014E-04  1.96376762E-04
  2.33105413E-04  5.44726404E-04  5.59265175E-04  5.65304606E-04  6.00794065E-04  6.11409428E-04  5.99114285E-04
  5.68725367E-04  5.25508658E-04  5.56404798E-04  4.00488592E-04  5.09397085E-04  4.00488592E-04  3.61231632E-04
  2.93222106E-04  1.96376762E-04  3.25908193E-04  3.82152449E-04  4.50206901E-04  5.09492929E-04  5.47834159E-04
  5.61106591E-04  5.52076911E-04  5.28624679E-04  5.00610747E-04  4.75364339E-04  4.53854680E-04  5.09397085E-04
  4.53854680E-04  5.56404798E-04  3.96202496E-04  3.16093372E-04  2.33105413E-04  3.82152449E-04  3.32052018E-04
  3.64227664E-04  5.74331013E-04  5.90026863E-04  6.00794065E-04  6.03424505E-04  6.31015893E-04  6.38807065E-04
  6.25076257E-04  6.33537424E-04  4.53854680E-04  4.75364339E-04  5.25508658E-04  6.09884411E-04  5.02258337E-04
  5.44726404E-04  4.50206901E-04  3.64227664E-04  3.86833908E-04  4.73060754E-04  6.27198073E-04  6.64224441E-04
  7.17631105E-04  7.54116396E-04  7.87596134E-04  7.57186836E-04  6.25076257E-04  4.75364339E-04  5.00610747E-04
  5.68725367E-04  6.49159869E-04  5.53520612E-04  5.59265175E-04  5.09492929E-04  5.74331013E-04  4.73060754E-04
  4.17303154E-04  5.59167771E-04  6.90398071E-04  7.71201456E-04  8.79921611E-04  9.11399916E-04  7.87596134E-04
  6.38807065E-04  5.00610747E-04  5.28624679E-04  5.99114285E-04  6.84995743E-04  6.12172374E-04  5.65304606E-04
  5.47834159E-04  5.90026863E-04  6.27198073E-04  5.59167771E-04  4.86195906E-04  6.11409428E-04  7.17631105E-04
  8.48241176E-04  8.79921611E-04  7.54116396E-04  6.31015893E-04  5.28624679E-04  5.52076911E-04  6.11409428E-04
  6.90398071E-04  6.64224441E-04  6.00794065E-04  5.61106591E-04  6.00794065E-04  6.64224441E-04  6.90398071E-04
  6.11409428E-04  5.52076911E-04  6.03424505E-04  7.17631105E-04  7.71201456E-04  7.17631105E-04  6.03424505E-04
  5.52076911E-04  5.61106591E-04  6.00794065E-04  6.64224441E-04  6.90398071E-04  6.11409428E-04  5.52076911E-04
  6.03424505E-04  7.17631105E-04  7.71201456E-04  7.17631105E-04  6.03424505E-04  5.52076911E-04  6.11409428E-04
  6.90398071E-04  6.64224441E-04  6.00794065E-04  5.61106591E-04  5.47834159E-04  5.65304606E-04  6.12172374E-04
  6.84995743E-04  5.99114285E-04  5.28624679E-04  6.31015893E-04  7.54116396E-04  8.79921611E-04  8.48241176E-04
  7.17631105E-04  6.11409428E-04  4.86195906E-04  5.59167771E-04  6.27198073E-04  5.90026863E-04  5.47834159E-04
  5.09492929E-04  5.59265175E-04  5.53520612E-04  6.49159869E-04  5.68725367E-04  5.00610747E-04  6.38807065E-04
  7.87596134E-04  9.11399916E-04  8.79921611E-04  7.71201456E-04  6.90398071E-04  5.59167771E-04  4.17303154E-04
  4.73060754E-04  5.74331013E-04  5.09492929E-04  4.50206901E-04  5.44726404E-04  5.02258337E-04  6.09884411E-04
  5.25508658E-04  4.75364339E-04  6.25076257E-04  7.57186836E-04  7.87596134E-04  7.54116396E-04  7.17631105E-04
  6.64224441E-04  6.27198073E-04  4.73060754E-04  3.86833908E-04  3.64227664E-04  4.50206901E-04  3.82152449E-04
  2.33105413E-04  3.16093372E-04  3.96202496E-04  5.56404798E-04  4.53854680E-04  6.33537424E-04  6.25076257E-04
  6.38807065E-04  6.31015893E-04  6.03424505E-04  6.00794065E-04  5.90026863E-04  5.74331013E-04  3.64227664E-04
  3.32052018E-04  3.82152449E-04  3.25908193E-04  1.96376762E-04  2.93222106E-04  3.61231632E-04  4.00488592E-04
  5.09397085E-04  4.53854680E-04  4.75364339E-04  5.00610747E-04  5.28624679E-04  5.52076911E-04  5.61106591E-04
  5.47834159E-04  5.09492929E-04  4.50206901E-04  3.82152449E-04  3.25908193E-04  3.79653726E-04  3.32052018E-04
  3.57875885E-04  3.76449320E-04  4.11029399E-04  4.53854680E-04  5.77763682E-04  5.33285817E-04  5.58643448E-04
  5.70368363E-04  5.67849048E-04  5.52076911E-04  5.25253045E-04  4.90427300E-04  4.51328155E-04  4.12502864E-04
  3.79653726E-04  3.32052018E-04  3.82152449E-04  2.33105413E-04  3.16093372E-04  3.96202496E-04  5.56404798E-04
  4.53854680E-04  6.33537424E-04  6.25076257E-04  6.38807065E-04  6.31015893E-04  6.03424505E-04  6.00794065E-04
  5.90026863E-04  5.74331013E-04  3.64227664E-04  3.32052018E-04  3.57875885E-04  2.33105413E-04  4.26844851E-04
  4.76744546E-04  4.30573088E-04  3.96202496E-04  4.11029399E-04  5.25508658E-04  7.04351329E-04  7.47284226E-04
  7.48674089E-04  7.17631105E-04  6.67388120E-04  6.12172374E-04  5.78143108E-04  4.00539636E-04  3.57875885E-04
  3.76449320E-04  3.16093372E-04  4.76744546E-04  4.54802672E-04  4.76744546E-04  3.16093372E-04  3.76449320E-04
  4.57167882E-04  6.49159869E-04  7.13574934E-04  7.58465667E-04  7.71201456E-04  7.58465667E-04  7.13574934E-04
  6.49159869E-04  4.57167882E-04  3.76449320E-04  4.11029399E-04  3.96202496E-04  4.30573088E-04  4.76744546E-04