  BEGIN_INFO
    #
    # this is a Band-XCRYSDEN-Structure-File for Visualization of Fermi Surface
    # generated by the ABINIT package
    #
    #  bands between            1  and            3
    #
    # Launch as: xcrysden --bxsf 
    #
   Fermi Energy:   0.00000000E+00
  END_INFO
  
  BEGIN_BLOCK_BANDGRID_3D
  band_energies
  BEGIN_BANDGRID_3D
             3
            17          17          17
     0.0000000000000000        0.0000000000000000        0.0000000000000000     
   -0.25196348438475241       0.25196348438475241       0.25196348438475241     
    0.25196348438475241      -0.25196348438475241       0.25196348438475241     
    0.25196348438475241       0.25196348438475241      -0.25196348438475241     
  BAND:            1
  0.00000000E+00 -1.03744853E-04 -1.49356357E-04  4.26924211E-05  2.60274913E-04  3.74902223E-04  4.25806728E-04
  4.31736923E-04  4.27225976E-04  4.31736923E-04  4.25806728E-04  3.74902223E-04  2.60274913E-04  4.26924211E-05
 -1.49356357E-04 -1.03744853E-04  0.00000000E+00 -1.03744853E-04 -8.25150434E-05 -1.24866215E-04 -3.35331927E-05
  2.41663939E-04  3.75374867E-04  4.54483974E-04  4.65971294E-04  4.38585346E-04  4.20434359E-04  4.11174852E-04
  3.75666127E-04  2.82125645E-04  9.83697969E-05 -1.71507583E-04 -1.65327300E-04 -1.03744853E-04 -1.49356357E-04
 -1.24866215E-04  8.79480985E-05  1.91178214E-04  3.23989446E-04  4.40168902E-04  4.93160067E-04  4.89536227E-04
  4.56037547E-04  4.35225951E-04  4.40216137E-04  4.35696302E-04  3.80838426E-04  2.59014896E-04 -4.28684660E-05
 -1.71507583E-04 -1.49356357E-04  4.26924211E-05 -3.35331927E-05  1.91178214E-04  2.69166300E-04  3.51685888E-04
  4.33598139E-04  4.81451626E-04  4.82181866E-04  4.56605888E-04  4.48798792E-04  4.76925820E-04  5.04527782E-04
  4.84953817E-04  3.99011853E-04  2.59014896E-04  9.83697969E-05  4.26924211E-05  2.60274913E-04  2.41663939E-04
  3.23989446E-04  3.51685888E-04  3.75948731E-04  4.18019629E-04  4.54294397E-04  4.61559185E-04  4.47489740E-04
  4.49068258E-04  4.88095221E-04  5.34356583E-04  5.40855006E-04  4.84953817E-04  3.80838426E-04  2.82125645E-04
  2.60274913E-04  3.74902223E-04  3.75374867E-04  4.40168902E-04  4.33598139E-04  4.18019629E-04  4.25544289E-04
  4.53034531E-04  4.70340889E-04  4.64840922E-04  4.57651702E-04  4.77583407E-04  5.16287895E-04  5.34356583E-04
  5.04527782E-04  4.35696302E-04  3.75666127E-04  3.74902223E-04  4.25806728E-04  4.54483974E-04  4.93160067E-04
  4.81451626E-04  4.54294397E-04  4.53034531E-04  4.87144241E-04  5.21244496E-04  5.24128275E-04  4.98769528E-04
  4.75747362E-04  4.77583407E-04  4.88095221E-04  4.76925820E-04  4.40216137E-04  4.11174852E-04  4.25806728E-04
  4.31736923E-04  4.65971294E-04  4.89536227E-04  4.82181866E-04  4.61559185E-04  4.70340889E-04  5.21244496E-04
  5.75173652E-04  5.90286592E-04  5.56564515E-04  4.98769528E-04  4.57651702E-04  4.49068258E-04  4.48798792E-04
  4.35225951E-04  4.20434359E-04  4.31736923E-04  4.27225976E-04  4.38585346E-04  4.56037547E-04  4.56605888E-04
  4.47489740E-04  4.64840922E-04  5.24128275E-04  5.90286592E-04  6.18340696E-04  5.90286592E-04  5.24128275E-04
  4.64840922E-04  4.47489740E-04  4.56605888E-04  4.56037547E-04  4.38585346E-04  4.27225976E-04  4.31736923E-04
  4.20434359E-04  4.35225951E-04  4.48798792E-04  4.49068258E-04  4.57651702E-04  4.98769528E-04  5.56564515E-04
  5.90286592E-04  5.75173652E-04  5.21244496E-04  4.70340889E-04  4.61559185E-04  4.82181866E-04  4.89536227E-04
  4.65971294E-04  4.31736923E-04  4.25806728E-04  4.11174852E-04  4.40216137E-04  4.76925820E-04  4.88095221E-04
  4.77583407E-04  4.75747362E-04  4.98769528E-04  5.24128275E-04  5.21244496E-04  4.87144241E-04  4.53034531E-04
  4.54294397E-04  4.81451626E-04  4.93160067E-04  4.54483974E-04  4.25806728E-04  3.74902223E-04  3.75666127E-04
  4.35696302E-04  5.04527782E-04  5.34356583E-04  5.16287895E-04  4.77583407E-04  4.57651702E-04  4.64840922E-04
  4.70340889E-04  4.53034531E-04  4.25544289E-04  4.18019629E-04  4.33598139E-04  4.40168902E-04  3.75374867E-04
  3.74902223E-04  2.60274913E-04  2.82125645E-04  3.80838426E-04  4.84953817E-04  5.40855006E-04  5.34356583E-04
  4.88095221E-04  4.49068258E-04  4.47489740E-04  4.61559185E-04  4.54294397E-04  4.18019629E-04  3.75948731E-04
  3.51685888E-04  3.23989446E-04  2.41663939E-04  2.60274913E-04  4.26924211E-05  9.83697969E-05  2.59014896E-04
  3.99011853E-04  4.84953817E-04  5.04527782E-04  4.76925820E-04  4.48798792E-04  4.56605888E-04  4.82181866E-04
  4.81451626E-04  4.33598139E-04  3.51685888E-04  2.69166300E-04  1.91178214E-04 -3.35331927E-05  4.26924211E-05
 -1.49356357E-04 -1.71507583E-04 -4.28684660E-05  2.59014896E-04  3.80838426E-04  4.35696302E-04  4.40216137E-04
  4.35225951E-04  4.56037547E-04  4.89536227E-04  4.93160067E-04  4.40168902E-04  3.23989446E-04  1.91178214E-04
  8.79480985E-05 -1.24866215E-04 -1.49356357E-04 -1.03744853E-04 -1.65327300E-04 -1.71507583E-04  9.83697969E-05
  2.82125645E-04  3.75666127E-04  4.11174852E-04  4.20434359E-04  4.38585346E-04  4.65971294E-04  4.54483974E-04
  3.75374867E-04  2.41663939E-04 -3.35331927E-05 -1.24866215E-04 -8.25150434E-05 -1.03744853E-04  0.00000000E+00
 -1.03744853E-04 -1.49356357E-04  4.26924211E-05  2.60274913E-04  3.74902223E-04  4.25806728E-04  4.31736923E-04
  4.27225976E-04  4.31736923E-04  4.25806728E-04  3.74902223E-04  2.60274913E-04  4.26924211E-05 -1.49356357E-04
 -1.03744853E-04  0.00000000E+00 -1.03744853E-04 -8.25150434E-05 -1.24866215E-04 -3.35331927E-05  2.41663939E-04
  3.75374867E-04  4.54483974E-04  4.65971294E-04  4.38585346E-04  4.20434359E-04  4.11174852E-04  3.75666127E-04
  2.82125645E-04  9.83697969E-05 -1.71507583E-04 -1.65327300E-04 -1.03744853E-04 -8.25150434E-05 -1.03744853E-04
 -1.65327300E-04 -1.71507583E-04  9.83697969E-05  2.82125645E-04  3.75666127E-04  4.11174852E-04  4.20434359E-04
  4.38585346E-04  4.65971294E-04  4.54483974E-04  3.75374867E-04  2.41663939E-04 -3.35331927E-05 -1.24866215E-04
 -8.25150434E-05 -1.24866215E-04 -1.65327300E-04 -1.24866215E-04 -1.11734541E-04  1.55070353E-04  3.10349500E-04
  4.09173898E-04  4.49178797E-04  4.48155680E-04  4.41224529E-04  4.48155680E-04  4.49178797E-04  4.09173898E-04
  3.10349500E-04  1.55070353E-04 -1.11734541E-04 -1.24866215E-04 -3.35331927E-05 -1.71507583E-04 -1.11734541E-04
  1.91178214E-04  2.62910628E-04  3.70770385E-04  4.61232296E-04  4.98917239E-04  4.88623744E-04  4.67399068E-04
  4.71120108E-04  4.89798680E-04  4.80628937E-04  4.14566265E-04  2.94832726E-04  1.55070353E-04 -3.35331927E-05
  2.41663939E-04  9.83697969E-05  1.55070353E-04  2.62910628E-04  3.51685888E-04  4.08377481E-04  4.81630784E-04
  5.16506624E-04  5.09885727E-04  4.93021455E-04  5.02804357E-04  5.35204170E-04  5.47946544E-04  5.07403658E-04
  4.14566265E-04  3.10349500E-04  2.41663939E-04  3.75374867E-04  2.82125645E-04  3.10349500E-04  3.70770385E-04
  4.08377481E-04  4.18019629E-04  4.84098236E-04  5.24495081E-04  5.28600508E-04  5.18368602E-04  5.24216046E-04
  5.52363101E-04  5.71293486E-04  5.47946544E-04  4.80628937E-04  4.09173898E-04  3.75374867E-04  4.54483974E-04
  3.75666127E-04  4.09173898E-04  4.61232296E-04  4.81630784E-04  4.84098236E-04  4.53034531E-04  5.49824598E-04
  5.70860302E-04  5.61459935E-04  5.47113049E-04  5.47455185E-04  5.52363101E-04  5.35204170E-04  4.89798680E-04
  4.49178797E-04  4.54483974E-04  4.65971294E-04  4.11174852E-04  4.49178797E-04  4.98917239E-04  5.16506624E-04
  5.24495081E-04  5.49824598E-04  5.21244496E-04  6.26672278E-04  6.20935990E-04  5.84067385E-04  5.47113049E-04
  5.24216046E-04  5.02804357E-04  4.71120108E-04  4.48155680E-04  4.65971294E-04  4.38585346E-04  4.20434359E-04
  4.48155680E-04  4.88623744E-04  5.09885727E-04  5.28600508E-04  5.70860302E-04  6.26672278E-04  5.90286592E-04
  6.63825021E-04  6.20935990E-04  5.61459935E-04  5.18368602E-04  4.93021455E-04  4.67399068E-04  4.41224529E-04
  4.38585346E-04  4.20434359E-04  4.38585346E-04  4.41224529E-04  4.67399068E-04  4.93021455E-04  5.18368602E-04
  5.61459935E-04  6.20935990E-04  6.63825021E-04  5.90286592E-04  6.26672278E-04  5.70860302E-04  5.28600508E-04
  5.09885727E-04  4.88623744E-04  4.48155680E-04  4.20434359E-04  4.11174852E-04  4.65971294E-04  4.48155680E-04
  4.71120108E-04  5.02804357E-04  5.24216046E-04  5.47113049E-04  5.84067385E-04  6.20935990E-04  6.26672278E-04
  5.21244496E-04  5.49824598E-04  5.24495081E-04  5.16506624E-04  4.98917239E-04  4.49178797E-04  4.11174852E-04
  3.75666127E-04  4.54483974E-04  4.49178797E-04  4.89798680E-04  5.35204170E-04  5.52363101E-04  5.47455185E-04
  5.47113049E-04  5.61459935E-04  5.70860302E-04  5.49824598E-04  4.53034531E-04  4.84098236E-04  4.81630784E-04
  4.61232296E-04  4.09173898E-04  3.75666127E-04  2.82125645E-04  3.75374867E-04  4.09173898E-04  4.80628937E-04
  5.47946544E-04  5.71293486E-04  5.52363101E-04  5.24216046E-04  5.18368602E-04  5.28600508E-04  5.24495081E-04
  4.84098236E-04  4.18019629E-04  4.08377481E-04  3.70770385E-04  3.10349500E-04  2.82125645E-04  9.83697969E-05
  2.41663939E-04  3.10349500E-04  4.14566265E-04  5.07403658E-04  5.47946544E-04  5.35204170E-04  5.02804357E-04
  4.93021455E-04  5.09885727E-04  5.16506624E-04  4.81630784E-04  4.08377481E-04  3.51685888E-04  2.62910628E-04
  1.55070353E-04  9.83697969E-05 -1.71507583E-04 -3.35331927E-05  1.55070353E-04  2.94832726E-04  4.14566265E-04
  4.80628937E-04  4.89798680E-04  4.71120108E-04  4.67399068E-04  4.88623744E-04  4.98917239E-04  4.61232296E-04
  3.70770385E-04  2.62910628E-04  1.91178214E-04 -1.11734541E-04 -1.71507583E-04 -1.65327300E-04 -1.24866215E-04
 -1.11734541E-04  1.55070353E-04  3.10349500E-04  4.09173898E-04  4.49178797E-04  4.48155680E-04  4.41224529E-04
  4.48155680E-04  4.49178797E-04  4.09173898E-04  3.10349500E-04  1.55070353E-04 -1.11734541E-04 -1.24866215E-04
 -1.65327300E-04 -1.03744853E-04 -8.25150434E-05 -1.24866215E-04 -3.35331927E-05  2.41663939E-04  3.75374867E-04
  4.54483974E-04  4.65971294E-04  4.38585346E-04  4.20434359E-04  4.11174852E-04  3.75666127E-04  2.82125645E-04
  9.83697969E-05 -1.71507583E-04 -1.65327300E-04 -1.03744853E-04 -1.49356357E-04 -1.24866215E-04  8.79480985E-05
  1.91178214E-04  3.23989446E-04  4.40168902E-04  4.93160067E-04  4.89536227E-04  4.56037547E-04  4.35225951E-04
  4.40216137E-04  4.35696302E-04  3.80838426E-04  2.59014896E-04 -4.28684660E-05 -1.71507583E-04 -1.49356357E-04
 -1.24866215E-04 -1.65327300E-04 -1.24866215E-04 -1.11734541E-04  1.55070353E-04  3.10349500E-04  4.09173898E-04
  4.49178797E-04  4.48155680E-04  4.41224529E-04  4.48155680E-04  4.49178797E-04  4.09173898E-04  3.10349500E-04
  1.55070353E-04 -1.11734541E-04 -1.24866215E-04  8.79480985E-05 -1.24866215E-04 -1.49356357E-04 -1.71507583E-04
 -4.28684660E-05  2.59014896E-04  3.80838426E-04  4.35696302E-04  4.40216137E-04  4.35225951E-04  4.56037547E-04
  4.89536227E-04  4.93160067E-04  4.40168902E-04  3.23989446E-04  1.91178214E-04  8.79480985E-05  1.91178214E-04
 -1.11734541E-04 -1.71507583E-04 -3.35331927E-05  1.55070353E-04  2.94832726E-04  4.14566265E-04  4.80628937E-04
  4.89798680E-04  4.71120108E-04  4.67399068E-04  4.88623744E-04  4.98917239E-04  4.61232296E-04  3.70770385E-04
  2.62910628E-04  1.91178214E-04  3.23989446E-04  1.55070353E-04 -4.28684660E-05  1.55070353E-04  3.23989446E-04
  3.70770385E-04  4.59446015E-04  5.33236205E-04  5.57984766E-04  5.45004027E-04  5.33043522E-04  5.45004027E-04
  5.57984766E-04  5.33236205E-04  4.59446015E-04  3.70770385E-04  3.23989446E-04  4.40168902E-04  3.10349500E-04
  2.59014896E-04  2.94832726E-04  3.70770385E-04  4.33598139E-04  4.81630784E-04  5.70825376E-04  6.21467721E-04
  6.24309809E-04  6.15526902E-04  6.20283641E-04  6.26139424E-04  6.00431421E-04  5.33236205E-04  4.61232296E-04
  4.40168902E-04  4.93160067E-04  4.09173898E-04  3.80838426E-04  4.14566265E-04  4.59446015E-04  4.81630784E-04
  4.54294397E-04  5.24495081E-04  6.66116213E-04  6.96881574E-04  6.88515911E-04  6.78642387E-04  6.64997172E-04
  6.26139424E-04  5.57984766E-04  4.98917239E-04  4.93160067E-04  4.89536227E-04  4.49178797E-04  4.35696302E-04
  4.80628937E-04  5.33236205E-04  5.70825376E-04  5.24495081E-04  4.70340889E-04  5.70860302E-04  7.48318101E-04
  7.48396917E-04  7.18513149E-04  6.78642387E-04  6.20283641E-04  5.45004027E-04  4.88623744E-04  4.89536227E-04
  4.56037547E-04  4.48155680E-04  4.40216137E-04  4.89798680E-04  5.57984766E-04  6.21467721E-04  6.66116213E-04
  5.70860302E-04  5.24128275E-04  6.20935990E-04  7.82547517E-04  7.48396917E-04  6.88515911E-04  6.15526902E-04
  5.33043522E-04  4.67399068E-04  4.56037547E-04  4.35225951E-04  4.41224529E-04  4.35225951E-04  4.71120108E-04
  5.45004027E-04  6.24309809E-04  6.96881574E-04  7.48318101E-04  6.20935990E-04  5.56564515E-04  6.20935990E-04
  7.48318101E-04  6.96881574E-04  6.24309809E-04  5.45004027E-04  4.71120108E-04  4.35225951E-04  4.40216137E-04
  4.48155680E-04  4.56037547E-04  4.67399068E-04  5.33043522E-04  6.15526902E-04  6.88515911E-04  7.48396917E-04
  7.82547517E-04  6.20935990E-04  5.24128275E-04  5.70860302E-04  6.66116213E-04  6.21467721E-04  5.57984766E-04
  4.89798680E-04  4.40216137E-04  4.35696302E-04  4.49178797E-04  4.89536227E-04  4.88623744E-04  5.45004027E-04
  6.20283641E-04  6.78642387E-04  7.18513149E-04  7.48396917E-04  7.48318101E-04  5.70860302E-04  4.70340889E-04
  5.24495081E-04  5.70825376E-04  5.33236205E-04  4.80628937E-04  4.35696302E-04  3.80838426E-04  4.09173898E-04
  4.93160067E-04  4.98917239E-04  5.57984766E-04  6.26139424E-04  6.64997172E-04  6.78642387E-04  6.88515911E-04
  6.96881574E-04  6.66116213E-04  5.24495081E-04  4.54294397E-04  4.81630784E-04  4.59446015E-04  4.14566265E-04
  3.80838426E-04  2.59014896E-04  3.10349500E-04  4.40168902E-04  4.61232296E-04  5.33236205E-04  6.00431421E-04
  6.26139424E-04  6.20283641E-04  6.15526902E-04  6.24309809E-04  6.21467721E-04  5.70825376E-04  4.81630784E-04
  4.33598139E-04  3.70770385E-04  2.94832726E-04  2.59014896E-04 -4.28684660E-05  1.55070353E-04  3.23989446E-04
  3.70770385E-04  4.59446015E-04  5.33236205E-04  5.57984766E-04  5.45004027E-04  5.33043522E-04  5.45004027E-04
  5.57984766E-04  5.33236205E-04  4.59446015E-04  3.70770385E-04  3.23989446E-04  1.55070353E-04 -4.28684660E-05
 -1.71507583E-04 -1.11734541E-04  1.91178214E-04  2.62910628E-04  3.70770385E-04  4.61232296E-04  4.98917239E-04
  4.88623744E-04  4.67399068E-04  4.71120108E-04  4.89798680E-04  4.80628937E-04  4.14566265E-04  2.94832726E-04
  1.55070353E-04 -3.35331927E-05 -1.71507583E-04 -1.49356357E-04 -1.24866215E-04  8.79480985E-05  1.91178214E-04
  3.23989446E-04  4.40168902E-04  4.93160067E-04  4.89536227E-04  4.56037547E-04  4.35225951E-04  4.40216137E-04
  4.35696302E-04  3.80838426E-04  2.59014896E-04 -4.28684660E-05 -1.71507583E-04 -1.49356357E-04  4.26924211E-05
 -3.35331927E-05  1.91178214E-04  2.69166300E-04  3.51685888E-04  4.33598139E-04  4.81451626E-04  4.82181866E-04
  4.56605888E-04  4.48798792E-04  4.76925820E-04  5.04527782E-04  4.84953817E-04  3.99011853E-04  2.59014896E-04
  9.83697969E-05  4.26924211E-05 -3.35331927E-05 -1.71507583E-04 -1.11734541E-04  1.91178214E-04  2.62910628E-04
  3.70770385E-04  4.61232296E-04  4.98917239E-04  4.88623744E-04  4.67399068E-04  4.71120108E-04  4.89798680E-04
  4.80628937E-04  4.14566265E-04  2.94832726E-04  1.55070353E-04 -3.35331927E-05  1.91178214E-04 -1.11734541E-04
 -1.71507583E-04 -3.35331927E-05  1.55070353E-04  2.94832726E-04  4.14566265E-04  4.80628937E-04  4.89798680E-04
  4.71120108E-04  4.67399068E-04  4.88623744E-04  4.98917239E-04  4.61232296E-04  3.70770385E-04  2.62910628E-04
  1.91178214E-04  2.69166300E-04  1.91178214E-04 -3.35331927E-05  4.26924211E-05  9.83697969E-05  2.59014896E-04
  3.99011853E-04  4.84953817E-04  5.04527782E-04  4.76925820E-04  4.48798792E-04  4.56605888E-04  4.82181866E-04
  4.81451626E-04  4.33598139E-04  3.51685888E-04  2.69166300E-04  3.51685888E-04  2.62910628E-04  1.55070353E-04
  9.83697969E-05  2.41663939E-04  3.10349500E-04  4.14566265E-04  5.07403658E-04  5.47946544E-04  5.35204170E-04
  5.02804357E-04  4.93021455E-04  5.09885727E-04  5.16506624E-04  4.81630784E-04  4.08377481E-04  3.51685888E-04
  4.33598139E-04  3.70770385E-04  2.94832726E-04  2.59014896E-04  3.10349500E-04  4.40168902E-04  4.61232296E-04
  5.33236205E-04  6.00431421E-04  6.26139424E-04  6.20283641E-04  6.15526902E-04  6.24309809E-04  6.21467721E-04
  5.70825376E-04  4.81630784E-04  4.33598139E-04  4.81451626E-04  4.61232296E-04  4.14566265E-04  3.99011853E-04
  4.14566265E-04  4.61232296E-04  4.81451626E-04  5.16506624E-04  6.21467721E-04  7.14993317E-04  7.50261173E-04
  7.55021267E-04  7.50261173E-04  7.14993317E-04  6.21467721E-04  5.16506624E-04  4.81451626E-04  4.82181866E-04
  4.98917239E-04  4.80628937E-04  4.84953817E-04  5.07403658E-04  5.33236205E-04  5.16506624E-04  4.61559185E-04
  5.28600508E-04  6.96881574E-04  8.44615811E-04  8.65184489E-04  8.31939805E-04  7.50261173E-04  6.24309809E-04
  5.09885727E-04  4.82181866E-04  4.56605888E-04  4.88623744E-04  4.89798680E-04  5.04527782E-04  5.47946544E-04
  6.00431421E-04  6.21467721E-04  5.28600508E-04  4.64840922E-04  5.61459935E-04  7.48396917E-04  9.09851864E-04
  8.65184489E-04  7.55021267E-04  6.15526902E-04  4.93021455E-04  4.56605888E-04  4.48798792E-04  4.67399068E-04
  4.71120108E-04  4.76925820E-04  5.35204170E-04  6.26139424E-04  7.14993317E-04  6.96881574E-04  5.61459935E-04
  4.98769528E-04  5.84067385E-04  7.48396917E-04  8.44615811E-04  7.50261173E-04  6.20283641E-04  5.02804357E-04
  4.48798792E-04  4.76925820E-04  4.71120108E-04  4.67399068E-04  4.48798792E-04  5.02804357E-04  6.20283641E-04
  7.50261173E-04  8.44615811E-04  7.48396917E-04  5.84067385E-04  4.98769528E-04  5.61459935E-04  6.96881574E-04
  7.14993317E-04  6.26139424E-04  5.35204170E-04  4.76925820E-04  5.04527782E-04  4.89798680E-04  4.88623744E-04
  4.56605888E-04  4.93021455E-04  6.15526902E-04  7.55021267E-04  8.65184489E-04  9.09851864E-04  7.48396917E-04
  5.61459935E-04  4.64840922E-04  5.28600508E-04  6.21467721E-04  6.00431421E-04  5.47946544E-04  5.04527782E-04
  4.84953817E-04  4.80628937E-04  4.98917239E-04  4.82181866E-04  5.09885727E-04  6.24309809E-04  7.50261173E-04
  8.31939805E-04  8.65184489E-04  8.44615811E-04  6.96881574E-04  5.28600508E-04  4.61559185E-04  5.16506624E-04
  5.33236205E-04  5.07403658E-04  4.84953817E-04  3.99011853E-04  4.14566265E-04  4.61232296E-04  4.81451626E-04
  5.16506624E-04  6.21467721E-04  7.14993317E-04  7.50261173E-04  7.55021267E-04  7.50261173E-04  7.14993317E-04
  6.21467721E-04  5.16506624E-04  4.81451626E-04  4.61232296E-04  4.14566265E-04  3.99011853E-04  2.59014896E-04
  2.94832726E-04  3.70770385E-04  4.33598139E-04  4.81630784E-04  5.70825376E-04  6.21467721E-04  6.24309809E-04
  6.15526902E-04  6.20283641E-04  6.26139424E-04  6.00431421E-04  5.33236205E-04  4.61232296E-04  4.40168902E-04
  3.10349500E-04  2.59014896E-04  9.83697969E-05  1.55070353E-04  2.62910628E-04  3.51685888E-04  4.08377481E-04
  4.81630784E-04  5.16506624E-04  5.09885727E-04  4.93021455E-04  5.02804357E-04  5.35204170E-04  5.47946544E-04
  5.07403658E-04  4.14566265E-04  3.10349500E-04  2.41663939E-04  9.83697969E-05  4.26924211E-05 -3.35331927E-05
  1.91178214E-04  2.69166300E-04  3.51685888E-04  4.33598139E-04  4.81451626E-04  4.82181866E-04  4.56605888E-04
  4.48798792E-04  4.76925820E-04  5.04527782E-04  4.84953817E-04  3.99011853E-04  2.59014896E-04  9.83697969E-05
  4.26924211E-05  2.60274913E-04  2.41663939E-04  3.23989446E-04  3.51685888E-04  3.75948731E-04  4.18019629E-04
  4.54294397E-04  4.61559185E-04  4.47489740E-04  4.49068258E-04  4.88095221E-04  5.34356583E-04  5.40855006E-04
  4.84953817E-04  3.80838426E-04  2.82125645E-04  2.60274913E-04  2.41663939E-04  9.83697969E-05  1.55070353E-04
  2.62910628E-04  3.51685888E-04  4.08377481E-04  4.81630784E-04  5.16506624E-04  5.09885727E-04  4.93021455E-04
  5.02804357E-04  5.35204170E-04  5.47946544E-04  5.07403658E-04  4.14566265E-04  3.10349500E-04  2.41663939E-04
  3.23989446E-04  1.55070353E-04 -4.28684660E-05  1.55070353E-04  3.23989446E-04  3.70770385E-04  4.59446015E-04
  5.33236205E-04  5.57984766E-04  5.45004027E-04  5.33043522E-04  5.45004027E-04  5.57984766E-04  5.33236205E-04
  4.59446015E-04  3.70770385E-04  3.23989446E-04  3.51685888E-04  2.62910628E-04  1.55070353E-04  9.83697969E-05
  2.41663939E-04  3.10349500E-04  4.14566265E-04  5.07403658E-04  5.47946544E-04  5.35204170E-04  5.02804357E-04
  4.93021455E-04  5.09885727E-04  5.16506624E-04  4.81630784E-04  4.08377481E-04  3.51685888E-04  3.75948731E-04
  3.51685888E-04  3.23989446E-04  2.41663939E-04  2.60274913E-04  2.82125645E-04  3.80838426E-04  4.84953817E-04
  5.40855006E-04  5.34356583E-04  4.88095221E-04  4.49068258E-04  4.47489740E-04  4.61559185E-04  4.54294397E-04
  4.18019629E-04  3.75948731E-04  4.18019629E-04  4.08377481E-04  3.70770385E-04  3.10349500E-04  2.82125645E-04
  3.75374867E-04  4.09173898E-04  4.80628937E-04  5.47946544E-04  5.71293486E-04  5.52363101E-04  5.24216046E-04
  5.18368602E-04  5.28600508E-04  5.24495081E-04  4.84098236E-04  4.18019629E-04  4.54294397E-04  4.81630784E-04
  4.59446015E-04  4.14566265E-04  3.80838426E-04  4.09173898E-04  4.93160067E-04  4.98917239E-04  5.57984766E-04
  6.26139424E-04  6.64997172E-04  6.78642387E-04  6.88515911E-04  6.96881574E-04  6.66116213E-04  5.24495081E-04
  4.54294397E-04  4.61559185E-04  5.16506624E-04  5.33236205E-04  5.07403658E-04  4.84953817E-04  4.80628937E-04
  4.98917239E-04  4.82181866E-04  5.09885727E-04  6.24309809E-04  7.50261173E-04  8.31939805E-04  8.65184489E-04
  8.44615811E-04  6.96881574E-04  5.28600508E-04  4.61559185E-04  4.47489740E-04  5.09885727E-04  5.57984766E-04
  5.47946544E-04  5.40855006E-04  5.47946544E-04  5.57984766E-04  5.09885727E-04  4.47489740E-04  5.18368602E-04
  6.88515911E-04  8.65184489E-04  9.64303735E-04  8.65184489E-04  6.88515911E-04  5.18368602E-04  4.47489740E-04
  4.49068258E-04  4.93021455E-04  5.45004027E-04  5.35204170E-04  5.34356583E-04  5.71293486E-04  6.26139424E-04
  6.24309809E-04  5.18368602E-04  4.57651702E-04  5.47113049E-04  7.18513149E-04  8.65184489E-04  8.31939805E-04
  6.78642387E-04  5.24216046E-04  4.49068258E-04  4.88095221E-04  5.02804357E-04  5.33043522E-04  5.02804357E-04
  4.88095221E-04  5.52363101E-04  6.64997172E-04  7.50261173E-04  6.88515911E-04  5.47113049E-04  4.75747362E-04
  5.47113049E-04  6.88515911E-04  7.50261173E-04  6.64997172E-04  5.52363101E-04  4.88095221E-04  5.34356583E-04
  5.35204170E-04  5.45004027E-04  4.93021455E-04  4.49068258E-04  5.24216046E-04  6.78642387E-04  8.31939805E-04
  8.65184489E-04  7.18513149E-04  5.47113049E-04  4.57651702E-04  5.18368602E-04  6.24309809E-04  6.26139424E-04
  5.71293486E-04  5.34356583E-04  5.40855006E-04  5.47946544E-04  5.57984766E-04  5.09885727E-04  4.47489740E-04
  5.18368602E-04  6.88515911E-04  8.65184489E-04  9.64303735E-04  8.65184489E-04  6.88515911E-04  5.18368602E-04
  4.47489740E-04  5.09885727E-04  5.57984766E-04  5.47946544E-04  5.40855006E-04  4.84953817E-04  5.07403658E-04
  5.33236205E-04  5.16506624E-04  4.61559185E-04  5.28600508E-04  6.96881574E-04  8.44615811E-04  8.65184489E-04
  8.31939805E-04  7.50261173E-04  6.24309809E-04  5.09885727E-04  4.82181866E-04  4.98917239E-04  4.80628937E-04
  4.84953817E-04  3.80838426E-04  4.14566265E-04  4.59446015E-04  4.81630784E-04  4.54294397E-04  5.24495081E-04
  6.66116213E-04  6.96881574E-04  6.88515911E-04  6.78642387E-04  6.64997172E-04  6.26139424E-04  5.57984766E-04
  4.98917239E-04  4.93160067E-04  4.09173898E-04  3.80838426E-04  2.82125645E-04  3.10349500E-04  3.70770385E-04
  4.08377481E-04  4.18019629E-04  4.84098236E-04  5.24495081E-04  5.28600508E-04  5.18368602E-04  5.24216046E-04
  5.52363101E-04  5.71293486E-04  5.47946544E-04  4.80628937E-04  4.09173898E-04  3.75374867E-04  2.82125645E-04
  2.60274913E-04  2.41663939E-04  3.23989446E-04  3.51685888E-04  3.75948731E-04  4.18019629E-04  4.54294397E-04
  4.61559185E-04  4.47489740E-04  4.49068258E-04  4.88095221E-04  5.34356583E-04  5.40855006E-04  4.84953817E-04
  3.80838426E-04  2.82125645E-04  2.60274913E-04  3.74902223E-04  3.75374867E-04  4.40168902E-04  4.33598139E-04
  4.18019629E-04  4.25544289E-04  4.53034531E-04  4.70340889E-04  4.64840922E-04  4.57651702E-04  4.77583407E-04
  5.16287895E-04  5.34356583E-04  5.04527782E-04  4.35696302E-04  3.75666127E-04  3.74902223E-04  3.75374867E-04
  2.82125645E-04  3.10349500E-04  3.70770385E-04  4.08377481E-04  4.18019629E-04  4.84098236E-04  5.24495081E-04
  5.28600508E-04  5.18368602E-04  5.24216046E-04  5.52363101E-04  5.71293486E-04  5.47946544E-04  4.80628937E-04
  4.09173898E-04  3.75374867E-04  4.40168902E-04  3.10349500E-04  2.59014896E-04  2.94832726E-04  3.70770385E-04
  4.33598139E-04  4.81630784E-04  5.70825376E-04  6.21467721E-04  6.24309809E-04  6.15526902E-04  6.20283641E-04
  6.26139424E-04  6.00431421E-04  5.33236205E-04  4.61232296E-04  4.40168902E-04  4.33598139E-04  3.70770385E-04
  2.94832726E-04  2.59014896E-04  3.10349500E-04  4.40168902E-04  4.61232296E-04  5.33236205E-04  6.00431421E-04
  6.26139424E-04  6.20283641E-04  6.15526902E-04  6.24309809E-04  6.21467721E-04  5.70825376E-04  4.81630784E-04
  4.33598139E-04  4.18019629E-04  4.08377481E-04  3.70770385E-04  3.10349500E-04  2.82125645E-04  3.75374867E-04
  4.09173898E-04  4.80628937E-04  5.47946544E-04  5.71293486E-04  5.52363101E-04  5.24216046E-04  5.18368602E-04
  5.28600508E-04  5.24495081E-04  4.84098236E-04  4.18019629E-04  4.25544289E-04  4.18019629E-04  4.33598139E-04
  4.40168902E-04  3.75374867E-04  3.74902223E-04  3.75666127E-04  4.35696302E-04  5.04527782E-04  5.34356583E-04
  5.16287895E-04  4.77583407E-04  4.57651702E-04  4.64840922E-04  4.70340889E-04  4.53034531E-04  4.25544289E-04
  4.53034531E-04  4.84098236E-04  4.81630784E-04  4.61232296E-04  4.09173898E-04  3.75666127E-04  4.54483974E-04
  4.49178797E-04  4.89798680E-04  5.35204170E-04  5.52363101E-04  5.47455185E-04  5.47113049E-04  5.61459935E-04
  5.70860302E-04  5.49824598E-04  4.53034531E-04  4.70340889E-04  5.24495081E-04  5.70825376E-04  5.33236205E-04
  4.80628937E-04  4.35696302E-04  4.49178797E-04  4.89536227E-04  4.88623744E-04  5.45004027E-04  6.20283641E-04
  6.78642387E-04  7.18513149E-04  7.48396917E-04  7.48318101E-04  5.70860302E-04  4.70340889E-04  4.64840922E-04
  5.28600508E-04  6.21467721E-04  6.00431421E-04  5.47946544E-04  5.04527782E-04  4.89798680E-04  4.88623744E-04
  4.56605888E-04  4.93021455E-04  6.15526902E-04  7.55021267E-04  8.65184489E-04  9.09851864E-04  7.48396917E-04
  5.61459935E-04  4.64840922E-04  4.57651702E-04  5.18368602E-04  6.24309809E-04  6.26139424E-04  5.71293486E-04
  5.34356583E-04  5.35204170E-04  5.45004027E-04  4.93021455E-04  4.49068258E-04  5.24216046E-04  6.78642387E-04
  8.31939805E-04  8.65184489E-04  7.18513149E-04  5.47113049E-04  4.57651702E-04  4.77583407E-04  5.24216046E-04
  6.15526902E-04  6.20283641E-04  5.52363101E-04  5.16287895E-04  5.52363101E-04  6.20283641E-04  6.15526902E-04
  5.24216046E-04  4.77583407E-04  5.47455185E-04  6.78642387E-04  7.55021267E-04  6.78642387E-04  5.47455185E-04
  4.77583407E-04  5.16287895E-04  5.52363101E-04  6.20283641E-04  6.15526902E-04  5.24216046E-04  4.77583407E-04
  5.47455185E-04  6.78642387E-04  7.55021267E-04  6.78642387E-04  5.47455185E-04  4.77583407E-04  5.24216046E-04
  6.15526902E-04  6.20283641E-04  5.52363101E-04  5.16287895E-04  5.34356583E-04  5.71293486E-04  6.26139424E-04
  6.24309809E-04  5.18368602E-04  4.57651702E-04  5.47113049E-04  7.18513149E-04  8.65184489E-04  8.31939805E-04
  6.78642387E-04  5.24216046E-04  4.49068258E-04  4.93021455E-04  5.45004027E-04  5.35204170E-04  5.34356583E-04
  5.04527782E-04  5.47946544E-04  6.00431421E-04  6.21467721E-04  5.28600508E-04  4.64840922E-04  5.61459935E-04
  7.48396917E-04  9.09851864E-04  8.65184489E-04  7.55021267E-04  6.15526902E-04  4.93021455E-04  4.56605888E-04
  4.88623744E-04  4.89798680E-04  5.04527782E-04  4.35696302E-04  4.80628937E-04  5.33236205E-04  5.70825376E-04
  5.24495081E-04  4.70340889E-04  5.70860302E-04  7.48318101E-04  7.48396917E-04  7.18513149E-04  6.78642387E-04
  6.20283641E-04  5.45004027E-04  4.88623744E-04  4.89536227E-04  4.49178797E-04  4.35696302E-04  3.75666127E-04
  4.09173898E-04  4.61232296E-04  4.81630784E-04  4.84098236E-04  4.53034531E-04  5.49824598E-04  5.70860302E-04
  5.61459935E-04  5.47113049E-04  5.47455185E-04  5.52363101E-04  5.35204170E-04  4.89798680E-04  4.49178797E-04
  4.54483974E-04  3.75666127E-04  3.74902223E-04  3.75374867E-04  4.40168902E-04  4.33598139E-04  4.18019629E-04
  4.25544289E-04  4.53034531E-04  4.70340889E-04  4.64840922E-04  4.57651702E-04  4.77583407E-04  5.16287895E-04
  5.34356583E-04  5.04527782E-04  4.35696302E-04  3.75666127E-04  3.74902223E-04  4.25806728E-04  4.54483974E-04
  4.93160067E-04  4.81451626E-04  4.54294397E-04  4.53034531E-04  4.87144241E-04  5.21244496E-04  5.24128275E-04
  4.98769528E-04  4.75747362E-04  4.77583407E-04  4.88095221E-04  4.76925820E-04  4.40216137E-04  4.11174852E-04
  4.25806728E-04  4.54483974E-04  3.75666127E-04  4.09173898E-04  4.61232296E-04  4.81630784E-04  4.84098236E-04
  4.53034531E-04  5.49824598E-04  5.70860302E-04  5.61459935E-04  5.47113049E-04  5.47455185E-04  5.52363101E-04
  5.35204170E-04  4.89798680E-04  4.49178797E-04  4.54483974E-04  4.93160067E-04  4.09173898E-04  3.80838426E-04
  4.14566265E-04  4.59446015E-04  4.81630784E-04  4.54294397E-04  5.24495081E-04  6.66116213E-04  6.96881574E-04
  6.88515911E-04  6.78642387E-04  6.64997172E-04  6.26139424E-04  5.57984766E-04  4.98917239E-04  4.93160067E-04
  4.81451626E-04  4.61232296E-04  4.14566265E-04  3.99011853E-04  4.14566265E-04  4.61232296E-04  4.81451626E-04
  5.16506624E-04  6.21467721E-04  7.14993317E-04  7.50261173E-04  7.55021267E-04  7.50261173E-04  7.14993317E-04
  6.21467721E-04  5.16506624E-04  4.81451626E-04  4.54294397E-04  4.81630784E-04  4.59446015E-04  4.14566265E-04