
.Version 10.5.8.2 of ABINIT, released Oct 2025.
.(MPI version, prepared for a x86_64_linux_gnu13.2 computer) 

.Copyright (C) 1998-2025 ABINIT group . 
 ABINIT comes with ABSOLUTELY NO WARRANTY.
 It is free software, and you are welcome to redistribute it
 under certain conditions (GNU General Public License,
 see ~abinit/COPYING or http://www.gnu.org/copyleft/gpl.txt).

 ABINIT is a project of the Universite Catholique de Louvain,
 Corning Inc. and other collaborators, see ~abinit/doc/developers/contributors.txt .
 Please read https://docs.abinit.org/theory/acknowledgments for suggested
 acknowledgments of the ABINIT effort.
 For more information, see https://www.abinit.org .

.Starting date : Sat 20 Dec 2025.
- ( at 17h14 )
  
- input  file    -> /home/buildbot/ABINIT3/eos_gnu_13.2_mpich/trunk__codata2022/tests/TestBot_MPI1/v7_t98/t98.abi
- output file    -> t98.abo
- root for input  files -> t98i
- root for output files -> t98o

 DATASET    1 : space group Fm -3 m (#225); Bravais cF (face-center cubic)
================================================================================
 Values of the parameters that define the memory need for DATASET  1.
     intxc =       0    ionmov =       0      iscf =       7    lmnmax =       2
     lnmax =       2     mgfft =      12  mpssoang =       2    mqgrid =    3001
     natom =       1  nloc_mem =       1    nspden =       1   nspinor =       1
    nsppol =       1      nsym =      48    n1xccc =       0    ntypat =       1
    occopt =       1   xclevel =       2
-    mband =          10        mffmem =           1         mkmem =           6
       mpw =          73          nfft =        1728          nkpt =           6
================================================================================
P This job should need less than                       1.036 Mbytes of memory.
  Rough estimation (10% accuracy) of disk space for files :
_ WF disk file :      0.069 Mbytes ; DEN or POT disk file :      0.015 Mbytes.
================================================================================

 DATASET    2 : space group Fm -3 m (#225); Bravais cF (face-center cubic)
================================================================================
 Values of the parameters that define the memory need for DATASET  2 (RF).
     intxc =       0      iscf =       7    lmnmax =       2     lnmax =       2
     mgfft =      12  mpssoang =       2    mqgrid =    3001     natom =       1
  nloc_mem =       1    nspden =       1   nspinor =       1    nsppol =       1
      nsym =      48    n1xccc =       0    ntypat =       1    occopt =       1
   xclevel =       2
-    mband =          10        mffmem =           1         mkmem =          56
-   mkqmem =          56        mk1mem =          56           mpw =          73
      nfft =        1728          nkpt =          56
- my_mband =          10
================================================================================
P This job should need less than                       2.884 Mbytes of memory.
  Rough estimation (10% accuracy) of disk space for files :
_ WF disk file :      0.626 Mbytes ; DEN or POT disk file :      0.015 Mbytes.
================================================================================

 DATASET    3 : space group Fm -3 m (#225); Bravais cF (face-center cubic)
================================================================================
 Values of the parameters that define the memory need for DATASET  3.
     intxc =       0    ionmov =       0      iscf =      -2    lmnmax =       2
     lnmax =       2     mgfft =      12  mpssoang =       2    mqgrid =    3001
     natom =       1  nloc_mem =       1    nspden =       1   nspinor =       1
    nsppol =       1      nsym =      48    n1xccc =       0    ntypat =       1
    occopt =       1   xclevel =       2
-    mband =          10        mffmem =           1         mkmem =         108
       mpw =          76          nfft =        1728          nkpt =         108
================================================================================
P This job should need less than                       2.233 Mbytes of memory.
  Rough estimation (10% accuracy) of disk space for files :
_ WF disk file :      1.254 Mbytes ; DEN or POT disk file :      0.015 Mbytes.
================================================================================

 DATASET    4 : space group Fm -3 m (#225); Bravais cF (face-center cubic)
================================================================================
 Values of the parameters that define the memory need for DATASET  4 (RF).
     intxc =       0      iscf =       7    lmnmax =       2     lnmax =       2
     mgfft =      12  mpssoang =       2    mqgrid =    3001     natom =       1
  nloc_mem =       1    nspden =       1   nspinor =       1    nsppol =       1
      nsym =      48    n1xccc =       0    ntypat =       1    occopt =       1
   xclevel =       2
-    mband =          10        mffmem =           1         mkmem =         108
-   mkqmem =         108        mk1mem =         108           mpw =          76
      nfft =        1728          nkpt =         108
- my_mband =          10
================================================================================
P This job should need less than                       5.079 Mbytes of memory.
  Rough estimation (10% accuracy) of disk space for files :
_ WF disk file :      1.254 Mbytes ; DEN or POT disk file :      0.015 Mbytes.
================================================================================

--------------------------------------------------------------------------------
------------- Echo of variables that govern the present computation ------------
--------------------------------------------------------------------------------
-
- outvars: echo of selected default values
-   iomode0 =  0 , fftalg0 =512 , wfoptalg0 =  0
-
- outvars: echo of global parameters not present in the input file
-  max_nthreads =    0
-
 -outvars: echo values of preprocessed input variables --------
            acell      1.0438880948E+01  1.0438880948E+01  1.0438880948E+01 Bohr
              amu      3.99480000E+01
           diemac      3.00000000E+00
             ecut      3.00000000E+00 Hartree
           ecutsm      5.00000000E-01 Hartree
-          fftalg         512
           getden1          0
           getden2          0
           getden3          1
           getden4          0
           getwfk1          0
           getwfk2          1
           getwfk3          0
           getwfk4          1
             iscf1          7
             iscf2          7
             iscf3         -2
             iscf4          7
           istwfk1       0    0    0    0    0    3
           istwfk2       0    0    0    0    0    0    0    0    0    0
                         0    0    0    0    0    0    0    0    0    0
                         0    0    0    0    0    0    0    0    0    0
                         1    0    0    0    0    0    0    0    0    0
                         1    0    0    1    0    0    0    0    0    0
           istwfk3       0    0    0    0    0    0    0    0    0    0
                         0    0    0    0    0    0    0    0    0    0
                         0    0    0    0    0    0    0    0    0    0
                         0    0    0    0    5    0    0    0    0    0
                         0    0    0    0    0    0    8    0    0    0
           istwfk4       0    0    0    0    0    0    0    0    0    0
                         0    0    0    0    0    0    0    0    0    0
                         0    0    0    0    0    0    0    0    0    0
                         0    0    0    0    1    0    0    0    0    0
                         0    0    0    0    0    0    1    0    0    1
                       outvar_i_n : Printing only first  50 k-points.
              ixc          11
           jdtset        1    2    3    4
              kpt1    -1.66666667E-01 -3.33333333E-01  0.00000000E+00
                      -1.66666667E-01  3.33333333E-01  0.00000000E+00
                      -3.33333333E-01  5.00000000E-01  0.00000000E+00
                      -1.66666667E-01  5.00000000E-01  1.66666667E-01
                      -1.66666667E-01  0.00000000E+00  0.00000000E+00
                       5.00000000E-01  0.00000000E+00  0.00000000E+00
              kpt2    -1.66666667E-01 -3.33333333E-01  0.00000000E+00
                      -3.33333333E-01 -1.66666667E-01  0.00000000E+00
                      -1.66666667E-01 -1.66666667E-01  1.66666667E-01
                      -1.66666667E-01  3.33333333E-01  0.00000000E+00
                      -3.33333333E-01  5.00000000E-01  0.00000000E+00
                      -1.66666667E-01  5.00000000E-01  1.66666667E-01
                       5.00000000E-01 -3.33333333E-01  0.00000000E+00
                      -3.33333333E-01 -3.33333333E-01  1.66666667E-01
                      -1.66666667E-01 -3.33333333E-01  3.33333333E-01
                       3.33333333E-01 -1.66666667E-01  0.00000000E+00
                       5.00000000E-01 -1.66666667E-01  1.66666667E-01
                      -3.33333333E-01 -1.66666667E-01  3.33333333E-01
                      -1.66666667E-01 -1.66666667E-01  5.00000000E-01
                      -1.66666667E-01  0.00000000E+00  0.00000000E+00
                      -1.66666667E-01  1.66666667E-01  1.66666667E-01
                      -3.33333333E-01  3.33333333E-01  1.66666667E-01
                      -1.66666667E-01  3.33333333E-01  3.33333333E-01
                       5.00000000E-01  5.00000000E-01  1.66666667E-01
                      -3.33333333E-01  5.00000000E-01  3.33333333E-01
                      -1.66666667E-01  5.00000000E-01  5.00000000E-01
                       3.33333333E-01 -3.33333333E-01  1.66666667E-01
                       5.00000000E-01 -3.33333333E-01  3.33333333E-01
                      -3.33333333E-01 -3.33333333E-01  5.00000000E-01
                      -1.66666667E-01 -3.33333333E-01 -3.33333333E-01
                       0.00000000E+00 -1.66666667E-01  0.00000000E+00
                       1.66666667E-01 -1.66666667E-01  1.66666667E-01
                       3.33333333E-01 -1.66666667E-01  3.33333333E-01
                       5.00000000E-01 -1.66666667E-01  5.00000000E-01
                      -3.33333333E-01 -1.66666667E-01 -3.33333333E-01
                      -1.66666667E-01 -1.66666667E-01 -1.66666667E-01
                       5.00000000E-01  0.00000000E+00  0.00000000E+00
                      -3.33333333E-01  0.00000000E+00  1.66666667E-01
                      -1.66666667E-01  0.00000000E+00  3.33333333E-01
                       5.00000000E-01  1.66666667E-01  1.66666667E-01
                      -3.33333333E-01  1.66666667E-01  3.33333333E-01
                      -1.66666667E-01  1.66666667E-01  5.00000000E-01
                       3.33333333E-01  3.33333333E-01  1.66666667E-01
                       5.00000000E-01  3.33333333E-01  3.33333333E-01
                      -3.33333333E-01  3.33333333E-01  5.00000000E-01
                      -1.66666667E-01  3.33333333E-01 -3.33333333E-01
                       0.00000000E+00  5.00000000E-01  0.00000000E+00
                       1.66666667E-01  5.00000000E-01  1.66666667E-01
                       3.33333333E-01  5.00000000E-01  3.33333333E-01
                       5.00000000E-01  5.00000000E-01  5.00000000E-01
                       0.00000000E+00 -3.33333333E-01  1.66666667E-01
                       0.00000000E+00 -1.66666667E-01  3.33333333E-01
                       3.33333333E-01  0.00000000E+00  1.66666667E-01
                       5.00000000E-01  0.00000000E+00  3.33333333E-01
                      -3.33333333E-01  0.00000000E+00  5.00000000E-01
                      -1.66666667E-01  0.00000000E+00 -3.33333333E-01
              kpt3    -1.66666667E-01 -3.33333333E-01  0.00000000E+00
                      -3.33333333E-01 -1.66666667E-01  0.00000000E+00
                      -1.66666667E-01 -1.66666667E-01  1.66666667E-01
                      -1.66666667E-01  3.33333333E-01  0.00000000E+00
                      -3.33333333E-01  5.00000000E-01  0.00000000E+00
                      -1.66666667E-01  5.00000000E-01  1.66666667E-01
                       5.00000000E-01 -3.33333333E-01  0.00000000E+00
                      -3.33333333E-01 -3.33333333E-01  1.66666667E-01
                      -1.66666667E-01 -3.33333333E-01  3.33333333E-01
                       3.33333333E-01 -1.66666667E-01  0.00000000E+00
                       5.00000000E-01 -1.66666667E-01  1.66666667E-01
                      -3.33333333E-01 -1.66666667E-01  3.33333333E-01
                      -1.66666667E-01 -1.66666667E-01  5.00000000E-01
                      -1.66666667E-01  0.00000000E+00  0.00000000E+00
                      -3.33333333E-01  1.66666667E-01  0.00000000E+00
                      -1.66666667E-01  1.66666667E-01  1.66666667E-01
                       5.00000000E-01  3.33333333E-01  0.00000000E+00
                      -3.33333333E-01  3.33333333E-01  1.66666667E-01
                      -1.66666667E-01  3.33333333E-01  3.33333333E-01
                       3.33333333E-01  5.00000000E-01  0.00000000E+00
                       5.00000000E-01  5.00000000E-01  1.66666667E-01
                      -3.33333333E-01  5.00000000E-01  3.33333333E-01
                      -1.66666667E-01  5.00000000E-01  5.00000000E-01
                       1.66666667E-01 -3.33333333E-01  0.00000000E+00
                       3.33333333E-01 -3.33333333E-01  1.66666667E-01
                       5.00000000E-01 -3.33333333E-01  3.33333333E-01
                      -3.33333333E-01 -3.33333333E-01  5.00000000E-01
                      -1.66666667E-01 -3.33333333E-01 -3.33333333E-01
                       0.00000000E+00 -1.66666667E-01  0.00000000E+00
                       1.66666667E-01 -1.66666667E-01  1.66666667E-01
                       3.33333333E-01 -1.66666667E-01  3.33333333E-01
                       5.00000000E-01 -1.66666667E-01  5.00000000E-01
                      -3.33333333E-01 -1.66666667E-01 -3.33333333E-01
                      -1.66666667E-01 -1.66666667E-01 -1.66666667E-01
                       5.00000000E-01  0.00000000E+00  0.00000000E+00
                      -3.33333333E-01  0.00000000E+00  1.66666667E-01
                      -1.66666667E-01  0.00000000E+00  3.33333333E-01
                       3.33333333E-01  1.66666667E-01  0.00000000E+00
                       5.00000000E-01  1.66666667E-01  1.66666667E-01
                      -3.33333333E-01  1.66666667E-01  3.33333333E-01
                      -1.66666667E-01  1.66666667E-01  5.00000000E-01
                       1.66666667E-01  3.33333333E-01  0.00000000E+00
                       3.33333333E-01  3.33333333E-01  1.66666667E-01
                       5.00000000E-01  3.33333333E-01  3.33333333E-01
                      -3.33333333E-01  3.33333333E-01  5.00000000E-01
                      -1.66666667E-01  3.33333333E-01 -3.33333333E-01
                       0.00000000E+00  5.00000000E-01  0.00000000E+00
                       1.66666667E-01  5.00000000E-01  1.66666667E-01
                       3.33333333E-01  5.00000000E-01  3.33333333E-01
                       5.00000000E-01  5.00000000E-01  5.00000000E-01
              kpt4    -1.66666667E-01 -3.33333333E-01  0.00000000E+00
                      -3.33333333E-01 -1.66666667E-01  0.00000000E+00
                      -1.66666667E-01 -1.66666667E-01  1.66666667E-01
                      -1.66666667E-01  3.33333333E-01  0.00000000E+00
                      -3.33333333E-01  5.00000000E-01  0.00000000E+00
                      -1.66666667E-01  5.00000000E-01  1.66666667E-01
                       5.00000000E-01 -3.33333333E-01  0.00000000E+00
                      -3.33333333E-01 -3.33333333E-01  1.66666667E-01
                      -1.66666667E-01 -3.33333333E-01  3.33333333E-01
                       3.33333333E-01 -1.66666667E-01  0.00000000E+00
                       5.00000000E-01 -1.66666667E-01  1.66666667E-01
                      -3.33333333E-01 -1.66666667E-01  3.33333333E-01
                      -1.66666667E-01 -1.66666667E-01  5.00000000E-01
                      -1.66666667E-01  0.00000000E+00  0.00000000E+00
                      -3.33333333E-01  1.66666667E-01  0.00000000E+00
                      -1.66666667E-01  1.66666667E-01  1.66666667E-01
                       5.00000000E-01  3.33333333E-01  0.00000000E+00
                      -3.33333333E-01  3.33333333E-01  1.66666667E-01
                      -1.66666667E-01  3.33333333E-01  3.33333333E-01
                       3.33333333E-01  5.00000000E-01  0.00000000E+00
                       5.00000000E-01  5.00000000E-01  1.66666667E-01
                      -3.33333333E-01  5.00000000E-01  3.33333333E-01
                      -1.66666667E-01  5.00000000E-01  5.00000000E-01
                       1.66666667E-01 -3.33333333E-01  0.00000000E+00
                       3.33333333E-01 -3.33333333E-01  1.66666667E-01
                       5.00000000E-01 -3.33333333E-01  3.33333333E-01
                      -3.33333333E-01 -3.33333333E-01  5.00000000E-01
                      -1.66666667E-01 -3.33333333E-01 -3.33333333E-01
                       0.00000000E+00 -1.66666667E-01  0.00000000E+00
                       1.66666667E-01 -1.66666667E-01  1.66666667E-01
                       3.33333333E-01 -1.66666667E-01  3.33333333E-01
                       5.00000000E-01 -1.66666667E-01  5.00000000E-01
                      -3.33333333E-01 -1.66666667E-01 -3.33333333E-01
                      -1.66666667E-01 -1.66666667E-01 -1.66666667E-01
                       5.00000000E-01  0.00000000E+00  0.00000000E+00
                      -3.33333333E-01  0.00000000E+00  1.66666667E-01
                      -1.66666667E-01  0.00000000E+00  3.33333333E-01
                       3.33333333E-01  1.66666667E-01  0.00000000E+00
                       5.00000000E-01  1.66666667E-01  1.66666667E-01
                      -3.33333333E-01  1.66666667E-01  3.33333333E-01
                      -1.66666667E-01  1.66666667E-01  5.00000000E-01
                       1.66666667E-01  3.33333333E-01  0.00000000E+00
                       3.33333333E-01  3.33333333E-01  1.66666667E-01
                       5.00000000E-01  3.33333333E-01  3.33333333E-01
                      -3.33333333E-01  3.33333333E-01  5.00000000E-01
                      -1.66666667E-01  3.33333333E-01 -3.33333333E-01
                       0.00000000E+00  5.00000000E-01  0.00000000E+00
                       1.66666667E-01  5.00000000E-01  1.66666667E-01
                       3.33333333E-01  5.00000000E-01  3.33333333E-01
                       5.00000000E-01  5.00000000E-01  5.00000000E-01
                       outvar_i_n : Printing only first  50 k-points.
           kptopt1          1
           kptopt2          2
           kptopt3          3
           kptopt4          3
         kptrlatt        3   -3    3     -3    3    3     -3   -3    3
          kptrlen      3.13166428E+01
P           mkmem1          6
P           mkmem2         56
P           mkmem3        108
P           mkmem4        108
P          mkqmem1          6
P          mkqmem2         56
P          mkqmem3        108
P          mkqmem4        108
P          mk1mem1          6
P          mk1mem2         56
P          mk1mem3        108
P          mk1mem4        108
            natom           1
            nband1         10
            nband2         10
            nband3         10
            nband4         10
           nbdbuf           2
           ndtset           4
            ngfft          12      12      12
             nkpt1          6
             nkpt2         56
             nkpt3        108
             nkpt4        108
             nqpt1          0
             nqpt2          1
             nqpt3          1
             nqpt4          1
            nstep          10
             nsym          48
           ntypat           1
              occ1     2.000000  2.000000  2.000000  2.000000  0.000000  0.000000
                       0.000000  0.000000  0.000000  0.000000
              occ2     2.000000  2.000000  2.000000  2.000000  0.000000  0.000000
                       0.000000  0.000000  0.000000  0.000000
              occ4     2.000000  2.000000  2.000000  2.000000  0.000000  0.000000
                       0.000000  0.000000  0.000000  0.000000
        optdriver1          0
        optdriver2          1
        optdriver3          0
        optdriver4          1
           prtpot1          0
           prtpot2          1
           prtpot3          0
           prtpot4          1
              qpt1     0.00000000E+00  0.00000000E+00  0.00000000E+00
              qpt2     0.00000000E+00  0.00000000E+00  0.00000000E+00
              qpt3     0.00000000E+00  0.00000000E+00  5.00000000E-01
              qpt4     0.00000000E+00  0.00000000E+00  5.00000000E-01
           rfphon1          0
           rfphon2          1
           rfphon3          0
           rfphon4          1
            rprim      0.0000000000E+00  5.0000000000E-01  5.0000000000E-01
                       5.0000000000E-01  0.0000000000E+00  5.0000000000E-01
                       5.0000000000E-01  5.0000000000E-01  0.0000000000E+00
           shiftk      5.00000000E-01  5.00000000E-01  5.00000000E-01
          spgroup         225
           symrel      1  0  0   0  1  0   0  0  1      -1  0  0   0 -1  0   0  0 -1
                       0 -1  1   0 -1  0   1 -1  0       0  1 -1   0  1  0  -1  1  0
                      -1  0  0  -1  0  1  -1  1  0       1  0  0   1  0 -1   1 -1  0
                       0  1 -1   1  0 -1   0  0 -1       0 -1  1  -1  0  1   0  0  1
                      -1  0  0  -1  1  0  -1  0  1       1  0  0   1 -1  0   1  0 -1
                       0 -1  1   1 -1  0   0 -1  0       0  1 -1  -1  1  0   0  1  0
                       1  0  0   0  0  1   0  1  0      -1  0  0   0  0 -1   0 -1  0
                       0  1 -1   0  0 -1   1  0 -1       0 -1  1   0  0  1  -1  0  1
                      -1  0  1  -1  1  0  -1  0  0       1  0 -1   1 -1  0   1  0  0
                       0 -1  0   1 -1  0   0 -1  1       0  1  0  -1  1  0   0  1 -1
                       1  0 -1   0  0 -1   0  1 -1      -1  0  1   0  0  1   0 -1  1
                       0  1  0   0  0  1   1  0  0       0 -1  0   0  0 -1  -1  0  0
                       1  0 -1   0  1 -1   0  0 -1      -1  0  1   0 -1  1   0  0  1
                       0 -1  0   0 -1  1   1 -1  0       0  1  0   0  1 -1  -1  1  0
                      -1  0  1  -1  0  0  -1  1  0       1  0 -1   1  0  0   1 -1  0
                       0  1  0   1  0  0   0  0  1       0 -1  0  -1  0  0   0  0 -1
                       0  0 -1   0  1 -1   1  0 -1       0  0  1   0 -1  1  -1  0  1
                       1 -1  0   0 -1  1   0 -1  0      -1  1  0   0  1 -1   0  1  0
                       0  0  1   1  0  0   0  1  0       0  0 -1  -1  0  0   0 -1  0
                      -1  1  0  -1  0  0  -1  0  1       1 -1  0   1  0  0   1  0 -1
                       0  0  1   0  1  0   1  0  0       0  0 -1   0 -1  0  -1  0  0
                       1 -1  0   0 -1  0   0 -1  1      -1  1  0   0  1  0   0  1 -1
                       0  0 -1   1  0 -1   0  1 -1       0  0  1  -1  0  1   0 -1  1
                      -1  1  0  -1  0  1  -1  0  0       1 -1  0   1  0 -1   1  0  0
            tnons      0.0000000  0.0000000  0.0000000    -0.0000000  0.0000000  0.5000000
                      -0.2500000  0.2500000  0.2500000     0.2500000 -0.2500000  0.2500000
                       0.2500000 -0.2500000  0.2500000    -0.2500000  0.2500000  0.2500000
                      -0.0000000  0.0000000  0.5000000     0.0000000  0.0000000  0.0000000
                       0.2500000  0.0000000  0.0000000    -0.2500000  0.0000000  0.5000000
                      -0.0000000  0.2500000  0.2500000     0.0000000 -0.2500000  0.2500000
                       0.0000000 -0.2500000  0.2500000    -0.0000000  0.2500000  0.2500000
                      -0.2500000  0.0000000  0.5000000     0.2500000  0.0000000  0.0000000
                       0.2500000  0.0000000  0.2500000    -0.2500000  0.0000000  0.2500000
                      -0.0000000  0.2500000  0.0000000     0.0000000 -0.2500000  0.5000000
                       0.0000000 -0.2500000  0.5000000    -0.0000000  0.2500000  0.0000000
                      -0.2500000  0.0000000  0.2500000     0.2500000  0.0000000  0.2500000
                       0.0000000  0.0000000  0.5000000    -0.0000000  0.0000000  0.0000000
                      -0.2500000  0.2500000  0.2500000     0.2500000 -0.2500000  0.2500000
                       0.2500000 -0.2500000  0.2500000    -0.2500000  0.2500000  0.2500000
                      -0.0000000  0.0000000  0.0000000     0.0000000  0.0000000  0.5000000
                      -0.2500000  0.0000000  0.5000000     0.2500000  0.0000000  0.0000000
                       0.0000000  0.2500000  0.2500000    -0.0000000 -0.2500000  0.2500000
                      -0.0000000 -0.2500000  0.2500000     0.0000000  0.2500000  0.2500000
                       0.2500000  0.0000000  0.0000000    -0.2500000  0.0000000  0.5000000
                      -0.2500000  0.0000000  0.2500000     0.2500000  0.0000000  0.2500000
                       0.0000000  0.2500000  0.0000000    -0.0000000 -0.2500000  0.5000000
                      -0.0000000 -0.2500000  0.5000000     0.0000000  0.2500000  0.0000000
                       0.2500000  0.0000000  0.2500000    -0.2500000  0.0000000  0.2500000
           tolvrs1     1.00000000E-18
           tolvrs2     1.00000000E-16
           tolvrs3     0.00000000E+00
           tolvrs4     1.00000000E-16
           tolwfr1     0.00000000E+00
           tolwfr2     0.00000000E+00
           tolwfr3     1.00000000E-24
           tolwfr4     0.00000000E+00
            typat      1
           vdw_xc           7
              wtk1       0.22222    0.22222    0.22222    0.22222    0.07407    0.03704
              wtk2       0.01852    0.01852    0.01852    0.01852    0.01852    0.01852
                         0.01852    0.01852    0.01852    0.01852    0.01852    0.01852
                         0.01852    0.01852    0.01852    0.01852    0.01852    0.01852
                         0.01852    0.01852    0.01852    0.01852    0.01852    0.01852
                         0.01852    0.01852    0.01852    0.01852    0.01852    0.01852
                         0.00926    0.01852    0.01852    0.01852    0.01852    0.01852
                         0.01852    0.01852    0.01852    0.01852    0.00926    0.01852
                         0.01852    0.00926    0.01852    0.01852    0.01852    0.01852
                         0.01852    0.01852
              wtk3       0.00926    0.00926    0.00926    0.00926    0.00926    0.00926
                         0.00926    0.00926    0.00926    0.00926    0.00926    0.00926
                         0.00926    0.00926    0.00926    0.00926    0.00926    0.00926
                         0.00926    0.00926    0.00926    0.00926    0.00926    0.00926
                         0.00926    0.00926    0.00926    0.00926    0.00926    0.00926
                         0.00926    0.00926    0.00926    0.00926    0.00926    0.00926
                         0.00926    0.00926    0.00926    0.00926    0.00926    0.00926
                         0.00926    0.00926    0.00926    0.00926    0.00926    0.00926
                         0.00926    0.00926
              wtk4       0.00926    0.00926    0.00926    0.00926    0.00926    0.00926
                         0.00926    0.00926    0.00926    0.00926    0.00926    0.00926
                         0.00926    0.00926    0.00926    0.00926    0.00926    0.00926
                         0.00926    0.00926    0.00926    0.00926    0.00926    0.00926
                         0.00926    0.00926    0.00926    0.00926    0.00926    0.00926
                         0.00926    0.00926    0.00926    0.00926    0.00926    0.00926
                         0.00926    0.00926    0.00926    0.00926    0.00926    0.00926
                         0.00926    0.00926    0.00926    0.00926    0.00926    0.00926
                         0.00926    0.00926
                       outvars : Printing only first  50 k-points.
           xangst      6.9050223769E-01  6.9050223769E-01 -3.4649716527E-34
            xcart      1.3048601186E+00  1.3048601186E+00 -6.5478474576E-34
             xred     -3.8630816239E-18  3.8630816239E-18  2.5000000000E-01
            znucl       18.00000

================================================================================

 chkinp: Checking input parameters for consistency, jdtset=   1.

 chkinp: Checking input parameters for consistency, jdtset=   2.

 chkinp: Checking input parameters for consistency, jdtset=   3.

 chkinp: Checking input parameters for consistency, jdtset=   4.

================================================================================
== DATASET  1 ==================================================================
-   mpi_nproc: 1, omp_nthreads: -1 (-1 if OMP is not activated)


--- !DatasetInfo
iteration_state: {dtset: 1, }
dimensions: {natom: 1, nkpt: 6, mband: 10, nsppol: 1, nspinor: 1, nspden: 1, mpw: 73, }
cutoff_energies: {ecut:   3.0, pawecutdg:  -1.0, }
electrons: {nelect:   8.00000000E+00, charge:   0.00000000E+00, occopt:   1.00000000E+00, tsmear:   1.00000000E-02, }
meta: {optdriver: 0, ionmov: 0, optcell: 0, iscf: 7, paral_kgb: 0, }
...

 Exchange-correlation functional for the present dataset will be:
  GGA: Perdew-Burke-Ernzerhof functional - ixc=11
 Citation for XC functional:
  J.P.Perdew, K.Burke, M.Ernzerhof, PRL 77, 3865 (1996)

 Real(R)+Recip(G) space primitive vectors, cartesian coordinates (Bohr,Bohr^-1):
 R(1)=  0.0000000  5.2194405  5.2194405  G(1)= -0.0957957  0.0957957  0.0957957
 R(2)=  5.2194405  0.0000000  5.2194405  G(2)=  0.0957957 -0.0957957  0.0957957
 R(3)=  5.2194405  5.2194405  0.0000000  G(3)=  0.0957957  0.0957957 -0.0957957
 Unit cell volume ucvol=  2.8438183E+02 bohr^3
 Angles (23,13,12)=  6.00000000E+01  6.00000000E+01  6.00000000E+01 degrees

 getcut: wavevector=  0.0000  0.0000  0.0000  ngfft=  12  12  12
         ecut(hartree)=      3.000   => boxcut(ratio)=   2.08505

--- Pseudopotential description ------------------------------------------------
- pspini: atom type   1  psp file is /home/buildbot/ABINIT3/eos_gnu_13.2_mpich/trunk__codata2022/tests/Pspdir/18ar.revpbe
- pspatm: opening atomic psp file    /home/buildbot/ABINIT3/eos_gnu_13.2_mpich/trunk__codata2022/tests/Pspdir/18ar.revpbe
-   Ar  APE 1.0 : Troullier-Martins scheme, Perdew-Wang LDA, llocal= 1
- 18.00000   8.00000  20100419                znucl, zion, pspdat
    6    7    1    1       800   0.00000      pspcod,pspxc,lmax,lloc,mmax,r2well
    0.00000000000000    0.00000000000000    0.00000000000000   rchrg,fchrg,qchrg
  1.018841          amesh (Hamman grid)
  pspatm : epsatm=   16.71504544
         --- l  ekb(1:nproj) -->
             0    1.363104
 pspatm: atomic psp has been read  and splines computed

   1.33720364E+02                                ecore*ucvol(ha*bohr**3)
--------------------------------------------------------------------------------

_setup2: Arith. and geom. avg. npw (full set) are      70.963      70.896

================================================================================

--- !BeginCycle
iteration_state: {dtset: 1, }
solver: {iscf: 7, nstep: 10, nline: 4, wfoptalg: 0, }
tolerances: {tolvrs: 1.00E-18, }
...

     iter   Etot(hartree)      deltaE(h)  residm     vres2
 ETOT  1  -20.025417320014    -2.003E+01 2.107E-03 2.492E+01
 ETOT  2  -20.129051622284    -1.036E-01 1.315E-05 8.336E-01
 ETOT  3  -20.130387603440    -1.336E-03 1.079E-04 6.495E-03
 ETOT  4  -20.130396757565    -9.154E-06 9.206E-07 1.166E-04
 ETOT  5  -20.130396790073    -3.251E-08 1.966E-08 4.334E-06
 ETOT  6  -20.130396791624    -1.551E-09 1.429E-09 1.441E-08
 ETOT  7  -20.130396791628    -3.613E-12 4.350E-12 1.270E-10
 ETOT  8  -20.130396791628     7.105E-14 3.235E-14 5.268E-13
 ETOT  9  -20.130396791628    -3.624E-13 6.127E-17 6.063E-16
 ETOT 10  -20.130396791628     2.522E-13 6.411E-20 2.201E-18

 Cartesian components of stress tensor (hartree/bohr^3)
  sigma(1 1)=  2.32568591E-06  sigma(3 2)=  0.00000000E+00
  sigma(2 2)=  2.32568591E-06  sigma(3 1)=  0.00000000E+00
  sigma(3 3)=  2.32568591E-06  sigma(2 1)=  0.00000000E+00


 scprqt:  WARNING -
  nstep=   10 was not enough SCF cycles to converge;
  potential residual=  2.201E-18 exceeds tolvrs=  1.000E-18


--- !ResultsGS
iteration_state: {dtset: 1, }
comment   : Summary of ground state results
lattice_vectors:
- [  0.0000000,   5.2194405,   5.2194405, ]
- [  5.2194405,   0.0000000,   5.2194405, ]
- [  5.2194405,   5.2194405,   0.0000000, ]
lattice_lengths: [   7.38140,    7.38140,    7.38140, ]
lattice_angles: [ 60.000,  60.000,  60.000, ] # degrees, (23, 13, 12)
lattice_volume:   2.8438183E+02
convergence: {deltae:  2.522E-13, res2:  2.201E-18, residm:  6.411E-20, diffor: null, }
etotal    :  -2.01303968E+01
entropy   :   0.00000000E+00
fermie    :  -2.28419380E-01
cartesian_stress_tensor: # hartree/bohr^3
- [  2.32568591E-06,   0.00000000E+00,   0.00000000E+00, ]
- [  0.00000000E+00,   2.32568591E-06,   0.00000000E+00, ]
- [  0.00000000E+00,   0.00000000E+00,   2.32568591E-06, ]
pressure_GPa:  -6.8424E-02
xred      :
- [ -3.8631E-18,   3.8631E-18,   2.5000E-01, Ar]
cartesian_forces: # hartree/bohr
- [ -0.00000000E+00,  -0.00000000E+00,  -0.00000000E+00, ]
force_length_stats: {min:   0.00000000E+00, max:   0.00000000E+00, mean:   0.00000000E+00, }
...

 Integrated electronic density in atomic spheres:
 ------------------------------------------------
 Atom  Sphere_radius  Integrated_density
    1        2.00000          5.39740160
================================================================================

 ----iterations are completed or convergence reached----

 Mean square residual over all n,k,spin=   11.392E-21; max=  64.107E-21
 reduced coordinates (array xred) for    1 atoms
      -0.000000000000      0.000000000000      0.250000000000
 rms dE/dt=  0.0000E+00; max dE/dt=  0.0000E+00; dE/dt below (all hartree)
    1       0.000000000000      0.000000000000      0.000000000000

 cartesian coordinates (angstrom) at end:
    1      0.69050223769102     0.69050223769102    -0.00000000000000

 cartesian forces (hartree/bohr) at end:
    1     -0.00000000000000    -0.00000000000000    -0.00000000000000
 frms,max,avg= 0.0000000E+00 0.0000000E+00   0.000E+00  0.000E+00  0.000E+00 h/b

 cartesian forces (eV/Angstrom) at end:
    1     -0.00000000000000    -0.00000000000000    -0.00000000000000
 frms,max,avg= 0.0000000E+00 0.0000000E+00   0.000E+00  0.000E+00  0.000E+00 e/A
 length scales= 10.438880948500 10.438880948500 10.438880948500 bohr
              =  5.524017901528  5.524017901528  5.524017901528 angstroms
 prteigrs : about to open file t98o_DS1_EIG
 Fermi (or HOMO) energy (hartree) =  -0.22842   Average Vxc (hartree)=  -0.24700
 Eigenvalues (hartree) for nkpt=   6  k points:
 kpt#   1, nband= 10, wtk=  0.22222, kpt= -0.1667 -0.3333  0.0000 (reduced coord)
  -1.01389   -0.25291   -0.23063   -0.22850    0.14024    0.30185    0.34230    0.40678
   0.45205    0.53687
 prteigrs : prtvol=0 or 1, do not print more k-points.


--- !EnergyTerms
iteration_state     : {dtset: 1, }
comment             : Components of total free energy in Hartree
kinetic             :  6.12410115549922E+00
hartree             :  4.07018118191272E+00
xc                  : -3.31384252268602E+00
Ewald energy        : -1.40547235949390E+01
psp_core            :  4.70214162861624E-01
local_psp           : -1.43953017208909E+01
non_local_psp       :  9.71661246335769E-01
VdWaals_dft_d       : -2.68669972132247E-03
total_energy        : -2.01303967916279E+01
total_energy_eV     : -5.47776002381843E+02
band_energy         : -3.46085580061229E+00
...


 Cartesian components of stress tensor (hartree/bohr^3)
  sigma(1 1)=  2.32568591E-06  sigma(3 2)=  0.00000000E+00
  sigma(2 2)=  2.32568591E-06  sigma(3 1)=  0.00000000E+00
  sigma(3 3)=  2.32568591E-06  sigma(2 1)=  0.00000000E+00

-Cartesian components of stress tensor (GPa)         [Pressure= -6.8424E-02 GPa]
- sigma(1 1)=  6.84240417E-02  sigma(3 2)=  0.00000000E+00
- sigma(2 2)=  6.84240417E-02  sigma(3 1)=  0.00000000E+00
- sigma(3 3)=  6.84240417E-02  sigma(2 1)=  0.00000000E+00

================================================================================
== DATASET  2 ==================================================================
-   mpi_nproc: 1, omp_nthreads: -1 (-1 if OMP is not activated)


--- !DatasetInfo
iteration_state: {dtset: 2, }
dimensions: {natom: 1, nkpt: 56, mband: 10, nsppol: 1, nspinor: 1, nspden: 1, mpw: 73, }
cutoff_energies: {ecut:   3.0, pawecutdg:  -1.0, }
electrons: {nelect:   8.00000000E+00, charge:   0.00000000E+00, occopt:   1.00000000E+00, tsmear:   1.00000000E-02, }
meta: {optdriver: 1, rfphon: 1, }
...

 mkfilename : getwfk/=0, take file _WFK from output of DATASET   1.

 Exchange-correlation functional for the present dataset will be:
  GGA: Perdew-Burke-Ernzerhof functional - ixc=11
 Citation for XC functional:
  J.P.Perdew, K.Burke, M.Ernzerhof, PRL 77, 3865 (1996)

 Real(R)+Recip(G) space primitive vectors, cartesian coordinates (Bohr,Bohr^-1):
 R(1)=  0.0000000  5.2194405  5.2194405  G(1)= -0.0957957  0.0957957  0.0957957
 R(2)=  5.2194405  0.0000000  5.2194405  G(2)=  0.0957957 -0.0957957  0.0957957
 R(3)=  5.2194405  5.2194405  0.0000000  G(3)=  0.0957957  0.0957957 -0.0957957
 Unit cell volume ucvol=  2.8438183E+02 bohr^3
 Angles (23,13,12)=  6.00000000E+01  6.00000000E+01  6.00000000E+01 degrees
 setup1 : take into account q-point for computing boxcut.

 getcut: wavevector=  0.0000  0.0000  0.0000  ngfft=  12  12  12
         ecut(hartree)=      3.000   => boxcut(ratio)=   2.08505
--------------------------------------------------------------------------------


 ==>  initialize data related to q vector <== 

 The list of irreducible perturbations for this q vector is:
    1)    idir= 1    ipert=   1

================================================================================

 The perturbation idir=   2  ipert=   1 is
 symmetric of a previously calculated perturbation.
 So, its SCF calculation is not needed.


 The perturbation idir=   3  ipert=   1 is
 symmetric of a previously calculated perturbation.
 So, its SCF calculation is not needed.


--------------------------------------------------------------------------------
 Perturbation wavevector (in red.coord.)   0.000000  0.000000  0.000000
 Perturbation : displacement of atom   1   along direction   1
 Found     4 symmetries that leave the perturbation invariant.
 symkpt : the number of k-points, thanks to the symmetries,
 is reduced to    20 .

--------------------------------------------------------------------------------

--------------------------------------------------------------------------------

 Initialisation of the first-order wave-functions :
  ireadwf=   0

--- !BeginCycle
iteration_state: {dtset: 2, }
solver: {iscf: 7, nstep: 10, nline: 4, wfoptalg: 0, }
tolerances: {tolvrs: 1.00E-16, }
...

     iter   2DEtotal(Ha)        deltaE(Ha) residm    vres2
-ETOT  1   125.90566500818     -2.694E+02 2.392E+00 1.560E+04
 ETOT  2   3.9861729735340     -1.219E+02 2.396E-01 5.326E+02
 ETOT  3  6.83248392633864E-02 -3.918E+00 4.279E-03 2.125E+00
 ETOT  4  6.47811943869279E-02 -3.544E-03 1.503E-05 2.921E-02
 ETOT  5  6.47276430871848E-02 -5.355E-05 2.397E-07 3.326E-04
 ETOT  6  6.47273300185880E-02 -3.131E-07 1.774E-09 1.162E-06
 ETOT  7  6.47273283170939E-02 -1.701E-09 1.123E-11 4.398E-09
 ETOT  8  6.47273283151613E-02 -1.933E-12 6.154E-14 9.527E-12
 ETOT  9  6.47273283131717E-02 -1.990E-12 1.992E-16 1.522E-15
 ETOT 10  6.47273283187424E-02  5.571E-12 1.307E-19 4.639E-18

 At SCF step   10       vres2   =  4.64E-18 < tolvrs=  1.00E-16 =>converged.
================================================================================

 ----iterations are completed or convergence reached----

 Mean square residual over all n,k,spin=   36.223E-22; max=  13.071E-20

 Fourteen components of 2nd-order total energy (hartree) are
 1,2,3: 0th-order hamiltonian combined with 1st-order wavefunctions
     kin0=   2.04230872E+02 eigvalue=   3.19658990E+01  local=  -7.43540163E+01
 4,5,6: 1st-order hamiltonian combined with 1st and 0th-order wfs
 loc psp =  -7.36034531E+02  Hartree=   1.90634864E+02     xc=  -5.18667017E+01
 note that "loc psp" includes a xc core correction that could be resolved
 7,8,9: eventually, occupation + non-local contributions
    edocc=   9.04592051E+01     enl0=   4.13026042E+00   enl1=  -5.43662334E+01
 1-9 gives the relaxation energy (to be shifted if some occ is /=2.0)
   erelax=  -3.95200382E+02
 10,11,12 Non-relaxation  contributions : frozen-wavefunctions and Ewald
 fr.local=   3.68045461E+02 fr.nonlo=   2.72196480E+01  Ewald=   0.00000000E+00
 13,14 Frozen wf xc core corrections (1) and (2)
 frxc 1  =   0.00000000E+00  frxc 2 =   0.00000000E+00
 15 Contribution from van der Waals DFT-D: evdw =   0.00000000E+00
 Resulting in :
 2DEtotal=    0.6472732832E-01 Ha. Also 2DEtotal=    0.176132033155E+01 eV
    (2DErelax=   -3.9520038196E+02 Ha. 2DEnonrelax=    3.9526510928E+02 Ha)
    (  non-var. 2DEtotal :    6.4727328736E-02 Ha)

================================================================================

 ---- first-order wavefunction calculations are completed ----


 ==> Compute Derivative Database <==
  
  2nd-order matrix (non-cartesian coordinates, masses not included,
   asr not included )
     j1       j2             matrix element
  dir pert dir pert     real part     imaginary part
  
   1    1   1    1         0.0647273287         0.0000000000
   1    1   2    1         0.0323636644         0.0000000000
   1    1   3    1         0.0323636644         0.0000000000
   1    1   2    3         0.0000000000         0.0000000000
   1    1   3    3         0.0000000000         0.0000000000
  
   2    1   1    1         0.0323636644         0.0000000000
   2    1   2    1         0.0647273287         0.0000000000
   2    1   3    1         0.0323636644         0.0000000000
   2    1   1    3         0.0000000000         0.0000000000
   2    1   3    3         0.0000000000         0.0000000000
  
   3    1   1    1         0.0323636644         0.0000000000
   3    1   2    1         0.0323636644         0.0000000000
   3    1   3    1         0.0647273287         0.0000000000
   3    1   1    3         0.0000000000         0.0000000000
   3    1   2    3         0.0000000000         0.0000000000
  
   1    3   2    1         0.0000000000         0.0000000000
   1    3   3    1         0.0000000000         0.0000000000
  
   2    3   1    1         0.0000000000         0.0000000000
   2    3   3    1         0.0000000000         0.0000000000
  
   3    3   1    1         0.0000000000         0.0000000000
   3    3   2    1         0.0000000000         0.0000000000
  
  
  Dynamical matrix, in cartesian coordinates,
   if specified in the inputs, asr has been imposed
     j1       j2             matrix element
  dir pert dir pert     real part    imaginary part
  
   1    1   1    1         0.0000000000         0.0000000000
   1    1   2    1         0.0000000000         0.0000000000
   1    1   3    1         0.0000000000         0.0000000000
  
   2    1   1    1         0.0000000000         0.0000000000
   2    1   2    1         0.0000000000         0.0000000000
   2    1   3    1         0.0000000000         0.0000000000
  
   3    1   1    1         0.0000000000         0.0000000000
   3    1   2    1         0.0000000000         0.0000000000
   3    1   3    1         0.0000000000         0.0000000000

  Phonon wavevector (reduced coordinates) :  0.00000  0.00000  0.00000
 Phonon energies in Hartree :
   0.000000E+00  0.000000E+00  0.000000E+00
 Phonon frequencies in cm-1    :
-  0.000000E+00  0.000000E+00  0.000000E+00

================================================================================
== DATASET  3 ==================================================================
-   mpi_nproc: 1, omp_nthreads: -1 (-1 if OMP is not activated)


--- !DatasetInfo
iteration_state: {dtset: 3, }
dimensions: {natom: 1, nkpt: 108, mband: 10, nsppol: 1, nspinor: 1, nspden: 1, mpw: 76, }
cutoff_energies: {ecut:   3.0, pawecutdg:  -1.0, }
electrons: {nelect:   8.00000000E+00, charge:   0.00000000E+00, occopt:   1.00000000E+00, tsmear:   1.00000000E-02, }
meta: {optdriver: 0, ionmov: 0, optcell: 0, iscf: -2, paral_kgb: 0, }
...

 mkfilename : getden/=0, take file _DEN from output of DATASET   1.

 Exchange-correlation functional for the present dataset will be:
  GGA: Perdew-Burke-Ernzerhof functional - ixc=11
 Citation for XC functional:
  J.P.Perdew, K.Burke, M.Ernzerhof, PRL 77, 3865 (1996)

 Real(R)+Recip(G) space primitive vectors, cartesian coordinates (Bohr,Bohr^-1):
 R(1)=  0.0000000  5.2194405  5.2194405  G(1)= -0.0957957  0.0957957  0.0957957
 R(2)=  5.2194405  0.0000000  5.2194405  G(2)=  0.0957957 -0.0957957  0.0957957
 R(3)=  5.2194405  5.2194405  0.0000000  G(3)=  0.0957957  0.0957957 -0.0957957
 Unit cell volume ucvol=  2.8438183E+02 bohr^3
 Angles (23,13,12)=  6.00000000E+01  6.00000000E+01  6.00000000E+01 degrees

 getcut: wavevector=  0.0000  0.0000  0.0000  ngfft=  12  12  12
         ecut(hartree)=      3.000   => boxcut(ratio)=   2.08505
--------------------------------------------------------------------------------


================================================================================
 prteigrs : about to open file t98o_DS3_EIG
 Non-SCF case, kpt    1 ( -0.16667 -0.33333  0.50000), residuals and eigenvalues=
  6.77E-25  2.88E-25  7.82E-26  7.23E-25  3.28E-25  1.93E-25  2.46E-26  2.01E-25
  1.32E-25  3.25E-18
 -1.0113E+00 -2.5508E-01 -2.3204E-01 -2.2903E-01  1.9702E-01  2.9545E-01
  2.9548E-01  4.1964E-01  4.7615E-01  5.4247E-01
 prteigrs : prtvol=0 or 1, do not print more k-points.

  prteigrs : nnsclo,ikpt=   10   35 max resid (excl. the buffer)=  7.51556E-22
  prteigrs : nnsclo,ikpt=   10   47 max resid (excl. the buffer)=  3.07558E-21
  prteigrs : nnsclo,ikpt=   10   50 max resid (excl. the buffer)=  5.93748E-23


 scprqt:  WARNING -
  nstep=   10 was not enough non-SCF iterations to converge;
  maximum residual=  3.076E-21 exceeds tolwfr=  1.000E-24


--- !ResultsGS
iteration_state: {dtset: 3, }
comment   : Summary of ground state results
lattice_vectors:
- [  0.0000000,   5.2194405,   5.2194405, ]
- [  5.2194405,   0.0000000,   5.2194405, ]
- [  5.2194405,   5.2194405,   0.0000000, ]
lattice_lengths: [   7.38140,    7.38140,    7.38140, ]
lattice_angles: [ 60.000,  60.000,  60.000, ] # degrees, (23, 13, 12)
lattice_volume:   2.8438183E+02
convergence: {deltae:  0.000E+00, res2:  0.000E+00, residm:  3.076E-21, diffor:  0.000E+00, }
etotal    :  -2.01303968E+01
entropy   :   0.00000000E+00
fermie    :  -2.28419380E-01
cartesian_stress_tensor: null
pressure_GPa: null
xred      :
- [ -3.8631E-18,   3.8631E-18,   2.5000E-01, Ar]
cartesian_forces: null
force_length_stats: {min: null, max: null, mean: null, }
...

 Integrated electronic density in atomic spheres:
 ------------------------------------------------
 Atom  Sphere_radius  Integrated_density
    1        2.00000          5.39740160
================================================================================

 ----iterations are completed or convergence reached----

 Mean square residual over all n,k,spin=   48.326E-25; max=  30.756E-22
 reduced coordinates (array xred) for    1 atoms
      -0.000000000000      0.000000000000      0.250000000000

 cartesian coordinates (angstrom) at end:
    1      0.69050223769102     0.69050223769102    -0.00000000000000
 length scales= 10.438880948500 10.438880948500 10.438880948500 bohr
              =  5.524017901528  5.524017901528  5.524017901528 angstroms
 prteigrs : about to open file t98o_DS3_EIG
 Eigenvalues (hartree) for nkpt= 108  k points:
 kpt#   1, nband= 10, wtk=  0.00926, kpt= -0.1667 -0.3333  0.5000 (reduced coord)
  -1.01132   -0.25508   -0.23204   -0.22903    0.19702    0.29545    0.29548    0.41964
   0.47615    0.54247
 prteigrs : prtvol=0 or 1, do not print more k-points.


================================================================================
== DATASET  4 ==================================================================
-   mpi_nproc: 1, omp_nthreads: -1 (-1 if OMP is not activated)


--- !DatasetInfo
iteration_state: {dtset: 4, }
dimensions: {natom: 1, nkpt: 108, mband: 10, nsppol: 1, nspinor: 1, nspden: 1, mpw: 76, }
cutoff_energies: {ecut:   3.0, pawecutdg:  -1.0, }
electrons: {nelect:   8.00000000E+00, charge:   0.00000000E+00, occopt:   1.00000000E+00, tsmear:   1.00000000E-02, }
meta: {optdriver: 1, rfphon: 1, }
...

 mkfilename : getwfk/=0, take file _WFK from output of DATASET   1.

 mkfilename: getwfq from: t98o_DS3_WFQ

 Exchange-correlation functional for the present dataset will be:
  GGA: Perdew-Burke-Ernzerhof functional - ixc=11
 Citation for XC functional:
  J.P.Perdew, K.Burke, M.Ernzerhof, PRL 77, 3865 (1996)

 Real(R)+Recip(G) space primitive vectors, cartesian coordinates (Bohr,Bohr^-1):
 R(1)=  0.0000000  5.2194405  5.2194405  G(1)= -0.0957957  0.0957957  0.0957957
 R(2)=  5.2194405  0.0000000  5.2194405  G(2)=  0.0957957 -0.0957957  0.0957957
 R(3)=  5.2194405  5.2194405  0.0000000  G(3)=  0.0957957  0.0957957 -0.0957957
 Unit cell volume ucvol=  2.8438183E+02 bohr^3
 Angles (23,13,12)=  6.00000000E+01  6.00000000E+01  6.00000000E+01 degrees
 setup1 : take into account q-point for computing boxcut.

 getcut: wavevector=  0.0000  0.0000  0.5000  ngfft=  12  12  12
         ecut(hartree)=      3.000   => boxcut(ratio)=   1.91524

--- Pseudopotential description ------------------------------------------------
- pspini: atom type   1  psp file is /home/buildbot/ABINIT3/eos_gnu_13.2_mpich/trunk__codata2022/tests/Pspdir/18ar.revpbe
- pspatm: opening atomic psp file    /home/buildbot/ABINIT3/eos_gnu_13.2_mpich/trunk__codata2022/tests/Pspdir/18ar.revpbe
-   Ar  APE 1.0 : Troullier-Martins scheme, Perdew-Wang LDA, llocal= 1
- 18.00000   8.00000  20100419                znucl, zion, pspdat
    6    7    1    1       800   0.00000      pspcod,pspxc,lmax,lloc,mmax,r2well
    0.00000000000000    0.00000000000000    0.00000000000000   rchrg,fchrg,qchrg
  1.018841          amesh (Hamman grid)
  pspatm : epsatm=   16.71504544
         --- l  ekb(1:nproj) -->
             0    1.363104
 pspatm: atomic psp has been read  and splines computed

--------------------------------------------------------------------------------


 ==>  initialize data related to q vector <== 

 The list of irreducible perturbations for this q vector is:
    1)    idir= 1    ipert=   1
    2)    idir= 3    ipert=   1

================================================================================

 The perturbation idir=   2  ipert=   1 is
 symmetric of a previously calculated perturbation.
 So, its SCF calculation is not needed.


--------------------------------------------------------------------------------
 Perturbation wavevector (in red.coord.)   0.000000  0.000000  0.500000
 Perturbation : displacement of atom   1   along direction   1
 The set of symmetries contains only one element for this perturbation.
 symkpt : not enough symmetry to change the number of k points.

--------------------------------------------------------------------------------

--------------------------------------------------------------------------------

 Initialisation of the first-order wave-functions :
  ireadwf=   0

--- !BeginCycle
iteration_state: {dtset: 4, }
solver: {iscf: 7, nstep: 10, nline: 4, wfoptalg: 0, }
tolerances: {tolvrs: 1.00E-16, }
...

     iter   2DEtotal(Ha)        deltaE(Ha) residm    vres2
-ETOT  1   141.26951170345     -2.610E+02 2.184E+00 1.891E+04
 ETOT  2   4.1418240239530     -1.371E+02 1.920E-01 6.554E+02
 ETOT  3 -0.43897857421439     -4.581E+00 4.247E-03 3.362E+00
 ETOT  4 -0.44517177567627     -6.193E-03 1.001E-04 3.833E-02
 ETOT  5 -0.44527580250940     -1.040E-04 1.110E-06 1.822E-04
 ETOT  6 -0.44527601901177     -2.165E-07 2.312E-08 9.515E-07
 ETOT  7 -0.44527602021594     -1.204E-09 3.924E-10 1.439E-08
 ETOT  8 -0.44527602025425     -3.837E-11 9.189E-12 9.583E-10
 ETOT  9 -0.44527602025925     -4.945E-12 1.366E-13 2.431E-12
 ETOT 10 -0.44527602025675      2.444E-12 3.408E-15 1.368E-14

 scprqt:  WARNING -
  nstep=   10 was not enough SCF cycles to converge;
  potential residual=  1.368E-14 exceeds tolvrs=  1.000E-16

================================================================================

 ----iterations are completed or convergence reached----

 Mean square residual over all n,k,spin=   17.155E-18; max=  34.078E-16

 Fourteen components of 2nd-order total energy (hartree) are
 1,2,3: 0th-order hamiltonian combined with 1st-order wavefunctions
     kin0=   2.07308857E+02 eigvalue=   3.25592599E+01  local=  -7.61665299E+01
 4,5,6: 1st-order hamiltonian combined with 1st and 0th-order wfs
 loc psp =  -7.50863911E+02  Hartree=   1.98099911E+02     xc=  -5.21720001E+01
 note that "loc psp" includes a xc core correction that could be resolved
 7,8,9: eventually, occupation + non-local contributions
    edocc=   8.91422787E+01     enl0=   3.97476774E+00   enl1=  -5.46291776E+01
 1-9 gives the relaxation energy (to be shifted if some occ is /=2.0)
   erelax=  -4.02746544E+02
 10,11,12 Non-relaxation  contributions : frozen-wavefunctions and Ewald
 fr.local=   3.68045461E+02 fr.nonlo=   2.72196480E+01  Ewald=   7.03392406E+00
 13,14 Frozen wf xc core corrections (1) and (2)
 frxc 1  =   0.00000000E+00  frxc 2 =   0.00000000E+00
 15 Contribution from van der Waals DFT-D: evdw =   2.23507147E-03
 Resulting in :
 2DEtotal=   -0.4452760203E+00 Ha. Also 2DEtotal=   -0.121165777733E+02 eV
    (2DErelax=   -4.0274654444E+02 Ha. 2DEnonrelax=    4.0230126842E+02 Ha)
    (  non-var. 2DEtotal :   -4.4527599880E-01 Ha)


--------------------------------------------------------------------------------
 Perturbation wavevector (in red.coord.)   0.000000  0.000000  0.500000
 Perturbation : displacement of atom   1   along direction   3
 Found     2 symmetries that leave the perturbation invariant.
 symkpt : the number of k-points, thanks to the symmetries,
 is reduced to    63 .

--------------------------------------------------------------------------------

--------------------------------------------------------------------------------

 Initialisation of the first-order wave-functions :
  ireadwf=   0

--- !BeginCycle
iteration_state: {dtset: 4, }
solver: {iscf: 7, nstep: 10, nline: 4, wfoptalg: 0, }
tolerances: {tolvrs: 1.00E-16, }
...

     iter   2DEtotal(Ha)        deltaE(Ha) residm    vres2
-ETOT  1   574.03241099492      8.309E+01 2.517E+00 1.942E+05
 ETOT  2   39.132950816844     -5.349E+02 6.787E-01 9.464E+03
 ETOT  3  -1.0674182224630     -4.020E+01 2.746E-02 3.567E+02
 ETOT  4  -1.6833932848152     -6.160E-01 9.975E-04 2.874E+00
 ETOT  5  -1.6902315889980     -6.838E-03 3.989E-05 8.788E-02
 ETOT  6  -1.6903495613170     -1.180E-04 1.774E-06 1.390E-03
 ETOT  7  -1.6903504429309     -8.816E-07 4.091E-08 3.051E-05
 ETOT  8  -1.6903504822032     -3.927E-08 4.354E-10 1.675E-07
 ETOT  9  -1.6903504824462     -2.430E-10 1.584E-11 2.338E-10
 ETOT 10  -1.6903504824409      5.343E-12 8.646E-14 7.541E-12

 scprqt:  WARNING -
  nstep=   10 was not enough SCF cycles to converge;
  potential residual=  7.541E-12 exceeds tolvrs=  1.000E-16

================================================================================

 ----iterations are completed or convergence reached----

 Mean square residual over all n,k,spin=   49.232E-17; max=  86.465E-15

 Fourteen components of 2nd-order total energy (hartree) are
 1,2,3: 0th-order hamiltonian combined with 1st-order wavefunctions
     kin0=   2.05697870E+02 eigvalue=   3.21365897E+01  local=  -7.56682273E+01
 4,5,6: 1st-order hamiltonian combined with 1st and 0th-order wfs
 loc psp =  -9.30464158E+02  Hartree=   2.88069207E+02     xc=  -5.28606494E+01
 note that "loc psp" includes a xc core correction that could be resolved
 7,8,9: eventually, occupation + non-local contributions
    edocc=   9.13782902E+01     enl0=   3.87790624E+00   enl1=  -5.47978176E+01
 1-9 gives the relaxation energy (to be shifted if some occ is /=2.0)
   erelax=  -4.92630989E+02
 10,11,12 Non-relaxation  contributions : frozen-wavefunctions and Ewald
 fr.local=   3.68045461E+02 fr.nonlo=   2.72196480E+01  Ewald=   9.56907164E+01
 13,14 Frozen wf xc core corrections (1) and (2)
 frxc 1  =   0.00000000E+00  frxc 2 =   0.00000000E+00
 15 Contribution from van der Waals DFT-D: evdw =  -1.51868367E-02
 Resulting in :
 2DEtotal=   -0.1690350482E+01 Ha. Also 2DEtotal=   -0.459967798688E+02 eV
    (2DErelax=   -4.9263098934E+02 Ha. 2DEnonrelax=    4.9094063886E+02 Ha)
    (  non-var. 2DEtotal :   -1.6903491270E+00 Ha)

================================================================================

 ---- first-order wavefunction calculations are completed ----


 ==> Compute Derivative Database <==
  
  2nd-order matrix (non-cartesian coordinates, masses not included,
   asr not included )
     j1       j2             matrix element
  dir pert dir pert     real part     imaginary part
  
   1    1   1    1        -0.4454647463         0.0000000000
   1    1   2    1        -0.2227323731         0.0000000000
   1    1   3    1        -0.2227323731         0.0000000000
  
   2    1   1    1        -0.2227323731         0.0000000000
   2    1   2    1        -0.4454647463         0.0000000000
   2    1   3    1        -0.2227323731         0.0000000000
  
   3    1   1    1        -0.2227323731         0.0000000000
   3    1   2    1        -0.2227323731         0.0000000000
   3    1   3    1        -1.6905695376        -0.0000061349
  
  
  Dynamical matrix, in cartesian coordinates,
   if specified in the inputs, asr has been imposed
     j1       j2             matrix element
  dir pert dir pert     real part    imaginary part
  
   1    1   1    1        -0.0196019975        -0.0000000563
   1    1   2    1        -0.0114260999        -0.0000000563
   1    1   3    1         0.0114260999         0.0000000563
  
   2    1   1    1        -0.0114260999        -0.0000000563
   2    1   2    1        -0.0196019975        -0.0000000563
   2    1   3    1         0.0114260999         0.0000000563
  
   3    1   1    1         0.0114260999         0.0000000563
   3    1   2    1         0.0114260999         0.0000000563
   3    1   3    1        -0.0196019975        -0.0000000563

  Phonon wavevector (reduced coordinates) :  0.00000  0.00000  0.50000
 Phonon energies in Hartree :
  -7.635417E-04 -3.350736E-04 -3.350736E-04
 Phonon frequencies in cm-1    :
- -1.675780E+02 -7.354014E+01 -7.354014E+01

== END DATASET(S) ==============================================================
================================================================================
  
 -outvars: echo values of variables after computation  --------
            acell      1.0438880948E+01  1.0438880948E+01  1.0438880948E+01 Bohr
              amu      3.99480000E+01
           diemac      3.00000000E+00
             ecut      3.00000000E+00 Hartree
           ecutsm      5.00000000E-01 Hartree
           etotal1    -2.0130396792E+01
           etotal2     6.4727328319E-02
           etotal4    -1.6903504824E+00
            fcart1    -0.0000000000E+00 -0.0000000000E+00 -0.0000000000E+00
            fcart2     0.0000000000E+00  0.0000000000E+00  0.0000000000E+00
            fcart4     0.0000000000E+00  0.0000000000E+00  0.0000000000E+00
-          fftalg         512
           getden1          0
           getden2          0
           getden3          1
           getden4          0
           getwfk1          0
           getwfk2          1
           getwfk3          0
           getwfk4          1
             iscf1          7
             iscf2          7
             iscf3         -2
             iscf4          7
           istwfk1       0    0    0    0    0    3
           istwfk2       0    0    0    0    0    0    0    0    0    0
                         0    0    0    0    0    0    0    0    0    0
                         0    0    0    0    0    0    0    0    0    0
                         1    0    0    0    0    0    0    0    0    0
                         1    0    0    1    0    0    0    0    0    0
           istwfk3       0    0    0    0    0    0    0    0    0    0
                         0    0    0    0    0    0    0    0    0    0
                         0    0    0    0    0    0    0    0    0    0
                         0    0    0    0    5    0    0    0    0    0
                         0    0    0    0    0    0    8    0    0    0
           istwfk4       0    0    0    0    0    0    0    0    0    0
                         0    0    0    0    0    0    0    0    0    0
                         0    0    0    0    0    0    0    0    0    0
                         0    0    0    0    1    0    0    0    0    0
                         0    0    0    0    0    0    1    0    0    1
                       outvar_i_n : Printing only first  50 k-points.
              ixc          11
           jdtset        1    2    3    4
              kpt1    -1.66666667E-01 -3.33333333E-01  0.00000000E+00
                      -1.66666667E-01  3.33333333E-01  0.00000000E+00
                      -3.33333333E-01  5.00000000E-01  0.00000000E+00
                      -1.66666667E-01  5.00000000E-01  1.66666667E-01
                      -1.66666667E-01  0.00000000E+00  0.00000000E+00
                       5.00000000E-01  0.00000000E+00  0.00000000E+00
              kpt2    -1.66666667E-01 -3.33333333E-01  0.00000000E+00
                      -3.33333333E-01 -1.66666667E-01  0.00000000E+00
                      -1.66666667E-01 -1.66666667E-01  1.66666667E-01
                      -1.66666667E-01  3.33333333E-01  0.00000000E+00
                      -3.33333333E-01  5.00000000E-01  0.00000000E+00
                      -1.66666667E-01  5.00000000E-01  1.66666667E-01
                       5.00000000E-01 -3.33333333E-01  0.00000000E+00
                      -3.33333333E-01 -3.33333333E-01  1.66666667E-01
                      -1.66666667E-01 -3.33333333E-01  3.33333333E-01
                       3.33333333E-01 -1.66666667E-01  0.00000000E+00
                       5.00000000E-01 -1.66666667E-01  1.66666667E-01
                      -3.33333333E-01 -1.66666667E-01  3.33333333E-01
                      -1.66666667E-01 -1.66666667E-01  5.00000000E-01
                      -1.66666667E-01  0.00000000E+00  0.00000000E+00
                      -1.66666667E-01  1.66666667E-01  1.66666667E-01
                      -3.33333333E-01  3.33333333E-01  1.66666667E-01
                      -1.66666667E-01  3.33333333E-01  3.33333333E-01
                       5.00000000E-01  5.00000000E-01  1.66666667E-01
                      -3.33333333E-01  5.00000000E-01  3.33333333E-01
                      -1.66666667E-01  5.00000000E-01  5.00000000E-01
                       3.33333333E-01 -3.33333333E-01  1.66666667E-01
                       5.00000000E-01 -3.33333333E-01  3.33333333E-01
                      -3.33333333E-01 -3.33333333E-01  5.00000000E-01
                      -1.66666667E-01 -3.33333333E-01 -3.33333333E-01
                       0.00000000E+00 -1.66666667E-01  0.00000000E+00
                       1.66666667E-01 -1.66666667E-01  1.66666667E-01
                       3.33333333E-01 -1.66666667E-01  3.33333333E-01
                       5.00000000E-01 -1.66666667E-01  5.00000000E-01
                      -3.33333333E-01 -1.66666667E-01 -3.33333333E-01
                      -1.66666667E-01 -1.66666667E-01 -1.66666667E-01
                       5.00000000E-01  0.00000000E+00  0.00000000E+00
                      -3.33333333E-01  0.00000000E+00  1.66666667E-01
                      -1.66666667E-01  0.00000000E+00  3.33333333E-01
                       5.00000000E-01  1.66666667E-01  1.66666667E-01
                      -3.33333333E-01  1.66666667E-01  3.33333333E-01
                      -1.66666667E-01  1.66666667E-01  5.00000000E-01
                       3.33333333E-01  3.33333333E-01  1.66666667E-01
                       5.00000000E-01  3.33333333E-01  3.33333333E-01
                      -3.33333333E-01  3.33333333E-01  5.00000000E-01
                      -1.66666667E-01  3.33333333E-01 -3.33333333E-01
                       0.00000000E+00  5.00000000E-01  0.00000000E+00
                       1.66666667E-01  5.00000000E-01  1.66666667E-01
                       3.33333333E-01  5.00000000E-01  3.33333333E-01
                       5.00000000E-01  5.00000000E-01  5.00000000E-01
                       0.00000000E+00 -3.33333333E-01  1.66666667E-01
                       0.00000000E+00 -1.66666667E-01  3.33333333E-01
                       3.33333333E-01  0.00000000E+00  1.66666667E-01
                       5.00000000E-01  0.00000000E+00  3.33333333E-01
                      -3.33333333E-01  0.00000000E+00  5.00000000E-01
                      -1.66666667E-01  0.00000000E+00 -3.33333333E-01
              kpt3    -1.66666667E-01 -3.33333333E-01  0.00000000E+00
                      -3.33333333E-01 -1.66666667E-01  0.00000000E+00
                      -1.66666667E-01 -1.66666667E-01  1.66666667E-01
                      -1.66666667E-01  3.33333333E-01  0.00000000E+00
                      -3.33333333E-01  5.00000000E-01  0.00000000E+00
                      -1.66666667E-01  5.00000000E-01  1.66666667E-01
                       5.00000000E-01 -3.33333333E-01  0.00000000E+00
                      -3.33333333E-01 -3.33333333E-01  1.66666667E-01
                      -1.66666667E-01 -3.33333333E-01  3.33333333E-01
                       3.33333333E-01 -1.66666667E-01  0.00000000E+00
                       5.00000000E-01 -1.66666667E-01  1.66666667E-01
                      -3.33333333E-01 -1.66666667E-01  3.33333333E-01
                      -1.66666667E-01 -1.66666667E-01  5.00000000E-01
                      -1.66666667E-01  0.00000000E+00  0.00000000E+00
                      -3.33333333E-01  1.66666667E-01  0.00000000E+00
                      -1.66666667E-01  1.66666667E-01  1.66666667E-01
                       5.00000000E-01  3.33333333E-01  0.00000000E+00
                      -3.33333333E-01  3.33333333E-01  1.66666667E-01
                      -1.66666667E-01  3.33333333E-01  3.33333333E-01
                       3.33333333E-01  5.00000000E-01  0.00000000E+00
                       5.00000000E-01  5.00000000E-01  1.66666667E-01
                      -3.33333333E-01  5.00000000E-01  3.33333333E-01
                      -1.66666667E-01  5.00000000E-01  5.00000000E-01
                       1.66666667E-01 -3.33333333E-01  0.00000000E+00
                       3.33333333E-01 -3.33333333E-01  1.66666667E-01
                       5.00000000E-01 -3.33333333E-01  3.33333333E-01
                      -3.33333333E-01 -3.33333333E-01  5.00000000E-01
                      -1.66666667E-01 -3.33333333E-01 -3.33333333E-01
                       0.00000000E+00 -1.66666667E-01  0.00000000E+00
                       1.66666667E-01 -1.66666667E-01  1.66666667E-01
                       3.33333333E-01 -1.66666667E-01  3.33333333E-01
                       5.00000000E-01 -1.66666667E-01  5.00000000E-01
                      -3.33333333E-01 -1.66666667E-01 -3.33333333E-01
                      -1.66666667E-01 -1.66666667E-01 -1.66666667E-01
                       5.00000000E-01  0.00000000E+00  0.00000000E+00
                      -3.33333333E-01  0.00000000E+00  1.66666667E-01
                      -1.66666667E-01  0.00000000E+00  3.33333333E-01
                       3.33333333E-01  1.66666667E-01  0.00000000E+00
                       5.00000000E-01  1.66666667E-01  1.66666667E-01
                      -3.33333333E-01  1.66666667E-01  3.33333333E-01
                      -1.66666667E-01  1.66666667E-01  5.00000000E-01
                       1.66666667E-01  3.33333333E-01  0.00000000E+00
                       3.33333333E-01  3.33333333E-01  1.66666667E-01
                       5.00000000E-01  3.33333333E-01  3.33333333E-01
                      -3.33333333E-01  3.33333333E-01  5.00000000E-01
                      -1.66666667E-01  3.33333333E-01 -3.33333333E-01
                       0.00000000E+00  5.00000000E-01  0.00000000E+00
                       1.66666667E-01  5.00000000E-01  1.66666667E-01
                       3.33333333E-01  5.00000000E-01  3.33333333E-01
                       5.00000000E-01  5.00000000E-01  5.00000000E-01
              kpt4    -1.66666667E-01 -3.33333333E-01  0.00000000E+00
                      -3.33333333E-01 -1.66666667E-01  0.00000000E+00
                      -1.66666667E-01 -1.66666667E-01  1.66666667E-01
                      -1.66666667E-01  3.33333333E-01  0.00000000E+00
                      -3.33333333E-01  5.00000000E-01  0.00000000E+00
                      -1.66666667E-01  5.00000000E-01  1.66666667E-01
                       5.00000000E-01 -3.33333333E-01  0.00000000E+00
                      -3.33333333E-01 -3.33333333E-01  1.66666667E-01
                      -1.66666667E-01 -3.33333333E-01  3.33333333E-01
                       3.33333333E-01 -1.66666667E-01  0.00000000E+00
                       5.00000000E-01 -1.66666667E-01  1.66666667E-01
                      -3.33333333E-01 -1.66666667E-01  3.33333333E-01
                      -1.66666667E-01 -1.66666667E-01  5.00000000E-01
                      -1.66666667E-01  0.00000000E+00  0.00000000E+00
                      -3.33333333E-01  1.66666667E-01  0.00000000E+00
                      -1.66666667E-01  1.66666667E-01  1.66666667E-01
                       5.00000000E-01  3.33333333E-01  0.00000000E+00
                      -3.33333333E-01  3.33333333E-01  1.66666667E-01
                      -1.66666667E-01  3.33333333E-01  3.33333333E-01
                       3.33333333E-01  5.00000000E-01  0.00000000E+00
                       5.00000000E-01  5.00000000E-01  1.66666667E-01
                      -3.33333333E-01  5.00000000E-01  3.33333333E-01
                      -1.66666667E-01  5.00000000E-01  5.00000000E-01
                       1.66666667E-01 -3.33333333E-01  0.00000000E+00
                       3.33333333E-01 -3.33333333E-01  1.66666667E-01
                       5.00000000E-01 -3.33333333E-01  3.33333333E-01
                      -3.33333333E-01 -3.33333333E-01  5.00000000E-01
                      -1.66666667E-01 -3.33333333E-01 -3.33333333E-01
                       0.00000000E+00 -1.66666667E-01  0.00000000E+00
                       1.66666667E-01 -1.66666667E-01  1.66666667E-01
                       3.33333333E-01 -1.66666667E-01  3.33333333E-01
                       5.00000000E-01 -1.66666667E-01  5.00000000E-01
                      -3.33333333E-01 -1.66666667E-01 -3.33333333E-01
                      -1.66666667E-01 -1.66666667E-01 -1.66666667E-01
                       5.00000000E-01  0.00000000E+00  0.00000000E+00
                      -3.33333333E-01  0.00000000E+00  1.66666667E-01
                      -1.66666667E-01  0.00000000E+00  3.33333333E-01
                       3.33333333E-01  1.66666667E-01  0.00000000E+00
                       5.00000000E-01  1.66666667E-01  1.66666667E-01
                      -3.33333333E-01  1.66666667E-01  3.33333333E-01
                      -1.66666667E-01  1.66666667E-01  5.00000000E-01
                       1.66666667E-01  3.33333333E-01  0.00000000E+00
                       3.33333333E-01  3.33333333E-01  1.66666667E-01
                       5.00000000E-01  3.33333333E-01  3.33333333E-01
                      -3.33333333E-01  3.33333333E-01  5.00000000E-01
                      -1.66666667E-01  3.33333333E-01 -3.33333333E-01
                       0.00000000E+00  5.00000000E-01  0.00000000E+00
                       1.66666667E-01  5.00000000E-01  1.66666667E-01
                       3.33333333E-01  5.00000000E-01  3.33333333E-01
                       5.00000000E-01  5.00000000E-01  5.00000000E-01
                       outvar_i_n : Printing only first  50 k-points.
           kptopt1          1
           kptopt2          2
           kptopt3          3
           kptopt4          3
         kptrlatt        3   -3    3     -3    3    3     -3   -3    3
          kptrlen      3.13166428E+01
P           mkmem1          6
P           mkmem2         56
P           mkmem3        108
P           mkmem4        108
P          mkqmem1          6
P          mkqmem2         56
P          mkqmem3        108
P          mkqmem4        108
P          mk1mem1          6
P          mk1mem2         56
P          mk1mem3        108
P          mk1mem4        108
            natom           1
            nband1         10
            nband2         10
            nband3         10
            nband4         10
           nbdbuf           2
           ndtset           4
            ngfft          12      12      12
             nkpt1          6
             nkpt2         56
             nkpt3        108
             nkpt4        108
             nqpt1          0
             nqpt2          1
             nqpt3          1
             nqpt4          1
            nstep          10
             nsym          48
           ntypat           1
              occ1     2.000000  2.000000  2.000000  2.000000  0.000000  0.000000
                       0.000000  0.000000  0.000000  0.000000
              occ2     2.000000  2.000000  2.000000  2.000000  0.000000  0.000000
                       0.000000  0.000000  0.000000  0.000000
              occ4     2.000000  2.000000  2.000000  2.000000  0.000000  0.000000
                       0.000000  0.000000  0.000000  0.000000
        optdriver1          0
        optdriver2          1
        optdriver3          0
        optdriver4          1
           prtpot1          0
           prtpot2          1
           prtpot3          0
           prtpot4          1
              qpt1     0.00000000E+00  0.00000000E+00  0.00000000E+00
              qpt2     0.00000000E+00  0.00000000E+00  0.00000000E+00
              qpt3     0.00000000E+00  0.00000000E+00  5.00000000E-01
              qpt4     0.00000000E+00  0.00000000E+00  5.00000000E-01
           rfphon1          0
           rfphon2          1
           rfphon3          0
           rfphon4          1
            rprim      0.0000000000E+00  5.0000000000E-01  5.0000000000E-01
                       5.0000000000E-01  0.0000000000E+00  5.0000000000E-01
                       5.0000000000E-01  5.0000000000E-01  0.0000000000E+00
           shiftk      5.00000000E-01  5.00000000E-01  5.00000000E-01
          spgroup         225
           strten1     2.3256859073E-06  2.3256859073E-06  2.3256859073E-06
                       0.0000000000E+00  0.0000000000E+00  0.0000000000E+00
           strten2     0.0000000000E+00  0.0000000000E+00  0.0000000000E+00
                       0.0000000000E+00  0.0000000000E+00  0.0000000000E+00
           strten4     0.0000000000E+00  0.0000000000E+00  0.0000000000E+00
                       0.0000000000E+00  0.0000000000E+00  0.0000000000E+00
           symrel      1  0  0   0  1  0   0  0  1      -1  0  0   0 -1  0   0  0 -1
                       0 -1  1   0 -1  0   1 -1  0       0  1 -1   0  1  0  -1  1  0
                      -1  0  0  -1  0  1  -1  1  0       1  0  0   1  0 -1   1 -1  0
                       0  1 -1   1  0 -1   0  0 -1       0 -1  1  -1  0  1   0  0  1
                      -1  0  0  -1  1  0  -1  0  1       1  0  0   1 -1  0   1  0 -1
                       0 -1  1   1 -1  0   0 -1  0       0  1 -1  -1  1  0   0  1  0
                       1  0  0   0  0  1   0  1  0      -1  0  0   0  0 -1   0 -1  0
                       0  1 -1   0  0 -1   1  0 -1       0 -1  1   0  0  1  -1  0  1
                      -1  0  1  -1  1  0  -1  0  0       1  0 -1   1 -1  0   1  0  0
                       0 -1  0   1 -1  0   0 -1  1       0  1  0  -1  1  0   0  1 -1
                       1  0 -1   0  0 -1   0  1 -1      -1  0  1   0  0  1   0 -1  1
                       0  1  0   0  0  1   1  0  0       0 -1  0   0  0 -1  -1  0  0
                       1  0 -1   0  1 -1   0  0 -1      -1  0  1   0 -1  1   0  0  1
                       0 -1  0   0 -1  1   1 -1  0       0  1  0   0  1 -1  -1  1  0
                      -1  0  1  -1  0  0  -1  1  0       1  0 -1   1  0  0   1 -1  0
                       0  1  0   1  0  0   0  0  1       0 -1  0  -1  0  0   0  0 -1
                       0  0 -1   0  1 -1   1  0 -1       0  0  1   0 -1  1  -1  0  1
                       1 -1  0   0 -1  1   0 -1  0      -1  1  0   0  1 -1   0  1  0
                       0  0  1   1  0  0   0  1  0       0  0 -1  -1  0  0   0 -1  0
                      -1  1  0  -1  0  0  -1  0  1       1 -1  0   1  0  0   1  0 -1
                       0  0  1   0  1  0   1  0  0       0  0 -1   0 -1  0  -1  0  0
                       1 -1  0   0 -1  0   0 -1  1      -1  1  0   0  1  0   0  1 -1
                       0  0 -1   1  0 -1   0  1 -1       0  0  1  -1  0  1   0 -1  1
                      -1  1  0  -1  0  1  -1  0  0       1 -1  0   1  0 -1   1  0  0
            tnons      0.0000000  0.0000000  0.0000000    -0.0000000  0.0000000  0.5000000
                      -0.2500000  0.2500000  0.2500000     0.2500000 -0.2500000  0.2500000
                       0.2500000 -0.2500000  0.2500000    -0.2500000  0.2500000  0.2500000
                      -0.0000000  0.0000000  0.5000000     0.0000000  0.0000000  0.0000000
                       0.2500000  0.0000000  0.0000000    -0.2500000  0.0000000  0.5000000
                      -0.0000000  0.2500000  0.2500000     0.0000000 -0.2500000  0.2500000
                       0.0000000 -0.2500000  0.2500000    -0.0000000  0.2500000  0.2500000
                      -0.2500000  0.0000000  0.5000000     0.2500000  0.0000000  0.0000000
                       0.2500000  0.0000000  0.2500000    -0.2500000  0.0000000  0.2500000
                      -0.0000000  0.2500000  0.0000000     0.0000000 -0.2500000  0.5000000
                       0.0000000 -0.2500000  0.5000000    -0.0000000  0.2500000  0.0000000
                      -0.2500000  0.0000000  0.2500000     0.2500000  0.0000000  0.2500000
                       0.0000000  0.0000000  0.5000000    -0.0000000  0.0000000  0.0000000
                      -0.2500000  0.2500000  0.2500000     0.2500000 -0.2500000  0.2500000
                       0.2500000 -0.2500000  0.2500000    -0.2500000  0.2500000  0.2500000
                      -0.0000000  0.0000000  0.0000000     0.0000000  0.0000000  0.5000000
                      -0.2500000  0.0000000  0.5000000     0.2500000  0.0000000  0.0000000
                       0.0000000  0.2500000  0.2500000    -0.0000000 -0.2500000  0.2500000
                      -0.0000000 -0.2500000  0.2500000     0.0000000  0.2500000  0.2500000
                       0.2500000  0.0000000  0.0000000    -0.2500000  0.0000000  0.5000000
                      -0.2500000  0.0000000  0.2500000     0.2500000  0.0000000  0.2500000
                       0.0000000  0.2500000  0.0000000    -0.0000000 -0.2500000  0.5000000
                      -0.0000000 -0.2500000  0.5000000     0.0000000  0.2500000  0.0000000
                       0.2500000  0.0000000  0.2500000    -0.2500000  0.0000000  0.2500000
           tolvrs1     1.00000000E-18
           tolvrs2     1.00000000E-16
           tolvrs3     0.00000000E+00
           tolvrs4     1.00000000E-16
           tolwfr1     0.00000000E+00
           tolwfr2     0.00000000E+00
           tolwfr3     1.00000000E-24
           tolwfr4     0.00000000E+00
            typat      1
           vdw_xc           7
              wtk1       0.22222    0.22222    0.22222    0.22222    0.07407    0.03704
              wtk2       0.01852    0.01852    0.01852    0.01852    0.01852    0.01852
                         0.01852    0.01852    0.01852    0.01852    0.01852    0.01852
                         0.01852    0.01852    0.01852    0.01852    0.01852    0.01852
                         0.01852    0.01852    0.01852    0.01852    0.01852    0.01852
                         0.01852    0.01852    0.01852    0.01852    0.01852    0.01852
                         0.00926    0.01852    0.01852    0.01852    0.01852    0.01852
                         0.01852    0.01852    0.01852    0.01852    0.00926    0.01852
                         0.01852    0.00926    0.01852    0.01852    0.01852    0.01852
                         0.01852    0.01852
              wtk3       0.00926    0.00926    0.00926    0.00926    0.00926    0.00926
                         0.00926    0.00926    0.00926    0.00926    0.00926    0.00926
                         0.00926    0.00926    0.00926    0.00926    0.00926    0.00926
                         0.00926    0.00926    0.00926    0.00926    0.00926    0.00926
                         0.00926    0.00926    0.00926    0.00926    0.00926    0.00926
                         0.00926    0.00926    0.00926    0.00926    0.00926    0.00926
                         0.00926    0.00926    0.00926    0.00926    0.00926    0.00926
                         0.00926    0.00926    0.00926    0.00926    0.00926    0.00926
                         0.00926    0.00926
              wtk4       0.00926    0.00926    0.00926    0.00926    0.00926    0.00926
                         0.00926    0.00926    0.00926    0.00926    0.00926    0.00926
                         0.00926    0.00926    0.00926    0.00926    0.00926    0.00926
                         0.00926    0.00926    0.00926    0.00926    0.00926    0.00926
                         0.00926    0.00926    0.00926    0.00926    0.00926    0.00926
                         0.00926    0.00926    0.00926    0.00926    0.00926    0.00926
                         0.00926    0.00926    0.00926    0.00926    0.00926    0.00926
                         0.00926    0.00926    0.00926    0.00926    0.00926    0.00926
                         0.00926    0.00926
                       outvars : Printing only first  50 k-points.
           xangst      6.9050223769E-01  6.9050223769E-01 -3.4649716527E-34
            xcart      1.3048601186E+00  1.3048601186E+00 -6.5478474576E-34
             xred     -3.8630816239E-18  3.8630816239E-18  2.5000000000E-01
            znucl       18.00000

================================================================================


- Timing analysis has been suppressed with timopt=0



================================================================================

 Suggested references for the acknowledgment of ABINIT usage.

 The users of ABINIT have little formal obligations with respect to the ABINIT group
 (those specified in the GNU General Public License, http://www.gnu.org/copyleft/gpl.txt).
 However, it is common practice in the scientific literature,
 to acknowledge the efforts of people that have made the research possible.
 In this spirit, please find below suggested citations of work written by ABINIT developers,
 corresponding to implementations inside of ABINIT that you have used in the present run.
 Note also that it will be of great value to readers of publications presenting these results,
 to read papers enabling them to understand the theoretical formalism and details
 of the ABINIT implementation.
 For information on why they are suggested, see also https://docs.abinit.org/theory/acknowledgments.
-
- [1] Interatomic force constants including the DFT-D dispersion contribution
- B. Van Troeye, M. Torrent, and X. Gonze. Phys. Rev. B93, 144304 (2016)
- Comment: in case one of the Van der Waals DFT-D functionals are used with DFPT (dynamical matrices).
- Strong suggestion to cite this paper in your publications.
- DOI and bibtex: see https://docs.abinit.org/theory/bibliography/#vantroeye2016
-
- [2] The Abinit project: Impact, environment and recent developments.
- Computer Phys. Comm. 248, 107042 (2020).
- X.Gonze, B. Amadon, G. Antonius, F.Arnardi, L.Baguet, J.-M.Beuken,
- J.Bieder, F.Bottin, J.Bouchet, E.Bousquet, N.Brouwer, F.Bruneval,
- G.Brunin, T.Cavignac, J.-B. Charraud, Wei Chen, M.Cote, S.Cottenier,
- J.Denier, G.Geneste, Ph.Ghosez, M.Giantomassi, Y.Gillet, O.Gingras,
- D.R.Hamann, G.Hautier, Xu He, N.Helbig, N.Holzwarth, Y.Jia, F.Jollet,
- W.Lafargue-Dit-Hauret, K.Lejaeghere, M.A.L.Marques, A.Martin, C.Martins,
- H.P.C. Miranda, F.Naccarato, K. Persson, G.Petretto, V.Planes, Y.Pouillon,
- S.Prokhorenko, F.Ricci, G.-M.Rignanese, A.H.Romero, M.M.Schmitt, M.Torrent,
- M.J.van Setten, B.Van Troeye, M.J.Verstraete, G.Zerah and J.W.Zwanzig
- Comment: the fifth generic paper describing the ABINIT project.
- Note that a version of this paper, that is not formatted for Computer Phys. Comm. 
- is available at https://www.abinit.org/sites/default/files/ABINIT20.pdf .
- The licence allows the authors to put it on the Web.
- DOI and bibtex: see https://docs.abinit.org/theory/bibliography/#gonze2020
-
- [3] First-principles responses of solids to atomic displacements and homogeneous electric fields:,
- implementation of a conjugate-gradient algorithm. X. Gonze, Phys. Rev. B55, 10337 (1997).
- Comment: Non-vanishing rfphon and/or rfelfd, in the norm-conserving case.
- DOI and bibtex: see https://docs.abinit.org/theory/bibliography/#gonze1997
-
- [4] Dynamical matrices, Born effective charges, dielectric permittivity tensors, and ,
- interatomic force constants from density-functional perturbation theory,
- X. Gonze and C. Lee, Phys. Rev. B55, 10355 (1997).
- Comment: Non-vanishing rfphon and/or rfelfd, in the norm-conserving case.
- DOI and bibtex: see https://docs.abinit.org/theory/bibliography/#gonze1997a
-
- [5] Ab initio pseudopotentials for electronic structure calculations of poly-atomic systems, 
- using density-functional theory.
- M. Fuchs and, M. Scheffler, Comput. Phys. Commun. 119, 67 (1999).
- Comment: Some pseudopotential generated using the FHI code were used.
- DOI and bibtex: see https://docs.abinit.org/theory/bibliography/#fuchs1999
-
- [6] ABINIT: Overview, and focus on selected capabilities
- J. Chem. Phys. 152, 124102 (2020).
- A. Romero, D.C. Allan, B. Amadon, G. Antonius, T. Applencourt, L.Baguet,
- J.Bieder, F.Bottin, J.Bouchet, E.Bousquet, F.Bruneval,
- G.Brunin, D.Caliste, M.Cote,
- J.Denier, C. Dreyer, Ph.Ghosez, M.Giantomassi, Y.Gillet, O.Gingras,
- D.R.Hamann, G.Hautier, F.Jollet, G. Jomard,
- A.Martin, 
- H.P.C. Miranda, F.Naccarato, G.Petretto, N.A. Pike, V.Planes,
- S.Prokhorenko, T. Rangel, F.Ricci, G.-M.Rignanese, M.Royo, M.Stengel, M.Torrent,
- M.J.van Setten, B.Van Troeye, M.J.Verstraete, J.Wiktor, J.W.Zwanziger, and X.Gonze.
- Comment: a global overview of ABINIT, with focus on selected capabilities .
- Note that a version of this paper, that is not formatted for J. Chem. Phys 
- is available at https://www.abinit.org/sites/default/files/ABINIT20_JPC.pdf .
- The licence allows the authors to put it on the Web.
- DOI and bibtex: see https://docs.abinit.org/theory/bibliography/#romero2020
-
- [7] Recent developments in the ABINIT software package.
- Computer Phys. Comm. 205, 106 (2016).
- X.Gonze, F.Jollet, F.Abreu Araujo, D.Adams, B.Amadon, T.Applencourt,
- C.Audouze, J.-M.Beuken, J.Bieder, A.Bokhanchuk, E.Bousquet, F.Bruneval
- D.Caliste, M.Cote, F.Dahm, F.Da Pieve, M.Delaveau, M.Di Gennaro,
- B.Dorado, C.Espejo, G.Geneste, L.Genovese, A.Gerossier, M.Giantomassi,
- Y.Gillet, D.R.Hamann, L.He, G.Jomard, J.Laflamme Janssen, S.Le Roux,
- A.Levitt, A.Lherbier, F.Liu, I.Lukacevic, A.Martin, C.Martins,
- M.J.T.Oliveira, S.Ponce, Y.Pouillon, T.Rangel, G.-M.Rignanese,
- A.H.Romero, B.Rousseau, O.Rubel, A.A.Shukri, M.Stankovski, M.Torrent,
- M.J.Van Setten, B.Van Troeye, M.J.Verstraete, D.Waroquier, J.Wiktor,
- B.Xu, A.Zhou, J.W.Zwanziger.
- Comment: the fourth generic paper describing the ABINIT project.
- Note that a version of this paper, that is not formatted for Computer Phys. Comm. 
- is available at https://www.abinit.org/sites/default/files/ABINIT16.pdf .
- The licence allows the authors to put it on the Web.
- DOI and bibtex: see https://docs.abinit.org/theory/bibliography/#gonze2016
-
- Proc.   0 individual time (sec): cpu=          5.7  wall=          5.7

================================================================================

 Calculation completed.
.Delivered  13 WARNINGs and   6 COMMENTs to log file.
+Overall time at end (sec) : cpu=          5.7  wall=          5.7
