Fe    ONCVPSP-3.3.0  r_core=   1.26437   1.20546   1.56719
26.0000     16.0000      180420    zatom,zion,pspd
8      11   2     4   600     0    pspcod,pspxc,lmax,lloc,mmax,r2well
5.99000000  3.00000000  0.00000000    rchrg fchrg qchrg
2     4     2     0    nproj
3     1           extension_switch
4     3     0    nprojso
0                         1.4647941910597D+00  1.0168092022082D+01
1  0.0000000000000D+00  2.2269380783868D-10  8.4388052101758D-13
2  1.0000000000000D-02 -2.8517823244248D-02  9.4993582653950D-02
3  2.0000000000000D-02 -5.6781912326236D-02  1.8969918201095D-01
4  3.0000000000000D-02 -8.4539952816136D-02  2.8382980920857D-01
5  4.0000000000000D-02 -1.1154246132547D-01  3.7710046123367D-01
6  5.0000000000000D-02 -1.3754418002561D-01  4.6922910629713D-01
7  6.0000000000000D-02 -1.6230544612163D-01  5.5993766014683D-01
8  7.0000000000000D-02 -1.8559352819581D-01  6.4895295029625D-01
9  8.0000000000000D-02 -2.0718392155752D-01  7.3600766514478D-01
10  9.0000000000000D-02 -2.2686159501242D-01  8.2084128496681D-01
11  1.0000000000000D-01 -2.4442218179098D-01  9.0320099174889D-01
12  1.1000000000000D-01 -2.5967310775251D-01  9.8284255486009D-01
13  1.2000000000000D-01 -2.7243465040445D-01  1.0595311895510D+00
14  1.3000000000000D-01 -2.8254092274362D-01  1.1330423852924D+00
15  1.4000000000000D-01 -2.8984077643405D-01  1.2031627009874D+00
16  1.5000000000000D-01 -2.9419861938153D-01  1.2696905241222D+00
17  1.6000000000000D-01 -2.9549514334371D-01  1.3324367909611D+00
18  1.7000000000000D-01 -2.9362795782282D-01  1.3912256649432D+00
19  1.8000000000000D-01 -2.8851212712124D-01  1.4458951705038D+00
20  1.9000000000000D-01 -2.8008060809357D-01  1.4962977796191D+00
21  2.0000000000000D-01 -2.6828458679719D-01  1.5423009484689D+00
22  2.1000000000000D-01 -2.5309371292225D-01  1.5837876017179D+00
23  2.2000000000000D-01 -2.3449623156477D-01  1.6206565620429D+00
24  2.3000000000000D-01 -2.1249901258913D-01  1.6528229226763D+00
25  2.4000000000000D-01 -1.8712747850153D-01  1.6802183608960D+00
26  2.5000000000000D-01 -1.5842543241948D-01  1.7027913905710D+00
27  2.6000000000000D-01 -1.2645478836715D-01  1.7205075520683D+00
28  2.7000000000000D-01 -9.1295206748181D-02  1.7333495380427D+00
29  2.8000000000000D-01 -5.3043638439397D-02  1.7413172538620D+00
30  2.9000000000000D-01 -1.1813781506137D-02  1.7444278116678D+00
31  3.0000000000000D-01  3.2264544942447D-02  1.7427154573407D+00
32  3.1000000000000D-01  7.9046104766738D-02  1.7362314299126D+00
33  3.2000000000000D-01  1.2837102126374D-01  1.7250437532651D+00
34  3.3000000000000D-01  1.8006562030187D-01  1.7092369602533D+00
35  3.4000000000000D-01  2.3394333402289D-01  1.6889117497107D+00
36  3.5000000000000D-01  2.8980565875602D-01  1.6641845771075D+00
37  3.6000000000000D-01  3.4744316059457D-01  1.6351871799643D+00
38  3.7000000000000D-01  4.0663652195618D-01  1.6020660394493D+00
39  3.8000000000000D-01  4.6715762238035D-01  1.5649817799159D+00
40  3.9000000000000D-01  5.2877064681471D-01  1.5241085084682D+00
41  4.0000000000000D-01  5.9123321470211D-01  1.4796330969600D+00
42  4.1000000000000D-01  6.5429752330282D-01  1.4317544091508D+00
43  4.2000000000000D-01  7.1771149886775D-01  1.3806824760470D+00
44  4.3000000000000D-01  7.8121994951690D-01  1.3266376227499D+00
45  4.4000000000000D-01  8.4456571396679D-01  1.2698495504100D+00
46  4.5000000000000D-01  9.0749080058919D-01  1.2105563771490D+00
47  4.6000000000000D-01  9.6973751166318D-01  1.1490036420524D+00
48  4.7000000000000D-01  1.0310495480996D+00  1.0854432765576D+00
49  4.8000000000000D-01  1.0911730903625D+00  1.0201325477584D+00
50  4.9000000000000D-01  1.1498578517832D+00  9.5333297832147D-01
51  5.0000000000000D-01  1.2068581009447D+00  8.8530924785709D-01
52  5.1000000000000D-01  1.2619336503087D+00  8.1632808070535D-01
53  5.2000000000000D-01  1.3148508087486D+00  7.4665712519160D-01
54  5.3000000000000D-01  1.3653832961373D+00  6.7656382946775D-01
55  5.4000000000000D-01  1.4133131186033D+00  6.0631431908951D-01
56  5.5000000000000D-01  1.4584314035195D+00  5.3617228148477D-01
57  5.6000000000000D-01  1.5005391936954D+00  4.6639786244361D-01
58  5.7000000000000D-01  1.5394482006261D+00  3.9724657970755D-01
59  5.8000000000000D-01  1.5749815169774D+00  3.2896825865483D-01
60  5.9000000000000D-01  1.6069742887719D+00  2.6180599497001D-01
61  6.0000000000000D-01  1.6352743479657D+00  1.9599514905276D-01
62  6.1000000000000D-01  1.6597428062727D+00  1.3176237676125D-01
63  6.2000000000000D-01  1.6802546112015D+00  6.9324700904300D-02
64  6.3000000000000D-01  1.6966990653098D+00  8.8886276919773D-03
65  6.4000000000000D-01  1.7089803096572D+00 -4.9350687868201D-02
66  6.5000000000000D-01  1.7170177723521D+00 -1.0521022388446D-01
67  6.6000000000000D-01  1.7207465829352D+00 -1.5851981731620D-01
68  6.7000000000000D-01  1.7201179531277D+00 -2.0912283031505D-01
69  6.8000000000000D-01  1.7150995242083D+00 -2.5687675424023D-01
70  6.9000000000000D-01  1.7056756809548D+00 -3.0165374870974D-01
71  7.0000000000000D-01  1.6918478317217D+00 -3.4334111335189D-01
72  7.1000000000000D-01  1.6736346538161D+00 -3.8184169022815D-01
73  7.2000000000000D-01  1.6510723028933D+00 -4.1707419521246D-01
74  7.3000000000000D-01  1.6242145846310D+00 -4.4897347692565D-01
75  7.4000000000000D-01  1.5931330864634D+00 -4.7749070213871D-01
76  7.5000000000000D-01  1.5579172666749D+00 -5.0259346687343D-01
77  7.6000000000000D-01  1.5186744976770D+00 -5.2426583273919D-01
78  7.7000000000000D-01  1.4755300598345D+00 -5.4250828835267D-01
79  7.8000000000000D-01  1.4286270817707D+00 -5.5733763598876D-01
80  7.9000000000000D-01  1.3781264226909D+00 -5.6878680390553D-01
81  8.0000000000000D-01  1.3242064919092D+00 -5.7690458507332D-01
82  8.1000000000000D-01  1.2670630004781D+00 -5.8175530331618D-01
83  8.2000000000000D-01  1.2069086395881D+00 -5.8341840814207D-01
84  8.3000000000000D-01  1.1439726802558D+00 -5.8198799979603D-01
85  8.4000000000000D-01  1.0785004887443D+00 -5.7757228631677D-01
86  8.5000000000000D-01  1.0107529521758D+00 -5.7029297461158D-01
87  8.6000000000000D-01  9.4100580889839D-01 -5.6028459778627D-01
88  8.7000000000000D-01  8.6954887837210D-01 -5.4769378117541D-01
89  8.8000000000000D-01  7.9668518563193D-01 -5.3267844971326D-01
90  8.9000000000000D-01  7.2272997577902D-01 -5.1540697946730D-01
91  9.0000000000000D-01  6.4800961443699D-01 -4.9605729632228D-01
92  9.1000000000000D-01  5.7286037068941D-01 -4.7481592495531D-01
93  9.2000000000000D-01  4.9762707967994D-01 -4.5187699137855D-01
94  9.3000000000000D-01  4.2266168280312D-01 -4.2744118244761D-01
95  9.4000000000000D-01  3.4832164423397D-01 -4.0171466583843D-01
96  9.5000000000000D-01  2.7496824342774D-01 -3.7490797408410D-01
97  9.6000000000000D-01  2.0296474415606D-01 -3.4723485633494D-01
98  9.7000000000000D-01  1.3267444163425D-01 -3.1891110155933D-01
99  9.8000000000000D-01  6.4458590279072D-02 -2.9015333693943D-01
100  9.9000000000000D-01 -1.3257843214952D-03 -2.6117780523464D-01
101  1.0000000000000D+00 -6.4328184631932D-02 -2.3219912488532D-01
102  1.0100000000000D+00 -1.2420704598861D-01 -2.0342903660978D-01
103  1.0200000000000D+00 -1.8063224043936D-01 -1.7507514020890D-01
104  1.0300000000000D+00 -2.3328767210174D-01 -1.4733962523476D-01
105  1.0400000000000D+00 -2.8187395564883D-01 -1.2041799909538D-01
106  1.0500000000000D+00 -3.2611116880043D-01 -9.4497816080251D-02
107  1.0600000000000D+00 -3.6574166890933D-01 -6.9757410656360D-02
108  1.0700000000000D+00 -4.0053296338562D-01 -4.6364638198773D-02
109  1.0800000000000D+00 -4.3028062796963D-01 -2.4475624772827D-02
110  1.0900000000000D+00 -4.5481127916050D-01 -4.2335232243226D-03
111  1.1000000000000D+00 -4.7398509824751D-01  1.4232576150653D-02
112  1.1100000000000D+00 -4.8770046011704D-01  3.0809329749699D-02
113  1.1200000000000D+00 -4.9589189970555D-01  4.5398871231340D-02
114  1.1300000000000D+00 -4.9851858397185D-01  5.7915714733493D-02
115  1.1400000000000D+00 -4.9555226567810D-01  6.8283251721890D-02
116  1.1500000000000D+00 -4.8697589250951D-01  7.6433231350556D-02
117  1.1600000000000D+00 -4.7278535814880D-01  8.2306113120446D-02
118  1.1700000000000D+00 -4.5298977180283D-01  8.5851003551349D-02
119  1.1800000000000D+00 -4.2761203862841D-01  8.7025675781993D-02
120  1.1900000000000D+00 -3.9668937967629D-01  8.5796573584713D-02
121  1.2000000000000D+00 -3.6027377798302D-01  8.2138797860527D-02
122  1.2100000000000D+00 -3.1843235264735D-01  7.6036078330624D-02
123  1.2200000000000D+00 -2.7124393158659D-01  6.7479631468983D-02
124  1.2300000000000D+00 -2.1860435965357D-01  5.6410553193605D-02
125  1.2400000000000D+00 -1.6294388720646D-01  4.3517665083780D-02
126  1.2500000000000D+00 -9.7861639165428D-02  2.6907642174732D-02
127  1.2600000000000D+00 -2.3151604720032D-02  6.5093055517228D-03
128  1.2700000000000D+00  8.6490507598065D-03 -2.3759442853116D-03
129  1.2800000000000D+00 -2.6102257778311D-04  7.1431159146757D-05
130  1.2900000000000D+00 -1.6933283019938D-03  4.6508032288503D-04
131  1.3000000000000D+00  2.5386926766912D-04 -6.8346153576649D-05
132  1.3100000000000D+00  2.3226664393534D-05 -6.2613654103600D-06
133  1.3200000000000D+00  9.1019890563823D-07 -3.9394160036914D-07
134  1.3300000000000D+00  0.0000000000000D+00  0.0000000000000D+00
135  1.3400000000000D+00  0.0000000000000D+00  0.0000000000000D+00
136  1.3500000000000D+00  0.0000000000000D+00  0.0000000000000D+00
137  1.3600000000000D+00  0.0000000000000D+00  0.0000000000000D+00
138  1.3700000000000D+00  0.0000000000000D+00  0.0000000000000D+00
139  1.3800000000000D+00  0.0000000000000D+00  0.0000000000000D+00
140  1.3900000000000D+00  0.0000000000000D+00  0.0000000000000D+00
141  1.4000000000000D+00  0.0000000000000D+00  0.0000000000000D+00
142  1.4100000000000D+00  0.0000000000000D+00  0.0000000000000D+00
143  1.4200000000000D+00  0.0000000000000D+00  0.0000000000000D+00
144  1.4300000000000D+00  0.0000000000000D+00  0.0000000000000D+00
145  1.4400000000000D+00  0.0000000000000D+00  0.0000000000000D+00
146  1.4500000000000D+00  0.0000000000000D+00  0.0000000000000D+00
147  1.4600000000000D+00  0.0000000000000D+00  0.0000000000000D+00
148  1.4700000000000D+00  0.0000000000000D+00  0.0000000000000D+00
149  1.4800000000000D+00  0.0000000000000D+00  0.0000000000000D+00
150  1.4900000000000D+00  0.0000000000000D+00  0.0000000000000D+00
151  1.5000000000000D+00  0.0000000000000D+00  0.0000000000000D+00
152  1.5100000000000D+00  0.0000000000000D+00  0.0000000000000D+00
153  1.5200000000000D+00  0.0000000000000D+00  0.0000000000000D+00
154  1.5300000000000D+00  0.0000000000000D+00  0.0000000000000D+00
155  1.5400000000000D+00  0.0000000000000D+00  0.0000000000000D+00
156  1.5500000000000D+00  0.0000000000000D+00  0.0000000000000D+00
157  1.5600000000000D+00  0.0000000000000D+00  0.0000000000000D+00
158  1.5700000000000D+00  0.0000000000000D+00  0.0000000000000D+00
159  1.5800000000000D+00  0.0000000000000D+00  0.0000000000000D+00
160  1.5900000000000D+00  0.0000000000000D+00  0.0000000000000D+00
161  1.6000000000000D+00  0.0000000000000D+00  0.0000000000000D+00
162  1.6100000000000D+00  0.0000000000000D+00  0.0000000000000D+00
163  1.6200000000000D+00  0.0000000000000D+00  0.0000000000000D+00
164  1.6300000000000D+00  0.0000000000000D+00  0.0000000000000D+00
165  1.6400000000000D+00  0.0000000000000D+00  0.0000000000000D+00
166  1.6500000000000D+00  0.0000000000000D+00  0.0000000000000D+00
167  1.6600000000000D+00  0.0000000000000D+00  0.0000000000000D+00
168  1.6700000000000D+00  0.0000000000000D+00  0.0000000000000D+00
169  1.6800000000000D+00  0.0000000000000D+00  0.0000000000000D+00
170  1.6900000000000D+00  0.0000000000000D+00  0.0000000000000D+00
171  1.7000000000000D+00  0.0000000000000D+00  0.0000000000000D+00
172  1.7100000000000D+00  0.0000000000000D+00  0.0000000000000D+00
173  1.7200000000000D+00  0.0000000000000D+00  0.0000000000000D+00
174  1.7300000000000D+00  0.0000000000000D+00  0.0000000000000D+00
175  1.7400000000000D+00  0.0000000000000D+00  0.0000000000000D+00
176  1.7500000000000D+00  0.0000000000000D+00  0.0000000000000D+00
177  1.7600000000000D+00  0.0000000000000D+00  0.0000000000000D+00
178  1.7700000000000D+00  0.0000000000000D+00  0.0000000000000D+00
179  1.7800000000000D+00  0.0000000000000D+00  0.0000000000000D+00
180  1.7900000000000D+00  0.0000000000000D+00  0.0000000000000D+00
181  1.8000000000000D+00  0.0000000000000D+00  0.0000000000000D+00
182  1.8100000000000D+00  0.0000000000000D+00  0.0000000000000D+00
183  1.8200000000000D+00  0.0000000000000D+00  0.0000000000000D+00
184  1.8300000000000D+00  0.0000000000000D+00  0.0000000000000D+00
185  1.8400000000000D+00  0.0000000000000D+00  0.0000000000000D+00
186  1.8500000000000D+00  0.0000000000000D+00  0.0000000000000D+00
187  1.8600000000000D+00  0.0000000000000D+00  0.0000000000000D+00
188  1.8700000000000D+00  0.0000000000000D+00  0.0000000000000D+00
189  1.8800000000000D+00  0.0000000000000D+00  0.0000000000000D+00
190  1.8900000000000D+00  0.0000000000000D+00  0.0000000000000D+00
191  1.9000000000000D+00  0.0000000000000D+00  0.0000000000000D+00
192  1.9100000000000D+00  0.0000000000000D+00  0.0000000000000D+00
193  1.9200000000000D+00  0.0000000000000D+00  0.0000000000000D+00
194  1.9300000000000D+00  0.0000000000000D+00  0.0000000000000D+00
195  1.9400000000000D+00  0.0000000000000D+00  0.0000000000000D+00
196  1.9500000000000D+00  0.0000000000000D+00  0.0000000000000D+00
197  1.9600000000000D+00  0.0000000000000D+00  0.0000000000000D+00
198  1.9700000000000D+00  0.0000000000000D+00  0.0000000000000D+00
199  1.9800000000000D+00  0.0000000000000D+00  0.0000000000000D+00
200  1.9900000000000D+00  0.0000000000000D+00  0.0000000000000D+00
201  2.0000000000000D+00  0.0000000000000D+00  0.0000000000000D+00
202  2.0100000000000D+00  0.0000000000000D+00  0.0000000000000D+00
203  2.0200000000000D+00  0.0000000000000D+00  0.0000000000000D+00
204  2.0300000000000D+00  0.0000000000000D+00  0.0000000000000D+00
205  2.0400000000000D+00  0.0000000000000D+00  0.0000000000000D+00
206  2.0500000000000D+00  0.0000000000000D+00  0.0000000000000D+00
207  2.0600000000000D+00  0.0000000000000D+00  0.0000000000000D+00
208  2.0700000000000D+00  0.0000000000000D+00  0.0000000000000D+00
209  2.0800000000000D+00  0.0000000000000D+00  0.0000000000000D+00
210  2.0900000000000D+00  0.0000000000000D+00  0.0000000000000D+00
211  2.1000000000000D+00  0.0000000000000D+00  0.0000000000000D+00
212  2.1100000000000D+00  0.0000000000000D+00  0.0000000000000D+00
213  2.1200000000000D+00  0.0000000000000D+00  0.0000000000000D+00
214  2.1300000000000D+00  0.0000000000000D+00  0.0000000000000D+00
215  2.1400000000000D+00  0.0000000000000D+00  0.0000000000000D+00
216  2.1500000000000D+00  0.0000000000000D+00  0.0000000000000D+00
217  2.1600000000000D+00  0.0000000000000D+00  0.0000000000000D+00
218  2.1700000000000D+00  0.0000000000000D+00  0.0000000000000D+00
219  2.1800000000000D+00  0.0000000000000D+00  0.0000000000000D+00
220  2.1900000000000D+00  0.0000000000000D+00  0.0000000000000D+00
221  2.2000000000000D+00  0.0000000000000D+00  0.0000000000000D+00
222  2.2100000000000D+00  0.0000000000000D+00  0.0000000000000D+00
223  2.2200000000000D+00  0.0000000000000D+00  0.0000000000000D+00
224  2.2300000000000D+00  0.0000000000000D+00  0.0000000000000D+00
225  2.2400000000000D+00  0.0000000000000D+00  0.0000000000000D+00
226  2.2500000000000D+00  0.0000000000000D+00  0.0000000000000D+00
227  2.2600000000000D+00  0.0000000000000D+00  0.0000000000000D+00
228  2.2700000000000D+00  0.0000000000000D+00  0.0000000000000D+00
229  2.2800000000000D+00  0.0000000000000D+00  0.0000000000000D+00
230  2.2900000000000D+00  0.0000000000000D+00  0.0000000000000D+00
231  2.3000000000000D+00  0.0000000000000D+00  0.0000000000000D+00
232  2.3100000000000D+00  0.0000000000000D+00  0.0000000000000D+00
233  2.3200000000000D+00  0.0000000000000D+00  0.0000000000000D+00
234  2.3300000000000D+00  0.0000000000000D+00  0.0000000000000D+00
235  2.3400000000000D+00  0.0000000000000D+00  0.0000000000000D+00
236  2.3500000000000D+00  0.0000000000000D+00  0.0000000000000D+00
237  2.3600000000000D+00  0.0000000000000D+00  0.0000000000000D+00
238  2.3700000000000D+00  0.0000000000000D+00  0.0000000000000D+00
239  2.3800000000000D+00  0.0000000000000D+00  0.0000000000000D+00
240  2.3900000000000D+00  0.0000000000000D+00  0.0000000000000D+00
241  2.4000000000000D+00  0.0000000000000D+00  0.0000000000000D+00
242  2.4100000000000D+00  0.0000000000000D+00  0.0000000000000D+00
243  2.4200000000000D+00  0.0000000000000D+00  0.0000000000000D+00
244  2.4300000000000D+00  0.0000000000000D+00  0.0000000000000D+00
245  2.4400000000000D+00  0.0000000000000D+00  0.0000000000000D+00
246  2.4500000000000D+00  0.0000000000000D+00  0.0000000000000D+00
247  2.4600000000000D+00  0.0000000000000D+00  0.0000000000000D+00
248  2.4700000000000D+00  0.0000000000000D+00  0.0000000000000D+00
249  2.4800000000000D+00  0.0000000000000D+00  0.0000000000000D+00
250  2.4900000000000D+00  0.0000000000000D+00  0.0000000000000D+00
251  2.5000000000000D+00  0.0000000000000D+00  0.0000000000000D+00
252  2.5100000000000D+00  0.0000000000000D+00  0.0000000000000D+00
253  2.5200000000000D+00  0.0000000000000D+00  0.0000000000000D+00
254  2.5300000000000D+00  0.0000000000000D+00  0.0000000000000D+00
255  2.5400000000000D+00  0.0000000000000D+00  0.0000000000000D+00
256  2.5500000000000D+00  0.0000000000000D+00  0.0000000000000D+00
257  2.5600000000000D+00  0.0000000000000D+00  0.0000000000000D+00
258  2.5700000000000D+00  0.0000000000000D+00  0.0000000000000D+00
259  2.5800000000000D+00  0.0000000000000D+00  0.0000000000000D+00
260  2.5900000000000D+00  0.0000000000000D+00  0.0000000000000D+00
261  2.6000000000000D+00  0.0000000000000D+00  0.0000000000000D+00
262  2.6100000000000D+00  0.0000000000000D+00  0.0000000000000D+00
263  2.6200000000000D+00  0.0000000000000D+00  0.0000000000000D+00
264  2.6300000000000D+00  0.0000000000000D+00  0.0000000000000D+00
265  2.6400000000000D+00  0.0000000000000D+00  0.0000000000000D+00
266  2.6500000000000D+00  0.0000000000000D+00  0.0000000000000D+00
267  2.6600000000000D+00  0.0000000000000D+00  0.0000000000000D+00
268  2.6700000000000D+00  0.0000000000000D+00  0.0000000000000D+00
269  2.6800000000000D+00  0.0000000000000D+00  0.0000000000000D+00
270  2.6900000000000D+00  0.0000000000000D+00  0.0000000000000D+00
271  2.7000000000000D+00  0.0000000000000D+00  0.0000000000000D+00
272  2.7100000000000D+00  0.0000000000000D+00  0.0000000000000D+00
273  2.7200000000000D+00  0.0000000000000D+00  0.0000000000000D+00
274  2.7300000000000D+00  0.0000000000000D+00  0.0000000000000D+00
275  2.7400000000000D+00  0.0000000000000D+00  0.0000000000000D+00
276  2.7500000000000D+00  0.0000000000000D+00  0.0000000000000D+00
277  2.7600000000000D+00  0.0000000000000D+00  0.0000000000000D+00
278  2.7700000000000D+00  0.0000000000000D+00  0.0000000000000D+00
279  2.7800000000000D+00  0.0000000000000D+00  0.0000000000000D+00
280  2.7900000000000D+00  0.0000000000000D+00  0.0000000000000D+00
281  2.8000000000000D+00  0.0000000000000D+00  0.0000000000000D+00
282  2.8100000000000D+00  0.0000000000000D+00  0.0000000000000D+00
283  2.8200000000000D+00  0.0000000000000D+00  0.0000000000000D+00
284  2.8300000000000D+00  0.0000000000000D+00  0.0000000000000D+00
285  2.8400000000000D+00  0.0000000000000D+00  0.0000000000000D+00
286  2.8500000000000D+00  0.0000000000000D+00  0.0000000000000D+00
287  2.8600000000000D+00  0.0000000000000D+00  0.0000000000000D+00
288  2.8700000000000D+00  0.0000000000000D+00  0.0000000000000D+00
289  2.8800000000000D+00  0.0000000000000D+00  0.0000000000000D+00
290  2.8900000000000D+00  0.0000000000000D+00  0.0000000000000D+00
291  2.9000000000000D+00  0.0000000000000D+00  0.0000000000000D+00
292  2.9100000000000D+00  0.0000000000000D+00  0.0000000000000D+00
293  2.9200000000000D+00  0.0000000000000D+00  0.0000000000000D+00
294  2.9300000000000D+00  0.0000000000000D+00  0.0000000000000D+00
295  2.9400000000000D+00  0.0000000000000D+00  0.0000000000000D+00
296  2.9500000000000D+00  0.0000000000000D+00  0.0000000000000D+00
297  2.9600000000000D+00  0.0000000000000D+00  0.0000000000000D+00
298  2.9700000000000D+00  0.0000000000000D+00  0.0000000000000D+00
299  2.9800000000000D+00  0.0000000000000D+00  0.0000000000000D+00
300  2.9900000000000D+00  0.0000000000000D+00  0.0000000000000D+00
301  3.0000000000000D+00  0.0000000000000D+00  0.0000000000000D+00
302  3.0100000000000D+00  0.0000000000000D+00  0.0000000000000D+00
303  3.0200000000000D+00  0.0000000000000D+00  0.0000000000000D+00
304  3.0300000000000D+00  0.0000000000000D+00  0.0000000000000D+00
305  3.0400000000000D+00  0.0000000000000D+00  0.0000000000000D+00
306  3.0500000000000D+00  0.0000000000000D+00  0.0000000000000D+00
307  3.0600000000000D+00  0.0000000000000D+00  0.0000000000000D+00
308  3.0700000000000D+00  0.0000000000000D+00  0.0000000000000D+00
309  3.0800000000000D+00  0.0000000000000D+00  0.0000000000000D+00
310  3.0900000000000D+00  0.0000000000000D+00  0.0000000000000D+00
311  3.1000000000000D+00  0.0000000000000D+00  0.0000000000000D+00
312  3.1100000000000D+00  0.0000000000000D+00  0.0000000000000D+00
313  3.1200000000000D+00  0.0000000000000D+00  0.0000000000000D+00
314  3.1300000000000D+00  0.0000000000000D+00  0.0000000000000D+00
315  3.1400000000000D+00  0.0000000000000D+00  0.0000000000000D+00
316  3.1500000000000D+00  0.0000000000000D+00  0.0000000000000D+00
317  3.1600000000000D+00  0.0000000000000D+00  0.0000000000000D+00
318  3.1700000000000D+00  0.0000000000000D+00  0.0000000000000D+00
319  3.1800000000000D+00  0.0000000000000D+00  0.0000000000000D+00
320  3.1900000000000D+00  0.0000000000000D+00  0.0000000000000D+00
321  3.2000000000000D+00  0.0000000000000D+00  0.0000000000000D+00
322  3.2100000000000D+00  0.0000000000000D+00  0.0000000000000D+00
323  3.2200000000000D+00  0.0000000000000D+00  0.0000000000000D+00
324  3.2300000000000D+00  0.0000000000000D+00  0.0000000000000D+00
325  3.2400000000000D+00  0.0000000000000D+00  0.0000000000000D+00
326  3.2500000000000D+00  0.0000000000000D+00  0.0000000000000D+00
327  3.2600000000000D+00  0.0000000000000D+00  0.0000000000000D+00
328  3.2700000000000D+00  0.0000000000000D+00  0.0000000000000D+00
329  3.2800000000000D+00  0.0000000000000D+00  0.0000000000000D+00
330  3.2900000000000D+00  0.0000000000000D+00  0.0000000000000D+00
331  3.3000000000000D+00  0.0000000000000D+00  0.0000000000000D+00
332  3.3100000000000D+00  0.0000000000000D+00  0.0000000000000D+00
333  3.3200000000000D+00  0.0000000000000D+00  0.0000000000000D+00
334  3.3300000000000D+00  0.0000000000000D+00  0.0000000000000D+00
335  3.3400000000000D+00  0.0000000000000D+00  0.0000000000000D+00
336  3.3500000000000D+00  0.0000000000000D+00  0.0000000000000D+00
337  3.3600000000000D+00  0.0000000000000D+00  0.0000000000000D+00
338  3.3700000000000D+00  0.0000000000000D+00  0.0000000000000D+00
339  3.3800000000000D+00  0.0000000000000D+00  0.0000000000000D+00
340  3.3900000000000D+00  0.0000000000000D+00  0.0000000000000D+00
341  3.4000000000000D+00  0.0000000000000D+00  0.0000000000000D+00
342  3.4100000000000D+00  0.0000000000000D+00  0.0000000000000D+00
343  3.4200000000000D+00  0.0000000000000D+00  0.0000000000000D+00
344  3.4300000000000D+00  0.0000000000000D+00  0.0000000000000D+00
345  3.4400000000000D+00  0.0000000000000D+00  0.0000000000000D+00
346  3.4500000000000D+00  0.0000000000000D+00  0.0000000000000D+00
347  3.4600000000000D+00  0.0000000000000D+00  0.0000000000000D+00
348  3.4700000000000D+00  0.0000000000000D+00  0.0000000000000D+00
349  3.4800000000000D+00  0.0000000000000D+00  0.0000000000000D+00
350  3.4900000000000D+00  0.0000000000000D+00  0.0000000000000D+00
351  3.5000000000000D+00  0.0000000000000D+00  0.0000000000000D+00
352  3.5100000000000D+00  0.0000000000000D+00  0.0000000000000D+00
353  3.5200000000000D+00  0.0000000000000D+00  0.0000000000000D+00
354  3.5300000000000D+00  0.0000000000000D+00  0.0000000000000D+00
355  3.5400000000000D+00  0.0000000000000D+00  0.0000000000000D+00
356  3.5500000000000D+00  0.0000000000000D+00  0.0000000000000D+00
357  3.5600000000000D+00  0.0000000000000D+00  0.0000000000000D+00
358  3.5700000000000D+00  0.0000000000000D+00  0.0000000000000D+00
359  3.5800000000000D+00  0.0000000000000D+00  0.0000000000000D+00
360  3.5900000000000D+00  0.0000000000000D+00  0.0000000000000D+00
361  3.6000000000000D+00  0.0000000000000D+00  0.0000000000000D+00
362  3.6100000000000D+00  0.0000000000000D+00  0.0000000000000D+00
363  3.6200000000000D+00  0.0000000000000D+00  0.0000000000000D+00
364  3.6300000000000D+00  0.0000000000000D+00  0.0000000000000D+00
365  3.6400000000000D+00  0.0000000000000D+00  0.0000000000000D+00
366  3.6500000000000D+00  0.0000000000000D+00  0.0000000000000D+00
367  3.6600000000000D+00  0.0000000000000D+00  0.0000000000000D+00
368  3.6700000000000D+00  0.0000000000000D+00  0.0000000000000D+00
369  3.6800000000000D+00  0.0000000000000D+00  0.0000000000000D+00
370  3.6900000000000D+00  0.0000000000000D+00  0.0000000000000D+00
371  3.7000000000000D+00  0.0000000000000D+00  0.0000000000000D+00
372  3.7100000000000D+00  0.0000000000000D+00  0.0000000000000D+00
373  3.7200000000000D+00  0.0000000000000D+00  0.0000000000000D+00
374  3.7300000000000D+00  0.0000000000000D+00  0.0000000000000D+00
375  3.7400000000000D+00  0.0000000000000D+00  0.0000000000000D+00
376  3.7500000000000D+00  0.0000000000000D+00  0.0000000000000D+00
377  3.7600000000000D+00  0.0000000000000D+00  0.0000000000000D+00
378  3.7700000000000D+00  0.0000000000000D+00  0.0000000000000D+00
379  3.7800000000000D+00  0.0000000000000D+00  0.0000000000000D+00
380  3.7900000000000D+00  0.0000000000000D+00  0.0000000000000D+00
381  3.8000000000000D+00  0.0000000000000D+00  0.0000000000000D+00
382  3.8100000000000D+00  0.0000000000000D+00  0.0000000000000D+00
383  3.8200000000000D+00  0.0000000000000D+00  0.0000000000000D+00
384  3.8300000000000D+00  0.0000000000000D+00  0.0000000000000D+00
385  3.8400000000000D+00  0.0000000000000D+00  0.0000000000000D+00
386  3.8500000000000D+00  0.0000000000000D+00  0.0000000000000D+00
387  3.8600000000000D+00  0.0000000000000D+00  0.0000000000000D+00
388  3.8700000000000D+00  0.0000000000000D+00  0.0000000000000D+00
389  3.8800000000000D+00  0.0000000000000D+00  0.0000000000000D+00
390  3.8900000000000D+00  0.0000000000000D+00  0.0000000000000D+00
391  3.9000000000000D+00  0.0000000000000D+00  0.0000000000000D+00
392  3.9100000000000D+00  0.0000000000000D+00  0.0000000000000D+00
393  3.9200000000000D+00  0.0000000000000D+00  0.0000000000000D+00
394  3.9300000000000D+00  0.0000000000000D+00  0.0000000000000D+00
395  3.9400000000000D+00  0.0000000000000D+00  0.0000000000000D+00
396  3.9500000000000D+00  0.0000000000000D+00  0.0000000000000D+00
397  3.9600000000000D+00  0.0000000000000D+00  0.0000000000000D+00
398  3.9700000000000D+00  0.0000000000000D+00  0.0000000000000D+00
399  3.9800000000000D+00  0.0000000000000D+00  0.0000000000000D+00
400  3.9900000000000D+00  0.0000000000000D+00  0.0000000000000D+00
401  4.0000000000000D+00  0.0000000000000D+00  0.0000000000000D+00
402  4.0100000000000D+00  0.0000000000000D+00  0.0000000000000D+00
403  4.0200000000000D+00  0.0000000000000D+00  0.0000000000000D+00
404  4.0300000000000D+00  0.0000000000000D+00  0.0000000000000D+00
405  4.0400000000000D+00  0.0000000000000D+00  0.0000000000000D+00
406  4.0500000000000D+00  0.0000000000000D+00  0.0000000000000D+00
407  4.0600000000000D+00  0.0000000000000D+00  0.0000000000000D+00
408  4.0700000000000D+00  0.0000000000000D+00  0.0000000000000D+00
409  4.0800000000000D+00  0.0000000000000D+00  0.0000000000000D+00
410  4.0900000000000D+00  0.0000000000000D+00  0.0000000000000D+00
411  4.1000000000000D+00  0.0000000000000D+00  0.0000000000000D+00
412  4.1100000000000D+00  0.0000000000000D+00  0.0000000000000D+00
413  4.1200000000000D+00  0.0000000000000D+00  0.0000000000000D+00
414  4.1300000000000D+00  0.0000000000000D+00  0.0000000000000D+00
415  4.1400000000000D+00  0.0000000000000D+00  0.0000000000000D+00
416  4.1500000000000D+00  0.0000000000000D+00  0.0000000000000D+00
417  4.1600000000000D+00  0.0000000000000D+00  0.0000000000000D+00
418  4.1700000000000D+00  0.0000000000000D+00  0.0000000000000D+00
419  4.1800000000000D+00  0.0000000000000D+00  0.0000000000000D+00
420  4.1900000000000D+00  0.0000000000000D+00  0.0000000000000D+00
421  4.2000000000000D+00  0.0000000000000D+00  0.0000000000000D+00
422  4.2100000000000D+00  0.0000000000000D+00  0.0000000000000D+00
423  4.2200000000000D+00  0.0000000000000D+00  0.0000000000000D+00
424  4.2300000000000D+00  0.0000000000000D+00  0.0000000000000D+00
425  4.2400000000000D+00  0.0000000000000D+00  0.0000000000000D+00
426  4.2500000000000D+00  0.0000000000000D+00  0.0000000000000D+00
427  4.2600000000000D+00  0.0000000000000D+00  0.0000000000000D+00
428  4.2700000000000D+00  0.0000000000000D+00  0.0000000000000D+00
429  4.2800000000000D+00  0.0000000000000D+00  0.0000000000000D+00
430  4.2900000000000D+00  0.0000000000000D+00  0.0000000000000D+00
431  4.3000000000000D+00  0.0000000000000D+00  0.0000000000000D+00
432  4.3100000000000D+00  0.0000000000000D+00  0.0000000000000D+00
433  4.3200000000000D+00  0.0000000000000D+00  0.0000000000000D+00
434  4.3300000000000D+00  0.0000000000000D+00  0.0000000000000D+00
435  4.3400000000000D+00  0.0000000000000D+00  0.0000000000000D+00
436  4.3500000000000D+00  0.0000000000000D+00  0.0000000000000D+00
437  4.3600000000000D+00  0.0000000000000D+00  0.0000000000000D+00
438  4.3700000000000D+00  0.0000000000000D+00  0.0000000000000D+00
439  4.3800000000000D+00  0.0000000000000D+00  0.0000000000000D+00
440  4.3900000000000D+00  0.0000000000000D+00  0.0000000000000D+00
441  4.4000000000000D+00  0.0000000000000D+00  0.0000000000000D+00
442  4.4100000000000D+00  0.0000000000000D+00  0.0000000000000D+00
443  4.4200000000000D+00  0.0000000000000D+00  0.0000000000000D+00