Te    ONCVPSP-3.3.0  r_core=   2.26547   1.91704   1.80604
52.0000     16.0000      180423    zatom,zion,pspd
8      11   2     4   600     0    pspcod,pspxc,lmax,lloc,mmax,r2well
5.99000000  5.00000000  0.00000000    rchrg fchrg qchrg
2     4     2     0    nproj
3     1           extension_switch
4     3     0    nprojso
0                         7.8562844058139D-01  6.3747737211680D+00
1  0.0000000000000D+00  2.6427721122602D-11 -4.7817860782118D-12
2  1.0000000000000D-02 -9.7579958271321D-03  1.9557154518949D-02
3  2.0000000000000D-02 -1.9491236041080D-02  3.9114093237850D-02
4  3.0000000000000D-02 -2.9175118840799D-02  5.8670599498661D-02
5  4.0000000000000D-02 -3.8785348952583D-02  7.8226454784708D-02
6  5.0000000000000D-02 -4.8298088158061D-02  9.7781437435949D-02
7  6.0000000000000D-02 -5.7690102558102D-02  1.1733532094112D-01
8  7.0000000000000D-02 -6.6938905515683D-02  1.3688787167135D-01
9  8.0000000000000D-02 -7.6022895247206D-02  1.5643884592467D-01
10  9.0000000000000D-02 -8.4921486064535D-02  1.7598798615655D-01
11  1.0000000000000D-01 -9.3615232309011D-02  1.9553501627906D-01
12  1.1000000000000D-01 -1.0208594406364D-01  2.1507963591886D-01
13  1.2000000000000D-01 -1.1031679378032D-01  2.3462151353370D-01
14  1.3000000000000D-01 -1.1829241301523D-01  2.5416027829720D-01
15  1.4000000000000D-01 -1.2599897852675D-01  2.7369551067248D-01
16  1.5000000000000D-01 -1.3342428705660D-01  2.9322673160736D-01
17  1.6000000000000D-01 -1.4055781818561D-01  3.1275339029633D-01
18  1.7000000000000D-01 -1.4739078473035D-01  3.3227485046799D-01
19  1.8000000000000D-01 -1.5391617022551D-01  3.5179037517049D-01
20  1.9000000000000D-01 -1.6012875311890D-01  3.7129911004227D-01
21  2.0000000000000D-01 -1.6602511739058D-01  3.9080006507024D-01
22  2.1000000000000D-01 -1.7160364939507D-01  4.1029209485299D-01
23  2.2000000000000D-01 -1.7686452081447D-01  4.2977387740227D-01
24  2.3000000000000D-01 -1.8180965770118D-01  4.4924389153178D-01
25  2.4000000000000D-01 -1.8644269568016D-01  4.6870039289828D-01
26  2.5000000000000D-01 -1.9076892147286D-01  4.8814138877591D-01
27  2.6000000000000D-01 -1.9479520099656D-01  5.0756461166023D-01
28  2.7000000000000D-01 -1.9852989438420D-01  5.2696749181427D-01
29  2.8000000000000D-01 -2.0198275835992D-01  5.4634712888383D-01
30  2.9000000000000D-01 -2.0516483649348D-01  5.6570026272425D-01
31  3.0000000000000D-01 -2.0808833794351D-01  5.8502324359480D-01
32  3.1000000000000D-01 -2.1076650538230D-01  6.0431200189073D-01
33  3.2000000000000D-01 -2.1321347287550D-01  6.2356201759562D-01
34  3.3000000000000D-01 -2.1544411456611D-01  6.4276828964857D-01
35  3.4000000000000D-01 -2.1747388508470D-01  6.6192530543222D-01
36  3.5000000000000D-01 -2.1931865267485D-01  6.8102701059690D-01
37  3.6000000000000D-01 -2.2099452608541D-01  7.0006677944587D-01
38  3.7000000000000D-01 -2.2251767633778D-01  7.1903738611355D-01
39  3.8000000000000D-01 -2.2390415452702D-01  7.3793097677555D-01
40  3.9000000000000D-01 -2.2516970686010D-01  7.5673904313406D-01
41  4.0000000000000D-01 -2.2632958817201D-01  7.7545239742582D-01
42  4.1000000000000D-01 -2.2739837519130D-01  7.9406114920207D-01
43  4.2000000000000D-01 -2.2838978084959D-01  8.1255468413032D-01
44  4.3000000000000D-01 -2.2931647094537D-01  8.3092164506697D-01
45  4.4000000000000D-01 -2.3018988448044D-01  8.4914991564695D-01
46  4.5000000000000D-01 -2.3102005898723D-01  8.6722660663254D-01
47  4.6000000000000D-01 -2.3181546215702D-01  8.8513804525737D-01
48  4.7000000000000D-01 -2.3258283106317D-01  9.0286976779412D-01
49  4.8000000000000D-01 -2.3332702024886D-01  9.2040651556511D-01
50  4.9000000000000D-01 -2.3405085991624D-01  9.3773223460410D-01
51  5.0000000000000D-01 -2.3475502541351D-01  9.5483007916478D-01
52  5.1000000000000D-01 -2.3543791916746D-01  9.7168241925755D-01
53  5.2000000000000D-01 -2.3609556615277D-01  9.8827085238018D-01
54  5.3000000000000D-01 -2.3672152392498D-01  1.0045762195906D+00
55  5.4000000000000D-01 -2.3730680817290D-01  1.0205786260513D+00
56  5.5000000000000D-01 -2.3783983466704D-01  1.0362574661552D+00
57  5.6000000000000D-01 -2.3830637839573D-01  1.0515914533195D+00
58  5.7000000000000D-01 -2.3868955058879D-01  1.0665586545147D+00
59  5.8000000000000D-01 -2.3896979423050D-01  1.0811365295676D+00
60  5.9000000000000D-01 -2.3912489856127D-01  1.0953019752572D+00
61  6.0000000000000D-01 -2.3913003295843D-01  1.1090313741916D+00
62  6.1000000000000D-01 -2.3895780047488D-01  1.1223006484320D+00
63  6.2000000000000D-01 -2.3857831119767D-01  1.1350853177999D+00
64  6.3000000000000D-01 -2.3795927546907D-01  1.1473605627760D+00
65  6.4000000000000D-01 -2.3706611689139D-01  1.1591012918733D+00
66  6.5000000000000D-01 -2.3586210491204D-01  1.1702822133370D+00
67  6.6000000000000D-01 -2.3430850666132D-01  1.1808779109942D+00
68  6.7000000000000D-01 -2.3236475758964D-01  1.1908629240533D+00
69  6.8000000000000D-01 -2.2998865032612D-01  1.2002118306180D+00
70  6.9000000000000D-01 -2.2713654105635D-01  1.2088993346606D+00
71  7.0000000000000D-01 -2.2376357259528D-01  1.2169003561660D+00
72  7.1000000000000D-01 -2.1982391321201D-01  1.2241901241377D+00
73  7.2000000000000D-01 -2.1527101014659D-01  1.2307442721279D+00
74  7.3000000000000D-01 -2.1005785664744D-01  1.2365389359309D+00
75  7.4000000000000D-01 -2.0413727125090D-01  1.2415508530587D+00
76  7.5000000000000D-01 -1.9746218792296D-01  1.2457574635934D+00
77  7.6000000000000D-01 -1.8998595558789D-01  1.2491370119929D+00
78  7.7000000000000D-01 -1.8166264548069D-01  1.2516686494103D+00
79  7.8000000000000D-01 -1.7244736467941D-01  1.2533325360683D+00
80  7.9000000000000D-01 -1.6229657410142D-01  1.2541099432191D+00
81  8.0000000000000D-01 -1.5116840918436D-01  1.2539833542069D+00
82  8.1000000000000D-01 -1.3902300141835D-01  1.2529365641427D+00
83  8.2000000000000D-01 -1.2582279885213D-01  1.2509547776921D+00
84  8.3000000000000D-01 -1.1153288366185D-01  1.2480247044737D+00
85  8.4000000000000D-01 -9.6121284848642D-02  1.2441346515650D+00
86  8.5000000000000D-01 -7.9559284118449D-02  1.2392746126111D+00
87  8.6000000000000D-01 -6.1821712997594D-02  1.2334363530372D+00
88  8.7000000000000D-01 -4.2887239247940D-02  1.2266134908716D+00
89  8.8000000000000D-01 -2.2738640668348D-02  1.2188015726955D+00
90  8.9000000000000D-01 -1.3630644031627D-03  1.2099981442471D+00
91  9.0000000000000D-01  2.1247730075399D-02  1.2002028152224D+00
92  9.1000000000000D-01  4.5097146086540D-02  1.1894173178348D+00
93  9.2000000000000D-01  7.0183544668170D-02  1.1776455587113D+00
94  9.3000000000000D-01  9.6500060938137D-02  1.1648936637313D+00
95  9.4000000000000D-01  1.2403444342373D-01  1.1511700154358D+00
96  9.5000000000000D-01  1.5276891779171D-01  1.1364852826650D+00
97  9.6000000000000D-01  1.8268007629877D-01  1.1208524421103D+00
98  9.7000000000000D-01  2.1373879416042D-01  1.1042867915031D+00
99  9.8000000000000D-01  2.4591017390316D-01  1.0868059541948D+00
100  9.9000000000000D-01  2.7915351862941D-01  1.0684298749197D+00
101  1.0000000000000D+00  3.1342233497206D-01  1.0491808065724D+00
102  1.0100000000000D+00  3.4866436636333D-01  1.0290832878705D+00
103  1.0200000000000D+00  3.8482165708156D-01  1.0081641118166D+00
104  1.0300000000000D+00  4.2183064737293D-01  9.8645228491425D-01
105  1.0400000000000D+00  4.5962229977232D-01  9.6397897714043D-01
106  1.0500000000000D+00  4.9812225657562D-01  9.4077746271763D-01
107  1.0600000000000D+00  5.3725102824086D-01  9.1688305177699D-01
108  1.0700000000000D+00  5.7692421230862D-01  8.9233301304971D-01
109  1.0800000000000D+00  6.1705274226191D-01  8.6716648776827D-01
110  1.0900000000000D+00  6.5754316555865D-01  8.4142439500698D-01
111  1.1000000000000D+00  6.9829794990165D-01  8.1514932873424D-01
112  1.1100000000000D+00  7.3921581663464D-01  7.8838544689399D-01
113  1.1200000000000D+00  7.8019209997329D-01  7.6117835288003D-01
114  1.1300000000000D+00  8.2111913062390D-01  7.3357496980662D-01
115  1.1400000000000D+00  8.6188664217437D-01  7.0562340802210D-01
116  1.1500000000000D+00  9.0238219851050D-01  6.7737282634604D-01
117  1.1600000000000D+00  9.4249164033010D-01  6.4887328755672D-01
118  1.1700000000000D+00  9.8209954871463D-01  6.2017560868528D-01
119  1.1800000000000D+00  1.0210897235907D+00  5.9133120670550D-01
120  1.1900000000000D+00  1.0593456747984D+00  5.6239194023860D-01
121  1.2000000000000D+00  1.0967511233621D+00  5.3340994792379D-01
122  1.2100000000000D+00  1.1331905104795D+00  5.0443748412730D-01
123  1.2200000000000D+00  1.1685495116855D+00  4.7552675267758D-01
124  1.2300000000000D+00  1.2027155535378D+00  4.4672973934468D-01
125  1.2400000000000D+00  1.2355783301519D+00  4.1809804378735D-01
126  1.2500000000000D+00  1.2670303168759D+00  3.8968271170236D-01
127  1.2600000000000D+00  1.2969672783523D+00  3.6153406792341D-01
128  1.2700000000000D+00  1.3252887682287D+00  3.3370155121489D-01
129  1.2800000000000D+00  1.3518986177841D+00  3.0623355150640D-01
130  1.2900000000000D+00  1.3767054107361D+00  2.7917725031522D-01
131  1.3000000000000D+00  1.3996229415916D+00  2.5257846508389D-01
132  1.3100000000000D+00  1.4205706548984D+00  2.2648149816007D-01
133  1.3200000000000D+00  1.4394740628350D+00  2.0092899112994D-01
134  1.3300000000000D+00  1.4562651387529D+00  1.7596178517405D-01
135  1.3400000000000D+00  1.4708826842183D+00  1.5161878813165D-01
136  1.3500000000000D+00  1.4832726673444D+00  1.2793684890163D-01
137  1.3600000000000D+00  1.4933885304027D+00  1.0495063976170D-01
138  1.3700000000000D+00  1.5011914645167D+00  8.2692547231370D-02
139  1.3800000000000D+00  1.5066506498585D+00  6.1192571957530D-02
140  1.3900000000000D+00  1.5097434595947D+00  4.0478238141340D-02
141  1.4000000000000D+00  1.5104556259996D+00  2.0574512986211D-02
142  1.4100000000000D+00  1.5087813677730D+00  1.5037364936279D-03
143  1.4200000000000D+00  1.5047234770429D+00 -1.6714437928785D-02
144  1.4300000000000D+00  1.4982933655330D+00 -3.4063091827855D-02
145  1.4400000000000D+00  1.4895110691018D+00 -5.0528078749423D-02
146  1.4500000000000D+00  1.4784052099756D+00 -6.6098049707913D-02
147  1.4600000000000D+00  1.4650129169989D+00 -8.0764467073808D-02
148  1.4700000000000D+00  1.4493797031007D+00 -9.4521606589144D-02
149  1.4800000000000D+00  1.4315593009798D+00 -1.0736654767407D-01
150  1.4900000000000D+00  1.4116134568735D+00 -1.1929915190242D-01
151  1.5000000000000D+00  1.3896116832943D+00 -1.3032202977901D-01
152  1.5100000000000D+00  1.3656309717782D+00 -1.4044049599768D-01
153  1.5200000000000D+00  1.3397554661960D+00 -1.4966251322590D-01
154  1.5300000000000D+00  1.3120760988473D+00 -1.5799862490056D-01
155  1.5400000000000D+00  1.2826901897011D+00 -1.6546187702968D-01
156  1.5500000000000D+00  1.2517010117242D+00 -1.7206772967567D-01
157  1.5600000000000D+00  1.2192173231161D+00 -1.7783395823325D-01
158  1.5700000000000D+00  1.1853528694093D+00 -1.8278054518478D-01
159  1.5800000000000D+00  1.1502258570894D+00 -1.8692956266952D-01
160  1.5900000000000D+00  1.1139584015246D+00 -1.9030504650547D-01
161  1.6000000000000D+00  1.0766759516275D+00 -1.9293286221290D-01
162  1.6100000000000D+00  1.0385066939165D+00 -1.9484056364335D-01
163  1.6200000000000D+00  9.9958093896915D-01 -1.9605724493235D-01
164  1.6300000000000D+00  9.6003049292734D-01 -1.9661338636999D-01
165  1.6400000000000D+00  9.1998801736721D-01 -1.9654069501974D-01
166  1.6500000000000D+00  8.7958638031806D-01 -1.9587194070238D-01
167  1.6600000000000D+00  8.3895800179893D-01 -1.9464078822389D-01
168  1.6700000000000D+00  7.9823419691243D-01 -1.9288162652008D-01
169  1.6800000000000D+00  7.5754451966220D-01 -1.9062939558221D-01
170  1.6900000000000D+00  7.1701611089303D-01 -1.8791941192032D-01
171  1.7000000000000D+00  6.7677305309531D-01 -1.8478719335740D-01
172  1.7100000000000D+00  6.3693573588809D-01 -1.8126828401318D-01
173  1.7200000000000D+00  5.9762023433568D-01 -1.7739808015507D-01
174  1.7300000000000D+00  5.5893770431022D-01 -1.7321165788005D-01
175  1.7400000000000D+00  5.2099379639841D-01 -1.6874360316452D-01
176  1.7500000000000D+00  4.8388808743807D-01 -1.6402784445003D-01
177  1.7600000000000D+00  4.4771356484209D-01 -1.5909749374669D-01
178  1.7700000000000D+00  4.1255604671162D-01 -1.5398467710317D-01
179  1.7800000000000D+00  3.7849385624639D-01 -1.4872040921500D-01
180  1.7900000000000D+00  3.4559730891326D-01 -1.4333443403330D-01
181  1.8000000000000D+00  3.1392788804306D-01 -1.3785501944646D-01
182  1.8100000000000D+00  2.8353833075244D-01 -1.3230890153863D-01
183  1.8200000000000D+00  2.5447334671863D-01 -1.2672132747600D-01
184  1.8300000000000D+00  2.2677012000774D-01 -1.2111608036320D-01
185  1.8400000000000D+00  2.0045905003329D-01 -1.1551557120892D-01
186  1.8500000000000D+00  1.7556459357552D-01 -1.0994094477081D-01
187  1.8600000000000D+00  1.5210480982690D-01 -1.0441198252185D-01
188  1.8700000000000D+00  1.3009113901562D-01 -9.8947054729004D-02
189  1.8800000000000D+00  1.0952870268800D-01 -9.3563144631070D-02
190  1.8900000000000D+00  9.0416270424781D-02 -8.8275827838244D-02
191  1.9000000000000D+00  7.2746377152045D-02 -8.3099275842291D-02
192  1.9100000000000D+00  5.6505452162208D-02 -7.8046263214162D-02
193  1.9200000000000D+00  4.1673976619762D-02 -7.3128181071847D-02
194  1.9300000000000D+00  2.8226673082317D-02 -6.8355057294762D-02
195  1.9400000000000D+00  1.6132723092934D-02 -6.3735582837669D-02
196  1.9500000000000D+00  5.3560159456154D-03 -5.9277144710319D-02
197  1.9600000000000D+00 -4.1445791159523D-03 -5.4985864155217D-02
198  1.9700000000000D+00 -1.2414910595772D-02 -5.0866641344572D-02
199  1.9800000000000D+00 -1.9505221633444D-02 -4.6923204750545D-02
200  1.9900000000000D+00 -2.5469802226121D-02 -4.3158166010114D-02
201  2.0000000000000D+00 -3.0366621342997D-02 -3.9573079358421D-02
202  2.0100000000000D+00 -3.4256941300601D-02 -3.6168505170309D-02
203  2.0200000000000D+00 -3.7204913901889D-02 -3.2944077776228D-02
204  2.0300000000000D+00 -3.9277164816216D-02 -2.9898576152336D-02
205  2.0400000000000D+00 -4.0542364245620D-02 -2.7029998030783D-02
206  2.0500000000000D+00 -4.1070789701194D-02 -2.4335636127995D-02
207  2.0600000000000D+00 -4.0933881897150D-02 -2.1812156371487D-02
208  2.0700000000000D+00 -4.0203796449416D-02 -1.9455677581790D-02
209  2.0800000000000D+00 -3.8952954503998D-02 -1.7261851900379D-02
210  2.0900000000000D+00 -3.7253594864087D-02 -1.5225945567600D-02
211  2.1000000000000D+00 -3.5177329546716D-02 -1.3342919523910D-02
212  2.1100000000000D+00 -3.2794706587595D-02 -1.1607509139992D-02
213  2.1200000000000D+00 -3.0174782234673D-02 -1.0014302609185D-02
214  2.1300000000000D+00 -2.7384703365740D-02 -8.5578177906301D-03
215  2.1400000000000D+00 -2.4489306977503D-02 -7.2325761627005D-03
216  2.1500000000000D+00 -2.1550733320689D-02 -6.0331745142946D-03
217  2.1600000000000D+00 -1.8628059699284D-02 -4.9543529647663D-03
218  2.1700000000000D+00 -1.5776956455264D-02 -3.9910589836419D-03
219  2.1800000000000D+00 -1.3049361633900D-02 -3.1385081158124D-03
220  2.1900000000000D+00 -1.0494906150206D-02 -2.3923971955412D-03
221  2.2000000000000D+00 -8.1559324720678D-03 -1.7485211523714D-03
222  2.2100000000000D+00 -6.0661502350699D-03 -1.2027167266286D-03
223  2.2200000000000D+00 -4.2465703044506D-03 -7.5153348761820D-04
224  2.2300000000000D+00 -2.7606040992164D-03 -3.9359472995363D-04
225  2.2400000000000D+00 -1.6590535285103D-03 -1.2726537457006D-04
226  2.2500000000000D+00 -9.6251674770862D-04  5.1386140785204D-05
227  2.2600000000000D+00 -5.5216182947886D-04  1.4080420265473D-04
228  2.2700000000000D+00 -3.0124778113083D-04  1.4402447021024D-04
229  2.2800000000000D+00 -1.2677155602360D-04  8.6269879782072D-05
230  2.2900000000000D+00 -1.8987980348723D-05  1.5891888050843D-05
231  2.3000000000000D+00  1.9893375785167D-05 -1.8457218441157D-05
232  2.3100000000000D+00  1.6937681117162D-05 -1.7689827309499D-05
233  2.3200000000000D+00  2.8023603435358D-07 -3.2049643550831D-07
234  2.3300000000000D+00 -5.6284504476577D-06  4.3327304771902D-06
235  2.3400000000000D+00 -4.2033701951100D-06  3.3643131489563D-06
236  2.3500000000000D+00  2.9983763474232D-07 -1.1340192866978D-07
237  2.3600000000000D+00  1.1471366221579D-06 -4.3385983054541D-07
238  2.3700000000000D+00  6.9935504605870D-07 -2.6450385761666D-07
239  2.3800000000000D+00  0.0000000000000D+00  0.0000000000000D+00
240  2.3900000000000D+00  0.0000000000000D+00  0.0000000000000D+00
241  2.4000000000000D+00  0.0000000000000D+00  0.0000000000000D+00
242  2.4100000000000D+00  0.0000000000000D+00  0.0000000000000D+00
243  2.4200000000000D+00  0.0000000000000D+00  0.0000000000000D+00
244  2.4300000000000D+00  0.0000000000000D+00  0.0000000000000D+00
245  2.4400000000000D+00  0.0000000000000D+00  0.0000000000000D+00
246  2.4500000000000D+00  0.0000000000000D+00  0.0000000000000D+00
247  2.4600000000000D+00  0.0000000000000D+00  0.0000000000000D+00
248  2.4700000000000D+00  0.0000000000000D+00  0.0000000000000D+00
249  2.4800000000000D+00  0.0000000000000D+00  0.0000000000000D+00
250  2.4900000000000D+00  0.0000000000000D+00  0.0000000000000D+00
251  2.5000000000000D+00  0.0000000000000D+00  0.0000000000000D+00
252  2.5100000000000D+00  0.0000000000000D+00  0.0000000000000D+00
253  2.5200000000000D+00  0.0000000000000D+00  0.0000000000000D+00
254  2.5300000000000D+00  0.0000000000000D+00  0.0000000000000D+00
255  2.5400000000000D+00  0.0000000000000D+00  0.0000000000000D+00
256  2.5500000000000D+00  0.0000000000000D+00  0.0000000000000D+00
257  2.5600000000000D+00  0.0000000000000D+00  0.0000000000000D+00
258  2.5700000000000D+00  0.0000000000000D+00  0.0000000000000D+00
259  2.5800000000000D+00  0.0000000000000D+00  0.0000000000000D+00
260  2.5900000000000D+00  0.0000000000000D+00  0.0000000000000D+00
261  2.6000000000000D+00  0.0000000000000D+00  0.0000000000000D+00
262  2.6100000000000D+00  0.0000000000000D+00  0.0000000000000D+00
263  2.6200000000000D+00  0.0000000000000D+00  0.0000000000000D+00
264  2.6300000000000D+00  0.0000000000000D+00  0.0000000000000D+00
265  2.6400000000000D+00  0.0000000000000D+00  0.0000000000000D+00
266  2.6500000000000D+00  0.0000000000000D+00  0.0000000000000D+00
267  2.6600000000000D+00  0.0000000000000D+00  0.0000000000000D+00
268  2.6700000000000D+00  0.0000000000000D+00  0.0000000000000D+00
269  2.6800000000000D+00  0.0000000000000D+00  0.0000000000000D+00
270  2.6900000000000D+00  0.0000000000000D+00  0.0000000000000D+00
271  2.7000000000000D+00  0.0000000000000D+00  0.0000000000000D+00
272  2.7100000000000D+00  0.0000000000000D+00  0.0000000000000D+00
273  2.7200000000000D+00  0.0000000000000D+00  0.0000000000000D+00
274  2.7300000000000D+00  0.0000000000000D+00  0.0000000000000D+00
275  2.7400000000000D+00  0.0000000000000D+00  0.0000000000000D+00
276  2.7500000000000D+00  0.0000000000000D+00  0.0000000000000D+00
277  2.7600000000000D+00  0.0000000000000D+00  0.0000000000000D+00
278  2.7700000000000D+00  0.0000000000000D+00  0.0000000000000D+00
279  2.7800000000000D+00  0.0000000000000D+00  0.0000000000000D+00
280  2.7900000000000D+00  0.0000000000000D+00  0.0000000000000D+00
281  2.8000000000000D+00  0.0000000000000D+00  0.0000000000000D+00
282  2.8100000000000D+00  0.0000000000000D+00  0.0000000000000D+00
283  2.8200000000000D+00  0.0000000000000D+00  0.0000000000000D+00
284  2.8300000000000D+00  0.0000000000000D+00  0.0000000000000D+00
285  2.8400000000000D+00  0.0000000000000D+00  0.0000000000000D+00
286  2.8500000000000D+00  0.0000000000000D+00  0.0000000000000D+00
287  2.8600000000000D+00  0.0000000000000D+00  0.0000000000000D+00
288  2.8700000000000D+00  0.0000000000000D+00  0.0000000000000D+00
289  2.8800000000000D+00  0.0000000000000D+00  0.0000000000000D+00
290  2.8900000000000D+00  0.0000000000000D+00  0.0000000000000D+00
291  2.9000000000000D+00  0.0000000000000D+00  0.0000000000000D+00
292  2.9100000000000D+00  0.0000000000000D+00  0.0000000000000D+00
293  2.9200000000000D+00  0.0000000000000D+00  0.0000000000000D+00
294  2.9300000000000D+00  0.0000000000000D+00  0.0000000000000D+00
295  2.9400000000000D+00  0.0000000000000D+00  0.0000000000000D+00
296  2.9500000000000D+00  0.0000000000000D+00  0.0000000000000D+00
297  2.9600000000000D+00  0.0000000000000D+00  0.0000000000000D+00
298  2.9700000000000D+00  0.0000000000000D+00  0.0000000000000D+00
299  2.9800000000000D+00  0.0000000000000D+00  0.0000000000000D+00
300  2.9900000000000D+00  0.0000000000000D+00  0.0000000000000D+00
301  3.0000000000000D+00  0.0000000000000D+00  0.0000000000000D+00
302  3.0100000000000D+00  0.0000000000000D+00  0.0000000000000D+00
303  3.0200000000000D+00  0.0000000000000D+00  0.0000000000000D+00
304  3.0300000000000D+00  0.0000000000000D+00  0.0000000000000D+00
305  3.0400000000000D+00  0.0000000000000D+00  0.0000000000000D+00
306  3.0500000000000D+00  0.0000000000000D+00  0.0000000000000D+00
307  3.0600000000000D+00  0.0000000000000D+00  0.0000000000000D+00
308  3.0700000000000D+00  0.0000000000000D+00  0.0000000000000D+00
309  3.0800000000000D+00  0.0000000000000D+00  0.0000000000000D+00
310  3.0900000000000D+00  0.0000000000000D+00  0.0000000000000D+00
311  3.1000000000000D+00  0.0000000000000D+00  0.0000000000000D+00
312  3.1100000000000D+00  0.0000000000000D+00  0.0000000000000D+00
313  3.1200000000000D+00  0.0000000000000D+00  0.0000000000000D+00
314  3.1300000000000D+00  0.0000000000000D+00  0.0000000000000D+00
315  3.1400000000000D+00  0.0000000000000D+00  0.0000000000000D+00
316  3.1500000000000D+00  0.0000000000000D+00  0.0000000000000D+00
317  3.1600000000000D+00  0.0000000000000D+00  0.0000000000000D+00
318  3.1700000000000D+00  0.0000000000000D+00  0.0000000000000D+00
319  3.1800000000000D+00  0.0000000000000D+00  0.0000000000000D+00
320  3.1900000000000D+00  0.0000000000000D+00  0.0000000000000D+00
321  3.2000000000000D+00  0.0000000000000D+00  0.0000000000000D+00
322  3.2100000000000D+00  0.0000000000000D+00  0.0000000000000D+00
323  3.2200000000000D+00  0.0000000000000D+00  0.0000000000000D+00
324  3.2300000000000D+00  0.0000000000000D+00  0.0000000000000D+00
325  3.2400000000000D+00  0.0000000000000D+00  0.0000000000000D+00
326  3.2500000000000D+00  0.0000000000000D+00  0.0000000000000D+00
327  3.2600000000000D+00  0.0000000000000D+00  0.0000000000000D+00
328  3.2700000000000D+00  0.0000000000000D+00  0.0000000000000D+00
329  3.2800000000000D+00  0.0000000000000D+00  0.0000000000000D+00
330  3.2900000000000D+00  0.0000000000000D+00  0.0000000000000D+00
331  3.3000000000000D+00  0.0000000000000D+00  0.0000000000000D+00
332  3.3100000000000D+00  0.0000000000000D+00  0.0000000000000D+00
333  3.3200000000000D+00  0.0000000000000D+00  0.0000000000000D+00
334  3.3300000000000D+00  0.0000000000000D+00  0.0000000000000D+00
335  3.3400000000000D+00  0.0000000000000D+00  0.0000000000000D+00
336  3.3500000000000D+00  0.0000000000000D+00  0.0000000000000D+00
337  3.3600000000000D+00  0.0000000000000D+00  0.0000000000000D+00
338  3.3700000000000D+00  0.0000000000000D+00  0.0000000000000D+00
339  3.3800000000000D+00  0.0000000000000D+00  0.0000000000000D+00
340  3.3900000000000D+00  0.0000000000000D+00  0.0000000000000D+00
341  3.4000000000000D+00  0.0000000000000D+00  0.0000000000000D+00
342  3.4100000000000D+00  0.0000000000000D+00  0.0000000000000D+00
343  3.4200000000000D+00  0.0000000000000D+00  0.0000000000000D+00
344  3.4300000000000D+00  0.0000000000000D+00  0.0000000000000D+00
345  3.4400000000000D+00  0.0000000000000D+00  0.0000000000000D+00
346  3.4500000000000D+00  0.0000000000000D+00  0.0000000000000D+00
347  3.4600000000000D+00  0.0000000000000D+00  0.0000000000000D+00
348  3.4700000000000D+00  0.0000000000000D+00  0.0000000000000D+00
349  3.4800000000000D+00  0.0000000000000D+00  0.0000000000000D+00
350  3.4900000000000D+00  0.0000000000000D+00  0.0000000000000D+00
351  3.5000000000000D+00  0.0000000000000D+00  0.0000000000000D+00
352  3.5100000000000D+00  0.0000000000000D+00  0.0000000000000D+00
353  3.5200000000000D+00  0.0000000000000D+00  0.0000000000000D+00
354  3.5300000000000D+00  0.0000000000000D+00  0.0000000000000D+00
355  3.5400000000000D+00  0.0000000000000D+00  0.0000000000000D+00
356  3.5500000000000D+00  0.0000000000000D+00  0.0000000000000D+00
357  3.5600000000000D+00  0.0000000000000D+00  0.0000000000000D+00
358  3.5700000000000D+00  0.0000000000000D+00  0.0000000000000D+00
359  3.5800000000000D+00  0.0000000000000D+00  0.0000000000000D+00
360  3.5900000000000D+00  0.0000000000000D+00  0.0000000000000D+00
361  3.6000000000000D+00  0.0000000000000D+00  0.0000000000000D+00
362  3.6100000000000D+00  0.0000000000000D+00  0.0000000000000D+00
363  3.6200000000000D+00  0.0000000000000D+00  0.0000000000000D+00
364  3.6300000000000D+00  0.0000000000000D+00  0.0000000000000D+00
365  3.6400000000000D+00  0.0000000000000D+00  0.0000000000000D+00
366  3.6500000000000D+00  0.0000000000000D+00  0.0000000000000D+00
367  3.6600000000000D+00  0.0000000000000D+00  0.0000000000000D+00
368  3.6700000000000D+00  0.0000000000000D+00  0.0000000000000D+00
369  3.6800000000000D+00  0.0000000000000D+00  0.0000000000000D+00
370  3.6900000000000D+00  0.0000000000000D+00  0.0000000000000D+00
371  3.7000000000000D+00  0.0000000000000D+00  0.0000000000000D+00
372  3.7100000000000D+00  0.0000000000000D+00  0.0000000000000D+00
373  3.7200000000000D+00  0.0000000000000D+00  0.0000000000000D+00
374  3.7300000000000D+00  0.0000000000000D+00  0.0000000000000D+00
375  3.7400000000000D+00  0.0000000000000D+00  0.0000000000000D+00
376  3.7500000000000D+00  0.0000000000000D+00  0.0000000000000D+00
377  3.7600000000000D+00  0.0000000000000D+00  0.0000000000000D+00
378  3.7700000000000D+00  0.0000000000000D+00  0.0000000000000D+00
379  3.7800000000000D+00  0.0000000000000D+00  0.0000000000000D+00
380  3.7900000000000D+00  0.0000000000000D+00  0.0000000000000D+00
381  3.8000000000000D+00  0.0000000000000D+00  0.0000000000000D+00
382  3.8100000000000D+00  0.0000000000000D+00  0.0000000000000D+00
383  3.8200000000000D+00  0.0000000000000D+00  0.0000000000000D+00
384  3.8300000000000D+00  0.0000000000000D+00  0.0000000000000D+00
385  3.8400000000000D+00  0.0000000000000D+00  0.0000000000000D+00
386  3.8500000000000D+00  0.0000000000000D+00  0.0000000000000D+00
387  3.8600000000000D+00  0.0000000000000D+00  0.0000000000000D+00
388  3.8700000000000D+00  0.0000000000000D+00  0.0000000000000D+00
389  3.8800000000000D+00  0.0000000000000D+00  0.0000000000000D+00
390  3.8900000000000D+00  0.0000000000000D+00  0.0000000000000D+00
391  3.9000000000000D+00  0.0000000000000D+00  0.0000000000000D+00
392  3.9100000000000D+00  0.0000000000000D+00  0.0000000000000D+00
393  3.9200000000000D+00  0.0000000000000D+00  0.0000000000000D+00
394  3.9300000000000D+00  0.0000000000000D+00  0.0000000000000D+00
395  3.9400000000000D+00  0.0000000000000D+00  0.0000000000000D+00
396  3.9500000000000D+00  0.0000000000000D+00  0.0000000000000D+00
397  3.9600000000000D+00  0.0000000000000D+00  0.0000000000000D+00
398  3.9700000000000D+00  0.0000000000000D+00  0.0000000000000D+00
399  3.9800000000000D+00  0.0000000000000D+00  0.0000000000000D+00
400  3.9900000000000D+00  0.0000000000000D+00  0.0000000000000D+00
401  4.0000000000000D+00  0.0000000000000D+00  0.0000000000000D+00
402  4.0100000000000D+00  0.0000000000000D+00  0.0000000000000D+00
403  4.0200000000000D+00  0.0000000000000D+00  0.0000000000000D+00
404  4.0300000000000D+00  0.0000000000000D+00  0.0000000000000D+00
405  4.0400000000000D+00  0.0000000000000D+00  0.0000000000000D+00
406  4.0500000000000D+00  0.0000000000000D+00  0.0000000000000D+00
407  4.0600000000000D+00  0.0000000000000D+00  0.0000000000000D+00
408  4.0700000000000D+00  0.0000000000000D+00  0.0000000000000D+00
409  4.0800000000000D+00  0.0000000000000D+00  0.0000000000000D+00
410  4.0900000000000D+00  0.0000000000000D+00  0.0000000000000D+00
411  4.1000000000000D+00  0.0000000000000D+00  0.0000000000000D+00
412  4.1100000000000D+00  0.0000000000000D+00  0.0000000000000D+00
413  4.1200000000000D+00  0.0000000000000D+00  0.0000000000000D+00
414  4.1300000000000D+00  0.0000000000000D+00  0.0000000000000D+00
415  4.1400000000000D+00  0.0000000000000D+00  0.0000000000000D+00
416  4.1500000000000D+00  0.0000000000000D+00  0.0000000000000D+00
417  4.1600000000000D+00  0.0000000000000D+00  0.0000000000000D+00
418  4.1700000000000D+00  0.0000000000000D+00  0.0000000000000D+00
419  4.1800000000000D+00  0.0000000000000D+00  0.0000000000000D+00
420  4.1900000000000D+00  0.0000000000000D+00  0.0000000000000D+00
421  4.2000000000000D+00  0.0000000000000D+00  0.0000000000000D+00
422  4.2100000000000D+00  0.0000000000000D+00  0.0000000000000D+00
423  4.2200000000000D+00  0.0000000000000D+00  0.0000000000000D+00
424  4.2300000000000D+00  0.0000000000000D+00  0.0000000000000D+00
425  4.2400000000000D+00  0.0000000000000D+00  0.0000000000000D+00
426  4.2500000000000D+00  0.0000000000000D+00  0.0000000000000D+00
427  4.2600000000000D+00  0.0000000000000D+00  0.0000000000000D+00
428  4.2700000000000D+00  0.0000000000000D+00  0.0000000000000D+00
429  4.2800000000000D+00  0.0000000000000D+00  0.0000000000000D+00
430  4.2900000000000D+00  0.0000000000000D+00  0.0000000000000D+00
431  4.3000000000000D+00  0.0000000000000D+00  0.0000000000000D+00
432  4.3100000000000D+00  0.0000000000000D+00  0.0000000000000D+00
433  4.3200000000000D+00  0.0000000000000D+00  0.0000000000000D+00
434  4.3300000000000D+00  0.0000000000000D+00  0.0000000000000D+00
435  4.3400000000000D+00  0.0000000000000D+00  0.0000000000000D+00
436  4.3500000000000D+00  0.0000000000000D+00  0.0000000000000D+00
437  4.3600000000000D+00  0.0000000000000D+00  0.0000000000000D+00
438  4.3700000000000D+00  0.0000000000000D+00  0.0000000000000D+00
439  4.3800000000000D+00  0.0000000000000D+00  0.0000000000000D+00
440  4.3900000000000D+00  0.0000000000000D+00  0.0000000000000D+00
441  4.4000000000000D+00  0.0000000000000D+00  0.0000000000000D+00
442  4.4100000000000D+00  0.0000000000000D+00  0.0000000000000D+00
443  4.4200000000000D+00  0.0000000000000D+00  0.0000000000000D+00