
.Version 9.0.0 of ABINIT 
.(MPI version, prepared for a x86_64_linux_gnu9.2 computer) 

.Copyright (C) 1998-2020 ABINIT group . 
 ABINIT comes with ABSOLUTELY NO WARRANTY.
 It is free software, and you are welcome to redistribute it
 under certain conditions (GNU General Public License,
 see ~abinit/COPYING or http://www.gnu.org/copyleft/gpl.txt).

 ABINIT is a project of the Universite Catholique de Louvain,
 Corning Inc. and other collaborators, see ~abinit/doc/developers/contributors.txt .
 Please read https://docs.abinit.org/theory/acknowledgments for suggested
 acknowledgments of the ABINIT effort.
 For more information, see https://www.abinit.org .

.Starting date : Sun  9 Feb 2020.
- ( at 17h03 )
  
- input  file    -> /home/gmatteo/git_repos/abinit/_abiref_gnu9.2_openmpi/tests/Test_suite/v67mbpt_t04-t05/t05.in
- output file    -> t05.out
- root for input  files -> t05i
- root for output files -> t05o


 DATASET    1 : space group Fd -3 m (#227); Bravais cF (face-center cubic)
================================================================================
 Values of the parameters that define the memory need for DATASET  1.
     intxc =       0    ionmov =       0      iscf =       7    lmnmax =       1
     lnmax =       1     mgfft =      12  mpssoang =       2    mqgrid =    3001
     natom =       2  nloc_mem =       1    nspden =       1   nspinor =       1
    nsppol =       1      nsym =      48    n1xccc =    2501    ntypat =       1
    occopt =       1   xclevel =       1
-    mband =          20        mffmem =           1         mkmem =           6
       mpw =          70          nfft =        1728          nkpt =           6
================================================================================
P This job should need less than                       1.157 Mbytes of memory.
  Rough estimation (10% accuracy) of disk space for files :
_ WF disk file :      0.130 Mbytes ; DEN or POT disk file :      0.015 Mbytes.
================================================================================


 DATASET    2 : space group Fd -3 m (#227); Bravais cF (face-center cubic)
================================================================================
 Values of the parameters that define the memory need for DATASET  2.
     intxc =       0    ionmov =       0      iscf =       7    lmnmax =       1
     lnmax =       1     mgfft =      12  mpssoang =       2    mqgrid =    3001
     natom =       2  nloc_mem =       1    nspden =       1   nspinor =       1
    nsppol =       1      nsym =      48    n1xccc =    2501    ntypat =       1
    occopt =       1   xclevel =       1
-    mband =          20        mffmem =           1         mkmem =           6
       mpw =          70          nfft =        1728          nkpt =           6
================================================================================
P This job should need less than                       1.157 Mbytes of memory.
  Rough estimation (10% accuracy) of disk space for files :
_ WF disk file :      0.130 Mbytes ; DEN or POT disk file :      0.015 Mbytes.
================================================================================


 DATASET    3 : space group Fd -3 m (#227); Bravais cF (face-center cubic)
================================================================================
 Values of the parameters that define the memory need for DATASET  3.
     intxc =       0    ionmov =       0      iscf =       7    lmnmax =       1
     lnmax =       1     mgfft =      12  mpssoang =       2    mqgrid =    3001
     natom =       2  nloc_mem =       1    nspden =       1   nspinor =       1
    nsppol =       1      nsym =      48    n1xccc =    2501    ntypat =       1
    occopt =       1   xclevel =       1
-    mband =          20        mffmem =           1         mkmem =           6
       mpw =          70          nfft =        1728          nkpt =           6
================================================================================
P This job should need less than                       1.157 Mbytes of memory.
  Rough estimation (10% accuracy) of disk space for files :
_ WF disk file :      0.130 Mbytes ; DEN or POT disk file :      0.015 Mbytes.
================================================================================

--------------------------------------------------------------------------------
------------- Echo of variables that govern the present computation ------------
--------------------------------------------------------------------------------
-
- outvars: echo of selected default values                                      
-   iomode0 =  0 , fftalg0 =312 , wfoptalg0 =  0
-
- outvars: echo of global parameters not present in the input file              
-  max_nthreads =    0
-
 -outvars: echo values of preprocessed input variables --------
            acell      6.7406530879E+00  6.7406530879E+00  6.7406530879E+00 Bohr
              amu      1.20110000E+01
             bdgw           1       8       1       8       1       8       1       8
                            1       8       1       8
             ecut      6.95097571E+00 Hartree
          ecuteps      3.47548785E+00 Hartree
         ecutsigx      3.47548785E+00 Hartree
          ecutwfn      6.95097571E+00 Hartree
           enunit           1
-          fftalg         312
        gwcalctyp1          0
        gwcalctyp2          0
        gwcalctyp3         28
          gwgamma1          0
          gwgamma2          1
          gwgamma3          0
         icutcoul           3
           irdqps1          0
           irdqps2          0
           irdqps3          1
           irdscr1          1
           irdscr2          0
           irdscr3          1
        irdsuscep1          0
        irdsuscep2          1
        irdsuscep3          0
           irdwfk           1
           istwfk        0    0    1    0    1    1
           jdtset        1    2    3
              kpt     -2.50000000E-01 -2.50000000E-01  0.00000000E+00
                      -2.50000000E-01  2.50000000E-01  0.00000000E+00
                       5.00000000E-01  5.00000000E-01  0.00000000E+00
                      -2.50000000E-01  5.00000000E-01  2.50000000E-01
                       5.00000000E-01  0.00000000E+00  0.00000000E+00
                       0.00000000E+00  0.00000000E+00  0.00000000E+00
            kptgw     -2.50000000E-01 -2.50000000E-01  0.00000000E+00
                      -2.50000000E-01  2.50000000E-01  0.00000000E+00
                       5.00000000E-01  5.00000000E-01  0.00000000E+00
                      -2.50000000E-01  5.00000000E-01  2.50000000E-01
                       5.00000000E-01  0.00000000E+00  0.00000000E+00
                       0.00000000E+00  0.00000000E+00  0.00000000E+00
         kptrlatt        2   -2    2     -2    2    2     -2   -2    2
          kptrlen      1.34813062E+01
P           mkmem           6
            natom           2
            nband          20
           ndtset           3
            ngfft          12      12      12
             nkpt           6
           nkptgw           6
           npweps          27
          npwsigx          27
           npwwfn          65
             nsym          48
           ntypat           1
              occ      2.000000  2.000000  2.000000  2.000000  0.000000  0.000000
                       0.000000  0.000000  0.000000  0.000000  0.000000  0.000000
                       0.000000  0.000000  0.000000  0.000000  0.000000  0.000000
                       0.000000  0.000000
        optdriver           4
            rprim      0.0000000000E+00  5.0000000000E-01  5.0000000000E-01
                       5.0000000000E-01  0.0000000000E+00  5.0000000000E-01
                       5.0000000000E-01  5.0000000000E-01  0.0000000000E+00
          spgroup         227
           symrel      1  0  0   0  1  0   0  0  1      -1  0  0   0 -1  0   0  0 -1
                       0 -1  1   0 -1  0   1 -1  0       0  1 -1   0  1  0  -1  1  0
                      -1  0  0  -1  0  1  -1  1  0       1  0  0   1  0 -1   1 -1  0
                       0  1 -1   1  0 -1   0  0 -1       0 -1  1  -1  0  1   0  0  1
                      -1  0  0  -1  1  0  -1  0  1       1  0  0   1 -1  0   1  0 -1
                       0 -1  1   1 -1  0   0 -1  0       0  1 -1  -1  1  0   0  1  0
                       1  0  0   0  0  1   0  1  0      -1  0  0   0  0 -1   0 -1  0
                       0  1 -1   0  0 -1   1  0 -1       0 -1  1   0  0  1  -1  0  1
                      -1  0  1  -1  1  0  -1  0  0       1  0 -1   1 -1  0   1  0  0
                       0 -1  0   1 -1  0   0 -1  1       0  1  0  -1  1  0   0  1 -1
                       1  0 -1   0  0 -1   0  1 -1      -1  0  1   0  0  1   0 -1  1
                       0  1  0   0  0  1   1  0  0       0 -1  0   0  0 -1  -1  0  0
                       1  0 -1   0  1 -1   0  0 -1      -1  0  1   0 -1  1   0  0  1
                       0 -1  0   0 -1  1   1 -1  0       0  1  0   0  1 -1  -1  1  0
                      -1  0  1  -1  0  0  -1  1  0       1  0 -1   1  0  0   1 -1  0
                       0  1  0   1  0  0   0  0  1       0 -1  0  -1  0  0   0  0 -1
                       0  0 -1   0  1 -1   1  0 -1       0  0  1   0 -1  1  -1  0  1
                       1 -1  0   0 -1  1   0 -1  0      -1  1  0   0  1 -1   0  1  0
                       0  0  1   1  0  0   0  1  0       0  0 -1  -1  0  0   0 -1  0
                      -1  1  0  -1  0  0  -1  0  1       1 -1  0   1  0  0   1  0 -1
                       0  0  1   0  1  0   1  0  0       0  0 -1   0 -1  0  -1  0  0
                       1 -1  0   0 -1  0   0 -1  1      -1  1  0   0  1  0   0  1 -1
                       0  0 -1   1  0 -1   0  1 -1       0  0  1  -1  0  1   0 -1  1
                      -1  1  0  -1  0  1  -1  0  0       1 -1  0   1  0 -1   1  0  0
         symsigma1       1
         symsigma2       1
         symsigma3       0
            tnons      0.0000000  0.0000000  0.0000000     0.2500000  0.2500000  0.2500000
                       0.0000000  0.0000000  0.0000000     0.2500000  0.2500000  0.2500000
                       0.0000000  0.0000000  0.0000000     0.2500000  0.2500000  0.2500000
                       0.0000000  0.0000000  0.0000000     0.2500000  0.2500000  0.2500000
                       0.0000000  0.0000000  0.0000000     0.2500000  0.2500000  0.2500000
                       0.0000000  0.0000000  0.0000000     0.2500000  0.2500000  0.2500000
                       0.0000000  0.0000000  0.0000000     0.2500000  0.2500000  0.2500000
                       0.0000000  0.0000000  0.0000000     0.2500000  0.2500000  0.2500000
                       0.0000000  0.0000000  0.0000000     0.2500000  0.2500000  0.2500000
                       0.0000000  0.0000000  0.0000000     0.2500000  0.2500000  0.2500000
                       0.0000000  0.0000000  0.0000000     0.2500000  0.2500000  0.2500000
                       0.0000000  0.0000000  0.0000000     0.2500000  0.2500000  0.2500000
                       0.0000000  0.0000000  0.0000000     0.2500000  0.2500000  0.2500000
                       0.0000000  0.0000000  0.0000000     0.2500000  0.2500000  0.2500000
                       0.0000000  0.0000000  0.0000000     0.2500000  0.2500000  0.2500000
                       0.0000000  0.0000000  0.0000000     0.2500000  0.2500000  0.2500000
                       0.0000000  0.0000000  0.0000000     0.2500000  0.2500000  0.2500000
                       0.0000000  0.0000000  0.0000000     0.2500000  0.2500000  0.2500000
                       0.0000000  0.0000000  0.0000000     0.2500000  0.2500000  0.2500000
                       0.0000000  0.0000000  0.0000000     0.2500000  0.2500000  0.2500000
                       0.0000000  0.0000000  0.0000000     0.2500000  0.2500000  0.2500000
                       0.0000000  0.0000000  0.0000000     0.2500000  0.2500000  0.2500000
                       0.0000000  0.0000000  0.0000000     0.2500000  0.2500000  0.2500000
                       0.0000000  0.0000000  0.0000000     0.2500000  0.2500000  0.2500000
            typat      1  1
              wtk        0.18750    0.37500    0.09375    0.18750    0.12500    0.03125
           xangst      0.0000000000E+00  0.0000000000E+00  0.0000000000E+00
                       8.9174999628E-01  8.9174999628E-01  8.9174999628E-01
            xcart      0.0000000000E+00  0.0000000000E+00  0.0000000000E+00
                       1.6851632720E+00  1.6851632720E+00  1.6851632720E+00
             xred      0.0000000000E+00  0.0000000000E+00  0.0000000000E+00
                       2.5000000000E-01  2.5000000000E-01  2.5000000000E-01
            znucl        6.00000

================================================================================

 chkinp: Checking input parameters for consistency, jdtset=   1.

 chkinp: Checking input parameters for consistency, jdtset=   2.

 chkinp: Checking input parameters for consistency, jdtset=   3.

================================================================================
== DATASET  1 ==================================================================
-   nproc =    1

 Exchange-correlation functional for the present dataset will be:
  LDA: new Teter (4/93) with spin-polarized option - ixc=1
 Citation for XC functional:
  S. Goedecker, M. Teter, J. Huetter, PRB 54, 1703 (1996)

 SIGMA: Calculation of the GW corrections 

 Based on a program developped by R.W. Godby, V. Olevano, G. Onida, and L. Reining.
 Incorporated in ABINIT by V. Olevano, G.-M. Rignanese, and M. Torrent.
.Using double precision arithmetic ; gwpc =  8

 Real(R)+Recip(G) space primitive vectors, cartesian coordinates (Bohr,Bohr^-1):
 R(1)=  0.0000000  3.3703265  3.3703265  G(1)= -0.1483536  0.1483536  0.1483536
 R(2)=  3.3703265  0.0000000  3.3703265  G(2)=  0.1483536 -0.1483536  0.1483536
 R(3)=  3.3703265  3.3703265  0.0000000  G(3)=  0.1483536  0.1483536 -0.1483536
 Unit cell volume ucvol=  7.6567759E+01 bohr^3
 Angles (23,13,12)=  6.00000000E+01  6.00000000E+01  6.00000000E+01 degrees

--- Pseudopotential description ------------------------------------------------
- pspini: atom type   1  psp file is /home/gmatteo/git_repos/abinit/tests/Psps_for_tests/6c.pspnc
- pspatm: opening atomic psp file    /home/gmatteo/git_repos/abinit/tests/Psps_for_tests/6c.pspnc
-  Troullier-Martins psp for element  C         Thu Oct 27 17:29:33 EDT 1994
-  6.00000   4.00000    940714                znucl, zion, pspdat
    1    1    1    1      2001   0.00000      pspcod,pspxc,lmax,lloc,mmax,r2well
    0  10.372  24.987    1   1.4850707        l,e99.0,e99.9,nproj,rcpsp
   0.00000000   0.00000000   0.00000000   0.00000000     rms, ekb1, ekb2, epsatm
    1  15.431  21.987    0   1.4850707        l,e99.0,e99.9,nproj,rcpsp
   0.00000000   0.00000000   0.00000000   0.00000000     rms, ekb1, ekb2, epsatm
    0.83985002509544    0.99012430797080    0.51184907750884   rchrg,fchrg,qchrg
  pspatm : epsatm=    0.92590353
         --- l  ekb(1:nproj) -->
             0    4.921466
 pspatm: atomic psp has been read  and splines computed

   1.48144565E+01                                ecore*ucvol(ha*bohr**3)
--------------------------------------------------------------------------------

 ==== K-mesh for the wavefunctions ====
 Number of points in the irreducible wedge :     6
 Reduced coordinates and weights : 

     1)    -2.50000000E-01 -2.50000000E-01  0.00000000E+00       0.18750
     2)    -2.50000000E-01  2.50000000E-01  0.00000000E+00       0.37500
     3)     5.00000000E-01  5.00000000E-01  0.00000000E+00       0.09375
     4)    -2.50000000E-01  5.00000000E-01  2.50000000E-01       0.18750
     5)     5.00000000E-01  0.00000000E+00  0.00000000E+00       0.12500
     6)     0.00000000E+00  0.00000000E+00  0.00000000E+00       0.03125

 Together with 48 symmetry operations and time-reversal symmetry 
 yields    32 points in the full Brillouin Zone.


 ==== Q-mesh for screening function ====
 Number of points in the irreducible wedge :     6
 Reduced coordinates and weights : 

     1)     0.00000000E+00  0.00000000E+00  0.00000000E+00       0.03125
     2)     5.00000000E-01  5.00000000E-01  0.00000000E+00       0.09375
     3)     5.00000000E-01  2.50000000E-01  2.50000000E-01       0.37500
     4)     0.00000000E+00  5.00000000E-01  0.00000000E+00       0.12500
     5)     5.00000000E-01 -2.50000000E-01  2.50000000E-01       0.18750
     6)     0.00000000E+00 -2.50000000E-01 -2.50000000E-01       0.18750

 Together with 48 symmetry operations and time-reversal symmetry 
 yields    32 points in the full Brillouin Zone.


 setmesh: FFT mesh size selected  =  12x 12x 12
          total number of points  =     1728

 Number of electrons calculated from density =    7.9781; Expected =    8.0000
 average of density, n =  0.104196
 r_s =    1.3183
 omega_plasma =   31.1373 [eV]


 === KS Band Gaps ===
  >>>> For spin  1
   Minimum direct gap =   4.8905 [eV], located at k-point      :   0.0000  0.0000  0.0000
   Fundamental gap    =   1.7682 [eV], Top of valence bands at :   0.0000  0.0000  0.0000
                                       Bottom of conduction at :   0.5000  0.5000  0.0000
 SIGMA fundamental parameters:
 PLASMON POLE MODEL  1
 number of plane-waves for SigmaX                   27
 number of plane-waves for SigmaC and W             27
 number of plane-waves for wavefunctions            65
 number of bands                                    20
 number of independent spin polarizations            1
 number of spinorial components                      1
 number of k-points in IBZ                           6
 number of q-points in IBZ                           6
 number of symmetry operations                      48
 number of k-points in BZ                           32
 number of q-points in BZ                           32
 number of frequencies for dSigma/dE                 9
 frequency step for dSigma/dE [eV]                0.25
 number of omega for Sigma on real axis              0
 max omega for Sigma on real axis  [eV]           0.00
 zcut for avoiding poles [eV]                     0.10

 EPSILON^-1 parameters (SCR file):
 dimension of the eps^-1 matrix on file             27
 dimension of the eps^-1 matrix used                27
 number of plane-waves for wavefunctions            65
 number of bands                                    20
 number of q-points in IBZ                           6
 number of frequencies                               2
 number of real frequencies                          1
 number of imag frequencies                          1

 matrix elements of self-energy operator (all in [eV])

 Perturbative Calculation
--- !SelfEnergy_ee
kpoint     : [  -0.250,   -0.250,    0.000, ]
spin       : 1
KS_gap     :    8.226
QP_gap     :    9.238
Delta_QP_KS:    1.012
data: !SigmaeeData |
     Band     E0 <VxcLDA>   SigX SigC(E0)      Z dSigC/dE  Sig(E)    E-E0       E
        1  -6.620 -14.984 -24.086   8.674   0.732  -0.366 -15.297  -0.314  -6.933
        2   9.059 -16.229 -19.561   3.958   0.826  -0.211 -15.712   0.517   9.576
        3   9.731 -15.646 -18.100   3.476   0.835  -0.197 -14.792   0.854  10.585
        4   9.731 -15.646 -18.100   3.476   0.835  -0.197 -14.792   0.854  10.585
        5  17.957 -14.218  -7.910  -4.113   0.850  -0.176 -12.352   1.866  19.823
        6  22.962 -13.446  -6.027  -5.120   0.845  -0.183 -11.504   1.942  24.904
        7  27.315 -15.766  -6.819  -5.232   0.830  -0.205 -12.682   3.083  30.399
        8  27.315 -15.766  -6.819  -5.232   0.830  -0.205 -12.682   3.083  30.399
...

--- !SelfEnergy_ee
kpoint     : [  -0.250,    0.250,    0.000, ]
spin       : 1
KS_gap     :    9.926
QP_gap     :   11.085
Delta_QP_KS:    1.159
data: !SigmaeeData |
     Band     E0 <VxcLDA>   SigX SigC(E0)      Z dSigC/dE  Sig(E)    E-E0       E
        1  -4.273 -15.183 -23.538   7.847   0.730  -0.370 -15.553  -0.371  -4.644
        2   4.526 -15.666 -20.499   5.038   0.806  -0.240 -15.501   0.165   4.691
        3   6.092 -14.987 -18.566   4.059   0.823  -0.215 -14.592   0.395   6.486
        4  11.516 -15.986 -18.124   3.307   0.839  -0.192 -15.005   0.980  12.496
        5  21.442 -14.227  -7.050  -4.653   0.847  -0.180 -12.088   2.139  23.581
        6  25.318 -15.301  -6.736  -5.180   0.834  -0.200 -12.480   2.821  28.139
        7  27.074 -15.126  -6.788  -5.175   0.834  -0.199 -12.488   2.639  29.713
        8  27.568 -14.931  -5.655  -5.988   0.821  -0.218 -12.231   2.700  30.268
...

--- !SelfEnergy_ee
kpoint     : [   0.500,    0.500,    0.000, ]
spin       : 1
KS_gap     :   10.135
QP_gap     :   11.140
Delta_QP_KS:    1.005
data: !SigmaeeData |
     Band     E0 <VxcLDA>   SigX SigC(E0)      Z dSigC/dE  Sig(E)    E-E0       E
        1  -0.013 -15.456 -22.215   6.485   0.775  -0.290 -15.668  -0.212  -0.225
        2  -0.013 -15.456 -22.215   6.485   0.775  -0.290 -15.668  -0.212  -0.225
        3   7.315 -15.547 -18.923   4.123   0.826  -0.211 -14.930   0.617   7.932
        4   7.315 -15.547 -18.923   4.123   0.826  -0.211 -14.930   0.617   7.932
        5  17.450 -13.534  -7.397  -4.237   0.853  -0.172 -11.913   1.622  19.072
        6  17.450 -13.534  -7.397  -4.237   0.853  -0.172 -11.913   1.622  19.072
        7  33.419 -16.023  -4.879  -6.772   0.789  -0.268 -12.575   3.448  36.867
        8  33.419 -16.023  -4.879  -6.772   0.789  -0.268 -12.575   3.448  36.867
...

--- !SelfEnergy_ee
kpoint     : [  -0.250,    0.500,    0.250, ]
spin       : 1
KS_gap     :   19.559
QP_gap     :   21.454
Delta_QP_KS:    1.895
data: !SigmaeeData |
     Band     E0 <VxcLDA>   SigX SigC(E0)      Z dSigC/dE  Sig(E)    E-E0       E
        1   0.961 -15.798 -22.455   6.330   0.780  -0.282 -16.053  -0.255   0.706
        2   0.961 -15.798 -22.455   6.330   0.780  -0.282 -16.053  -0.255   0.706
        3   5.172 -14.734 -18.542   4.251   0.819  -0.221 -14.371   0.363   5.536
        4   5.172 -14.734 -18.542   4.251   0.819  -0.221 -14.371   0.363   5.536
        5  24.731 -13.805  -6.241  -4.895   0.846  -0.182 -11.547   2.258  26.990
        6  24.731 -13.805  -6.241  -4.895   0.846  -0.182 -11.547   2.258  26.990
        7  26.269 -15.429  -6.468  -5.634   0.826  -0.210 -12.679   2.750  29.018
        8  26.269 -15.429  -6.468  -5.634   0.826  -0.210 -12.679   2.750  29.018
...

--- !SelfEnergy_ee
kpoint     : [   0.500,    0.000,    0.000, ]
spin       : 1
KS_gap     :    9.269
QP_gap     :   10.289
Delta_QP_KS:    1.020
data: !SigmaeeData |
     Band     E0 <VxcLDA>   SigX SigC(E0)      Z dSigC/dE  Sig(E)    E-E0       E
        1  -3.087 -15.573 -23.705   7.636   0.741  -0.349 -15.941  -0.368  -3.455
        2  -0.289 -14.591 -20.730   6.073   0.775  -0.290 -14.642  -0.051  -0.340
        3  12.053 -16.173 -18.268   3.264   0.840  -0.191 -15.192   0.981  13.035
        4  12.053 -16.173 -18.268   3.264   0.840  -0.191 -15.192   0.981  13.035
        5  21.322 -15.292  -8.026  -4.877   0.838  -0.194 -13.291   2.001  23.324
        6  23.226 -14.564  -7.017  -4.671   0.846  -0.182 -12.131   2.433  25.659
        7  23.226 -14.564  -7.017  -4.671   0.846  -0.182 -12.131   2.433  25.659
        8  29.916 -12.642  -3.706  -6.198   0.824  -0.214 -10.387   2.256  32.172
...

--- !SelfEnergy_ee
kpoint     : [   0.000,    0.000,    0.000, ]
spin       : 1
KS_gap     :    4.890
QP_gap     :    6.032
Delta_QP_KS:    1.142
data: !SigmaeeData |
     Band     E0 <VxcLDA>   SigX SigC(E0)      Z dSigC/dE  Sig(E)    E-E0       E
        1  -9.000 -14.857 -24.729   9.601   0.711  -0.406 -15.049  -0.192  -9.192
        2  15.682 -16.502 -17.629   2.630   0.848  -0.179 -15.227   1.275  16.956
        3  15.682 -16.502 -17.629   2.630   0.848  -0.179 -15.227   1.275  16.956
        4  15.682 -16.502 -17.629   2.630   0.848  -0.179 -15.227   1.275  16.956
        5  20.572 -15.038  -7.966  -4.216   0.846  -0.182 -12.622   2.417  22.989
        6  20.572 -15.038  -7.966  -4.216   0.846  -0.182 -12.622   2.417  22.989
        7  20.572 -15.038  -7.966  -4.216   0.846  -0.182 -12.622   2.417  22.989
        8  25.745 -15.802  -6.896  -6.140   0.814  -0.228 -13.549   2.252  27.997
...


 New Fermi energy :        6.620014E-01 Ha ,    1.801397E+01 eV
 New Exchange energy :    -2.972205E+00 Ha ,   -8.087781E+01 eV

 === QP Band Gaps ===
  >>>> For spin  1
   Minimum direct gap =   6.0325 [eV], located at k-point      :   0.0000  0.0000  0.0000
   Fundamental gap    =   2.1154 [eV], Top of valence bands at :   0.0000  0.0000  0.0000
                                       Bottom of conduction at :   0.5000  0.5000  0.0000

================================================================================
== DATASET  2 ==================================================================
-   nproc =    1

 Exchange-correlation functional for the present dataset will be:
  LDA: new Teter (4/93) with spin-polarized option - ixc=1
 Citation for XC functional:
  S. Goedecker, M. Teter, J. Huetter, PRB 54, 1703 (1996)

 SIGMA: Calculation of the GW corrections 

 Based on a program developped by R.W. Godby, V. Olevano, G. Onida, and L. Reining.
 Incorporated in ABINIT by V. Olevano, G.-M. Rignanese, and M. Torrent.
.Using double precision arithmetic ; gwpc =  8

 Real(R)+Recip(G) space primitive vectors, cartesian coordinates (Bohr,Bohr^-1):
 R(1)=  0.0000000  3.3703265  3.3703265  G(1)= -0.1483536  0.1483536  0.1483536
 R(2)=  3.3703265  0.0000000  3.3703265  G(2)=  0.1483536 -0.1483536  0.1483536
 R(3)=  3.3703265  3.3703265  0.0000000  G(3)=  0.1483536  0.1483536 -0.1483536
 Unit cell volume ucvol=  7.6567759E+01 bohr^3
 Angles (23,13,12)=  6.00000000E+01  6.00000000E+01  6.00000000E+01 degrees
--------------------------------------------------------------------------------

 ==== K-mesh for the wavefunctions ====
 Number of points in the irreducible wedge :     6
 Reduced coordinates and weights : 

     1)    -2.50000000E-01 -2.50000000E-01  0.00000000E+00       0.18750
     2)    -2.50000000E-01  2.50000000E-01  0.00000000E+00       0.37500
     3)     5.00000000E-01  5.00000000E-01  0.00000000E+00       0.09375
     4)    -2.50000000E-01  5.00000000E-01  2.50000000E-01       0.18750
     5)     5.00000000E-01  0.00000000E+00  0.00000000E+00       0.12500
     6)     0.00000000E+00  0.00000000E+00  0.00000000E+00       0.03125

 Together with 48 symmetry operations and time-reversal symmetry 
 yields    32 points in the full Brillouin Zone.


 ==== Q-mesh for screening function ====
 Number of points in the irreducible wedge :     6
 Reduced coordinates and weights : 

     1)     0.00000000E+00  0.00000000E+00  0.00000000E+00       0.03125
     2)     5.00000000E-01  5.00000000E-01  0.00000000E+00       0.09375
     3)     5.00000000E-01  2.50000000E-01  2.50000000E-01       0.37500
     4)     0.00000000E+00  5.00000000E-01  0.00000000E+00       0.12500
     5)     5.00000000E-01 -2.50000000E-01  2.50000000E-01       0.18750
     6)     0.00000000E+00 -2.50000000E-01 -2.50000000E-01       0.18750

 Together with 48 symmetry operations and time-reversal symmetry 
 yields    32 points in the full Brillouin Zone.


 setmesh: FFT mesh size selected  =  12x 12x 12
          total number of points  =     1728

 Number of electrons calculated from density =    7.9781; Expected =    8.0000
 average of density, n =  0.104196
 r_s =    1.3183
 omega_plasma =   31.1373 [eV]

 For q-point:  0.000010 0.000020 0.000030
  dielectric constant =  11.8234
  dielectric constant without local fields =  12.3973


 === KS Band Gaps ===
  >>>> For spin  1
   Minimum direct gap =   4.8905 [eV], located at k-point      :   0.0000  0.0000  0.0000
   Fundamental gap    =   1.7682 [eV], Top of valence bands at :   0.0000  0.0000  0.0000
                                       Bottom of conduction at :   0.5000  0.5000  0.0000
 SIGMA fundamental parameters:
 PLASMON POLE MODEL  1
 number of plane-waves for SigmaX                   27
 number of plane-waves for SigmaC and W             27
 number of plane-waves for wavefunctions            65
 number of bands                                    20
 number of independent spin polarizations            1
 number of spinorial components                      1
 number of k-points in IBZ                           6
 number of q-points in IBZ                           6
 number of symmetry operations                      48
 number of k-points in BZ                           32
 number of q-points in BZ                           32
 number of frequencies for dSigma/dE                 9
 frequency step for dSigma/dE [eV]                0.25
 number of omega for Sigma on real axis              0
 max omega for Sigma on real axis  [eV]           0.00
 zcut for avoiding poles [eV]                     0.10

 EPSILON^-1 parameters (SCR file):
 dimension of the eps^-1 matrix on file             27
 dimension of the eps^-1 matrix used                27
 number of plane-waves for wavefunctions            65
 number of bands                                    20
 number of q-points in IBZ                           6
 number of frequencies                               2
 number of real frequencies                          1
 number of imag frequencies                          1

 matrix elements of self-energy operator (all in [eV])

 Perturbative Calculation
--- !SelfEnergy_ee
kpoint     : [  -0.250,   -0.250,    0.000, ]
spin       : 1
KS_gap     :    8.226
QP_gap     :    9.277
Delta_QP_KS:    1.051
data: !SigmaeeData |
     Band     E0 <VxcLDA>   SigX SigC(E0)      Z dSigC/dE  Sig(E)    E-E0       E
        1  -6.620 -14.984 -24.086   8.729   0.722  -0.386 -15.253  -0.270  -6.889
        2   9.059 -16.229 -19.561   4.057   0.829  -0.206 -15.628   0.601   9.660
        3   9.731 -15.646 -18.100   3.589   0.839  -0.192 -14.694   0.953  10.684
        4   9.731 -15.646 -18.100   3.589   0.839  -0.192 -14.694   0.953  10.684
        5  17.957 -14.218  -7.910  -3.967   0.856  -0.168 -12.214   2.003  19.960
        6  22.962 -13.446  -6.027  -4.896   0.851  -0.176 -11.300   2.146  25.107
        7  27.315 -15.766  -6.819  -5.105   0.833  -0.201 -12.566   3.199  30.515
        8  27.315 -15.766  -6.819  -5.105   0.833  -0.201 -12.566   3.199  30.515
...

--- !SelfEnergy_ee
kpoint     : [  -0.250,    0.250,    0.000, ]
spin       : 1
KS_gap     :    9.926
QP_gap     :   11.140
Delta_QP_KS:    1.214
data: !SigmaeeData |
     Band     E0 <VxcLDA>   SigX SigC(E0)      Z dSigC/dE  Sig(E)    E-E0       E
        1  -4.273 -15.183 -23.538   7.935   0.744  -0.344 -15.495  -0.312  -4.585
        2   4.526 -15.666 -20.499   5.133   0.809  -0.236 -15.423   0.243   4.768
        3   6.092 -14.987 -18.566   4.187   0.826  -0.210 -14.484   0.503   6.594
        4  11.516 -15.986 -18.124   3.428   0.842  -0.187 -14.899   1.087  12.602
        5  21.442 -14.227  -7.050  -4.479   0.853  -0.173 -11.927   2.301  23.743
        6  25.318 -15.301  -6.736  -5.050   0.837  -0.194 -12.359   2.942  28.260
        7  27.074 -15.126  -6.788  -5.003   0.838  -0.193 -12.331   2.796  29.870
        8  27.568 -14.931  -5.655  -5.795   0.825  -0.212 -12.060   2.871  30.440
...

--- !SelfEnergy_ee
kpoint     : [   0.500,    0.500,    0.000, ]
spin       : 1
KS_gap     :   10.135
QP_gap     :   11.214
Delta_QP_KS:    1.080
data: !SigmaeeData |
     Band     E0 <VxcLDA>   SigX SigC(E0)      Z dSigC/dE  Sig(E)    E-E0       E
        1  -0.013 -15.456 -22.215   6.555   0.776  -0.289 -15.614  -0.158  -0.172
        2  -0.013 -15.456 -22.215   6.555   0.776  -0.289 -15.614  -0.158  -0.172
        3   7.315 -15.547 -18.923   4.232   0.829  -0.206 -14.838   0.709   8.024
        4   7.315 -15.547 -18.923   4.232   0.829  -0.206 -14.838   0.709   8.024
        5  17.450 -13.534  -7.397  -4.056   0.859  -0.164 -11.746   1.788  19.238
        6  17.450 -13.534  -7.397  -4.056   0.859  -0.164 -11.746   1.788  19.238
        7  33.419 -16.023  -4.879  -6.619   0.793  -0.262 -12.437   3.586  37.005
        8  33.419 -16.023  -4.879  -6.619   0.793  -0.262 -12.437   3.586  37.005
...

--- !SelfEnergy_ee
kpoint     : [  -0.250,    0.500,    0.250, ]
spin       : 1
KS_gap     :   19.559
QP_gap     :   21.548
Delta_QP_KS:    1.989
data: !SigmaeeData |
     Band     E0 <VxcLDA>   SigX SigC(E0)      Z dSigC/dE  Sig(E)    E-E0       E
        1   0.961 -15.798 -22.455   6.391   0.784  -0.276 -16.007  -0.209   0.752
        2   0.961 -15.798 -22.455   6.391   0.784  -0.276 -16.007  -0.209   0.752
        3   5.172 -14.734 -18.542   4.382   0.822  -0.216 -14.262   0.473   5.645
        4   5.172 -14.734 -18.542   4.382   0.822  -0.216 -14.262   0.473   5.645
        5  24.731 -13.805  -6.241  -4.673   0.852  -0.174 -11.343   2.462  27.193
        6  24.731 -13.805  -6.241  -4.673   0.852  -0.174 -11.343   2.462  27.193
        7  26.269 -15.429  -6.468  -5.502   0.829  -0.206 -12.560   2.869  29.138
        8  26.269 -15.429  -6.468  -5.502   0.829  -0.206 -12.560   2.869  29.138
...

--- !SelfEnergy_ee
kpoint     : [   0.500,    0.000,    0.000, ]
spin       : 1
KS_gap     :    9.269
QP_gap     :   10.304
Delta_QP_KS:    1.035
data: !SigmaeeData |
     Band     E0 <VxcLDA>   SigX SigC(E0)      Z dSigC/dE  Sig(E)    E-E0       E
        1  -3.087 -15.573 -23.705   7.698   0.753  -0.328 -15.900  -0.326  -3.414
        2  -0.289 -14.591 -20.730   6.167   0.782  -0.278 -14.569   0.022  -0.267
        3  12.053 -16.173 -18.268   3.385   0.843  -0.186 -15.085   1.088  13.141
        4  12.053 -16.173 -18.268   3.385   0.843  -0.186 -15.085   1.088  13.141
        5  21.322 -15.292  -8.026  -4.747   0.842  -0.187 -13.170   2.123  23.445
        6  23.226 -14.564  -7.017  -4.520   0.851  -0.176 -11.990   2.574  25.800
        7  23.226 -14.564  -7.017  -4.520   0.851  -0.176 -11.990   2.574  25.800
        8  29.916 -12.642  -3.706  -5.844   0.831  -0.203 -10.073   2.570  32.486
...

--- !SelfEnergy_ee
kpoint     : [   0.000,    0.000,    0.000, ]
spin       : 1
KS_gap     :    4.890
QP_gap     :    6.023
Delta_QP_KS:    1.132
data: !SigmaeeData |
     Band     E0 <VxcLDA>   SigX SigC(E0)      Z dSigC/dE  Sig(E)    E-E0       E
        1  -9.000 -14.857 -24.729   9.756   0.703  -0.423 -14.938  -0.081  -9.081
        2  15.682 -16.502 -17.629   2.761   0.852  -0.174 -15.110   1.392  17.073
        3  15.682 -16.502 -17.629   2.761   0.852  -0.174 -15.110   1.392  17.073
        4  15.682 -16.502 -17.629   2.761   0.852  -0.174 -15.110   1.392  17.073
        5  20.572 -15.038  -7.966  -4.105   0.850  -0.176 -12.515   2.524  23.096
        6  20.572 -15.038  -7.966  -4.105   0.850  -0.176 -12.515   2.524  23.096
        7  20.572 -15.038  -7.966  -4.105   0.850  -0.176 -12.515   2.524  23.096
        8  25.745 -15.802  -6.896  -5.986   0.818  -0.222 -13.413   2.389  28.134
...


 New Fermi energy :        6.672170E-01 Ha ,    1.815590E+01 eV
 New Exchange energy :    -2.972205E+00 Ha ,   -8.087781E+01 eV

 === QP Band Gaps ===
  >>>> For spin  1
   Minimum direct gap =   6.0226 [eV], located at k-point      :   0.0000  0.0000  0.0000
   Fundamental gap    =   2.1650 [eV], Top of valence bands at :   0.0000  0.0000  0.0000
                                       Bottom of conduction at :   0.5000  0.5000  0.0000

================================================================================
== DATASET  3 ==================================================================
-   nproc =    1

 Exchange-correlation functional for the present dataset will be:
  LDA: new Teter (4/93) with spin-polarized option - ixc=1
 Citation for XC functional:
  S. Goedecker, M. Teter, J. Huetter, PRB 54, 1703 (1996)

 SIGMA: Calculation of the GW corrections 

 Based on a program developped by R.W. Godby, V. Olevano, G. Onida, and L. Reining.
 Incorporated in ABINIT by V. Olevano, G.-M. Rignanese, and M. Torrent.
.Using double precision arithmetic ; gwpc =  8

 Real(R)+Recip(G) space primitive vectors, cartesian coordinates (Bohr,Bohr^-1):
 R(1)=  0.0000000  3.3703265  3.3703265  G(1)= -0.1483536  0.1483536  0.1483536
 R(2)=  3.3703265  0.0000000  3.3703265  G(2)=  0.1483536 -0.1483536  0.1483536
 R(3)=  3.3703265  3.3703265  0.0000000  G(3)=  0.1483536  0.1483536 -0.1483536
 Unit cell volume ucvol=  7.6567759E+01 bohr^3
 Angles (23,13,12)=  6.00000000E+01  6.00000000E+01  6.00000000E+01 degrees
--------------------------------------------------------------------------------

 ==== K-mesh for the wavefunctions ====
 Number of points in the irreducible wedge :     6
 Reduced coordinates and weights : 

     1)    -2.50000000E-01 -2.50000000E-01  0.00000000E+00       0.18750
     2)    -2.50000000E-01  2.50000000E-01  0.00000000E+00       0.37500
     3)     5.00000000E-01  5.00000000E-01  0.00000000E+00       0.09375
     4)    -2.50000000E-01  5.00000000E-01  2.50000000E-01       0.18750
     5)     5.00000000E-01  0.00000000E+00  0.00000000E+00       0.12500
     6)     0.00000000E+00  0.00000000E+00  0.00000000E+00       0.03125

 Together with 48 symmetry operations and time-reversal symmetry 
 yields    32 points in the full Brillouin Zone.


 ==== Q-mesh for screening function ====
 Number of points in the irreducible wedge :     6
 Reduced coordinates and weights : 

     1)     0.00000000E+00  0.00000000E+00  0.00000000E+00       0.03125
     2)     5.00000000E-01  5.00000000E-01  0.00000000E+00       0.09375
     3)     5.00000000E-01  2.50000000E-01  2.50000000E-01       0.37500
     4)     0.00000000E+00  5.00000000E-01  0.00000000E+00       0.12500
     5)     5.00000000E-01 -2.50000000E-01  2.50000000E-01       0.18750
     6)     0.00000000E+00 -2.50000000E-01 -2.50000000E-01       0.18750

 Together with 48 symmetry operations and time-reversal symmetry 
 yields    32 points in the full Brillouin Zone.


 setmesh: FFT mesh size selected  =  12x 12x 12
          total number of points  =     1728

 Number of electrons calculated from density =    7.9781; Expected =    8.0000
 average of density, n =  0.104196
 r_s =    1.3183
 omega_plasma =   31.1373 [eV]


 rdqps: reading QP wavefunctions of the previous step 
        looking for file t05i_DS3_QPS
 Number of iteration(s) already performed:    1

 Number of electrons calculated from density =    7.9783; Expected =    8.0000
 average of density, n =  0.104199
 r_s =    1.3183
 omega_plasma =   31.1377 [eV]


--------------------------------------------------------------------------------

 QP results after the unitary transformation in the KS subspace: 

  Number of electrons    =    7.9783

  QP Band energy    [Ha] =  1.44534128644985E+00
  QP Hartree energy [Ha] =  8.09317581399841E-01

--------------------------------------------------------------------------------

 === KS Band Gaps ===
  >>>> For spin  1
   Minimum direct gap =   4.8905 [eV], located at k-point      :   0.0000  0.0000  0.0000
   Fundamental gap    =   1.7682 [eV], Top of valence bands at :   0.0000  0.0000  0.0000
                                       Bottom of conduction at :   0.5000  0.5000  0.0000
 SIGMA fundamental parameters:
 MODEL GW with PLASMON POLE MODEL  1
 number of plane-waves for SigmaX                   27
 number of plane-waves for SigmaC and W             27
 number of plane-waves for wavefunctions            65
 number of bands                                    20
 number of independent spin polarizations            1
 number of spinorial components                      1
 number of k-points in IBZ                           6
 number of q-points in IBZ                           6
 number of symmetry operations                      48
 number of k-points in BZ                           32
 number of q-points in BZ                           32
 number of frequencies for dSigma/dE                 1
 frequency step for dSigma/dE [eV]                0.00
 number of omega for Sigma on real axis              0
 max omega for Sigma on real axis  [eV]           0.00
 zcut for avoiding poles [eV]                     0.10

 EPSILON^-1 parameters (SCR file):
 dimension of the eps^-1 matrix on file             27
 dimension of the eps^-1 matrix used                27
 number of plane-waves for wavefunctions            65
 number of bands                                    20
 number of q-points in IBZ                           6
 number of frequencies                               2
 number of real frequencies                          1
 number of imag frequencies                          1

 matrix elements of self-energy operator (all in [eV])

 Self-Consistent on Energies and Wavefunctions
--- !SelfEnergy_ee
kpoint     : [  -0.250,   -0.250,    0.000, ]
spin       : 1
KS_gap     :    9.395
QP_gap     :    9.326
Delta_QP_KS:   -0.069
data: !SigmaeeData |
     Band     E_lda   <Vxclda>   E(N-1)  <Hhartree>   SigX  SigC[E(N-1)]    Z     dSigC/dE  Sig[E(N)]  DeltaE  E(N)_pert E(N)_diago
        1    -6.620   -14.984    -7.052     8.370   -24.121     9.033     1.000     0.000   -15.088     0.335    -6.717    -6.720
        2     9.059   -16.229     9.725    25.282   -19.517     3.984     1.000     0.000   -15.533     0.023     9.749     9.749
        3     9.731   -15.646    10.771    25.358   -18.037     3.444     1.000     0.000   -14.593    -0.007    10.765    10.765
        4     9.731   -15.646    10.774    25.357   -18.032     3.443     1.000     0.000   -14.590    -0.007    10.768    10.768
        5    17.957   -14.218    20.169    32.155    -7.901    -4.160     1.000     0.000   -12.061    -0.076    20.094    20.096
        6    22.962   -13.446    25.281    36.397    -6.051    -5.152     1.000     0.000   -11.203    -0.087    25.194    25.194
        7    27.315   -15.766    31.021    43.070    -6.817    -5.482     1.000     0.000   -12.299    -0.250    30.772    30.772
        8    27.315   -15.766    31.030    43.071    -6.818    -5.474     1.000     0.000   -12.292    -0.251    30.779    30.779
...

--- !SelfEnergy_ee
kpoint     : [  -0.250,    0.250,    0.000, ]
spin       : 1
KS_gap     :   11.277
QP_gap     :   11.188
Delta_QP_KS:   -0.089
data: !SigmaeeData |
     Band     E_lda   <Vxclda>   E(N-1)  <Hhartree>   SigX  SigC[E(N-1)]    Z     dSigC/dE  Sig[E(N)]  DeltaE  E(N)_pert E(N)_diago
        1    -4.273   -15.183    -4.787    10.916   -23.595     8.166     1.000     0.000   -15.429     0.274    -4.513    -4.513
        2     4.526   -15.666     4.711    20.178   -20.515     5.129     1.000     0.000   -15.386     0.082     4.793     4.793
        3     6.092   -14.987     6.565    21.027   -18.489     4.078     1.000     0.000   -14.411     0.052     6.616     6.616
        4    11.516   -15.986    12.668    27.484   -18.098     3.271     1.000     0.000   -14.826    -0.010    12.657    12.657
        5    21.442   -14.227    23.945    35.587    -7.030    -4.711     1.000     0.000   -11.741    -0.099    23.846    23.846
        6    25.318   -15.301    28.695    40.608    -6.742    -5.373     1.000     0.000   -12.114    -0.201    28.494    28.494
        7    27.074   -15.126    30.231    42.215    -6.849    -5.338     1.000     0.000   -12.187    -0.203    30.028    30.028
        8    27.568   -14.931    30.870    42.571    -5.768    -6.161     1.000     0.000   -11.928    -0.227    30.643    30.643
...

--- !SelfEnergy_ee
kpoint     : [   0.500,    0.500,    0.000, ]
spin       : 1
KS_gap     :   11.280
QP_gap     :   11.205
Delta_QP_KS:   -0.074
data: !SigmaeeData |
     Band     E_lda   <Vxclda>   E(N-1)  <Hhartree>   SigX  SigC[E(N-1)]    Z     dSigC/dE  Sig[E(N)]  DeltaE  E(N)_pert E(N)_diago
        1    -0.013   -15.456    -0.290    15.453   -22.255     6.679     1.000     0.000   -15.576     0.166    -0.123    -0.123
        2    -0.013   -15.456    -0.249    15.453   -22.219     6.676     1.000     0.000   -15.543     0.160    -0.090    -0.090
        3     7.315   -15.547     8.066    22.848   -18.872     4.113     1.000     0.000   -14.759     0.022     8.088     8.088
        4     7.315   -15.547     8.070    22.848   -18.867     4.111     1.000     0.000   -14.756     0.022     8.091     8.091
        5    17.450   -13.534    19.349    30.961    -7.427    -4.238     1.000     0.000   -11.665    -0.053    19.296    19.296
        6    17.450   -13.534    19.357    30.962    -7.417    -4.241     1.000     0.000   -11.658    -0.053    19.304    19.304
        7    33.419   -16.023    37.795    49.427    -4.867    -7.259     1.000     0.000   -12.126    -0.494    37.301    37.294
        8    33.419   -16.023    37.801    49.427    -4.861    -7.272     1.000     0.000   -12.134    -0.507    37.294    37.301
...

--- !SelfEnergy_ee
kpoint     : [  -0.250,    0.500,    0.250, ]
spin       : 1
KS_gap     :   21.762
QP_gap     :   21.579
Delta_QP_KS:   -0.183
data: !SigmaeeData |
     Band     E_lda   <Vxclda>   E(N-1)  <Hhartree>   SigX  SigC[E(N-1)]    Z     dSigC/dE  Sig[E(N)]  DeltaE  E(N)_pert E(N)_diago
        1     0.961   -15.798     0.636    16.754   -22.468     6.527     1.000     0.000   -15.941     0.177     0.813     0.813
        2     0.961   -15.798     0.660    16.754   -22.444     6.521     1.000     0.000   -15.923     0.171     0.831     0.831
        3     5.172   -14.734     5.619    19.847   -18.432     4.260     1.000     0.000   -14.172     0.056     5.675     5.675
        4     5.172   -14.734     5.641    19.848   -18.413     4.260     1.000     0.000   -14.153     0.054     5.695     5.695
        5    24.731   -13.805    27.403    38.585    -6.330    -4.981     1.000     0.000   -11.311    -0.129    27.274    27.274
        6    24.731   -13.805    27.427    38.586    -6.308    -4.982     1.000     0.000   -11.290    -0.130    27.296    27.296
        7    26.269   -15.429    29.592    41.677    -6.489    -5.811     1.000     0.000   -12.300    -0.215    29.377    29.377
        8    26.269   -15.429    29.619    41.676    -6.455    -5.821     1.000     0.000   -12.276    -0.219    29.400    29.400
...

--- !SelfEnergy_ee
kpoint     : [   0.500,    0.000,    0.000, ]
spin       : 1
KS_gap     :   10.485
QP_gap     :   10.392
Delta_QP_KS:   -0.093
data: !SigmaeeData |
     Band     E_lda   <Vxclda>   E(N-1)  <Hhartree>   SigX  SigC[E(N-1)]    Z     dSigC/dE  Sig[E(N)]  DeltaE  E(N)_pert E(N)_diago
        1    -3.087   -15.573    -3.597    12.461   -23.745     7.909     1.000     0.000   -15.836     0.221    -3.375    -3.375
        2    -0.289   -14.591    -0.378    14.313   -20.794     6.246     1.000     0.000   -14.547     0.144    -0.234    -0.234
        3    12.053   -16.173    13.189    28.208   -18.257     3.230     1.000     0.000   -15.027    -0.007    13.181    13.181
        4    12.053   -16.173    13.208    28.208   -18.242     3.233     1.000     0.000   -15.009    -0.009    13.199    13.199
        5    21.322   -15.292    23.694    36.587    -8.097    -4.899     1.000     0.000   -12.996    -0.102    23.591    23.591
        6    23.226   -14.564    26.077    37.784    -7.039    -4.799     1.000     0.000   -11.838    -0.131    25.945    25.945
        7    23.226   -14.564    26.082    37.784    -7.037    -4.797     1.000     0.000   -11.835    -0.133    25.949    25.949
        8    29.916   -12.642    32.644    42.578    -3.756    -6.303     1.000     0.000   -10.059    -0.125    32.519    32.519
...

--- !SelfEnergy_ee
kpoint     : [   0.000,    0.000,    0.000, ]
spin       : 1
KS_gap     :    6.224
QP_gap     :    6.142
Delta_QP_KS:   -0.082
data: !SigmaeeData |
     Band     E_lda   <Vxclda>   E(N-1)  <Hhartree>   SigX  SigC[E(N-1)]    Z     dSigC/dE  Sig[E(N)]  DeltaE  E(N)_pert E(N)_diago
        1    -9.000   -14.857    -9.270     5.848   -24.746     9.805     1.000     0.000   -14.941     0.177    -9.093    -9.095
        2    15.682   -16.502    17.177    32.163   -17.599     2.572     1.000     0.000   -15.027    -0.041    17.136    17.136
        3    15.682   -16.502    17.181    32.163   -17.599     2.576     1.000     0.000   -15.023    -0.041    17.140    17.140
        4    15.682   -16.502    17.196    32.163   -17.588     2.578     1.000     0.000   -15.010    -0.043    17.153    17.153
        5    20.572   -15.038    23.420    35.601    -7.973    -4.334     1.000     0.000   -12.306    -0.125    23.295    23.295
        6    20.572   -15.038    23.421    35.601    -7.973    -4.333     1.000     0.000   -12.305    -0.125    23.296    23.296
        7    20.572   -15.038    23.444    35.601    -7.949    -4.337     1.000     0.000   -12.285    -0.128    23.316    23.316
        8    25.745   -15.802    28.512    41.537    -7.000    -6.210     1.000     0.000   -13.210    -0.184    28.327    28.329
...


 New Fermi energy :        6.697506E-01 Ha ,    1.822484E+01 eV
 New Exchange energy :    -2.969186E+00 Ha ,   -8.079566E+01 eV

 === QP Band Gaps ===
  >>>> For spin  1
   Minimum direct gap =   6.1415 [eV], located at k-point      :   0.0000  0.0000  0.0000
   Fundamental gap    =   2.1432 [eV], Top of valence bands at :   0.0000  0.0000  0.0000
                                       Bottom of conduction at :   0.5000  0.5000  0.0000

 writing QP data on file : t05o_DS3_QPS

 Convergence of QP corrections
 >>>>> For spin  1 <<<<<
.  kptgw no:  1; Maximum DeltaE = (   0.335  -0.095) for band index:  1
.  kptgw no:  2; Maximum DeltaE = (   0.274  -0.028) for band index:  1
.  kptgw no:  3; Maximum DeltaE = (  -0.507  -0.002) for band index:  8
.  kptgw no:  4; Maximum DeltaE = (  -0.219  -0.000) for band index:  8
.  kptgw no:  5; Maximum DeltaE = (   0.221   0.003) for band index:  1
.  kptgw no:  6; Maximum DeltaE = (   0.177  -0.330) for band index:  1

== END DATASET(S) ==============================================================
================================================================================
  
 -outvars: echo values of variables after computation  --------
            acell      6.7406530879E+00  6.7406530879E+00  6.7406530879E+00 Bohr
              amu      1.20110000E+01
             bdgw           1       8       1       8       1       8       1       8
                            1       8       1       8
             ecut      6.95097571E+00 Hartree
          ecuteps      3.47548785E+00 Hartree
         ecutsigx      3.47548785E+00 Hartree
          ecutwfn      6.95097571E+00 Hartree
           enunit           1
           etotal1     0.0000000000E+00
           etotal2     0.0000000000E+00
           etotal3     0.0000000000E+00
            fcart1     0.0000000000E+00  0.0000000000E+00  0.0000000000E+00
                       0.0000000000E+00  0.0000000000E+00  0.0000000000E+00
            fcart2     0.0000000000E+00  0.0000000000E+00  0.0000000000E+00
                       0.0000000000E+00  0.0000000000E+00  0.0000000000E+00
            fcart3     0.0000000000E+00  0.0000000000E+00  0.0000000000E+00
                       0.0000000000E+00  0.0000000000E+00  0.0000000000E+00
-          fftalg         312
        gwcalctyp1          0
        gwcalctyp2          0
        gwcalctyp3         28
          gwgamma1          0
          gwgamma2          1
          gwgamma3          0
         icutcoul           3
           irdqps1          0
           irdqps2          0
           irdqps3          1
           irdscr1          1
           irdscr2          0
           irdscr3          1
        irdsuscep1          0
        irdsuscep2          1
        irdsuscep3          0
           irdwfk           1
           istwfk        0    0    1    0    1    1
           jdtset        1    2    3
              kpt     -2.50000000E-01 -2.50000000E-01  0.00000000E+00
                      -2.50000000E-01  2.50000000E-01  0.00000000E+00
                       5.00000000E-01  5.00000000E-01  0.00000000E+00
                      -2.50000000E-01  5.00000000E-01  2.50000000E-01
                       5.00000000E-01  0.00000000E+00  0.00000000E+00
                       0.00000000E+00  0.00000000E+00  0.00000000E+00
            kptgw     -2.50000000E-01 -2.50000000E-01  0.00000000E+00
                      -2.50000000E-01  2.50000000E-01  0.00000000E+00
                       5.00000000E-01  5.00000000E-01  0.00000000E+00
                      -2.50000000E-01  5.00000000E-01  2.50000000E-01
                       5.00000000E-01  0.00000000E+00  0.00000000E+00
                       0.00000000E+00  0.00000000E+00  0.00000000E+00
         kptrlatt        2   -2    2     -2    2    2     -2   -2    2
          kptrlen      1.34813062E+01
P           mkmem           6
            natom           2
            nband          20
           ndtset           3
            ngfft          12      12      12
             nkpt           6
           nkptgw           6
           npweps          27
          npwsigx          27
           npwwfn          65
             nsym          48
           ntypat           1
              occ      2.000000  2.000000  2.000000  2.000000  0.000000  0.000000
                       0.000000  0.000000  0.000000  0.000000  0.000000  0.000000
                       0.000000  0.000000  0.000000  0.000000  0.000000  0.000000
                       0.000000  0.000000
        optdriver           4
            rprim      0.0000000000E+00  5.0000000000E-01  5.0000000000E-01
                       5.0000000000E-01  0.0000000000E+00  5.0000000000E-01
                       5.0000000000E-01  5.0000000000E-01  0.0000000000E+00
          spgroup         227
           strten1     0.0000000000E+00  0.0000000000E+00  0.0000000000E+00
                       0.0000000000E+00  0.0000000000E+00  0.0000000000E+00
           strten2     0.0000000000E+00  0.0000000000E+00  0.0000000000E+00
                       0.0000000000E+00  0.0000000000E+00  0.0000000000E+00
           strten3     0.0000000000E+00  0.0000000000E+00  0.0000000000E+00
                       0.0000000000E+00  0.0000000000E+00  0.0000000000E+00
           symrel      1  0  0   0  1  0   0  0  1      -1  0  0   0 -1  0   0  0 -1
                       0 -1  1   0 -1  0   1 -1  0       0  1 -1   0  1  0  -1  1  0
                      -1  0  0  -1  0  1  -1  1  0       1  0  0   1  0 -1   1 -1  0
                       0  1 -1   1  0 -1   0  0 -1       0 -1  1  -1  0  1   0  0  1
                      -1  0  0  -1  1  0  -1  0  1       1  0  0   1 -1  0   1  0 -1
                       0 -1  1   1 -1  0   0 -1  0       0  1 -1  -1  1  0   0  1  0
                       1  0  0   0  0  1   0  1  0      -1  0  0   0  0 -1   0 -1  0
                       0  1 -1   0  0 -1   1  0 -1       0 -1  1   0  0  1  -1  0  1
                      -1  0  1  -1  1  0  -1  0  0       1  0 -1   1 -1  0   1  0  0
                       0 -1  0   1 -1  0   0 -1  1       0  1  0  -1  1  0   0  1 -1
                       1  0 -1   0  0 -1   0  1 -1      -1  0  1   0  0  1   0 -1  1
                       0  1  0   0  0  1   1  0  0       0 -1  0   0  0 -1  -1  0  0
                       1  0 -1   0  1 -1   0  0 -1      -1  0  1   0 -1  1   0  0  1
                       0 -1  0   0 -1  1   1 -1  0       0  1  0   0  1 -1  -1  1  0
                      -1  0  1  -1  0  0  -1  1  0       1  0 -1   1  0  0   1 -1  0
                       0  1  0   1  0  0   0  0  1       0 -1  0  -1  0  0   0  0 -1
                       0  0 -1   0  1 -1   1  0 -1       0  0  1   0 -1  1  -1  0  1
                       1 -1  0   0 -1  1   0 -1  0      -1  1  0   0  1 -1   0  1  0
                       0  0  1   1  0  0   0  1  0       0  0 -1  -1  0  0   0 -1  0
                      -1  1  0  -1  0  0  -1  0  1       1 -1  0   1  0  0   1  0 -1
                       0  0  1   0  1  0   1  0  0       0  0 -1   0 -1  0  -1  0  0
                       1 -1  0   0 -1  0   0 -1  1      -1  1  0   0  1  0   0  1 -1
                       0  0 -1   1  0 -1   0  1 -1       0  0  1  -1  0  1   0 -1  1
                      -1  1  0  -1  0  1  -1  0  0       1 -1  0   1  0 -1   1  0  0
         symsigma1       1
         symsigma2       1
         symsigma3       0
            tnons      0.0000000  0.0000000  0.0000000     0.2500000  0.2500000  0.2500000
                       0.0000000  0.0000000  0.0000000     0.2500000  0.2500000  0.2500000
                       0.0000000  0.0000000  0.0000000     0.2500000  0.2500000  0.2500000
                       0.0000000  0.0000000  0.0000000     0.2500000  0.2500000  0.2500000
                       0.0000000  0.0000000  0.0000000     0.2500000  0.2500000  0.2500000
                       0.0000000  0.0000000  0.0000000     0.2500000  0.2500000  0.2500000
                       0.0000000  0.0000000  0.0000000     0.2500000  0.2500000  0.2500000
                       0.0000000  0.0000000  0.0000000     0.2500000  0.2500000  0.2500000
                       0.0000000  0.0000000  0.0000000     0.2500000  0.2500000  0.2500000
                       0.0000000  0.0000000  0.0000000     0.2500000  0.2500000  0.2500000
                       0.0000000  0.0000000  0.0000000     0.2500000  0.2500000  0.2500000
                       0.0000000  0.0000000  0.0000000     0.2500000  0.2500000  0.2500000
                       0.0000000  0.0000000  0.0000000     0.2500000  0.2500000  0.2500000
                       0.0000000  0.0000000  0.0000000     0.2500000  0.2500000  0.2500000
                       0.0000000  0.0000000  0.0000000     0.2500000  0.2500000  0.2500000
                       0.0000000  0.0000000  0.0000000     0.2500000  0.2500000  0.2500000
                       0.0000000  0.0000000  0.0000000     0.2500000  0.2500000  0.2500000
                       0.0000000  0.0000000  0.0000000     0.2500000  0.2500000  0.2500000
                       0.0000000  0.0000000  0.0000000     0.2500000  0.2500000  0.2500000
                       0.0000000  0.0000000  0.0000000     0.2500000  0.2500000  0.2500000
                       0.0000000  0.0000000  0.0000000     0.2500000  0.2500000  0.2500000
                       0.0000000  0.0000000  0.0000000     0.2500000  0.2500000  0.2500000
                       0.0000000  0.0000000  0.0000000     0.2500000  0.2500000  0.2500000
                       0.0000000  0.0000000  0.0000000     0.2500000  0.2500000  0.2500000
            typat      1  1
              wtk        0.18750    0.37500    0.09375    0.18750    0.12500    0.03125
           xangst      0.0000000000E+00  0.0000000000E+00  0.0000000000E+00
                       8.9174999628E-01  8.9174999628E-01  8.9174999628E-01
            xcart      0.0000000000E+00  0.0000000000E+00  0.0000000000E+00
                       1.6851632720E+00  1.6851632720E+00  1.6851632720E+00
             xred      0.0000000000E+00  0.0000000000E+00  0.0000000000E+00
                       2.5000000000E-01  2.5000000000E-01  2.5000000000E-01
            znucl        6.00000

================================================================================


- Timing analysis has been suppressed with timopt=0



================================================================================

 Suggested references for the acknowledgment of ABINIT usage.

 The users of ABINIT have little formal obligations with respect to the ABINIT group
 (those specified in the GNU General Public License, http://www.gnu.org/copyleft/gpl.txt).
 However, it is common practice in the scientific literature,
 to acknowledge the efforts of people that have made the research possible.
 In this spirit, please find below suggested citations of work written by ABINIT developers,
 corresponding to implementations inside of ABINIT that you have used in the present run.
 Note also that it will be of great value to readers of publications presenting these results,
 to read papers enabling them to understand the theoretical formalism and details
 of the ABINIT implementation.
 For information on why they are suggested, see also https://docs.abinit.org/theory/acknowledgments.
-
- [1] Effect of self-consistency on quasiparticles in solids
- F. Bruneval, N. Vast, L. Reining, Phys. Rev. B 74, 045102 (2006).
- Comment: in case gwcalctyp >= 10.
- DOI and bibtex: see https://docs.abinit.org/theory/bibliography/#bruneval2006
-
- [2] The Abinit project: Impact, environment and recent developments.
- Computer Phys. Comm. 248, 107042 (2020).
- X.Gonze, B. Amadon, G. Antonius, F.Arnardi, L.Baguet, J.-M.Beuken,
- J.Bieder, F.Bottin, J.Bouchet, E.Bousquet, N.Brouwer, F.Bruneval,
- G.Brunin, T.Cavignac, J.-B. Charraud, Wei Chen, M.Cote, S.Cottenier,
- J.Denier, G.Geneste, Ph.Ghosez, M.Giantomassi, Y.Gillet, O.Gingras,
- D.R.Hamann, G.Hautier, Xu He, N.Helbig, N.Holzwarth, Y.Jia, F.Jollet,
- W.Lafargue-Dit-Hauret, K.Lejaeghere, M.A.L.Marques, A.Martin, C.Martins,
- H.P.C. Miranda, F.Naccarato, K. Persson, G.Petretto, V.Planes, Y.Pouillon,
- S.Prokhorenko, F.Ricci, G.-M.Rignanese, A.H.Romero, M.M.Schmitt, M.Torrent,
- M.J.van Setten, B.Van Troeye, M.J.Verstraete, G.Zerah and J.W.Zwanzig
- Comment: the fifth generic paper describing the ABINIT project.
- Note that a version of this paper, that is not formatted for Computer Phys. Comm. 
- is available at https://www.abinit.org/sites/default/files/ABINIT20.pdf .
- The licence allows the authors to put it on the Web.
- DOI and bibtex: see https://docs.abinit.org/theory/bibliography/#gonze2020
-
- [3] Recent developments in the ABINIT software package.
- Computer Phys. Comm. 205, 106 (2016).
- X.Gonze, F.Jollet, F.Abreu Araujo, D.Adams, B.Amadon, T.Applencourt,
- C.Audouze, J.-M.Beuken, J.Bieder, A.Bokhanchuk, E.Bousquet, F.Bruneval
- D.Caliste, M.Cote, F.Dahm, F.Da Pieve, M.Delaveau, M.Di Gennaro,
- B.Dorado, C.Espejo, G.Geneste, L.Genovese, A.Gerossier, M.Giantomassi,
- Y.Gillet, D.R.Hamann, L.He, G.Jomard, J.Laflamme Janssen, S.Le Roux,
- A.Levitt, A.Lherbier, F.Liu, I.Lukacevic, A.Martin, C.Martins,
- M.J.T.Oliveira, S.Ponce, Y.Pouillon, T.Rangel, G.-M.Rignanese,
- A.H.Romero, B.Rousseau, O.Rubel, A.A.Shukri, M.Stankovski, M.Torrent,
- M.J.Van Setten, B.Van Troeye, M.J.Verstraete, D.Waroquier, J.Wiktor,
- B.Xu, A.Zhou, J.W.Zwanziger.
- Comment: the fourth generic paper describing the ABINIT project.
- Note that a version of this paper, that is not formatted for Computer Phys. Comm. 
- is available at https://www.abinit.org/sites/default/files/ABINIT16.pdf .
- The licence allows the authors to put it on the Web.
- DOI and bibtex: see https://docs.abinit.org/theory/bibliography/#gonze2016
-
- [4] ABINIT: First-principles approach of materials and nanosystem properties.
- Computer Phys. Comm. 180, 2582-2615 (2009).
- X. Gonze, B. Amadon, P.-M. Anglade, J.-M. Beuken, F. Bottin, P. Boulanger, F. Bruneval,
- D. Caliste, R. Caracas, M. Cote, T. Deutsch, L. Genovese, Ph. Ghosez, M. Giantomassi
- S. Goedecker, D.R. Hamann, P. Hermet, F. Jollet, G. Jomard, S. Leroux, M. Mancini, S. Mazevet,
- M.J.T. Oliveira, G. Onida, Y. Pouillon, T. Rangel, G.-M. Rignanese, D. Sangalli, R. Shaltaf,
- M. Torrent, M.J. Verstraete, G. Zerah, J.W. Zwanziger
- Comment: the third generic paper describing the ABINIT project.
- Note that a version of this paper, that is not formatted for Computer Phys. Comm. 
- is available at https://www.abinit.org/sites/default/files/ABINIT_CPC_v10.pdf .
- The licence allows the authors to put it on the Web.
- DOI and bibtex: see https://docs.abinit.org/theory/bibliography/#gonze2009
-
- And optionally:
-
- [5] A brief introduction to the ABINIT software package.
- Z. Kristallogr. 220, 558-562 (2005).
- X. Gonze, G.-M. Rignanese, M. Verstraete, J.-M. Beuken, Y. Pouillon, R. Caracas, F. Jollet,
- M. Torrent, G. Zerah, M. Mikami, Ph. Ghosez, M. Veithen, J.-Y. Raty, V. Olevano, F. Bruneval,
- L. Reining, R. Godby, G. Onida, D.R. Hamann, and D.C. Allan.
- Comment: the second generic paper describing the ABINIT project. Note that this paper
- should be cited especially if you are using the GW part of ABINIT, as several authors
- of this part are not in the list of authors of the first or third paper.
- The .pdf of the latter paper is available at https://www.abinit.org/sites/default/files/zfk_0505-06_558-562.pdf.
- Note that it should not redistributed (Copyright by Oldenburg Wissenschaftverlag,
- the licence allows the authors to put it on the Web).
- DOI and bibtex: see https://docs.abinit.org/theory/bibliography/#gonze2005
-
- Proc.   0 individual time (sec): cpu=          6.0  wall=          8.9

================================================================================

 Calculation completed.
.Delivered  15 WARNINGs and   3 COMMENTs to log file.
+Overall time at end (sec) : cpu=          6.0  wall=          8.9
