
.Version 8.11.14 of ABINIT 
.(MPI version, prepared for a x86_64_linux_gnu9.2 computer) 

.Copyright (C) 1998-2020 ABINIT group . 
 ABINIT comes with ABSOLUTELY NO WARRANTY.
 It is free software, and you are welcome to redistribute it
 under certain conditions (GNU General Public License,
 see ~abinit/COPYING or http://www.gnu.org/copyleft/gpl.txt).

 ABINIT is a project of the Universite Catholique de Louvain,
 Corning Inc. and other collaborators, see ~abinit/doc/developers/contributors.txt .
 Please read https://docs.abinit.org/theory/acknowledgments for suggested
 acknowledgments of the ABINIT effort.
 For more information, see https://www.abinit.org .

.Starting date : Wed 15 Jan 2020.
- ( at 21h27 )
  
- input  file    -> /home/buildbot/bb/ABINIT/abiref_gnu_9.2_openmpi/mverstra_develop/tests/Test_suite/v67mbpt_t08/t08.in
- output file    -> t08.out
- root for input  files -> t08i
- root for output files -> t08o


 DATASET    1 : space group P3_2 2 1 (#154); Bravais hP (primitive hexag.)
================================================================================
 Values of the parameters that define the memory need for DATASET  1.
     intxc =       0    ionmov =       0      iscf =       7    lmnmax =       3
     lnmax =       3     mgfft =      24  mpssoang =       3    mqgrid =    3001
     natom =       9  nloc_mem =       1    nspden =       1   nspinor =       1
    nsppol =       1      nsym =       6    n1xccc =    2501    ntypat =       2
    occopt =       1   xclevel =       1
-    mband =          55        mffmem =           1         mkmem =           4
       mpw =         546          nfft =       13824          nkpt =           4
================================================================================
P This job should need less than                       6.955 Mbytes of memory.
  Rough estimation (10% accuracy) of disk space for files :
_ WF disk file :      1.835 Mbytes ; DEN or POT disk file :      0.107 Mbytes.
================================================================================


 DATASET    2 : space group P3_2 2 1 (#154); Bravais hP (primitive hexag.)
================================================================================
 Values of the parameters that define the memory need for DATASET  2.
     intxc =       0    ionmov =       0      iscf =       7    lmnmax =       3
     lnmax =       3     mgfft =      24  mpssoang =       3    mqgrid =    3001
     natom =       9  nloc_mem =       1    nspden =       1   nspinor =       1
    nsppol =       1      nsym =       6    n1xccc =    2501    ntypat =       2
    occopt =       1   xclevel =       1
-    mband =          50        mffmem =           1         mkmem =           4
       mpw =         546          nfft =       13824          nkpt =           4
================================================================================
P This job should need less than                       6.769 Mbytes of memory.
  Rough estimation (10% accuracy) of disk space for files :
_ WF disk file :      1.668 Mbytes ; DEN or POT disk file :      0.107 Mbytes.
================================================================================


 DATASET    3 : space group P3_2 2 1 (#154); Bravais hP (primitive hexag.)
================================================================================
 Values of the parameters that define the memory need for DATASET  3.
     intxc =       0    ionmov =       0      iscf =       7    lmnmax =       3
     lnmax =       3     mgfft =      24  mpssoang =       3    mqgrid =    3001
     natom =       9  nloc_mem =       1    nspden =       1   nspinor =       1
    nsppol =       1      nsym =       6    n1xccc =    2501    ntypat =       2
    occopt =       1   xclevel =       1
-    mband =          50        mffmem =           1         mkmem =           4
       mpw =         546          nfft =       13824          nkpt =           4
================================================================================
P This job should need less than                       6.769 Mbytes of memory.
  Rough estimation (10% accuracy) of disk space for files :
_ WF disk file :      1.668 Mbytes ; DEN or POT disk file :      0.107 Mbytes.
================================================================================

--------------------------------------------------------------------------------
------------- Echo of variables that govern the present computation ------------
--------------------------------------------------------------------------------
-
- outvars: echo of selected default values                                      
-   iomode0 =  0 , fftalg0 =312 , wfoptalg0 =  0
-
- outvars: echo of global parameters not present in the input file              
-  max_nthreads =    0
-
 -outvars: echo values of preprocessed input variables --------
            acell      9.2843000799E+00  9.2843000799E+00  1.0213270550E+01 Bohr
              amu      2.80855000E+01  1.59994000E+01
             bdgw3         24      25
           diemac      4.00000000E+00
             ecut1     6.00000000E+00 Hartree
             ecut2     5.99051324E+00 Hartree
             ecut3     5.99051324E+00 Hartree
          ecuteps1     0.00000000E+00 Hartree
          ecuteps2     1.06226803E+00 Hartree
          ecuteps3     0.00000000E+00 Hartree
         ecutsigx1     0.00000000E+00 Hartree
         ecutsigx2     0.00000000E+00 Hartree
         ecutsigx3     5.99051324E+00 Hartree
          ecutwfn1     0.00000000E+00 Hartree
          ecutwfn2     5.99051324E+00 Hartree
          ecutwfn3     5.99051324E+00 Hartree
-          fftalg         312
            fftgw1         21
            fftgw2         11
            fftgw3         11
           getscr1          0
           getscr2          0
           getscr3         -1
           getwfk1          0
           getwfk2         -1
           getwfk3         -2
         icutcoul1          6
         icutcoul2          6
         icutcoul3          3
          inclvkb1          2
          inclvkb2          0
          inclvkb3          2
           jdtset        1    2    3
              kpt      0.00000000E+00  0.00000000E+00  2.50000000E-01
                       3.33333333E-01  0.00000000E+00  2.50000000E-01
                      -3.33333333E-01  0.00000000E+00  2.50000000E-01
                       3.33333333E-01  3.33333333E-01  2.50000000E-01
            kptgw3     0.00000000E+00  0.00000000E+00  2.50000000E-01
         kptrlatt        3    0    0      0    3    0      0    0    2
          kptrlen      2.04265411E+01
P           mkmem           4
            natom           9
            nband1         55
            nband2         50
            nband3         50
           nbdbuf1          5
           nbdbuf2          0
           nbdbuf3          0
           ndtset           3
            ngfft          24      24      24
             nkpt           4
           nkptgw1          0
           nkptgw2          0
           nkptgw3          1
           npweps1          0
           npweps2         41
           npweps3          0
          npwsigx1          0
          npwsigx2          0
          npwsigx3        563
           npwwfn1          0
           npwwfn2        563
           npwwfn3        563
            nstep          20
             nsym           6
           ntypat           2
              occ1     2.000000  2.000000  2.000000  2.000000  2.000000  2.000000
                       2.000000  2.000000  2.000000  2.000000  2.000000  2.000000
                       2.000000  2.000000  2.000000  2.000000  2.000000  2.000000
                       2.000000  2.000000  2.000000  2.000000  2.000000  2.000000
                       0.000000  0.000000  0.000000  0.000000  0.000000  0.000000
                       0.000000  0.000000  0.000000  0.000000  0.000000  0.000000
                       0.000000  0.000000  0.000000  0.000000  0.000000  0.000000
                       0.000000  0.000000  0.000000  0.000000  0.000000  0.000000
                       0.000000  0.000000  0.000000  0.000000  0.000000  0.000000
                       0.000000
              occ2     2.000000  2.000000  2.000000  2.000000  2.000000  2.000000
                       2.000000  2.000000  2.000000  2.000000  2.000000  2.000000
                       2.000000  2.000000  2.000000  2.000000  2.000000  2.000000
                       2.000000  2.000000  2.000000  2.000000  2.000000  2.000000
                       0.000000  0.000000  0.000000  0.000000  0.000000  0.000000
                       0.000000  0.000000  0.000000  0.000000  0.000000  0.000000
                       0.000000  0.000000  0.000000  0.000000  0.000000  0.000000
                       0.000000  0.000000  0.000000  0.000000  0.000000  0.000000
                       0.000000  0.000000
              occ3     2.000000  2.000000  2.000000  2.000000  2.000000  2.000000
                       2.000000  2.000000  2.000000  2.000000  2.000000  2.000000
                       2.000000  2.000000  2.000000  2.000000  2.000000  2.000000
                       2.000000  2.000000  2.000000  2.000000  2.000000  2.000000
                       0.000000  0.000000  0.000000  0.000000  0.000000  0.000000
                       0.000000  0.000000  0.000000  0.000000  0.000000  0.000000
                       0.000000  0.000000  0.000000  0.000000  0.000000  0.000000
                       0.000000  0.000000  0.000000  0.000000  0.000000  0.000000
                       0.000000  0.000000
        optdriver1          0
        optdriver2          3
        optdriver3          4
            rprim      5.0000000000E-01 -8.6602540378E-01  0.0000000000E+00
                       5.0000000000E-01  8.6602540378E-01  0.0000000000E+00
                       0.0000000000E+00  0.0000000000E+00  1.0000000000E+00
           shiftk      0.00000000E+00  0.00000000E+00  5.00000000E-01
          spgroup         154
           symrel      1  0  0   0  1  0   0  0  1       1  0  0  -1 -1  0   0  0 -1
                       0  1  0  -1 -1  0   0  0  1       0  1  0   1  0  0   0  0 -1
                      -1 -1  0   1  0  0   0  0  1      -1 -1  0   0  1  0   0  0 -1
         symsigma1       0
         symsigma2       0
         symsigma3       1
            tnons      0.0000000  0.0000000  0.0000000     0.2500000  0.5000000  0.0000000
                      -0.2500000 -0.0000000 -0.3333333     0.2500000 -0.2500000 -0.3333333
                      -0.2500000 -0.2500000  0.3333333     0.0000000  0.5000000  0.3333333
           tolwfr1     1.00000000E-10
           tolwfr2     0.00000000E+00
           tolwfr3     0.00000000E+00
            typat      2  1  2  2  1  1  2  2  2
              wtk        0.11111    0.33333    0.33333    0.22222
           xangst      3.5300192400E+00 -1.6721432578E+00  3.3508706000E+00
                       2.9846718000E+00 -3.0421944766E+00  2.7023150000E+00
                      -1.9848681600E+00  2.0338027410E+00  5.1524139333E+00
                       3.5300192400E+00 -4.5526546713E-01  2.5221606667E-01
                       2.9846718000E+00  9.1478575170E-01  9.0077166667E-01
                      -2.8986936000E+00  3.1911130873E+00  4.5038583333E+00
                      -9.3102108000E-01  4.9568623290E+00  1.5493272667E+00
                       1.5254989200E+00 -2.8294536041E+00 -3.3508706000E+00
                      -1.9848681600E+00  4.3484234337E+00  3.8553027333E+00
            xcart      6.6707696074E+00 -3.1598928121E+00  6.3322277407E+00
                       5.6402122985E+00 -5.7489144037E+00  5.1066352748E+00
                      -3.7508572323E+00  3.8433301888E+00  9.7366512573E+00
                       6.6707696074E+00 -8.6032705063E-01  4.7661929231E-01
                       5.6402122985E+00  1.7286945410E+00  1.7022117583E+00
                      -5.4777370471E+00  6.0303297941E+00  8.5110587913E+00
                      -1.7593748651E+00  9.3671122802E+00  2.9278042242E+00
                       2.8827751748E+00 -5.3468924175E+00 -6.3322277407E+00
                      -3.7508572323E+00  8.2173293995E+00  7.2854663254E+00
             xred      9.1500000000E-01  5.2200000000E-01  6.2000000000E-01
                       9.6500000000E-01  2.5000000000E-01  5.0000000000E-01
                      -6.4300000000E-01 -1.6500000000E-01  9.5333333333E-01
                       7.7200000000E-01  6.6500000000E-01  4.6666666667E-02
                       5.0000000000E-01  7.1500000000E-01  1.6666666667E-01
                      -9.6500000000E-01 -2.1500000000E-01  8.3333333333E-01
                      -7.7200000000E-01  3.9300000000E-01  2.8666666667E-01
                       6.4300000000E-01 -2.2000000000E-02 -6.2000000000E-01
                      -9.1500000000E-01  1.0700000000E-01  7.1333333333E-01
             zcut1     3.67493260E-03 Hartree
             zcut2     3.67493260E-03 Hartree
             zcut3     3.67493254E-03 Hartree
            znucl       14.00000    8.00000

================================================================================

 chkinp: Checking input parameters for consistency, jdtset=   1.

 chkinp: Checking input parameters for consistency, jdtset=   2.

 chkinp: Checking input parameters for consistency, jdtset=   3.

================================================================================
== DATASET  1 ==================================================================
-   nproc =    1

 Exchange-correlation functional for the present dataset will be:
  LDA: new Teter (4/93) with spin-polarized option - ixc=1
 Citation for XC functional:
  S. Goedecker, M. Teter, J. Huetter, PRB 54, 1703 (1996)

 Real(R)+Recip(G) space primitive vectors, cartesian coordinates (Bohr,Bohr^-1):
 R(1)=  4.6421500 -8.0404397  0.0000000  G(1)=  0.1077087 -0.0621857  0.0000000
 R(2)=  4.6421500  8.0404397  0.0000000  G(2)=  0.1077087  0.0621857  0.0000000
 R(3)=  0.0000000  0.0000000 10.2132705  G(3)=  0.0000000  0.0000000  0.0979118
 Unit cell volume ucvol=  7.6241917E+02 bohr^3
 Angles (23,13,12)=  9.00000000E+01  9.00000000E+01  1.20000000E+02 degrees

 getcut: wavevector=  0.0000  0.0000  0.0000  ngfft=  24  24  24
         ecut(hartree)=      6.000   => boxcut(ratio)=   2.13111

--- Pseudopotential description ------------------------------------------------
- pspini: atom type   1  psp file is /home/buildbot/bb/ABINIT/abiref_gnu_9.2_openmpi/mverstra_develop/tests/Psps_for_tests/14si.pspnc
- pspatm: opening atomic psp file    /home/buildbot/bb/ABINIT/abiref_gnu_9.2_openmpi/mverstra_develop/tests/Psps_for_tests/14si.pspnc
-  Troullier-Martins psp for element  Si        Thu Oct 27 17:31:21 EDT 1994
- 14.00000   4.00000    940714                znucl, zion, pspdat
    1    1    2    2      2001   0.00000      pspcod,pspxc,lmax,lloc,mmax,r2well
    0   5.907  14.692    1   2.0872718        l,e99.0,e99.9,nproj,rcpsp
   0.00000000   0.00000000   0.00000000   0.00000000     rms, ekb1, ekb2, epsatm
    1   2.617   4.181    1   2.0872718        l,e99.0,e99.9,nproj,rcpsp
   0.00000000   0.00000000   0.00000000   0.00000000     rms, ekb1, ekb2, epsatm
    2   0.000   0.000    0   2.0872718        l,e99.0,e99.9,nproj,rcpsp
   0.00000000   0.00000000   0.00000000   0.00000000     rms, ekb1, ekb2, epsatm
    1.80626423934776    0.22824404341771    1.17378968127746   rchrg,fchrg,qchrg
  pspatm : epsatm=    1.43386982
         --- l  ekb(1:nproj) -->
             0    3.287949
             1    1.849886
 pspatm: atomic psp has been read  and splines computed

- pspini: atom type   2  psp file is /home/buildbot/bb/ABINIT/abiref_gnu_9.2_openmpi/mverstra_develop/tests/Psps_for_tests/08o_001023.pspfhi
- pspatm: opening atomic psp file    /home/buildbot/bb/ABINIT/abiref_gnu_9.2_openmpi/mverstra_develop/tests/Psps_for_tests/08o_001023.pspfhi
- O, fhi98PP: TM-type, LDA PerdewWang, l=2 local
-  8.00000   6.00000      1023                znucl, zion, pspdat
    6    7    2    2       473   0.00000      pspcod,pspxc,lmax,lloc,mmax,r2well
    1.20000000000000    0.00000000000000    0.00000000000000   rchrg,fchrg,qchrg
  1.024700          amesh (Hamman grid)
  pspatm : epsatm=    2.60350195
         --- l  ekb(1:nproj) -->
             0    4.939348
             1   -3.218107
 pspatm: atomic psp has been read  and splines computed

   9.56285816E+02                                ecore*ucvol(ha*bohr**3)
--------------------------------------------------------------------------------

_setup2: Arith. and geom. avg. npw (full set) are     539.889     539.876

================================================================================

     iter   Etot(hartree)      deltaE(h)  residm     vres2
 ETOT  1  -97.676364130313    -9.768E+01 8.620E-03 5.477E+02
 ETOT  2  -98.998212910801    -1.322E+00 1.189E-04 1.330E+02
 ETOT  3  -99.396412061852    -3.982E-01 4.527E-03 1.586E-01
 ETOT  4  -99.397020617615    -6.086E-04 4.312E-06 5.625E-03
 ETOT  5  -99.397029313592    -8.696E-06 1.818E-07 2.089E-04
 ETOT  6  -99.397029628152    -3.146E-07 5.830E-09 3.201E-06
 ETOT  7  -99.397029630645    -2.494E-09 1.261E-10 2.375E-07
 ETOT  8  -99.397029630855    -2.100E-10 8.697E-11 3.926E-09

 At SCF step    8   max residual=  8.70E-11 < tolwfr=  1.00E-10 =>converged.

 Cartesian components of stress tensor (hartree/bohr^3)
  sigma(1 1)=  4.84839949E-03  sigma(3 2)=  0.00000000E+00
  sigma(2 2)=  4.84839949E-03  sigma(3 1)=  0.00000000E+00
  sigma(3 3)=  4.70196281E-03  sigma(2 1)=  0.00000000E+00

 Integrated electronic density in atomic spheres:
 ------------------------------------------------
 Atom  Sphere_radius  Integrated_density
    1        2.00000          6.15095205
    2        2.00000          2.87181972
    3        2.00000          6.15095205
    4        2.00000          6.15095205
    5        2.00000          2.87181972
    6        2.00000          2.87181972
    7        2.00000          6.15095205
    8        2.00000          6.15095205
    9        2.00000          6.15095205
================================================================================

 ----iterations are completed or convergence reached----

 Mean square residual over all n,k,spin=   17.940E-12; max=  86.972E-12
 reduced coordinates (array xred) for    9 atoms
       0.915000000000      0.522000000000      0.620000000000
       0.965000000000      0.250000000000      0.500000000000
      -0.643000000000     -0.165000000000      0.953333333333
       0.772000000000      0.665000000000      0.046666666667
       0.500000000000      0.715000000000      0.166666666667
      -0.965000000000     -0.215000000000      0.833333333333
      -0.772000000000      0.393000000000      0.286666666667
       0.643000000000     -0.022000000000     -0.620000000000
      -0.915000000000      0.107000000000      0.713333333333
 rms dE/dt=  4.7908E-01; max dE/dt=  8.2051E-01; dE/dt below (all hartree)
    1       0.820507920556     -0.343333758799      0.594657796450
    2      -0.006513166036      0.003256583018     -0.000000000000
    3      -0.343333758799     -0.477174161757      0.594657796450
    4      -0.343333758799      0.820507920556     -0.594657796450
    5       0.003256583018     -0.006513166036      0.000000000000
    6       0.003256583018      0.003256583018      0.000000000000
    7      -0.477174161757      0.820507920556      0.594657796450
    8       0.820507920556     -0.477174161757     -0.594657796450
    9      -0.477174161757     -0.343333758799     -0.594657796450

 cartesian coordinates (angstrom) at end:
    1      3.53001924000000    -1.67214325776641     3.35087060000000
    2      2.98467180000000    -3.04219447659791     2.70231500000000
    3     -1.98486816000000     2.03380274099833     5.15241393333333
    4      3.53001924000000    -0.45526546712724     0.25221606666667
    5      2.98467180000000     0.91478575170427     0.90077166666667
    6     -2.89869360000000     3.19111308734047     4.50385833333333
    7     -0.93102108000000     4.95686232900219     1.54932726666667
    8      1.52549892000000    -2.82945360410855    -3.35087060000000
    9     -1.98486816000000     4.34842343368261     3.85530273333333

 cartesian forces (hartree/bohr) at end:
    1     -0.05139581418626     0.07237425558086    -0.05822403250395
    2      0.00035076236120    -0.00060753823098    -0.00000000000000
    3      0.08837585100582     0.00832295294329    -0.05822403250395
    4     -0.05139581418626    -0.07237425558086     0.05822403250395
    5      0.00035076236120     0.00060753823098    -0.00000000000000
    6     -0.00070152472239    -0.00000000000000    -0.00000000000000
    7     -0.03698003681956    -0.08069720852414    -0.05822403250395
    8     -0.03698003681956     0.08069720852414     0.05822403250395
    9      0.08837585100582    -0.00832295294329     0.05822403250395
 frms,max,avg= 5.0044084E-02 8.8375851E-02   0.000E+00  0.000E+00  0.000E+00 h/b

 cartesian forces (eV/Angstrom) at end:
    1     -2.64287880490172     3.72163354396900    -2.99399987872402
    2      0.01803692430294    -0.03124086930513    -0.00000000000000
    3      4.54446859508780     0.42798341219558    -2.99399987872402
    4     -2.64287880490172    -3.72163354396900     2.99399987872402
    5      0.01803692430294     0.03124086930513    -0.00000000000000
    6     -0.03607384860589    -0.00000000000000    -0.00000000000000
    7     -1.90158979018609    -4.14961695616458    -2.99399987872402
    8     -1.90158979018608     4.14961695616458     2.99399987872402
    9      4.54446859508780    -0.42798341219558     2.99399987872402
 frms,max,avg= 2.5733701E+00 4.5444686E+00   0.000E+00  0.000E+00  0.000E+00 e/A
 length scales=  9.284300079912  9.284300079912 10.213270549578 bohr
              =  4.913040000000  4.913040000000  5.404630000000 angstroms
 prteigrs : about to open file t08o_DS1_EIG
 Fermi (or HOMO) energy (hartree) =   0.18130   Average Vxc (hartree)=  -0.38066
 Eigenvalues (hartree) for nkpt=   4  k points:
 kpt#   1, nband= 55, wtk=  0.11111, kpt=  0.0000  0.0000  0.2500 (reduced coord)
  -0.93462   -0.91777   -0.89969   -0.89673   -0.89633   -0.89557   -0.23571   -0.17244
  -0.09757   -0.08552   -0.07469   -0.05161    0.00045    0.01389    0.03339    0.04583
   0.07345    0.08933    0.09423    0.10192    0.11690    0.14954    0.16318    0.17663
   0.25447    0.37266    0.41494    0.41946    0.47083    0.48393    0.51210    0.52657
   0.57647    0.58487    0.62049    0.62530    0.63531    0.65051    0.66417    0.66701
   0.66923    0.69232    0.72817    0.76999    0.79007    0.81155    0.81363    0.82971
   0.85530    0.86670    0.88795    0.89408    0.89517    0.91215    0.92927
 prteigrs : prtvol=0 or 1, do not print more k-points.


--------------------------------------------------------------------------------
 Components of total free energy (in Hartree) :

    Kinetic energy  =  4.87385854910525E+01
    Hartree energy  =  2.62599308146107E+01
    XC energy       = -2.40541575767670E+01
    Ewald energy    = -6.95068319280860E+01
    PspCore energy  =  1.25427829794248E+00
    Loc. psp. energy= -9.58252766225201E+01
    NL   psp  energy=  1.37364418929125E+01
    >>>>>>>>> Etotal= -9.93970296308551E+01

 Other information on the energy :
    Total energy(eV)= -2.70473072782899E+03 ; Band energy (Ha)=  -1.0314522183E+01
--------------------------------------------------------------------------------



 Cartesian components of stress tensor (hartree/bohr^3)
  sigma(1 1)=  4.84839949E-03  sigma(3 2)=  0.00000000E+00
  sigma(2 2)=  4.84839949E-03  sigma(3 1)=  0.00000000E+00
  sigma(3 3)=  4.70196281E-03  sigma(2 1)=  0.00000000E+00

-Cartesian components of stress tensor (GPa)         [Pressure= -1.4121E+02 GPa]
- sigma(1 1)=  1.42644814E+02  sigma(3 2)=  0.00000000E+00
- sigma(2 2)=  1.42644814E+02  sigma(3 1)=  0.00000000E+00
- sigma(3 3)=  1.38336499E+02  sigma(2 1)=  0.00000000E+00

================================================================================
== DATASET  2 ==================================================================
-   nproc =    1

 mkfilename : getwfk/=0, take file _WFK from output of DATASET   1.

 Exchange-correlation functional for the present dataset will be:
  LDA: new Teter (4/93) with spin-polarized option - ixc=1
 Citation for XC functional:
  S. Goedecker, M. Teter, J. Huetter, PRB 54, 1703 (1996)

 SCREENING: Calculation of the susceptibility and dielectric matrices 

 Based on a program developped by R.W. Godby, V. Olevano, G. Onida, and L. Reining.
 Incorporated in ABINIT by V. Olevano, G.-M. Rignanese, and M. Torrent.
.Using double precision arithmetic ; gwpc =  8

 Real(R)+Recip(G) space primitive vectors, cartesian coordinates (Bohr,Bohr^-1):
 R(1)=  4.6421500 -8.0404397  0.0000000  G(1)=  0.1077087 -0.0621857  0.0000000
 R(2)=  4.6421500  8.0404397  0.0000000  G(2)=  0.1077087  0.0621857  0.0000000
 R(3)=  0.0000000  0.0000000 10.2132705  G(3)=  0.0000000  0.0000000  0.0979118
 Unit cell volume ucvol=  7.6241917E+02 bohr^3
 Angles (23,13,12)=  9.00000000E+01  9.00000000E+01  1.20000000E+02 degrees

--- Pseudopotential description ------------------------------------------------
- pspini: atom type   1  psp file is /home/buildbot/bb/ABINIT/abiref_gnu_9.2_openmpi/mverstra_develop/tests/Psps_for_tests/14si.pspnc
- pspatm: opening atomic psp file    /home/buildbot/bb/ABINIT/abiref_gnu_9.2_openmpi/mverstra_develop/tests/Psps_for_tests/14si.pspnc
-  Troullier-Martins psp for element  Si        Thu Oct 27 17:31:21 EDT 1994
- 14.00000   4.00000    940714                znucl, zion, pspdat
    1    1    2    2      2001   0.00000      pspcod,pspxc,lmax,lloc,mmax,r2well
    0   5.907  14.692    1   2.0872718        l,e99.0,e99.9,nproj,rcpsp
   0.00000000   0.00000000   0.00000000   0.00000000     rms, ekb1, ekb2, epsatm
    1   2.617   4.181    1   2.0872718        l,e99.0,e99.9,nproj,rcpsp
   0.00000000   0.00000000   0.00000000   0.00000000     rms, ekb1, ekb2, epsatm
    2   0.000   0.000    0   2.0872718        l,e99.0,e99.9,nproj,rcpsp
   0.00000000   0.00000000   0.00000000   0.00000000     rms, ekb1, ekb2, epsatm
    1.80626423934776    0.22824404341771    1.17378968127746   rchrg,fchrg,qchrg
  pspatm : epsatm=    1.43386982
         --- l  ekb(1:nproj) -->
             0    3.287949
             1    1.849886
 pspatm: atomic psp has been read  and splines computed

- pspini: atom type   2  psp file is /home/buildbot/bb/ABINIT/abiref_gnu_9.2_openmpi/mverstra_develop/tests/Psps_for_tests/08o_001023.pspfhi
- pspatm: opening atomic psp file    /home/buildbot/bb/ABINIT/abiref_gnu_9.2_openmpi/mverstra_develop/tests/Psps_for_tests/08o_001023.pspfhi
- O, fhi98PP: TM-type, LDA PerdewWang, l=2 local
-  8.00000   6.00000      1023                znucl, zion, pspdat
    6    7    2    2       473   0.00000      pspcod,pspxc,lmax,lloc,mmax,r2well
    1.20000000000000    0.00000000000000    0.00000000000000   rchrg,fchrg,qchrg
  1.024700          amesh (Hamman grid)
  pspatm : epsatm=    2.60350195
         --- l  ekb(1:nproj) -->
             0    4.939348
             1   -3.218107
 pspatm: atomic psp has been read  and splines computed

--------------------------------------------------------------------------------

 ==== K-mesh for the wavefunctions ====
 Number of points in the irreducible wedge :     4
 Reduced coordinates and weights : 

     1)     0.00000000E+00  0.00000000E+00  2.50000000E-01       0.11111
     2)     3.33333333E-01  0.00000000E+00  2.50000000E-01       0.33333
     3)    -3.33333333E-01  0.00000000E+00  2.50000000E-01       0.33333
     4)     3.33333333E-01  3.33333333E-01  2.50000000E-01       0.22222

 Together with  6 symmetry operations and time-reversal symmetry 
 yields    18 points in the full Brillouin Zone.


 ==== Q-mesh for the screening function ====
 Number of points in the irreducible wedge :     6
 Reduced coordinates and weights : 

     1)     0.00000000E+00  0.00000000E+00  0.00000000E+00       0.05556
     2)     0.00000000E+00  0.00000000E+00  5.00000000E-01       0.05556
     3)     3.33333333E-01  0.00000000E+00  0.00000000E+00       0.33333
     4)     3.33333333E-01 -3.33333333E-01  5.00000000E-01       0.33333
     5)     3.33333333E-01  3.33333333E-01  0.00000000E+00       0.11111
     6)     3.33333333E-01  3.33333333E-01  5.00000000E-01       0.11111

 Together with  6 symmetry operations and time-reversal symmetry 
 yields    18 points in the full Brillouin Zone.


 setmesh: FFT mesh size selected  =  12x 12x 12
          total number of points  =     1728


- screening: taking advantage of time-reversal symmetry 
- Maximum band index for partially occupied states nbvw = 24
- Remaining bands to be divided among processors   nbcw = 26
- Number of bands treated by each node ~26

 Number of electrons calculated from density =   47.9977; Expected =   48.0000
 average of density, n =  0.062954
 r_s =    1.5594
 omega_plasma =   24.2030 [eV]


 calculating chi0 at frequencies [eV] :
  1    0.000000E+00    0.000000E+00
  2    0.000000E+00    2.420297E+01


--------------------------------------------------------------------------------
  q-point number  1        q = ( 0.000000, 0.000000, 0.000000) [r.l.u.]
--------------------------------------------------------------------------------
  chi0(G,G') at the    1 th omega   0.0000   0.0000 [eV]
       1       2       3       4       5       6       7       8       9
    1  -0.000   0.000  -0.000  -0.000  -0.000  -0.000   0.000   0.000   0.000
        0.000   0.000   0.000   0.000   0.000   0.000   0.000   0.000   0.000

    2   0.000 -30.803   0.000   2.746   2.396  -0.000   0.000  -4.756   1.383
       -0.000   0.000  -0.000  -4.756  -1.383  -5.492   2.766   2.746  -2.396

  chi0(G,G') at the    2 th omega   0.0000  24.2030 [eV]
       1       2       3       4       5       6       7       8       9
    1  -0.000   0.000  -0.000  -0.000  -0.000  -0.000   0.000   0.000   0.000
        0.000   0.000   0.000   0.000   0.000   0.000   0.000   0.000   0.000

    2   0.000  -7.355  -0.000   0.598   0.521  -0.000   0.000  -1.036   0.301
       -0.000  -0.000  -0.000  -1.036  -0.301  -1.197   0.602   0.598  -0.521

 For q-point:  0.000010 0.000020 0.000030
  dielectric constant =   5.2826
  dielectric constant without local fields =   5.6927

  Average fulfillment of the sum rule on Im[epsilon] for q-point    1 :     33.66  [%]
  Heads and wings of the symmetrical epsilon^-1(G,G') 

   Upper and lower wings at the    1 th omega   0.0000   0.0000 [eV]
       1       2       3       4       5       6       7       8       9
      0.189   0.014  -0.014  -0.003  -0.002  -0.001   0.001   0.002   0.003
      0.000   0.005   0.005   0.001   0.004   0.018   0.018   0.004   0.001
       1       2       3       4       5       6       7       8       9
      0.189   0.014  -0.014  -0.003  -0.002  -0.001   0.001   0.002   0.003
      0.000  -0.005  -0.005  -0.001  -0.004  -0.018  -0.018  -0.004  -0.001


   Upper and lower wings at the    2 th omega   0.0000  24.2030 [eV]
       1       2       3       4       5       6       7       8       9
      0.647   0.008  -0.008  -0.009   0.000   0.000  -0.000  -0.000   0.009
      0.000   0.003   0.003  -0.000   0.000   0.019   0.019   0.000  -0.000
       1       2       3       4       5       6       7       8       9
      0.647   0.008  -0.008  -0.009   0.000   0.000  -0.000  -0.000   0.009
      0.000  -0.003  -0.003   0.000  -0.000  -0.019  -0.019  -0.000   0.000




--------------------------------------------------------------------------------
  q-point number  2        q = ( 0.000000, 0.000000, 0.500000) [r.l.u.]
--------------------------------------------------------------------------------
  chi0(G,G') at the    1 th omega   0.0000   0.0000 [eV]
       1       2       3       4       5       6       7       8       9
    1 -16.119  -0.000  -0.000  -0.899   0.000   0.000   0.000   0.000  -1.718
        0.000   0.000  -0.000  -0.000   1.718  -0.899   1.718  -0.899   0.000

    2  -0.000 -31.068  -0.000   3.775   3.017  -0.000   0.000  -6.538   1.742
       -0.000   0.000   0.000  -6.538  -1.742  -7.550   3.483   3.775  -3.017

  chi0(G,G') at the    2 th omega   0.0000  24.2030 [eV]
       1       2       3       4       5       6       7       8       9
    1  -2.662  -0.000  -0.000  -0.188   0.000   0.000   0.000   0.000  -0.385
       -0.000   0.000  -0.000  -0.000   0.385  -0.188   0.385  -0.188   0.000

    2  -0.000  -9.224  -0.000   1.110   1.054  -0.000   0.000  -1.922   0.609
       -0.000  -0.000   0.000  -1.922  -0.609  -2.219   1.217   1.110  -1.054

  Average fulfillment of the sum rule on Im[epsilon] for q-point    2 :     49.66  [%]


--------------------------------------------------------------------------------
  q-point number  3        q = ( 0.333333, 0.000000, 0.000000) [r.l.u.]
--------------------------------------------------------------------------------
  chi0(G,G') at the    1 th omega   0.0000   0.0000 [eV]
       1       2       3       4       5       6       7       8       9
    1 -12.641   0.059  -1.064  -1.907   0.063  -0.025  -0.063   0.025   2.524
        0.000   0.102   1.843  -0.000   2.188  -0.411   2.188  -0.411   0.000

    2   0.059 -32.569  -0.398   3.826   3.509  -0.052   0.064  -4.637   0.458
       -0.102  -0.000  -0.689  -6.626  -1.952  -5.324   4.014   2.617  -0.793

  chi0(G,G') at the    2 th omega   0.0000  24.2030 [eV]
       1       2       3       4       5       6       7       8       9
    1  -1.955   0.032  -0.142  -0.463  -0.007  -0.000   0.007   0.000   0.417
       -0.000   0.056   0.246  -0.000   0.421  -0.008   0.421  -0.008   0.000

    2   0.032  -7.917  -0.056   1.014   0.885  -0.099   0.013  -0.932   0.014
       -0.056   0.000  -0.097  -1.756  -0.496  -1.019   1.014   0.424  -0.024

  Average fulfillment of the sum rule on Im[epsilon] for q-point    3 :     48.52  [%]


--------------------------------------------------------------------------------
  q-point number  4        q = ( 0.333333,-0.333333, 0.500000) [r.l.u.]
--------------------------------------------------------------------------------
  chi0(G,G') at the    1 th omega   0.0000   0.0000 [eV]
       1       2       3       4       5       6       7       8       9
    1 -21.540  -1.020  -0.419  -1.943  -0.000  -1.638  -0.874   0.000  -2.005
       -0.000   1.767  -0.726  -1.638   2.002  -1.943   2.005  -0.002   0.874

    2  -1.020 -31.062  -0.537   3.570   4.011   0.418  -0.025  -5.858   2.038
       -1.767  -0.000   0.930  -7.019  -2.316  -7.863   4.119   3.382  -3.580

  chi0(G,G') at the    2 th omega   0.0000  24.2030 [eV]
       1       2       3       4       5       6       7       8       9
    1  -4.150  -0.175  -0.053  -0.503  -0.000  -0.227  -0.208   0.000  -0.371
       -0.000   0.303  -0.092  -0.227   0.706  -0.503   0.371   0.051   0.208

    2  -0.175  -9.219  -0.037   1.258   1.274  -0.033   0.025  -1.423   0.627
       -0.303   0.000   0.064  -2.112  -0.736  -2.458   1.211   0.822  -1.037

  Average fulfillment of the sum rule on Im[epsilon] for q-point    4 :     44.33  [%]


--------------------------------------------------------------------------------
  q-point number  5        q = ( 0.333333, 0.333333, 0.000000) [r.l.u.]
--------------------------------------------------------------------------------
  chi0(G,G') at the    1 th omega   0.0000   0.0000 [eV]
       1       2       3       4       5       6       7       8       9
    1 -25.149   0.878  -0.082  -2.555   0.248   0.000  -0.151  -0.248   0.925
       -0.000  -0.413   0.967  -0.151   3.051   0.925   2.555  -3.051  -0.000

    2   0.878 -33.263   0.335   3.538   3.246   0.394   0.713  -6.919   0.237
        0.413   0.000  -0.581  -7.199  -1.871  -3.149   4.793   3.502  -1.575

  chi0(G,G') at the    2 th omega   0.0000  24.2030 [eV]
       1       2       3       4       5       6       7       8       9
    1  -4.925   0.322  -0.080  -0.719   0.000   0.000   0.005  -0.000   0.202
       -0.000  -0.094   0.326   0.005   0.672   0.202   0.719  -0.672  -0.000

    2   0.322  -8.626   0.100   1.024   0.948   0.011   0.049  -1.835   0.010
        0.094  -0.000  -0.173  -2.064  -0.533  -0.283   1.347   0.826  -0.153

  Average fulfillment of the sum rule on Im[epsilon] for q-point    5 :     43.92  [%]


--------------------------------------------------------------------------------
  q-point number  6        q = ( 0.333333, 0.333333, 0.500000) [r.l.u.]
--------------------------------------------------------------------------------
  chi0(G,G') at the    1 th omega   0.0000   0.0000 [eV]
       1       2       3       4       5       6       7       8       9
    1 -28.556   1.529   0.432  -1.966   1.121  -1.186  -0.075   1.774  -0.730
        0.000  -0.324   0.748   0.937   3.369  -0.730   3.124  -3.355  -1.186

    2   1.529 -31.267   0.695   4.506   4.621  -0.432  -0.079  -6.366   1.861
        0.324  -0.000  -0.406  -7.388  -2.633  -6.781   5.048   4.139  -3.803

  chi0(G,G') at the    2 th omega   0.0000  24.2030 [eV]
       1       2       3       4       5       6       7       8       9
    1  -6.334   0.385   0.119  -0.701   0.279  -0.238  -0.085   0.355  -0.159
       -0.000   0.007   0.206   0.156   0.842  -0.159   0.892  -0.752  -0.238

    2   0.385  -9.217   0.052   1.275   1.312  -0.034  -0.022  -2.147   0.439
       -0.007  -0.000  -0.169  -2.291  -0.747  -1.557   1.557   1.151  -0.887

  Average fulfillment of the sum rule on Im[epsilon] for q-point    6 :     42.46  [%]

================================================================================
== DATASET  3 ==================================================================
-   nproc =    1

 mkfilename : getwfk/=0, take file _WFK from output of DATASET   1.

 mkfilename : getscr/=0, take file _SCR from output of DATASET   2.

 Exchange-correlation functional for the present dataset will be:
  LDA: new Teter (4/93) with spin-polarized option - ixc=1
 Citation for XC functional:
  S. Goedecker, M. Teter, J. Huetter, PRB 54, 1703 (1996)

 SIGMA: Calculation of the GW corrections 

 Based on a program developped by R.W. Godby, V. Olevano, G. Onida, and L. Reining.
 Incorporated in ABINIT by V. Olevano, G.-M. Rignanese, and M. Torrent.
.Using double precision arithmetic ; gwpc =  8

 Real(R)+Recip(G) space primitive vectors, cartesian coordinates (Bohr,Bohr^-1):
 R(1)=  4.6421500 -8.0404397  0.0000000  G(1)=  0.1077087 -0.0621857  0.0000000
 R(2)=  4.6421500  8.0404397  0.0000000  G(2)=  0.1077087  0.0621857  0.0000000
 R(3)=  0.0000000  0.0000000 10.2132705  G(3)=  0.0000000  0.0000000  0.0979118
 Unit cell volume ucvol=  7.6241917E+02 bohr^3
 Angles (23,13,12)=  9.00000000E+01  9.00000000E+01  1.20000000E+02 degrees
--------------------------------------------------------------------------------

 ==== K-mesh for the wavefunctions ====
 Number of points in the irreducible wedge :     4
 Reduced coordinates and weights : 

     1)     0.00000000E+00  0.00000000E+00  2.50000000E-01       0.11111
     2)     3.33333333E-01  0.00000000E+00  2.50000000E-01       0.33333
     3)    -3.33333333E-01  0.00000000E+00  2.50000000E-01       0.33333
     4)     3.33333333E-01  3.33333333E-01  2.50000000E-01       0.22222

 Together with  6 symmetry operations and time-reversal symmetry 
 yields    18 points in the full Brillouin Zone.


 ==== Q-mesh for screening function ====
 Number of points in the irreducible wedge :     6
 Reduced coordinates and weights : 

     1)     0.00000000E+00  0.00000000E+00  0.00000000E+00       0.05556
     2)     0.00000000E+00  0.00000000E+00  5.00000000E-01       0.05556
     3)     3.33333333E-01  0.00000000E+00  0.00000000E+00       0.33333
     4)     3.33333333E-01 -3.33333333E-01  5.00000000E-01       0.33333
     5)     3.33333333E-01  3.33333333E-01  0.00000000E+00       0.11111
     6)     3.33333333E-01  3.33333333E-01  5.00000000E-01       0.11111

 Together with  6 symmetry operations and time-reversal symmetry 
 yields    18 points in the full Brillouin Zone.


 setmesh: FFT mesh size selected  =  24x 24x 24
          total number of points  =    13824

 Number of electrons calculated from density =   47.9977; Expected =   48.0000
 average of density, n =  0.062954
 r_s =    1.5594
 omega_plasma =   24.2030 [eV]


 === KS Band Gaps ===
  >>>> For spin  1
   Minimum direct gap =   2.1180 [eV], located at k-point      :   0.0000  0.0000  0.2500
   Fundamental gap    =   1.9909 [eV], Top of valence bands at :  -0.3333  0.0000  0.2500
                                       Bottom of conduction at :   0.0000  0.0000  0.2500
 SIGMA fundamental parameters:
 PLASMON POLE MODEL  1
 number of plane-waves for SigmaX                  563
 number of plane-waves for SigmaC and W             41
 number of plane-waves for wavefunctions           563
 number of bands                                    50
 number of independent spin polarizations            1
 number of spinorial components                      1
 number of k-points in IBZ                           4
 number of q-points in IBZ                           6
 number of symmetry operations                       6
 number of k-points in BZ                           18
 number of q-points in BZ                           18
 number of frequencies for dSigma/dE                 9
 frequency step for dSigma/dE [eV]                0.25
 number of omega for Sigma on real axis              0
 max omega for Sigma on real axis  [eV]           0.00
 zcut for avoiding poles [eV]                     0.10

 EPSILON^-1 parameters (SCR file):
 dimension of the eps^-1 matrix on file             41
 dimension of the eps^-1 matrix used                41
 number of plane-waves for wavefunctions           563
 number of bands                                    50
 number of q-points in IBZ                           6
 number of frequencies                               2
 number of real frequencies                          1
 number of imag frequencies                          1

 matrix elements of self-energy operator (all in [eV])

 Perturbative Calculation

--- !SelfEnergy_ee
kpoint     : [   0.000,    0.000,    0.250, ]
spin       : 1
KS_gap     :    2.118
QP_gap     :    3.679
Delta_QP_KS:    1.562
data: !SigmaeeData |
     Band     E0 <VxcLDA>   SigX SigC(E0)      Z dSigC/dE  Sig(E)    E-E0       E
       24   4.806 -16.240 -19.536   3.337   0.837  -0.195 -16.206   0.034   4.841
       25   6.924 -12.256  -8.580  -1.818   0.859  -0.165 -10.661   1.596   8.520
...

== END DATASET(S) ==============================================================
================================================================================
  
 -outvars: echo values of variables after computation  --------
            acell      9.2843000799E+00  9.2843000799E+00  1.0213270550E+01 Bohr
              amu      2.80855000E+01  1.59994000E+01
             bdgw3         24      25
           diemac      4.00000000E+00
             ecut1     6.00000000E+00 Hartree
             ecut2     5.99051324E+00 Hartree
             ecut3     5.99051324E+00 Hartree
          ecuteps1     0.00000000E+00 Hartree
          ecuteps2     1.06226803E+00 Hartree
          ecuteps3     0.00000000E+00 Hartree
         ecutsigx1     0.00000000E+00 Hartree
         ecutsigx2     0.00000000E+00 Hartree
         ecutsigx3     5.99051324E+00 Hartree
          ecutwfn1     0.00000000E+00 Hartree
          ecutwfn2     5.99051324E+00 Hartree
          ecutwfn3     5.99051324E+00 Hartree
           etotal1    -9.9397029631E+01
           etotal2     0.0000000000E+00
           etotal3     0.0000000000E+00
            fcart1    -5.1395814186E-02  7.2374255581E-02 -5.8224032504E-02
                       3.5076236120E-04 -6.0753823098E-04 -1.5419764230E-18
                       8.8375851006E-02  8.3229529433E-03 -5.8224032504E-02
                      -5.1395814186E-02 -7.2374255581E-02  5.8224032504E-02
                       3.5076236120E-04  6.0753823098E-04 -1.5419764231E-18
                      -7.0152472239E-04 -2.0542693657E-19 -1.5419764231E-18
                      -3.6980036820E-02 -8.0697208524E-02 -5.8224032504E-02
                      -3.6980036820E-02  8.0697208524E-02  5.8224032504E-02
                       8.8375851006E-02 -8.3229529433E-03  5.8224032504E-02
            fcart2     0.0000000000E+00  0.0000000000E+00  0.0000000000E+00
                       0.0000000000E+00  0.0000000000E+00  0.0000000000E+00
                       0.0000000000E+00  0.0000000000E+00  0.0000000000E+00
                       0.0000000000E+00  0.0000000000E+00  0.0000000000E+00
                       0.0000000000E+00  0.0000000000E+00  0.0000000000E+00
                       0.0000000000E+00  0.0000000000E+00  0.0000000000E+00
                       0.0000000000E+00  0.0000000000E+00  0.0000000000E+00
                       0.0000000000E+00  0.0000000000E+00  0.0000000000E+00
                       0.0000000000E+00  0.0000000000E+00  0.0000000000E+00
            fcart3     0.0000000000E+00  0.0000000000E+00  0.0000000000E+00
                       0.0000000000E+00  0.0000000000E+00  0.0000000000E+00
                       0.0000000000E+00  0.0000000000E+00  0.0000000000E+00
                       0.0000000000E+00  0.0000000000E+00  0.0000000000E+00
                       0.0000000000E+00  0.0000000000E+00  0.0000000000E+00
                       0.0000000000E+00  0.0000000000E+00  0.0000000000E+00
                       0.0000000000E+00  0.0000000000E+00  0.0000000000E+00
                       0.0000000000E+00  0.0000000000E+00  0.0000000000E+00
                       0.0000000000E+00  0.0000000000E+00  0.0000000000E+00
-          fftalg         312
            fftgw1         21
            fftgw2         11
            fftgw3         11
           getscr1          0
           getscr2          0
           getscr3         -1
           getwfk1          0
           getwfk2         -1
           getwfk3         -2
         icutcoul1          6
         icutcoul2          6
         icutcoul3          3
          inclvkb1          2
          inclvkb2          0
          inclvkb3          2
           jdtset        1    2    3
              kpt      0.00000000E+00  0.00000000E+00  2.50000000E-01
                       3.33333333E-01  0.00000000E+00  2.50000000E-01
                      -3.33333333E-01  0.00000000E+00  2.50000000E-01
                       3.33333333E-01  3.33333333E-01  2.50000000E-01
            kptgw3     0.00000000E+00  0.00000000E+00  2.50000000E-01
         kptrlatt        3    0    0      0    3    0      0    0    2
          kptrlen      2.04265411E+01
P           mkmem           4
            natom           9
            nband1         55
            nband2         50
            nband3         50
           nbdbuf1          5
           nbdbuf2          0
           nbdbuf3          0
           ndtset           3
            ngfft          24      24      24
             nkpt           4
           nkptgw1          0
           nkptgw2          0
           nkptgw3          1
           npweps1          0
           npweps2         41
           npweps3          0
          npwsigx1          0
          npwsigx2          0
          npwsigx3        563
           npwwfn1          0
           npwwfn2        563
           npwwfn3        563
            nstep          20
             nsym           6
           ntypat           2
              occ1     2.000000  2.000000  2.000000  2.000000  2.000000  2.000000
                       2.000000  2.000000  2.000000  2.000000  2.000000  2.000000
                       2.000000  2.000000  2.000000  2.000000  2.000000  2.000000
                       2.000000  2.000000  2.000000  2.000000  2.000000  2.000000
                       0.000000  0.000000  0.000000  0.000000  0.000000  0.000000
                       0.000000  0.000000  0.000000  0.000000  0.000000  0.000000
                       0.000000  0.000000  0.000000  0.000000  0.000000  0.000000
                       0.000000  0.000000  0.000000  0.000000  0.000000  0.000000
                       0.000000  0.000000  0.000000  0.000000  0.000000  0.000000
                       0.000000
              occ2     2.000000  2.000000  2.000000  2.000000  2.000000  2.000000
                       2.000000  2.000000  2.000000  2.000000  2.000000  2.000000
                       2.000000  2.000000  2.000000  2.000000  2.000000  2.000000
                       2.000000  2.000000  2.000000  2.000000  2.000000  2.000000
                       0.000000  0.000000  0.000000  0.000000  0.000000  0.000000
                       0.000000  0.000000  0.000000  0.000000  0.000000  0.000000
                       0.000000  0.000000  0.000000  0.000000  0.000000  0.000000
                       0.000000  0.000000  0.000000  0.000000  0.000000  0.000000
                       0.000000  0.000000
              occ3     2.000000  2.000000  2.000000  2.000000  2.000000  2.000000
                       2.000000  2.000000  2.000000  2.000000  2.000000  2.000000
                       2.000000  2.000000  2.000000  2.000000  2.000000  2.000000
                       2.000000  2.000000  2.000000  2.000000  2.000000  2.000000
                       0.000000  0.000000  0.000000  0.000000  0.000000  0.000000
                       0.000000  0.000000  0.000000  0.000000  0.000000  0.000000
                       0.000000  0.000000  0.000000  0.000000  0.000000  0.000000
                       0.000000  0.000000  0.000000  0.000000  0.000000  0.000000
                       0.000000  0.000000
        optdriver1          0
        optdriver2          3
        optdriver3          4
            rprim      5.0000000000E-01 -8.6602540378E-01  0.0000000000E+00
                       5.0000000000E-01  8.6602540378E-01  0.0000000000E+00
                       0.0000000000E+00  0.0000000000E+00  1.0000000000E+00
           shiftk      0.00000000E+00  0.00000000E+00  5.00000000E-01
          spgroup         154
           strten1     4.8483994872E-03  4.8483994873E-03  4.7019628079E-03
                       0.0000000000E+00  0.0000000000E+00  0.0000000000E+00
           strten2     0.0000000000E+00  0.0000000000E+00  0.0000000000E+00
                       0.0000000000E+00  0.0000000000E+00  0.0000000000E+00
           strten3     0.0000000000E+00  0.0000000000E+00  0.0000000000E+00
                       0.0000000000E+00  0.0000000000E+00  0.0000000000E+00
           symrel      1  0  0   0  1  0   0  0  1       1  0  0  -1 -1  0   0  0 -1
                       0  1  0  -1 -1  0   0  0  1       0  1  0   1  0  0   0  0 -1
                      -1 -1  0   1  0  0   0  0  1      -1 -1  0   0  1  0   0  0 -1
         symsigma1       0
         symsigma2       0
         symsigma3       1
            tnons      0.0000000  0.0000000  0.0000000     0.2500000  0.5000000  0.0000000
                      -0.2500000 -0.0000000 -0.3333333     0.2500000 -0.2500000 -0.3333333
                      -0.2500000 -0.2500000  0.3333333     0.0000000  0.5000000  0.3333333
           tolwfr1     1.00000000E-10
           tolwfr2     0.00000000E+00
           tolwfr3     0.00000000E+00
            typat      2  1  2  2  1  1  2  2  2
              wtk        0.11111    0.33333    0.33333    0.22222
           xangst      3.5300192400E+00 -1.6721432578E+00  3.3508706000E+00
                       2.9846718000E+00 -3.0421944766E+00  2.7023150000E+00
                      -1.9848681600E+00  2.0338027410E+00  5.1524139333E+00
                       3.5300192400E+00 -4.5526546713E-01  2.5221606667E-01
                       2.9846718000E+00  9.1478575170E-01  9.0077166667E-01
                      -2.8986936000E+00  3.1911130873E+00  4.5038583333E+00
                      -9.3102108000E-01  4.9568623290E+00  1.5493272667E+00
                       1.5254989200E+00 -2.8294536041E+00 -3.3508706000E+00
                      -1.9848681600E+00  4.3484234337E+00  3.8553027333E+00
            xcart      6.6707696074E+00 -3.1598928121E+00  6.3322277407E+00
                       5.6402122985E+00 -5.7489144037E+00  5.1066352748E+00
                      -3.7508572323E+00  3.8433301888E+00  9.7366512573E+00
                       6.6707696074E+00 -8.6032705063E-01  4.7661929231E-01
                       5.6402122985E+00  1.7286945410E+00  1.7022117583E+00
                      -5.4777370471E+00  6.0303297941E+00  8.5110587913E+00
                      -1.7593748651E+00  9.3671122802E+00  2.9278042242E+00
                       2.8827751748E+00 -5.3468924175E+00 -6.3322277407E+00
                      -3.7508572323E+00  8.2173293995E+00  7.2854663254E+00
             xred      9.1500000000E-01  5.2200000000E-01  6.2000000000E-01
                       9.6500000000E-01  2.5000000000E-01  5.0000000000E-01
                      -6.4300000000E-01 -1.6500000000E-01  9.5333333333E-01
                       7.7200000000E-01  6.6500000000E-01  4.6666666667E-02
                       5.0000000000E-01  7.1500000000E-01  1.6666666667E-01
                      -9.6500000000E-01 -2.1500000000E-01  8.3333333333E-01
                      -7.7200000000E-01  3.9300000000E-01  2.8666666667E-01
                       6.4300000000E-01 -2.2000000000E-02 -6.2000000000E-01
                      -9.1500000000E-01  1.0700000000E-01  7.1333333333E-01
             zcut1     3.67493260E-03 Hartree
             zcut2     3.67493260E-03 Hartree
             zcut3     3.67493254E-03 Hartree
            znucl       14.00000    8.00000

================================================================================


- Timing analysis has been suppressed with timopt=0



================================================================================

 Suggested references for the acknowledgment of ABINIT usage.

 The users of ABINIT have little formal obligations with respect to the ABINIT group
 (those specified in the GNU General Public License, http://www.gnu.org/copyleft/gpl.txt).
 However, it is common practice in the scientific literature,
 to acknowledge the efforts of people that have made the research possible.
 In this spirit, please find below suggested citations of work written by ABINIT developers,
 corresponding to implementations inside of ABINIT that you have used in the present run.
 Note also that it will be of great value to readers of publications presenting these results,
 to read papers enabling them to understand the theoretical formalism and details
 of the ABINIT implementation.
 For information on why they are suggested, see also https://docs.abinit.org/theory/acknowledgments.
-
- [1] Recent developments in the ABINIT software package.
- Computer Phys. Comm. 205, 106 (2016).
- X.Gonze, F.Jollet, F.Abreu Araujo, D.Adams, B.Amadon, T.Applencourt,
- C.Audouze, J.-M.Beuken, J.Bieder, A.Bokhanchuk, E.Bousquet, F.Bruneval
- D.Caliste, M.Cote, F.Dahm, F.Da Pieve, M.Delaveau, M.Di Gennaro,
- B.Dorado, C.Espejo, G.Geneste, L.Genovese, A.Gerossier, M.Giantomassi,
- Y.Gillet, D.R.Hamann, L.He, G.Jomard, J.Laflamme Janssen, S.Le Roux,
- A.Levitt, A.Lherbier, F.Liu, I.Lukacevic, A.Martin, C.Martins,
- M.J.T.Oliveira, S.Ponce, Y.Pouillon, T.Rangel, G.-M.Rignanese,
- A.H.Romero, B.Rousseau, O.Rubel, A.A.Shukri, M.Stankovski, M.Torrent,
- M.J.Van Setten, B.Van Troeye, M.J.Verstraete, D.Waroquier, J.Wiktor,
- B.Xu, A.Zhou, J.W.Zwanziger.
- Comment: the fourth generic paper describing the ABINIT project.
- Note that a version of this paper, that is not formatted for Computer Phys. Comm. 
- is available at https://www.abinit.org/about/ABINIT16.pdf .
- The licence allows the authors to put it on the Web.
- DOI and bibtex: see https://docs.abinit.org/theory/bibliography/#gonze2016
-
- [2] Ab initio pseudopotentials for electronic structure calculations of poly-atomic systems, 
- using density-functional theory.
- M. Fuchs, M. Scheffler, Comput. Phys. Commun. 119, 67 (1999).
- Comment: Some pseudopotential generated using the FHI code were used.
- DOI and bibtex: see https://docs.abinit.org/theory/bibliography/#fuchs1999
-
- [3] ABINIT: First-principles approach of materials and nanosystem properties.
- Computer Phys. Comm. 180, 2582-2615 (2009).
- X. Gonze, B. Amadon, P.-M. Anglade, J.-M. Beuken, F. Bottin, P. Boulanger, F. Bruneval,
- D. Caliste, R. Caracas, M. Cote, T. Deutsch, L. Genovese, Ph. Ghosez, M. Giantomassi
- S. Goedecker, D.R. Hamann, P. Hermet, F. Jollet, G. Jomard, S. Leroux, M. Mancini, S. Mazevet,
- M.J.T. Oliveira, G. Onida, Y. Pouillon, T. Rangel, G.-M. Rignanese, D. Sangalli, R. Shaltaf,
- M. Torrent, M.J. Verstraete, G. Zerah, J.W. Zwanziger
- Comment: the third generic paper describing the ABINIT project.
- Note that a version of this paper, that is not formatted for Computer Phys. Comm. 
- is available at https://www.abinit.org/about/ABINIT_CPC_v10.pdf .
- The licence allows the authors to put it on the Web.
- DOI and bibtex: see https://docs.abinit.org/theory/bibliography/#gonze2009
-
- [4] A brief introduction to the ABINIT software package.
- Z. Kristallogr. 220, 558-562 (2005).
- X. Gonze, G.-M. Rignanese, M. Verstraete, J.-M. Beuken, Y. Pouillon, R. Caracas, F. Jollet,
- M. Torrent, G. Zerah, M. Mikami, Ph. Ghosez, M. Veithen, J.-Y. Raty, V. Olevano, F. Bruneval,
- L. Reining, R. Godby, G. Onida, D.R. Hamann, and D.C. Allan.
- Comment: the second generic paper describing the ABINIT project. Note that this paper
- should be cited especially if you are using the GW part of ABINIT, as several authors
- of this part are not in the list of authors of the first or third paper.
- The .pdf of the latter paper is available at https://www.abinit.org/about/zfk_0505-06_558-562.pdf.
- Note that it should not redistributed (Copyright by Oldenburg Wissenshaftverlag,
- the licence allows the authors to put it on the Web).
- DOI and bibtex: see https://docs.abinit.org/theory/bibliography/#gonze2005
-
- And optionally:
-
- [5] First-principles computation of material properties: the ABINIT software project. 
- X. Gonze, J.-M. Beuken, R. Caracas, F. Detraux, M. Fuchs, G.-M. Rignanese, L. Sindic,
- M. Verstraete, G. Zerah, F. Jollet, M. Torrent, A. Roy, M. Mikami, Ph. Ghosez, J.-Y. Raty, D.C. Allan.
- Computational Materials Science 25, 478-492 (2002). http://dx.doi.org/10.1016/S0927-0256(02)00325-7
- Comment: the original paper describing the ABINIT project.
- DOI and bibtex : see https://docs.abinit.org/theory/bibliography/#gonze2002
-
- Proc.   0 individual time (sec): cpu=         13.8  wall=         13.9

================================================================================

 Calculation completed.
.Delivered   3 WARNINGs and   6 COMMENTs to log file.
+Overall time at end (sec) : cpu=         13.8  wall=         13.9
