
.Version 9.3.1 of ABINIT 
.(MPI version, prepared for a x86_64_linux_gnu9.3 computer) 

.Copyright (C) 1998-2020 ABINIT group . 
 ABINIT comes with ABSOLUTELY NO WARRANTY.
 It is free software, and you are welcome to redistribute it
 under certain conditions (GNU General Public License,
 see ~abinit/COPYING or http://www.gnu.org/copyleft/gpl.txt).

 ABINIT is a project of the Universite Catholique de Louvain,
 Corning Inc. and other collaborators, see ~abinit/doc/developers/contributors.txt .
 Please read https://docs.abinit.org/theory/acknowledgments for suggested
 acknowledgments of the ABINIT effort.
 For more information, see https://www.abinit.org .

.Starting date : Tue 10 Nov 2020.
- ( at 22h30 )
  
- input  file    -> /home/buildbot/ABINIT/alps_gnu_9.3_openmpi/trunk_rel2dev/tests/TestBot_MPI1/v67mbpt_t37-t38-t39/t37.in
- output file    -> t37.out
- root for input  files -> t37i
- root for output files -> t37o


 DATASET    1 : space group Fm -3 m (#225); Bravais cF (face-center cubic)
================================================================================
 Values of the parameters that define the memory need for DATASET  1.
     intxc =       0    ionmov =       0      iscf =       7    lmnmax =       1
     lnmax =       1     mgfft =      20  mpssoang =       2    mqgrid =    3001
     natom =       2  nloc_mem =       1    nspden =       1   nspinor =       1
    nsppol =       1      nsym =      48    n1xccc =    2501    ntypat =       2
    occopt =       1   xclevel =       1
-    mband =          10        mffmem =           1         mkmem =           8
       mpw =         332          nfft =        8000          nkpt =           8
================================================================================
P This job should need less than                       3.432 Mbytes of memory.
  Rough estimation (10% accuracy) of disk space for files :
_ WF disk file :      0.407 Mbytes ; DEN or POT disk file :      0.063 Mbytes.
================================================================================


 DATASET    2 : space group Fm -3 m (#225); Bravais cF (face-center cubic)
================================================================================
 Values of the parameters that define the memory need for DATASET  2.
     intxc =       0    ionmov =       0      iscf =      -2    lmnmax =       1
     lnmax =       1     mgfft =      20  mpssoang =       2    mqgrid =    3001
     natom =       2  nloc_mem =       1    nspden =       1   nspinor =       1
    nsppol =       1      nsym =      48    n1xccc =    2501    ntypat =       2
    occopt =       1   xclevel =       1
-    mband =          50        mffmem =           1         mkmem =           8
       mpw =         332          nfft =        8000          nkpt =           8
================================================================================
P This job should need less than                       4.186 Mbytes of memory.
  Rough estimation (10% accuracy) of disk space for files :
_ WF disk file :      2.028 Mbytes ; DEN or POT disk file :      0.063 Mbytes.
================================================================================


 DATASET    3 : space group Fm -3 m (#225); Bravais cF (face-center cubic)
================================================================================
 Values of the parameters that define the memory need for DATASET  3.
     intxc =       0    ionmov =       0      iscf =       7    lmnmax =       1
     lnmax =       1     mgfft =      20  mpssoang =       2    mqgrid =    3001
     natom =       2  nloc_mem =       1    nspden =       1   nspinor =       1
    nsppol =       1      nsym =      48    n1xccc =    2501    ntypat =       2
    occopt =       1   xclevel =       1
-    mband =          50        mffmem =           1         mkmem =           8
       mpw =         332          nfft =        8000          nkpt =           8
================================================================================
P This job should need less than                       5.163 Mbytes of memory.
  Rough estimation (10% accuracy) of disk space for files :
_ WF disk file :      2.028 Mbytes ; DEN or POT disk file :      0.063 Mbytes.
================================================================================


 DATASET    4 : space group Fm -3 m (#225); Bravais cF (face-center cubic)
================================================================================
 Values of the parameters that define the memory need for DATASET  4.
     intxc =       0    ionmov =       0      iscf =       7    lmnmax =       1
     lnmax =       1     mgfft =      20  mpssoang =       2    mqgrid =    3001
     natom =       2  nloc_mem =       1    nspden =       1   nspinor =       1
    nsppol =       1      nsym =      48    n1xccc =    2501    ntypat =       2
    occopt =       1   xclevel =       1
-    mband =          50        mffmem =           1         mkmem =           8
       mpw =         332          nfft =        8000          nkpt =           8
================================================================================
P This job should need less than                       5.163 Mbytes of memory.
  Rough estimation (10% accuracy) of disk space for files :
_ WF disk file :      2.028 Mbytes ; DEN or POT disk file :      0.063 Mbytes.
================================================================================

--------------------------------------------------------------------------------
------------- Echo of variables that govern the present computation ------------
--------------------------------------------------------------------------------
-
- outvars: echo of selected default values                                      
-   iomode0 =  0 , fftalg0 =312 , wfoptalg0 =  0
-
- outvars: echo of global parameters not present in the input file              
-  max_nthreads =    0
-
 -outvars: echo values of preprocessed input variables --------
            acell      7.7034756000E+00  7.7034756000E+00  7.7034756000E+00 Bohr
              amu      6.94100000E+00  1.89984032E+01
             ecut      1.50000000E+01 Hartree
          ecuteps      3.00000000E+00 Hartree
          ecutwfn      1.50000000E+01 Hartree
-          fftalg         312
        freqremax1     0.00000000E+00 Hartree
        freqremax2     0.00000000E+00 Hartree
        freqremax3     7.34986508E-01 Hartree
        freqremax4     1.13922909E+00 Hartree
        freqremin1     0.00000000E+00 Hartree
        freqremin2     0.00000000E+00 Hartree
        freqremin3     0.00000000E+00 Hartree
        freqremin4     7.71735833E-01 Hartree
           getden1          0
           getden2          1
           getden3          0
           getden4          0
           getwfk1          0
           getwfk2          0
           getwfk3          2
           getwfk4          2
        gwcalctyp           2
             iscf1          7
             iscf2         -2
             iscf3          7
             iscf4          7
           istwfk        1    0    1    0    0    0    1    0
           jdtset        1    2    3    4
              kpt      0.00000000E+00  0.00000000E+00  0.00000000E+00
                       2.50000000E-01  0.00000000E+00  0.00000000E+00
                       5.00000000E-01  0.00000000E+00  0.00000000E+00
                       2.50000000E-01  2.50000000E-01  0.00000000E+00
                       5.00000000E-01  2.50000000E-01  0.00000000E+00
                      -2.50000000E-01  2.50000000E-01  0.00000000E+00
                       5.00000000E-01  5.00000000E-01  0.00000000E+00
                      -2.50000000E-01  5.00000000E-01  2.50000000E-01
         kptrlatt        4    0    0      0    4    0      0    0    4
          kptrlen      2.17887193E+01
P           mkmem           8
            natom           2
            nband1         10
            nband2         50
            nband3         50
            nband4         50
           nbdbuf1          0
           nbdbuf2          4
           nbdbuf3          0
           nbdbuf4          0
           ndtset           4
          nfreqim1         -1
          nfreqim2         -1
          nfreqim3          5
          nfreqim4          0
          nfreqre1         -1
          nfreqre2         -1
          nfreqre3         21
          nfreqre4         11
            ngfft          20      20      20
             nkpt           8
         nomegasf         250
           npweps1          0
           npweps2          0
           npweps3         27
           npweps4         27
           npwwfn1          0
           npwwfn2          0
           npwwfn3        331
           npwwfn4        331
            nstep          50
             nsym          48
           ntypat           2
              occ1     2.000000  2.000000  2.000000  2.000000  0.000000  0.000000
                       0.000000  0.000000  0.000000  0.000000
              occ3     2.000000  2.000000  2.000000  2.000000  0.000000  0.000000
                       0.000000  0.000000  0.000000  0.000000  0.000000  0.000000
                       0.000000  0.000000  0.000000  0.000000  0.000000  0.000000
                       0.000000  0.000000  0.000000  0.000000  0.000000  0.000000
                       0.000000  0.000000  0.000000  0.000000  0.000000  0.000000
                       0.000000  0.000000  0.000000  0.000000  0.000000  0.000000
                       0.000000  0.000000  0.000000  0.000000  0.000000  0.000000
                       0.000000  0.000000  0.000000  0.000000  0.000000  0.000000
                       0.000000  0.000000
              occ4     2.000000  2.000000  2.000000  2.000000  0.000000  0.000000
                       0.000000  0.000000  0.000000  0.000000  0.000000  0.000000
                       0.000000  0.000000  0.000000  0.000000  0.000000  0.000000
                       0.000000  0.000000  0.000000  0.000000  0.000000  0.000000
                       0.000000  0.000000  0.000000  0.000000  0.000000  0.000000
                       0.000000  0.000000  0.000000  0.000000  0.000000  0.000000
                       0.000000  0.000000  0.000000  0.000000  0.000000  0.000000
                       0.000000  0.000000  0.000000  0.000000  0.000000  0.000000
                       0.000000  0.000000
        optdriver1          0
        optdriver2          0
        optdriver3          3
        optdriver4          3
        prtsuscep           1
            rprim      0.0000000000E+00  5.0000000000E-01  5.0000000000E-01
                       5.0000000000E-01  0.0000000000E+00  5.0000000000E-01
                       5.0000000000E-01  5.0000000000E-01  0.0000000000E+00
          spgroup         225
           spmeth           1
           symrel      1  0  0   0  1  0   0  0  1      -1  0  0   0 -1  0   0  0 -1
                       0 -1  1   0 -1  0   1 -1  0       0  1 -1   0  1  0  -1  1  0
                      -1  0  0  -1  0  1  -1  1  0       1  0  0   1  0 -1   1 -1  0
                       0  1 -1   1  0 -1   0  0 -1       0 -1  1  -1  0  1   0  0  1
                      -1  0  0  -1  1  0  -1  0  1       1  0  0   1 -1  0   1  0 -1
                       0 -1  1   1 -1  0   0 -1  0       0  1 -1  -1  1  0   0  1  0
                       1  0  0   0  0  1   0  1  0      -1  0  0   0  0 -1   0 -1  0
                       0  1 -1   0  0 -1   1  0 -1       0 -1  1   0  0  1  -1  0  1
                      -1  0  1  -1  1  0  -1  0  0       1  0 -1   1 -1  0   1  0  0
                       0 -1  0   1 -1  0   0 -1  1       0  1  0  -1  1  0   0  1 -1
                       1  0 -1   0  0 -1   0  1 -1      -1  0  1   0  0  1   0 -1  1
                       0  1  0   0  0  1   1  0  0       0 -1  0   0  0 -1  -1  0  0
                       1  0 -1   0  1 -1   0  0 -1      -1  0  1   0 -1  1   0  0  1
                       0 -1  0   0 -1  1   1 -1  0       0  1  0   0  1 -1  -1  1  0
                      -1  0  1  -1  0  0  -1  1  0       1  0 -1   1  0  0   1 -1  0
                       0  1  0   1  0  0   0  0  1       0 -1  0  -1  0  0   0  0 -1
                       0  0 -1   0  1 -1   1  0 -1       0  0  1   0 -1  1  -1  0  1
                       1 -1  0   0 -1  1   0 -1  0      -1  1  0   0  1 -1   0  1  0
                       0  0  1   1  0  0   0  1  0       0  0 -1  -1  0  0   0 -1  0
                      -1  1  0  -1  0  0  -1  0  1       1 -1  0   1  0  0   1  0 -1
                       0  0  1   0  1  0   1  0  0       0  0 -1   0 -1  0  -1  0  0
                       1 -1  0   0 -1  0   0 -1  1      -1  1  0   0  1  0   0  1 -1
                       0  0 -1   1  0 -1   0  1 -1       0  0  1  -1  0  1   0 -1  1
                      -1  1  0  -1  0  1  -1  0  0       1 -1  0   1  0 -1   1  0  0
           tolvrs1     1.00000000E-12
           tolvrs2     0.00000000E+00
           tolvrs3     0.00000000E+00
           tolvrs4     0.00000000E+00
           tolwfr1     0.00000000E+00
           tolwfr2     1.00000000E-12
           tolwfr3     0.00000000E+00
           tolwfr4     0.00000000E+00
            typat      1  2
              wtk        0.01563    0.12500    0.06250    0.09375    0.37500    0.18750
                         0.04688    0.09375
           xangst      0.0000000000E+00  0.0000000000E+00  0.0000000000E+00
                      -2.0382518572E+00 -4.3552371229E-18  4.3552371229E-18
            xcart      0.0000000000E+00  0.0000000000E+00  0.0000000000E+00
                      -3.8517378000E+00 -8.2302054061E-18  8.2302054061E-18
             xred      0.0000000000E+00  0.0000000000E+00  0.0000000000E+00
                       5.0000000000E-01 -5.0000000000E-01 -5.0000000000E-01
            znucl        3.00000    9.00000

================================================================================

 chkinp: Checking input parameters for consistency, jdtset=   1.

 chkinp: Checking input parameters for consistency, jdtset=   2.

 chkinp: Checking input parameters for consistency, jdtset=   3.

 chkinp: Checking input parameters for consistency, jdtset=   4.

================================================================================
== DATASET  1 ==================================================================
-   mpi_nproc: 1, omp_nthreads: -1 (-1 if OMP is not activated)


--- !DatasetInfo
iteration_state: {dtset: 1, }
dimensions: {natom: 2, nkpt: 8, mband: 10, nsppol: 1, nspinor: 1, nspden: 1, mpw: 332, }
cutoff_energies: {ecut:  15.0, pawecutdg:  -1.0, }
electrons: {nelect:   8.00000000E+00, charge:   0.00000000E+00, occopt:   1.00000000E+00, tsmear:   1.00000000E-02, }
meta: {optdriver: 0, ionmov: 0, optcell: 0, iscf: 7, paral_kgb: 0, }
...

 Exchange-correlation functional for the present dataset will be:
  LDA: new Teter (4/93) with spin-polarized option - ixc=1
 Citation for XC functional:
  S. Goedecker, M. Teter, J. Huetter, PRB 54, 1703 (1996)

 Real(R)+Recip(G) space primitive vectors, cartesian coordinates (Bohr,Bohr^-1):
 R(1)=  0.0000000  3.8517378  3.8517378  G(1)= -0.1298115  0.1298115  0.1298115
 R(2)=  3.8517378  0.0000000  3.8517378  G(2)=  0.1298115 -0.1298115  0.1298115
 R(3)=  3.8517378  3.8517378  0.0000000  G(3)=  0.1298115  0.1298115 -0.1298115
 Unit cell volume ucvol=  1.1428787E+02 bohr^3
 Angles (23,13,12)=  6.00000000E+01  6.00000000E+01  6.00000000E+01 degrees

 getcut: wavevector=  0.0000  0.0000  0.0000  ngfft=  20  20  20
         ecut(hartree)=     15.000   => boxcut(ratio)=   2.10595

--- Pseudopotential description ------------------------------------------------
- pspini: atom type   1  psp file is /home/buildbot/ABINIT/alps_gnu_9.3_openmpi/trunk_rel2dev/tests/Psps_for_tests/03-Li.psp
- pspatm: opening atomic psp file    /home/buildbot/ABINIT/alps_gnu_9.3_openmpi/trunk_rel2dev/tests/Psps_for_tests/03-Li.psp
-  Troullier-Martins psp for element  Li        Thu Oct 27 17:29:06 EDT 1994
-  3.00000   1.00000    940714                znucl, zion, pspdat
    1    1    1    1      2001   0.00000      pspcod,pspxc,lmax,lloc,mmax,r2well
    0   2.534   6.726    1   2.4315963        l,e99.0,e99.9,nproj,rcpsp
   0.00000000   0.00000000   0.00000000   0.00000000     rms, ekb1, ekb2, epsatm
    1   3.283   5.836    0   2.4315963        l,e99.0,e99.9,nproj,rcpsp
   0.00000000   0.00000000   0.00000000   0.00000000     rms, ekb1, ekb2, epsatm
    2.44451305764117    0.01373030920382    0.17502673260160   rchrg,fchrg,qchrg
  pspatm : epsatm=   -1.77437869
         --- l  ekb(1:nproj) -->
             0    1.242797
 pspatm: atomic psp has been read  and splines computed

- pspini: atom type   2  psp file is /home/buildbot/ABINIT/alps_gnu_9.3_openmpi/trunk_rel2dev/tests/Psps_for_tests/09-F.psp
- pspatm: opening atomic psp file    /home/buildbot/ABINIT/alps_gnu_9.3_openmpi/trunk_rel2dev/tests/Psps_for_tests/09-F.psp
-  Troullier-Martins psp for element  F         Thu Oct 27 17:30:08 EDT 1994
-  9.00000   7.00000    940714                znucl, zion, pspdat
    1    1    1    1      2001   0.00000      pspcod,pspxc,lmax,lloc,mmax,r2well
    0   6.771  17.439    1   1.3876018        l,e99.0,e99.9,nproj,rcpsp
   0.00000000   0.00000000   0.00000000   0.00000000     rms, ekb1, ekb2, epsatm
    1  24.372  32.350    0   1.3876018        l,e99.0,e99.9,nproj,rcpsp
   0.00000000   0.00000000   0.00000000   0.00000000     rms, ekb1, ekb2, epsatm
    0.49406148701180    6.36128955091623    0.66947621353748   rchrg,fchrg,qchrg
  pspatm : epsatm=    1.80528525
         --- l  ekb(1:nproj) -->
             0    6.310228
 pspatm: atomic psp has been read  and splines computed

   2.47252491E-01                                ecore*ucvol(ha*bohr**3)
--------------------------------------------------------------------------------

_setup2: Arith. and geom. avg. npw (full set) are     315.297     315.241

================================================================================

--- !BeginCycle
iteration_state: {dtset: 1, }
solver: {iscf: 7, nstep: 50, nline: 4, wfoptalg: 0, }
tolerances: {tolvrs: 1.00E-12, }
...

     iter   Etot(hartree)      deltaE(h)  residm     vres2
 ETOT  1  -22.954208759529    -2.295E+01 1.491E-02 1.169E+03
 ETOT  2  -23.567461205903    -6.133E-01 3.298E-03 7.348E+02
 ETOT  3  -24.304999714509    -7.375E-01 2.969E-02 1.431E+01
 ETOT  4  -24.318358476158    -1.336E-02 8.614E-04 1.084E+00
 ETOT  5  -24.319188423824    -8.299E-04 1.770E-03 4.138E-02
 ETOT  6  -24.319232011672    -4.359E-05 4.656E-04 6.118E-04
 ETOT  7  -24.319232505647    -4.940E-07 7.161E-05 2.454E-05
 ETOT  8  -24.319232531453    -2.581E-08 4.607E-05 1.397E-08
 ETOT  9  -24.319232531458    -4.881E-12 5.052E-05 9.185E-09
 ETOT 10  -24.319232531469    -1.059E-11 1.229E-04 1.955E-10
 ETOT 11  -24.319232531469    -8.882E-13 1.502E-04 4.048E-13

 At SCF step   11       vres2   =  4.05E-13 < tolvrs=  1.00E-12 =>converged.

 Cartesian components of stress tensor (hartree/bohr^3)
  sigma(1 1)=  1.32152846E-02  sigma(3 2)=  0.00000000E+00
  sigma(2 2)=  1.32152846E-02  sigma(3 1)=  0.00000000E+00
  sigma(3 3)=  1.32152846E-02  sigma(2 1)=  0.00000000E+00


--- !ResultsGS
iteration_state: {dtset: 1, }
comment   : Summary of ground state results
lattice_vectors:
- [  0.0000000,   3.8517378,   3.8517378, ]
- [  3.8517378,   0.0000000,   3.8517378, ]
- [  3.8517378,   3.8517378,   0.0000000, ]
lattice_lengths: [   5.44718,    5.44718,    5.44718, ]
lattice_angles: [ 60.000,  60.000,  60.000, ] # degrees, (23, 13, 12)
lattice_volume:   1.1428787E+02
convergence: {deltae: -8.882E-13, res2:  4.048E-13, residm:  1.502E-04, diffor: null, }
etotal    :  -2.43192325E+01
entropy   :   0.00000000E+00
fermie    :   3.17585704E-02
cartesian_stress_tensor: # hartree/bohr^3
- [  1.32152846E-02,   0.00000000E+00,   0.00000000E+00, ]
- [  0.00000000E+00,   1.32152846E-02,   0.00000000E+00, ]
- [  0.00000000E+00,   0.00000000E+00,   1.32152846E-02, ]
pressure_GPa:  -3.8881E+02
xred      :
- [  0.0000E+00,   0.0000E+00,   0.0000E+00, Li]
- [  5.0000E-01,  -5.0000E-01,  -5.0000E-01,  F]
cartesian_forces: # hartree/bohr
- [ -0.00000000E+00,  -0.00000000E+00,  -0.00000000E+00, ]
- [ -0.00000000E+00,  -0.00000000E+00,  -0.00000000E+00, ]
force_length_stats: {min:   0.00000000E+00, max:   0.00000000E+00, mean:   0.00000000E+00, }
...

 Integrated electronic density in atomic spheres:
 ------------------------------------------------
 Atom  Sphere_radius  Integrated_density
    1        2.00000          0.36711974
    2        2.00000          6.87362091
================================================================================

 ----iterations are completed or convergence reached----

 Mean square residual over all n,k,spin=   18.853E-07; max=  15.023E-05
 reduced coordinates (array xred) for    2 atoms
       0.000000000000      0.000000000000      0.000000000000
       0.500000000000     -0.500000000000     -0.500000000000
 rms dE/dt=  0.0000E+00; max dE/dt=  0.0000E+00; dE/dt below (all hartree)
    1       0.000000000000      0.000000000000      0.000000000000
    2       0.000000000000      0.000000000000      0.000000000000

 cartesian coordinates (angstrom) at end:
    1      0.00000000000000     0.00000000000000     0.00000000000000
    2     -2.03825185722459    -0.00000000000000     0.00000000000000

 cartesian forces (hartree/bohr) at end:
    1     -0.00000000000000    -0.00000000000000    -0.00000000000000
    2     -0.00000000000000    -0.00000000000000    -0.00000000000000
 frms,max,avg= 0.0000000E+00 0.0000000E+00   0.000E+00  0.000E+00  0.000E+00 h/b

 cartesian forces (eV/Angstrom) at end:
    1     -0.00000000000000    -0.00000000000000    -0.00000000000000
    2     -0.00000000000000    -0.00000000000000    -0.00000000000000
 frms,max,avg= 0.0000000E+00 0.0000000E+00   0.000E+00  0.000E+00  0.000E+00 e/A
 length scales=  7.703475600000  7.703475600000  7.703475600000 bohr
              =  4.076503714449  4.076503714449  4.076503714449 angstroms
 prteigrs : about to open file t37o_DS1_EIG
 Fermi (or HOMO) energy (hartree) =   0.03176   Average Vxc (hartree)=  -0.37187
 Eigenvalues (hartree) for nkpt=   8  k points:
 kpt#   1, nband= 10, wtk=  0.01563, kpt=  0.0000  0.0000  0.0000 (reduced coord)
  -0.87242    0.01674    0.01674    0.01674    0.27807    0.85458    0.85458    0.86049
   0.86313    0.86313
 prteigrs : prtvol=0 or 1, do not print more k-points.


--- !EnergyTerms
iteration_state     : {dtset: 1, }
comment             : Components of total free energy in Hartree
kinetic             :  1.45104496541716E+01
hartree             :  7.29592560329846E+00
xc                  : -5.53941820118155E+00
Ewald energy        : -1.58694189992342E+01
psp_core            :  2.16341846703186E-03
local_psp           : -2.80221837193366E+01
non_local_psp       :  3.30324971234584E+00
total_energy        : -2.43192325314694E+01
total_energy_eV     : -6.61759971594414E+02
band_energy         : -1.81477043581631E+00
...


 Cartesian components of stress tensor (hartree/bohr^3)
  sigma(1 1)=  1.32152846E-02  sigma(3 2)=  0.00000000E+00
  sigma(2 2)=  1.32152846E-02  sigma(3 1)=  0.00000000E+00
  sigma(3 3)=  1.32152846E-02  sigma(2 1)=  0.00000000E+00

-Cartesian components of stress tensor (GPa)         [Pressure= -3.8881E+02 GPa]
- sigma(1 1)=  3.88807032E+02  sigma(3 2)=  0.00000000E+00
- sigma(2 2)=  3.88807032E+02  sigma(3 1)=  0.00000000E+00
- sigma(3 3)=  3.88807032E+02  sigma(2 1)=  0.00000000E+00

================================================================================
== DATASET  2 ==================================================================
-   mpi_nproc: 1, omp_nthreads: -1 (-1 if OMP is not activated)


--- !DatasetInfo
iteration_state: {dtset: 2, }
dimensions: {natom: 2, nkpt: 8, mband: 50, nsppol: 1, nspinor: 1, nspden: 1, mpw: 332, }
cutoff_energies: {ecut:  15.0, pawecutdg:  -1.0, }
electrons: {nelect:   8.00000000E+00, charge:   0.00000000E+00, occopt:   1.00000000E+00, tsmear:   1.00000000E-02, }
meta: {optdriver: 0, ionmov: 0, optcell: 0, iscf: -2, paral_kgb: 0, }
...

 mkfilename : getden/=0, take file _DEN from output of DATASET   1.

 Exchange-correlation functional for the present dataset will be:
  LDA: new Teter (4/93) with spin-polarized option - ixc=1
 Citation for XC functional:
  S. Goedecker, M. Teter, J. Huetter, PRB 54, 1703 (1996)

 Real(R)+Recip(G) space primitive vectors, cartesian coordinates (Bohr,Bohr^-1):
 R(1)=  0.0000000  3.8517378  3.8517378  G(1)= -0.1298115  0.1298115  0.1298115
 R(2)=  3.8517378  0.0000000  3.8517378  G(2)=  0.1298115 -0.1298115  0.1298115
 R(3)=  3.8517378  3.8517378  0.0000000  G(3)=  0.1298115  0.1298115 -0.1298115
 Unit cell volume ucvol=  1.1428787E+02 bohr^3
 Angles (23,13,12)=  6.00000000E+01  6.00000000E+01  6.00000000E+01 degrees

 getcut: wavevector=  0.0000  0.0000  0.0000  ngfft=  20  20  20
         ecut(hartree)=     15.000   => boxcut(ratio)=   2.10595
--------------------------------------------------------------------------------


================================================================================
 prteigrs : about to open file t37o_DS2_EIG
 Non-SCF case, kpt    1 (  0.00000  0.00000  0.00000), residuals and eigenvalues=
  9.37E-14  1.05E-13  6.92E-13  5.51E-13  3.27E-14  2.65E-13  3.14E-13  2.69E-13
  6.25E-14  9.33E-14  2.22E-13  5.67E-14  1.06E-13  7.61E-14  3.52E-14  2.65E-13
  5.52E-14  3.34E-13  3.32E-14  9.65E-14  6.55E-13  2.81E-13  4.15E-13  5.94E-13
  1.04E-13  4.20E-13  4.05E-13  4.65E-13  1.74E-13  2.14E-13  2.87E-13  1.63E-13
  2.33E-13  7.50E-13  9.65E-13  6.28E-13  8.64E-13  9.23E-13  9.20E-13  7.20E-13
  9.34E-13  9.86E-13  5.77E-13  5.23E-13  8.57E-13  7.70E-13  1.28E-11  4.17E-11
  1.48E-06  2.26E-10
 -8.7242E-01  1.6737E-02  1.6737E-02  1.6737E-02  2.7807E-01  8.5458E-01
  8.5458E-01  8.5458E-01  8.6313E-01  8.6313E-01  8.6313E-01  9.7104E-01
  1.1192E+00  1.1192E+00  1.4616E+00  1.6777E+00  1.6777E+00  1.6777E+00
  2.2006E+00  2.3112E+00  2.3112E+00  2.3112E+00  2.4517E+00  2.4517E+00
  2.4814E+00  2.4814E+00  2.4814E+00  2.6318E+00  2.6318E+00  2.6318E+00
  2.9446E+00  3.0026E+00  3.0026E+00  3.2362E+00  3.2362E+00  3.2362E+00
  3.4088E+00  3.4088E+00  3.4088E+00  3.4579E+00  3.4579E+00  3.4579E+00
  3.5013E+00  3.5013E+00  3.5013E+00  3.5201E+00  3.5901E+00  3.5901E+00
  3.5901E+00  3.6117E+00
  prteigrs : nnsclo,ikpt=   50    1 max resid (incl. the buffer)=  1.47567E-06
 prteigrs : prtvol=0 or 1, do not print more k-points.

  prteigrs : nnsclo,ikpt=   50    2 max resid (incl. the buffer)=  5.71456E-05
  prteigrs : nnsclo,ikpt=   50    3 max resid (incl. the buffer)=  4.07672E-05
  prteigrs : nnsclo,ikpt=   50    4 max resid (incl. the buffer)=  3.15761E-05
  prteigrs : nnsclo,ikpt=   50    5 max resid (incl. the buffer)=  2.23273E-08
  prteigrs : nnsclo,ikpt=   50    6 max resid (incl. the buffer)=  2.39229E-07
  prteigrs : nnsclo,ikpt=   50    7 max resid (incl. the buffer)=  1.31309E-04
  prteigrs : nnsclo,ikpt=   50    8 max resid (incl. the buffer)=  1.23125E-05


--- !ResultsGS
iteration_state: {dtset: 2, }
comment   : Summary of ground state results
lattice_vectors:
- [  0.0000000,   3.8517378,   3.8517378, ]
- [  3.8517378,   0.0000000,   3.8517378, ]
- [  3.8517378,   3.8517378,   0.0000000, ]
lattice_lengths: [   5.44718,    5.44718,    5.44718, ]
lattice_angles: [ 60.000,  60.000,  60.000, ] # degrees, (23, 13, 12)
lattice_volume:   1.1428787E+02
convergence: {deltae:  0.000E+00, res2:  0.000E+00, residm:  9.969E-13, diffor:  0.000E+00, }
etotal    :  -2.43192325E+01
entropy   :   0.00000000E+00
fermie    :   3.17585704E-02
cartesian_stress_tensor: null
pressure_GPa: null
xred      :
- [  0.0000E+00,   0.0000E+00,   0.0000E+00, Li]
- [  5.0000E-01,  -5.0000E-01,  -5.0000E-01,  F]
cartesian_forces: null
force_length_stats: {min: null, max: null, mean: null, }
...

 Integrated electronic density in atomic spheres:
 ------------------------------------------------
 Atom  Sphere_radius  Integrated_density
    1        2.00000          0.36711974
    2        2.00000          6.87362091
================================================================================

 ----iterations are completed or convergence reached----

 Mean square residual over all n,k,spin=   30.737E-14; max=  99.693E-14
 reduced coordinates (array xred) for    2 atoms
       0.000000000000      0.000000000000      0.000000000000
       0.500000000000     -0.500000000000     -0.500000000000

 cartesian coordinates (angstrom) at end:
    1      0.00000000000000     0.00000000000000     0.00000000000000
    2     -2.03825185722459    -0.00000000000000     0.00000000000000
 length scales=  7.703475600000  7.703475600000  7.703475600000 bohr
              =  4.076503714449  4.076503714449  4.076503714449 angstroms
 prteigrs : about to open file t37o_DS2_EIG
 Eigenvalues (hartree) for nkpt=   8  k points:
 kpt#   1, nband= 50, wtk=  0.01563, kpt=  0.0000  0.0000  0.0000 (reduced coord)
  -0.87242    0.01674    0.01674    0.01674    0.27807    0.85458    0.85458    0.85458
   0.86313    0.86313    0.86313    0.97104    1.11915    1.11915    1.46164    1.67768
   1.67768    1.67768    2.20062    2.31116    2.31116    2.31116    2.45173    2.45173
   2.48141    2.48141    2.48141    2.63180    2.63180    2.63180    2.94459    3.00258
   3.00258    3.23619    3.23619    3.23619    3.40884    3.40884    3.40884    3.45792
   3.45792    3.45792    3.50131    3.50131    3.50131    3.52011    3.59010    3.59010
   3.59011    3.61172
 prteigrs : prtvol=0 or 1, do not print more k-points.


================================================================================
== DATASET  3 ==================================================================
-   mpi_nproc: 1, omp_nthreads: -1 (-1 if OMP is not activated)


--- !DatasetInfo
iteration_state: {dtset: 3, }
dimensions: {natom: 2, nkpt: 8, mband: 50, nsppol: 1, nspinor: 1, nspden: 1, mpw: 332, }
cutoff_energies: {ecut:  15.0, pawecutdg:  -1.0, }
electrons: {nelect:   8.00000000E+00, charge:   0.00000000E+00, occopt:   1.00000000E+00, tsmear:   1.00000000E-02, }
meta: {optdriver: 3, gwcalctyp: 2, }
...

 mkfilename : getwfk/=0, take file _WFK from output of DATASET   2.

 Exchange-correlation functional for the present dataset will be:
  LDA: new Teter (4/93) with spin-polarized option - ixc=1
 Citation for XC functional:
  S. Goedecker, M. Teter, J. Huetter, PRB 54, 1703 (1996)

 SCREENING: Calculation of the susceptibility and dielectric matrices 

 Based on a program developped by R.W. Godby, V. Olevano, G. Onida, and L. Reining.
 Incorporated in ABINIT by V. Olevano, G.-M. Rignanese, and M. Torrent.
.Using double precision arithmetic ; gwpc =  8

 Real(R)+Recip(G) space primitive vectors, cartesian coordinates (Bohr,Bohr^-1):
 R(1)=  0.0000000  3.8517378  3.8517378  G(1)= -0.1298115  0.1298115  0.1298115
 R(2)=  3.8517378  0.0000000  3.8517378  G(2)=  0.1298115 -0.1298115  0.1298115
 R(3)=  3.8517378  3.8517378  0.0000000  G(3)=  0.1298115  0.1298115 -0.1298115
 Unit cell volume ucvol=  1.1428787E+02 bohr^3
 Angles (23,13,12)=  6.00000000E+01  6.00000000E+01  6.00000000E+01 degrees
--------------------------------------------------------------------------------

 ==== K-mesh for the wavefunctions ====
 Number of points in the irreducible wedge :     8
 Reduced coordinates and weights : 

     1)     0.00000000E+00  0.00000000E+00  0.00000000E+00       0.01563
     2)     2.50000000E-01  0.00000000E+00  0.00000000E+00       0.12500
     3)     5.00000000E-01  0.00000000E+00  0.00000000E+00       0.06250
     4)     2.50000000E-01  2.50000000E-01  0.00000000E+00       0.09375
     5)     5.00000000E-01  2.50000000E-01  0.00000000E+00       0.37500
     6)    -2.50000000E-01  2.50000000E-01  0.00000000E+00       0.18750
     7)     5.00000000E-01  5.00000000E-01  0.00000000E+00       0.04688
     8)    -2.50000000E-01  5.00000000E-01  2.50000000E-01       0.09375

 Together with 48 symmetry operations and time-reversal symmetry 
 yields    64 points in the full Brillouin Zone.


 ==== Q-mesh for the screening function ====
 Number of points in the irreducible wedge :     8
 Reduced coordinates and weights : 

     1)     0.00000000E+00  0.00000000E+00  0.00000000E+00       0.01563
     2)     2.50000000E-01  0.00000000E+00  0.00000000E+00       0.12500
     3)     5.00000000E-01  0.00000000E+00  0.00000000E+00       0.06250
     4)     2.50000000E-01  2.50000000E-01  0.00000000E+00       0.09375
     5)     5.00000000E-01  2.50000000E-01  0.00000000E+00       0.37500
     6)    -2.50000000E-01  2.50000000E-01  0.00000000E+00       0.18750
     7)     5.00000000E-01  5.00000000E-01  0.00000000E+00       0.04688
     8)    -2.50000000E-01  5.00000000E-01  2.50000000E-01       0.09375

 Together with 48 symmetry operations and time-reversal symmetry 
 yields    64 points in the full Brillouin Zone.


 setmesh: FFT mesh size selected  =    15x   15x   15
          total number of points  =         3375


- screening: taking advantage of time-reversal symmetry 
- Maximum band index for partially occupied states nbvw = 4
- Remaining bands to be divided among processors   nbcw = 46
- Number of bands treated by each node ~46

 Number of electrons calculated from density =    8.0000; Expected =    8.0000
 average of density, n =  0.069999
 r_s =    1.5052
 omega_plasma =   25.5212 [eV]


 calculating chi0 at frequencies [eV] :
  1    0.000000E+00    0.000000E+00
  2    1.000000E+00    0.000000E+00
  3    2.000000E+00    0.000000E+00
  4    3.000000E+00    0.000000E+00
  5    4.000000E+00    0.000000E+00
  6    5.000000E+00    0.000000E+00
  7    6.000000E+00    0.000000E+00
  8    7.000000E+00    0.000000E+00
  9    8.000000E+00    0.000000E+00
 10    9.000000E+00    0.000000E+00
 11    1.000000E+01    0.000000E+00
 12    1.100000E+01    0.000000E+00
 13    1.200000E+01    0.000000E+00
 14    1.300000E+01    0.000000E+00
 15    1.400000E+01    0.000000E+00
 16    1.500000E+01    0.000000E+00
 17    1.600000E+01    0.000000E+00
 18    1.700000E+01    0.000000E+00
 19    1.800000E+01    0.000000E+00
 20    1.900000E+01    0.000000E+00
 21    2.000000E+01    0.000000E+00
 22    0.000000E+00    4.997053E+00
 23    0.000000E+00    1.292938E+01
 24    0.000000E+00    2.552116E+01
 25    0.000000E+00    4.550938E+01
 26    0.000000E+00    7.723868E+01


--------------------------------------------------------------------------------
  q-point number  1        q = ( 0.000000, 0.000000, 0.000000) [r.l.u.]
--------------------------------------------------------------------------------
  chi0(G,G') at the    1 th omega   0.0000   0.0000 [eV]
       1       2       3       4       5       6       7       8       9
    1  -0.000  -0.000   0.000   0.000  -0.000  -0.000   0.000   0.000  -0.000
       -0.000   0.000  -0.000  -0.000   0.000   0.000  -0.000  -0.000   0.000

    2  -0.000  -5.533  -0.379  -1.168  -1.984  -1.168  -1.984  -1.168  -1.985
       -0.000  -0.000   0.000   0.000  -0.000  -0.000  -0.000   0.000   0.000

  chi0(G,G') at the    2 th omega   1.0000   0.0000 [eV]
       1       2       3       4       5       6       7       8       9
    1  -0.000  -0.000   0.000   0.000  -0.000  -0.000   0.000   0.000  -0.000
       -0.000  -0.000   0.000   0.000  -0.000  -0.000   0.000   0.000  -0.000

    2  -0.000  -5.544  -0.382  -1.174  -1.990  -1.174  -1.990  -1.173  -1.991
       -0.000  -0.022  -0.004  -0.008  -0.010  -0.008  -0.010  -0.008  -0.010

  chi0(G,G') at the    3 th omega   2.0000   0.0000 [eV]
       1       2       3       4       5       6       7       8       9
    1  -0.000  -0.000   0.000   0.000  -0.000  -0.000   0.000   0.000  -0.000
       -0.000  -0.000   0.000   0.000  -0.000  -0.000   0.000   0.000  -0.000

    2  -0.000  -5.577  -0.392  -1.190  -2.008  -1.190  -2.008  -1.190  -2.009
       -0.000  -0.022  -0.005  -0.009  -0.011  -0.009  -0.011  -0.009  -0.011

  chi0(G,G') at the    4 th omega   3.0000   0.0000 [eV]
       1       2       3       4       5       6       7       8       9
    1  -0.000  -0.000   0.000   0.000  -0.000  -0.000   0.000   0.000  -0.000
       -0.000  -0.000   0.000   0.000  -0.000  -0.000   0.000   0.000  -0.000

    2  -0.000  -5.634  -0.410  -1.218  -2.040  -1.218  -2.040  -1.218  -2.040
       -0.000  -0.024  -0.005  -0.009  -0.011  -0.009  -0.011  -0.009  -0.011

  chi0(G,G') at the    5 th omega   4.0000   0.0000 [eV]
       1       2       3       4       5       6       7       8       9
    1  -0.000  -0.000   0.000   0.000  -0.000  -0.000   0.000   0.000  -0.000
       -0.000  -0.000   0.000   0.000  -0.000  -0.000   0.000   0.000  -0.000

    2  -0.000  -5.719  -0.436  -1.261  -2.086  -1.261  -2.086  -1.261  -2.086
       -0.000  -0.025  -0.006  -0.010  -0.012  -0.010  -0.012  -0.010  -0.012

  chi0(G,G') at the    6 th omega   5.0000   0.0000 [eV]
       1       2       3       4       5       6       7       8       9
    1  -0.000  -0.000   0.000   0.000  -0.000  -0.000   0.000   0.000  -0.000
       -0.000  -0.000   0.000   0.000  -0.000  -0.000   0.000   0.000  -0.000

    2  -0.000  -5.836  -0.474  -1.321  -2.151  -1.321  -2.151  -1.320  -2.151
       -0.000  -0.028  -0.007  -0.012  -0.014  -0.012  -0.014  -0.012  -0.014

  chi0(G,G') at the    7 th omega   6.0000   0.0000 [eV]
       1       2       3       4       5       6       7       8       9
    1  -0.000  -0.000   0.000   0.000  -0.000  -0.000   0.000   0.000  -0.000
       -0.000  -0.000   0.000   0.000  -0.000  -0.000   0.000   0.000  -0.000

    2  -0.000  -5.995  -0.525  -1.403  -2.241  -1.403  -2.241  -1.403  -2.241
       -0.000  -0.032  -0.008  -0.014  -0.016  -0.014  -0.016  -0.014  -0.016

  chi0(G,G') at the    8 th omega   7.0000   0.0000 [eV]
       1       2       3       4       5       6       7       8       9
    1  -0.000  -0.000   0.000   0.000  -0.000  -0.000   0.000   0.000  -0.000
       -0.000  -0.000   0.000   0.000  -0.000  -0.000   0.000   0.000  -0.000

    2  -0.000  -6.215  -0.595  -1.518  -2.366  -1.518  -2.366  -1.518  -2.366
       -0.000  -0.045  -0.004  -0.015  -0.022  -0.015  -0.022  -0.015  -0.022

  chi0(G,G') at the    9 th omega   8.0000   0.0000 [eV]
       1       2       3       4       5       6       7       8       9
    1  -0.000  -0.000   0.000   0.000  -0.000  -0.000   0.000   0.000  -0.000
       -0.000  -0.000   0.000   0.000  -0.000  -0.000   0.000   0.000  -0.000

    2  -0.000  -6.534  -0.701  -1.689  -2.552  -1.689  -2.552  -1.689  -2.552
       -0.000  -0.099   0.029  -0.009  -0.043  -0.009  -0.043  -0.009  -0.043

  chi0(G,G') at the   10 th omega   9.0000   0.0000 [eV]
       1       2       3       4       5       6       7       8       9
    1  -0.000  -0.000   0.000   0.000  -0.000  -0.000   0.000   0.000  -0.000
       -0.000  -0.000   0.000   0.000  -0.000  -0.000   0.000   0.000  -0.000

    2  -0.000  -7.003  -1.007  -2.061  -2.875  -2.061  -2.875  -2.060  -2.875
       -0.000  -0.152   0.001  -0.051  -0.082  -0.051  -0.082  -0.051  -0.082

  chi0(G,G') at the   11 th omega  10.0000   0.0000 [eV]
       1       2       3       4       5       6       7       8       9
    1  -0.000  -0.000   0.000   0.000  -0.000  -0.000   0.000   0.000  -0.000
       -0.000  -0.000   0.000   0.000  -0.000  -0.000   0.000   0.000  -0.000

    2  -0.000  -7.166  -0.879  -1.959  -2.870  -1.959  -2.870  -1.959  -2.871
       -0.000  -0.723  -0.320  -0.491  -0.495  -0.491  -0.495  -0.491  -0.495

  chi0(G,G') at the   12 th omega  11.0000   0.0000 [eV]
       1       2       3       4       5       6       7       8       9
    1   0.000  -0.000   0.000   0.000  -0.000  -0.000   0.000   0.000  -0.000
       -0.000  -0.000   0.000   0.000  -0.000  -0.000   0.000   0.000  -0.000

    2  -0.000  -8.208  -1.867  -3.005  -3.680  -3.005  -3.680  -3.005  -3.680
       -0.000  -0.862  -0.582  -0.676  -0.713  -0.676  -0.713  -0.676  -0.713

  chi0(G,G') at the   13 th omega  12.0000   0.0000 [eV]
       1       2       3       4       5       6       7       8       9
    1  -0.000  -0.000   0.000   0.000  -0.000  -0.000   0.000   0.000  -0.000
       -0.000  -0.000   0.000   0.000  -0.000  -0.000   0.000   0.000  -0.000

    2  -0.000  -8.659  -1.853  -2.938  -4.019  -2.938  -4.019  -2.937  -4.020
       -0.000  -1.968  -0.883  -1.345  -0.990  -1.345  -0.990  -1.345  -0.990

  chi0(G,G') at the   14 th omega  13.0000   0.0000 [eV]
       1       2       3       4       5       6       7       8       9
    1   0.000  -0.000   0.000   0.000  -0.000  -0.000   0.000   0.000  -0.000
       -0.000  -0.000   0.000   0.000  -0.000  -0.000   0.000   0.000  -0.000

    2  -0.000  -5.373   1.044  -0.313  -1.172  -0.313  -1.172  -0.312  -1.172
       -0.000  -3.991  -3.511  -3.365  -3.330  -3.365  -3.330  -3.365  -3.330

  chi0(G,G') at the   15 th omega  14.0000   0.0000 [eV]
       1       2       3       4       5       6       7       8       9
    1  -0.000  -0.000   0.000   0.000  -0.000  -0.000   0.000   0.000  -0.000
       -0.000  -0.000   0.000   0.000  -0.000  -0.000   0.000   0.000  -0.000

    2  -0.000  -7.870  -0.298  -1.984  -2.793  -1.984  -2.793  -1.983  -2.794
       -0.000  -1.811  -0.975  -1.629  -0.928  -1.629  -0.928  -1.629  -0.928

 No. of calculated frequencies >  15, stop printing
 For q-point:  0.000010 0.000020 0.000030
  dielectric constant =   2.3581
  dielectric constant without local fields =   2.5136

  Average fulfillment of the sum rule on Im[epsilon] for q-point    1 :     73.49  [%]
  Heads and wings of the symmetrical epsilon^-1(G,G') 

   Upper and lower wings at the    1 th omega   0.0000   0.0000 [eV]
       1       2       3       4       5       6       7       8       9
      0.424  -0.020   0.020   0.061  -0.061  -0.061   0.061   0.020  -0.020
     -0.000   0.000  -0.000  -0.000   0.000   0.000  -0.000  -0.000   0.000
       1       2       3       4       5       6       7       8       9
      0.424  -0.020   0.020   0.061  -0.061  -0.061   0.061   0.020  -0.020
     -0.000  -0.000   0.000   0.000  -0.000  -0.000   0.000   0.000  -0.000


   Upper and lower wings at the    2 th omega   1.0000   0.0000 [eV]
       1       2       3       4       5       6       7       8       9
      0.422  -0.020   0.020   0.061  -0.061  -0.061   0.061   0.020  -0.020
     -0.002   0.000  -0.000  -0.000   0.000   0.000  -0.000  -0.000   0.000
       1       2       3       4       5       6       7       8       9
      0.422  -0.020   0.020   0.061  -0.061  -0.061   0.061   0.020  -0.020
     -0.002   0.000  -0.000  -0.000   0.000   0.000  -0.000  -0.000   0.000


   Upper and lower wings at the    3 th omega   2.0000   0.0000 [eV]
       1       2       3       4       5       6       7       8       9
      0.417  -0.020   0.020   0.061  -0.061  -0.061   0.061   0.020  -0.020
     -0.002   0.000  -0.000  -0.000   0.000   0.000  -0.000  -0.000   0.000
       1       2       3       4       5       6       7       8       9
      0.417  -0.020   0.020   0.061  -0.061  -0.061   0.061   0.020  -0.020
     -0.002   0.000  -0.000  -0.000   0.000   0.000  -0.000  -0.000   0.000


   Upper and lower wings at the    4 th omega   3.0000   0.0000 [eV]
       1       2       3       4       5       6       7       8       9
      0.407  -0.020   0.020   0.061  -0.061  -0.061   0.061   0.020  -0.020
     -0.002   0.000  -0.000  -0.000   0.000   0.000  -0.000  -0.000   0.000
       1       2       3       4       5       6       7       8       9
      0.407  -0.020   0.020   0.061  -0.061  -0.061   0.061   0.020  -0.020
     -0.002   0.000  -0.000  -0.000   0.000   0.000  -0.000  -0.000   0.000


   Upper and lower wings at the    5 th omega   4.0000   0.0000 [eV]
       1       2       3       4       5       6       7       8       9
      0.391  -0.020   0.020   0.060  -0.060  -0.060   0.060   0.020  -0.020
     -0.003   0.000  -0.000  -0.000   0.000   0.000  -0.000  -0.000   0.000
       1       2       3       4       5       6       7       8       9
      0.391  -0.020   0.020   0.060  -0.060  -0.060   0.060   0.020  -0.020
     -0.003   0.000  -0.000  -0.000   0.000   0.000  -0.000  -0.000   0.000


   Upper and lower wings at the    6 th omega   5.0000   0.0000 [eV]
       1       2       3       4       5       6       7       8       9
      0.368  -0.019   0.019   0.058  -0.058  -0.058   0.058   0.019  -0.019
     -0.004   0.000  -0.000  -0.000   0.000   0.000  -0.000  -0.000   0.000
       1       2       3       4       5       6       7       8       9
      0.368  -0.019   0.019   0.058  -0.058  -0.058   0.058   0.019  -0.019
     -0.004   0.000  -0.000  -0.000   0.000   0.000  -0.000  -0.000   0.000


   Upper and lower wings at the    7 th omega   6.0000   0.0000 [eV]
       1       2       3       4       5       6       7       8       9
      0.329  -0.018   0.018   0.055  -0.055  -0.055   0.055   0.018  -0.018
     -0.006   0.000  -0.000  -0.000   0.000   0.000  -0.000  -0.000   0.000
       1       2       3       4       5       6       7       8       9
      0.329  -0.018   0.018   0.055  -0.055  -0.055   0.055   0.018  -0.018
     -0.006   0.000  -0.000  -0.000   0.000   0.000  -0.000  -0.000   0.000


   Upper and lower wings at the    8 th omega   7.0000   0.0000 [eV]
       1       2       3       4       5       6       7       8       9
      0.262  -0.017   0.017   0.050  -0.050  -0.050   0.050   0.017  -0.017
     -0.060   0.002  -0.002  -0.007   0.007   0.007  -0.007  -0.002   0.002
       1       2       3       4       5       6       7       8       9
      0.262  -0.017   0.017   0.050  -0.050  -0.050   0.050   0.017  -0.017
     -0.060   0.002  -0.002  -0.007   0.007   0.007  -0.007  -0.002   0.002


   Upper and lower wings at the    9 th omega   8.0000   0.0000 [eV]
       1       2       3       4       5       6       7       8       9
      0.184  -0.014   0.014   0.043  -0.043  -0.043   0.043   0.014  -0.014
     -0.093   0.003  -0.003  -0.010   0.010   0.010  -0.010  -0.003   0.003
       1       2       3       4       5       6       7       8       9
      0.184  -0.014   0.014   0.043  -0.043  -0.043   0.043   0.014  -0.014
     -0.093   0.003  -0.003  -0.010   0.010   0.010  -0.010  -0.003   0.003


   Upper and lower wings at the   10 th omega   9.0000   0.0000 [eV]
       1       2       3       4       5       6       7       8       9
      0.228  -0.017   0.017   0.051  -0.051  -0.051   0.051   0.017  -0.017
     -0.235   0.009  -0.009  -0.028   0.028   0.028  -0.028  -0.009   0.009
       1       2       3       4       5       6       7       8       9
      0.228  -0.017   0.017   0.051  -0.051  -0.051   0.051   0.017  -0.017
     -0.235   0.009  -0.009  -0.028   0.028   0.028  -0.028  -0.009   0.009


   Upper and lower wings at the   11 th omega  10.0000   0.0000 [eV]
       1       2       3       4       5       6       7       8       9
      0.240  -0.021   0.021   0.063  -0.063  -0.063   0.063   0.021  -0.021
     -0.182   0.007  -0.007  -0.020   0.020   0.020  -0.020  -0.007   0.007
       1       2       3       4       5       6       7       8       9
      0.240  -0.021   0.021   0.063  -0.063  -0.063   0.063   0.021  -0.021
     -0.182   0.007  -0.007  -0.020   0.020   0.020  -0.020  -0.007   0.007


   Upper and lower wings at the   12 th omega  11.0000   0.0000 [eV]
       1       2       3       4       5       6       7       8       9
      0.209  -0.020   0.020   0.059  -0.059  -0.059   0.059   0.020  -0.020
     -0.588   0.020  -0.020  -0.061   0.061   0.061  -0.061  -0.020   0.020
       1       2       3       4       5       6       7       8       9
      0.209  -0.020   0.020   0.059  -0.059  -0.059   0.059   0.020  -0.020
     -0.588   0.020  -0.020  -0.061   0.061   0.061  -0.061  -0.020   0.020


   Upper and lower wings at the   13 th omega  12.0000   0.0000 [eV]
       1       2       3       4       5       6       7       8       9
      0.258  -0.024   0.024   0.071  -0.071  -0.071   0.071   0.024  -0.024
     -0.191   0.006  -0.006  -0.018   0.018   0.018  -0.018  -0.006   0.006
       1       2       3       4       5       6       7       8       9
      0.258  -0.024   0.024   0.071  -0.071  -0.071   0.071   0.024  -0.024
     -0.191   0.006  -0.006  -0.018   0.018   0.018  -0.018  -0.006   0.006


   Upper and lower wings at the   14 th omega  13.0000   0.0000 [eV]
       1       2       3       4       5       6       7       8       9
      0.081  -0.020   0.020   0.060  -0.060  -0.060   0.060   0.020  -0.020
     -1.127   0.033  -0.033  -0.099   0.099   0.099  -0.099  -0.033   0.033
       1       2       3       4       5       6       7       8       9
      0.081  -0.020   0.020   0.060  -0.060  -0.060   0.060   0.020  -0.020
     -1.127   0.033  -0.033  -0.099   0.099   0.099  -0.099  -0.033   0.033


   Upper and lower wings at the   15 th omega  14.0000   0.0000 [eV]
       1       2       3       4       5       6       7       8       9
      0.691  -0.038   0.038   0.115  -0.115  -0.115   0.115   0.038  -0.038
     -0.093   0.004  -0.004  -0.013   0.013   0.013  -0.013  -0.004   0.004
       1       2       3       4       5       6       7       8       9
      0.691  -0.038   0.038   0.115  -0.115  -0.115   0.115   0.038  -0.038
     -0.093   0.004  -0.004  -0.013   0.013   0.013  -0.013  -0.004   0.004


   Upper and lower wings at the   16 th omega  15.0000   0.0000 [eV]
       1       2       3       4       5       6       7       8       9
      0.417  -0.034   0.034   0.101  -0.101  -0.101   0.101   0.034  -0.034
     -0.083   0.004  -0.004  -0.012   0.012   0.012  -0.012  -0.004   0.004
       1       2       3       4       5       6       7       8       9
      0.417  -0.034   0.034   0.101  -0.101  -0.101   0.101   0.034  -0.034
     -0.083   0.004  -0.004  -0.012   0.012   0.012  -0.012  -0.004   0.004


   Upper and lower wings at the   17 th omega  16.0000   0.0000 [eV]
       1       2       3       4       5       6       7       8       9
      0.250  -0.031   0.031   0.093  -0.093  -0.093   0.093   0.031  -0.031
     -0.196   0.006  -0.006  -0.017   0.017   0.017  -0.017  -0.006   0.006
       1       2       3       4       5       6       7       8       9
      0.250  -0.031   0.031   0.093  -0.093  -0.093   0.093   0.031  -0.031
     -0.196   0.006  -0.006  -0.017   0.017   0.017  -0.017  -0.006   0.006


   Upper and lower wings at the   18 th omega  17.0000   0.0000 [eV]
       1       2       3       4       5       6       7       8       9
      0.366  -0.040   0.040   0.121  -0.121  -0.121   0.121   0.040  -0.040
     -0.382   0.020  -0.020  -0.061   0.061   0.061  -0.061  -0.020   0.020
       1       2       3       4       5       6       7       8       9
      0.366  -0.040   0.040   0.121  -0.121  -0.121   0.121   0.040  -0.040
     -0.382   0.020  -0.020  -0.061   0.061   0.061  -0.061  -0.020   0.020


   Upper and lower wings at the   19 th omega  18.0000   0.0000 [eV]
       1       2       3       4       5       6       7       8       9
      0.216  -0.048   0.048   0.145  -0.145  -0.145   0.145   0.048  -0.048
     -0.297   0.013  -0.013  -0.040   0.040   0.040  -0.040  -0.013   0.013
       1       2       3       4       5       6       7       8       9
      0.216  -0.048   0.048   0.145  -0.145  -0.145   0.145   0.048  -0.048
     -0.297   0.013  -0.013  -0.040   0.040   0.040  -0.040  -0.013   0.013


   Upper and lower wings at the   20 th omega  19.0000   0.0000 [eV]
       1       2       3       4       5       6       7       8       9
      0.191  -0.052   0.052   0.156  -0.156  -0.156   0.156   0.052  -0.052
     -0.407   0.013  -0.013  -0.038   0.038   0.038  -0.038  -0.013   0.013
       1       2       3       4       5       6       7       8       9
      0.191  -0.052   0.052   0.156  -0.156  -0.156   0.156   0.052  -0.052
     -0.407   0.013  -0.013  -0.038   0.038   0.038  -0.038  -0.013   0.013


   Upper and lower wings at the   21 th omega  20.0000   0.0000 [eV]
       1       2       3       4       5       6       7       8       9
      0.123  -0.073   0.073   0.219  -0.219  -0.219   0.219   0.073  -0.073
     -0.367   0.009  -0.009  -0.026   0.026   0.026  -0.026  -0.009   0.009
       1       2       3       4       5       6       7       8       9
      0.123  -0.073   0.073   0.219  -0.219  -0.219   0.219   0.073  -0.073
     -0.367   0.009  -0.009  -0.026   0.026   0.026  -0.026  -0.009   0.009


   Upper and lower wings at the   22 th omega   0.0000   4.9971 [eV]
       1       2       3       4       5       6       7       8       9
      0.463  -0.021   0.021   0.063  -0.063  -0.063   0.063   0.021  -0.021
     -0.000   0.000  -0.000  -0.000   0.000   0.000  -0.000  -0.000   0.000
       1       2       3       4       5       6       7       8       9
      0.463  -0.021   0.021   0.063  -0.063  -0.063   0.063   0.021  -0.021
     -0.000  -0.000   0.000   0.000  -0.000  -0.000   0.000   0.000  -0.000


   Upper and lower wings at the   23 th omega   0.0000  12.9294 [eV]
       1       2       3       4       5       6       7       8       9
      0.584  -0.021   0.021   0.062  -0.062  -0.062   0.062   0.021  -0.021
     -0.000   0.000  -0.000  -0.000   0.000   0.000  -0.000  -0.000   0.000
       1       2       3       4       5       6       7       8       9
      0.584  -0.021   0.021   0.062  -0.062  -0.062   0.062   0.021  -0.021
     -0.000  -0.000   0.000   0.000  -0.000  -0.000   0.000   0.000  -0.000


   Upper and lower wings at the   24 th omega   0.0000  25.5212 [eV]
       1       2       3       4       5       6       7       8       9
      0.735  -0.017   0.017   0.052  -0.052  -0.052   0.052   0.017  -0.017
     -0.000   0.000  -0.000  -0.000   0.000   0.000  -0.000  -0.000   0.000
       1       2       3       4       5       6       7       8       9
      0.735  -0.017   0.017   0.052  -0.052  -0.052   0.052   0.017  -0.017
     -0.000  -0.000   0.000   0.000  -0.000  -0.000   0.000   0.000  -0.000


   Upper and lower wings at the   25 th omega   0.0000  45.5094 [eV]
       1       2       3       4       5       6       7       8       9
      0.855  -0.012   0.012   0.036  -0.036  -0.036   0.036   0.012  -0.012
     -0.000   0.000  -0.000  -0.000   0.000   0.000  -0.000  -0.000   0.000
       1       2       3       4       5       6       7       8       9
      0.855  -0.012   0.012   0.036  -0.036  -0.036   0.036   0.012  -0.012
     -0.000  -0.000   0.000   0.000  -0.000  -0.000   0.000   0.000  -0.000


   Upper and lower wings at the   26 th omega   0.0000  77.2387 [eV]
       1       2       3       4       5       6       7       8       9
      0.928  -0.007   0.007   0.021  -0.021  -0.021   0.021   0.007  -0.007
     -0.000   0.000  -0.000  -0.000   0.000   0.000  -0.000  -0.000   0.000
       1       2       3       4       5       6       7       8       9
      0.928  -0.007   0.007   0.021  -0.021  -0.021   0.021   0.007  -0.007
     -0.000  -0.000   0.000   0.000  -0.000  -0.000   0.000   0.000  -0.000




--------------------------------------------------------------------------------
  q-point number  2        q = ( 0.250000, 0.000000, 0.000000) [r.l.u.]
--------------------------------------------------------------------------------
  chi0(G,G') at the    1 th omega   0.0000   0.0000 [eV]
       1       2       3       4       5       6       7       8       9
    1  -1.384   1.022  -1.014   0.247   0.823   0.247   0.823   0.247   0.823
       -0.000  -0.000  -0.000   0.000   0.000   0.000  -0.000  -0.000   0.000

    2   1.022  -5.301  -0.386  -1.439  -2.224  -1.439  -2.224  -1.439  -2.224
        0.000  -0.000   0.000  -0.000  -0.000  -0.000  -0.000   0.000   0.000

  chi0(G,G') at the    2 th omega   1.0000   0.0000 [eV]
       1       2       3       4       5       6       7       8       9
    1  -1.392   1.024  -1.017   0.250   0.827   0.250   0.827   0.250   0.827
       -0.010   0.004  -0.005   0.003   0.005   0.003   0.005   0.003   0.005

    2   1.024  -5.309  -0.389  -1.445  -2.230  -1.445  -2.230  -1.445  -2.230
        0.004  -0.018  -0.004  -0.009  -0.010  -0.009  -0.010  -0.009  -0.010

  chi0(G,G') at the    3 th omega   2.0000   0.0000 [eV]
       1       2       3       4       5       6       7       8       9
    1  -1.415   1.030  -1.026   0.257   0.837   0.257   0.837   0.257   0.837
       -0.010   0.004  -0.005   0.003   0.005   0.003   0.005   0.003   0.005

    2   1.030  -5.335  -0.400  -1.462  -2.246  -1.462  -2.246  -1.462  -2.247
        0.004  -0.019  -0.005  -0.009  -0.010  -0.010  -0.011  -0.009  -0.010

  chi0(G,G') at the    4 th omega   3.0000   0.0000 [eV]
       1       2       3       4       5       6       7       8       9
    1  -1.456   1.042  -1.042   0.270   0.855   0.270   0.855   0.270   0.855
       -0.011   0.005  -0.006   0.003   0.006   0.003   0.006   0.003   0.006

    2   1.042  -5.379  -0.419  -1.493  -2.276  -1.493  -2.276  -1.493  -2.276
        0.005  -0.019  -0.005  -0.010  -0.011  -0.010  -0.011  -0.010  -0.011

  chi0(G,G') at the    5 th omega   4.0000   0.0000 [eV]
       1       2       3       4       5       6       7       8       9
    1  -1.521   1.059  -1.066   0.291   0.883   0.291   0.883   0.291   0.883
       -0.013   0.005  -0.006   0.004   0.006   0.004   0.006   0.004   0.006

    2   1.059  -5.443  -0.448  -1.538  -2.319  -1.538  -2.319  -1.538  -2.320
        0.005  -0.021  -0.006  -0.011  -0.012  -0.011  -0.012  -0.011  -0.012

  chi0(G,G') at the    6 th omega   5.0000   0.0000 [eV]
       1       2       3       4       5       6       7       8       9
    1  -1.619   1.081  -1.100   0.323   0.925   0.323   0.925   0.323   0.925
       -0.017   0.005  -0.007   0.005   0.008   0.005   0.008   0.005   0.008

    2   1.081  -5.532  -0.490  -1.603  -2.380  -1.603  -2.380  -1.603  -2.380
        0.005  -0.022  -0.007  -0.013  -0.013  -0.013  -0.013  -0.013  -0.013

  chi0(G,G') at the    7 th omega   6.0000   0.0000 [eV]
       1       2       3       4       5       6       7       8       9
    1  -1.773   1.111  -1.151   0.374   0.988   0.374   0.988   0.374   0.988
       -0.024   0.006  -0.009   0.007   0.010   0.008   0.010   0.007   0.010

    2   1.111  -5.653  -0.551  -1.693  -2.464  -1.693  -2.464  -1.693  -2.464
        0.006  -0.025  -0.009  -0.015  -0.016  -0.015  -0.016  -0.015  -0.015

  chi0(G,G') at the    8 th omega   7.0000   0.0000 [eV]
       1       2       3       4       5       6       7       8       9
    1  -2.049   1.148  -1.236   0.463   1.091   0.463   1.091   0.463   1.091
       -0.045   0.006  -0.015   0.014   0.016   0.014   0.016   0.014   0.016

    2   1.148  -5.817  -0.643  -1.820  -2.580  -1.820  -2.580  -1.820  -2.580
        0.006  -0.030  -0.014  -0.020  -0.019  -0.020  -0.019  -0.020  -0.019

  chi0(G,G') at the    9 th omega   8.0000   0.0000 [eV]
       1       2       3       4       5       6       7       8       9
    1  -2.649   1.211  -1.367   0.678   1.326   0.678   1.326   0.678   1.326
       -0.378  -0.047  -0.167   0.069   0.052   0.069   0.052   0.069   0.052

    2   1.211  -6.054  -0.794  -2.020  -2.758  -2.020  -2.758  -2.020  -2.758
       -0.047  -0.056  -0.061  -0.028  -0.030  -0.028  -0.030  -0.028  -0.030

  chi0(G,G') at the   10 th omega   9.0000   0.0000 [eV]
       1       2       3       4       5       6       7       8       9
    1  -2.369   1.253  -1.536   0.525   1.182   0.525   1.182   0.525   1.182
       -0.990   0.116   0.026   0.463   0.499   0.463   0.499   0.463   0.499

    2   1.253  -6.393  -0.981  -2.303  -2.983  -2.303  -2.983  -2.303  -2.983
        0.116  -0.089  -0.077  -0.119  -0.107  -0.119  -0.107  -0.119  -0.107

  chi0(G,G') at the   11 th omega  10.0000   0.0000 [eV]
       1       2       3       4       5       6       7       8       9
    1  -1.585   1.273  -1.287   0.144   0.958   0.144   0.958   0.144   0.958
       -3.095  -0.037  -0.885   0.944   0.898   0.944   0.898   0.944   0.898

    2   1.273  -6.725  -1.163  -2.542  -3.154  -2.542  -3.154  -2.542  -3.154
       -0.037  -0.638  -0.685  -0.659  -0.466  -0.659  -0.466  -0.659  -0.466

  chi0(G,G') at the   12 th omega  11.0000   0.0000 [eV]
       1       2       3       4       5       6       7       8       9
    1  -2.162   2.032  -1.253   0.995   1.554   0.995   1.554   0.995   1.555
       -1.919   0.294  -0.506   0.824   0.872   0.824   0.872   0.824   0.872

    2   2.032  -7.022  -1.092  -3.002  -3.727  -3.002  -3.727  -3.002  -3.727
        0.294  -0.676  -0.403  -0.821  -0.620  -0.822  -0.620  -0.821  -0.620

  chi0(G,G') at the   13 th omega  12.0000   0.0000 [eV]
       1       2       3       4       5       6       7       8       9
    1   0.322   0.903  -1.187  -0.867   0.170  -0.867   0.170  -0.867   0.170
       -2.683   1.006  -0.059   1.597   1.523   1.597   1.523   1.597   1.523

    2   0.903  -7.195  -1.725  -2.549  -3.305  -2.549  -3.305  -2.549  -3.305
        1.006  -0.925  -0.782  -1.344  -1.278  -1.344  -1.278  -1.344  -1.278

  chi0(G,G') at the   14 th omega  13.0000   0.0000 [eV]
       1       2       3       4       5       6       7       8       9
    1  -0.376   1.228  -1.725  -0.468   0.266  -0.468   0.266  -0.468   0.266
       -0.781  -0.552  -0.819  -0.379   0.113  -0.379   0.113  -0.379   0.113

    2   1.228  -7.578  -1.072  -2.773  -3.335  -2.773  -3.335  -2.772  -3.335
       -0.552  -2.492  -2.802  -2.523  -1.677  -2.523  -1.677  -2.523  -1.677

  chi0(G,G') at the   15 th omega  14.0000   0.0000 [eV]
       1       2       3       4       5       6       7       8       9
    1  -0.873   2.314  -0.303   0.588   1.564   0.588   1.564   0.588   1.564
       -0.717  -0.018  -1.046   0.037  -0.163   0.037  -0.163   0.037  -0.163

    2   2.314  -6.774   0.020  -1.839  -3.261  -1.839  -3.261  -1.839  -3.261
       -0.018  -1.526  -1.275  -1.506  -0.957  -1.506  -0.957  -1.505  -0.957

 No. of calculated frequencies >  15, stop printing
  Average fulfillment of the sum rule on Im[epsilon] for q-point    2 :     85.04  [%]


--------------------------------------------------------------------------------
  q-point number  3        q = ( 0.500000, 0.000000, 0.000000) [r.l.u.]
--------------------------------------------------------------------------------
  chi0(G,G') at the    1 th omega   0.0000   0.0000 [eV]
       1       2       3       4       5       6       7       8       9
    1  -3.633   1.514  -1.379   1.167   1.641   1.167   1.641   1.167   1.642
       -0.000  -0.000  -0.000   0.000  -0.000   0.000  -0.000  -0.000   0.000

    2   1.514  -4.679  -0.359  -1.412  -2.149  -1.412  -2.149  -1.412  -2.150
        0.000  -0.000   0.000  -0.000   0.000  -0.000   0.001   0.000  -0.001

  chi0(G,G') at the    2 th omega   1.0000   0.0000 [eV]
       1       2       3       4       5       6       7       8       9
    1  -3.646   1.516  -1.382   1.173   1.646   1.173   1.646   1.173   1.646
       -0.020   0.005  -0.006   0.008   0.008   0.008   0.008   0.008   0.008

    2   1.516  -4.686  -0.362  -1.416  -2.154  -1.416  -2.154  -1.416  -2.155
        0.005  -0.015  -0.004  -0.008  -0.009  -0.008  -0.008  -0.008  -0.009

  chi0(G,G') at the    3 th omega   2.0000   0.0000 [eV]
       1       2       3       4       5       6       7       8       9
    1  -3.686   1.521  -1.393   1.190   1.660   1.190   1.660   1.190   1.660
       -0.021   0.005  -0.007   0.008   0.008   0.008   0.008   0.008   0.008

    2   1.521  -4.707  -0.374  -1.431  -2.168  -1.431  -2.168  -1.431  -2.169
        0.005  -0.015  -0.005  -0.008  -0.009  -0.008  -0.008  -0.008  -0.009

  chi0(G,G') at the    4 th omega   3.0000   0.0000 [eV]
       1       2       3       4       5       6       7       8       9
    1  -3.756   1.530  -1.411   1.219   1.684   1.219   1.684   1.219   1.684
       -0.023   0.005  -0.007   0.009   0.009   0.009   0.009   0.009   0.009

    2   1.530  -4.743  -0.394  -1.457  -2.192  -1.457  -2.192  -1.457  -2.193
        0.005  -0.016  -0.005  -0.009  -0.009  -0.009  -0.009  -0.008  -0.010

  chi0(G,G') at the    5 th omega   4.0000   0.0000 [eV]
       1       2       3       4       5       6       7       8       9
    1  -3.860   1.543  -1.438   1.263   1.719   1.263   1.719   1.263   1.719
       -0.025   0.005  -0.008   0.010   0.009   0.010   0.009   0.010   0.009

    2   1.543  -4.797  -0.426  -1.495  -2.229  -1.495  -2.229  -1.495  -2.229
        0.005  -0.017  -0.006  -0.010  -0.010  -0.010  -0.010  -0.009  -0.011

  chi0(G,G') at the    6 th omega   5.0000   0.0000 [eV]
       1       2       3       4       5       6       7       8       9
    1  -4.010   1.559  -1.475   1.327   1.769   1.327   1.769   1.327   1.769
       -0.029   0.005  -0.008   0.012   0.011   0.012   0.011   0.012   0.011

    2   1.559  -4.873  -0.472  -1.549  -2.280  -1.549  -2.280  -1.549  -2.281
        0.005  -0.019  -0.007  -0.011  -0.011  -0.011  -0.011  -0.011  -0.012

  chi0(G,G') at the    7 th omega   6.0000   0.0000 [eV]
       1       2       3       4       5       6       7       8       9
    1  -4.219   1.577  -1.526   1.418   1.838   1.418   1.838   1.418   1.838
       -0.036   0.005  -0.010   0.015   0.012   0.015   0.012   0.015   0.012

    2   1.577  -4.977  -0.539  -1.625  -2.350  -1.625  -2.350  -1.625  -2.351
        0.005  -0.021  -0.010  -0.013  -0.013  -0.013  -0.013  -0.013  -0.014

  chi0(G,G') at the    8 th omega   7.0000   0.0000 [eV]
       1       2       3       4       5       6       7       8       9
    1  -4.522   1.596  -1.597   1.550   1.934   1.550   1.934   1.550   1.934
       -0.047   0.005  -0.012   0.020   0.016   0.020   0.016   0.020   0.016

    2   1.596  -5.123  -0.643  -1.734  -2.450  -1.734  -2.450  -1.734  -2.451
        0.005  -0.026  -0.015  -0.017  -0.017  -0.017  -0.016  -0.017  -0.017

  chi0(G,G') at the    9 th omega   8.0000   0.0000 [eV]
       1       2       3       4       5       6       7       8       9
    1  -4.995   1.608  -1.699   1.761   2.078   1.761   2.078   1.761   2.078
       -0.071   0.003  -0.016   0.031   0.022   0.031   0.022   0.031   0.022

    2   1.608  -5.348  -0.820  -1.905  -2.603  -1.905  -2.603  -1.905  -2.604
        0.003  -0.038  -0.026  -0.027  -0.024  -0.027  -0.024  -0.026  -0.025

  chi0(G,G') at the   10 th omega   9.0000   0.0000 [eV]
       1       2       3       4       5       6       7       8       9
    1  -5.949   1.579  -1.863   2.209   2.359   2.209   2.359   2.209   2.359
       -0.237   0.012  -0.013   0.155   0.098   0.155   0.098   0.155   0.098

    2   1.579  -5.820  -1.239  -2.291  -2.918  -2.291  -2.918  -2.291  -2.919
        0.012  -0.196  -0.157  -0.200  -0.141  -0.201  -0.140  -0.200  -0.141

  chi0(G,G') at the   11 th omega  10.0000   0.0000 [eV]
       1       2       3       4       5       6       7       8       9
    1  -6.206   1.638  -2.240   2.263   2.443   2.263   2.443   2.263   2.443
       -1.663  -0.394  -0.199   0.589   0.287   0.589   0.287   0.589   0.287

    2   1.638  -5.777  -1.228  -2.142  -2.895  -2.142  -2.895  -2.142  -2.896
       -0.394  -0.631  -0.725  -0.376  -0.322  -0.376  -0.322  -0.376  -0.323

  chi0(G,G') at the   12 th omega  11.0000   0.0000 [eV]
       1       2       3       4       5       6       7       8       9
    1  -6.821   2.243  -1.753   2.944   2.922   2.944   2.922   2.944   2.922
       -4.192  -0.589  -1.034   2.010   1.043   2.010   1.043   2.010   1.043

    2   2.243  -6.251  -1.430  -2.869  -3.457  -2.869  -3.457  -2.869  -3.458
       -0.589  -1.300  -1.964  -0.902  -0.979  -0.902  -0.979  -0.902  -0.980

  chi0(G,G') at the   13 th omega  12.0000   0.0000 [eV]
       1       2       3       4       5       6       7       8       9
    1  -6.590   2.155  -2.718   2.297   2.616   2.297   2.616   2.297   2.616
       -5.321  -1.344  -1.734   1.608   0.472   1.608   0.472   1.608   0.472

    2   2.155  -6.327  -1.135  -2.716  -3.149  -2.716  -3.149  -2.716  -3.150
       -1.344  -1.654  -1.736  -0.771  -0.765  -0.771  -0.765  -0.771  -0.766

  chi0(G,G') at the   14 th omega  13.0000   0.0000 [eV]
       1       2       3       4       5       6       7       8       9
    1  -1.468   3.361  -0.332   0.564   2.063   0.564   2.063   0.564   2.063
       -4.824   0.199  -0.570   2.593   1.562   2.593   1.562   2.593   1.562

    2   3.361  -4.347   1.336  -1.446  -2.292  -1.446  -2.292  -1.446  -2.293
        0.199  -2.425  -2.357  -2.494  -1.926  -2.495  -1.925  -2.494  -1.926

  chi0(G,G') at the   15 th omega  14.0000   0.0000 [eV]
       1       2       3       4       5       6       7       8       9
    1  -5.592   3.740  -0.449   2.860   3.836   2.860   3.836   2.860   3.836
       -3.862   0.230  -1.981   1.730   0.509   1.730   0.509   1.730   0.509

    2   3.740  -5.780  -0.328  -2.619  -3.365  -2.619  -3.365  -2.619  -3.366
        0.230  -0.870  -0.873  -0.909  -0.723  -0.910  -0.722  -0.909  -0.723

 No. of calculated frequencies >  15, stop printing
  Average fulfillment of the sum rule on Im[epsilon] for q-point    3 :     81.14  [%]


--------------------------------------------------------------------------------
  q-point number  4        q = ( 0.250000, 0.250000, 0.000000) [r.l.u.]
--------------------------------------------------------------------------------
  chi0(G,G') at the    1 th omega   0.0000   0.0000 [eV]
       1       2       3       4       5       6       7       8       9
    1  -1.781   1.090  -0.020  -0.020   1.090  -0.020   1.090   1.090  -0.020
       -0.000  -0.000  -0.000  -0.000   0.000  -0.000   0.000   0.000  -0.000

    2   1.090  -5.453  -0.680  -1.303  -2.272  -1.303  -2.272  -1.597  -2.026
        0.000  -0.000   0.000   0.000  -0.000   0.000  -0.000  -0.000   0.000

  chi0(G,G') at the    2 th omega   1.0000   0.0000 [eV]
       1       2       3       4       5       6       7       8       9
    1  -1.790   1.094  -0.018  -0.018   1.094  -0.018   1.094   1.094  -0.018
       -0.012   0.006   0.002   0.002   0.006   0.002   0.006   0.006   0.002

    2   1.094  -5.463  -0.685  -1.309  -2.278  -1.309  -2.278  -1.603  -2.032
        0.006  -0.020  -0.006  -0.009  -0.011  -0.009  -0.011  -0.009  -0.010

  chi0(G,G') at the    3 th omega   2.0000   0.0000 [eV]
       1       2       3       4       5       6       7       8       9
    1  -1.820   1.105  -0.012  -0.012   1.105  -0.012   1.105   1.105  -0.012
       -0.013   0.006   0.002   0.002   0.006   0.002   0.006   0.006   0.002

    2   1.105  -5.492  -0.700  -1.328  -2.296  -1.328  -2.296  -1.620  -2.051
        0.006  -0.020  -0.007  -0.009  -0.011  -0.009  -0.011  -0.010  -0.011

  chi0(G,G') at the    4 th omega   3.0000   0.0000 [eV]
       1       2       3       4       5       6       7       8       9
    1  -1.873   1.126  -0.001  -0.001   1.126  -0.001   1.126   1.126  -0.001
       -0.015   0.006   0.002   0.002   0.006   0.002   0.007   0.007   0.002

    2   1.126  -5.543  -0.727  -1.361  -2.328  -1.361  -2.328  -1.651  -2.083
        0.007  -0.021  -0.008  -0.010  -0.012  -0.010  -0.012  -0.010  -0.011

  chi0(G,G') at the    5 th omega   4.0000   0.0000 [eV]
       1       2       3       4       5       6       7       8       9
    1  -1.957   1.156   0.017   0.017   1.156   0.017   1.156   1.156   0.017
       -0.017   0.007   0.003   0.003   0.007   0.003   0.007   0.007   0.003

    2   1.156  -5.618  -0.769  -1.411  -2.375  -1.411  -2.375  -1.697  -2.132
        0.007  -0.023  -0.009  -0.011  -0.013  -0.011  -0.013  -0.011  -0.012

  chi0(G,G') at the    6 th omega   5.0000   0.0000 [eV]
       1       2       3       4       5       6       7       8       9
    1  -2.084   1.201   0.045   0.045   1.201   0.045   1.201   1.201   0.045
       -0.022   0.009   0.004   0.004   0.009   0.004   0.009   0.009   0.004

    2   1.201  -5.722  -0.830  -1.482  -2.441  -1.482  -2.442  -1.762  -2.200
        0.009  -0.025  -0.011  -0.013  -0.014  -0.013  -0.014  -0.013  -0.014

  chi0(G,G') at the    7 th omega   6.0000   0.0000 [eV]
       1       2       3       4       5       6       7       8       9
    1  -2.286   1.269   0.093   0.093   1.269   0.093   1.269   1.269   0.093
       -0.032   0.011   0.007   0.007   0.011   0.007   0.011   0.011   0.007

    2   1.269  -5.867  -0.920  -1.585  -2.535  -1.585  -2.535  -1.854  -2.294
        0.011  -0.029  -0.014  -0.017  -0.017  -0.017  -0.017  -0.016  -0.017

  chi0(G,G') at the    8 th omega   7.0000   0.0000 [eV]
       1       2       3       4       5       6       7       8       9
    1  -2.661   1.383   0.192   0.192   1.383   0.192   1.383   1.383   0.192
       -0.062   0.019   0.016   0.016   0.019   0.016   0.019   0.019   0.016

    2   1.383  -6.074  -1.067  -1.740  -2.672  -1.740  -2.672  -1.988  -2.429
        0.019  -0.045  -0.046  -0.024  -0.023  -0.024  -0.023  -0.013   0.001

  chi0(G,G') at the    9 th omega   8.0000   0.0000 [eV]
       1       2       3       4       5       6       7       8       9
    1  -3.552   1.622   0.453   0.453   1.622   0.453   1.622   1.622   0.453
       -1.024   0.224   0.348   0.348   0.224   0.348   0.224   0.224   0.348

    2   1.622  -6.393  -1.309  -2.014  -2.902  -2.014  -2.902  -2.229  -2.693
        0.224  -0.157  -0.184  -0.169  -0.122  -0.169  -0.122  -0.126  -0.149

  chi0(G,G') at the   10 th omega   9.0000   0.0000 [eV]
       1       2       3       4       5       6       7       8       9
    1  -3.265   1.618   0.195   0.195   1.618   0.195   1.618   1.618   0.195
       -0.818   0.199   0.229   0.229   0.199   0.229   0.199   0.199   0.229

    2   1.618  -6.698  -1.443  -2.194  -3.094  -2.194  -3.094  -2.412  -2.827
        0.199  -0.151  -0.178  -0.135  -0.106  -0.135  -0.106  -0.097  -0.064

  chi0(G,G') at the   11 th omega  10.0000   0.0000 [eV]
       1       2       3       4       5       6       7       8       9
    1  -2.665   1.639   0.172   0.172   1.639   0.172   1.639   1.639   0.172
       -3.011   0.673   0.730   0.730   0.673   0.730   0.673   0.673   0.730

    2   1.639  -7.079  -1.595  -2.503  -3.294  -2.503  -3.294  -2.719  -3.171
        0.673  -0.688  -0.762  -0.678  -0.522  -0.678  -0.522  -0.517  -0.445

  chi0(G,G') at the   12 th omega  11.0000   0.0000 [eV]
       1       2       3       4       5       6       7       8       9
    1  -1.501   1.541  -0.020  -0.020   1.541  -0.020   1.541   1.541  -0.020
       -3.315   1.165   1.114   1.114   1.165   1.114   1.165   1.165   1.114

    2   1.541  -7.351  -1.789  -2.696  -3.647  -2.696  -3.647  -2.906  -3.521
        1.165  -1.253  -1.104  -1.228  -0.922  -1.228  -0.922  -1.103  -1.031

  chi0(G,G') at the   13 th omega  12.0000   0.0000 [eV]
       1       2       3       4       5       6       7       8       9
    1  -1.176   1.091  -0.770  -0.770   1.091  -0.770   1.091   1.091  -0.770
       -2.740   0.880   0.639   0.639   0.880   0.639   0.880   0.880   0.639

    2   1.091  -7.537  -1.661  -2.624  -3.519  -2.624  -3.519  -2.845  -3.301
        0.880  -2.006  -2.046  -2.004  -1.718  -2.004  -1.718  -1.719  -1.849

  chi0(G,G') at the   14 th omega  13.0000   0.0000 [eV]
       1       2       3       4       5       6       7       8       9
    1   0.370   0.920  -0.599  -0.599   0.920  -0.599   0.920   0.920  -0.599
       -1.494   0.071  -0.332  -0.332   0.071  -0.332   0.071   0.071  -0.332

    2   0.920  -6.620  -0.433  -1.565  -2.790  -1.565  -2.790  -2.088  -2.577
        0.071  -1.644  -1.469  -1.660  -1.043  -1.660  -1.043  -1.381  -1.122

  chi0(G,G') at the   15 th omega  14.0000   0.0000 [eV]
       1       2       3       4       5       6       7       8       9
    1  -1.670   2.102   0.235   0.235   2.102   0.235   2.102   2.102   0.235
       -0.807   0.032  -0.200  -0.200   0.032  -0.200   0.032   0.032  -0.200

    2   2.102  -8.214  -1.589  -2.735  -4.089  -2.735  -4.089  -3.205  -3.829
        0.032  -1.824  -1.698  -1.948  -1.332  -1.948  -1.332  -1.595  -1.366

 No. of calculated frequencies >  15, stop printing
  Average fulfillment of the sum rule on Im[epsilon] for q-point    4 :     84.05  [%]


--------------------------------------------------------------------------------
  q-point number  5        q = ( 0.500000, 0.250000, 0.000000) [r.l.u.]
--------------------------------------------------------------------------------
  chi0(G,G') at the    1 th omega   0.0000   0.0000 [eV]
       1       2       3       4       5       6       7       8       9
    1  -3.563   1.580  -0.546   0.753   1.647   0.753   1.647   1.589   1.346
       -0.000   0.000  -0.000  -0.000   0.000   0.000   0.000  -0.000  -0.000

    2   1.580  -4.891  -0.615  -1.390  -2.208  -1.390  -2.208  -1.532  -2.141
       -0.000  -0.000   0.000   0.000  -0.000  -0.000  -0.000   0.000   0.000

  chi0(G,G') at the    2 th omega   1.0000   0.0000 [eV]
       1       2       3       4       5       6       7       8       9
    1  -3.577   1.583  -0.546   0.758   1.652   0.758   1.652   1.595   1.351
       -0.021   0.006  -0.001   0.006   0.008   0.006   0.008   0.009   0.009

    2   1.583  -4.899  -0.620  -1.395  -2.213  -1.395  -2.213  -1.537  -2.146
        0.006  -0.016  -0.006  -0.008  -0.009  -0.008  -0.009  -0.008  -0.009

  chi0(G,G') at the    3 th omega   2.0000   0.0000 [eV]
       1       2       3       4       5       6       7       8       9
    1  -3.621   1.592  -0.544   0.774   1.665   0.774   1.665   1.612   1.370
       -0.022   0.006  -0.001   0.007   0.008   0.007   0.008   0.009   0.009

    2   1.592  -4.922  -0.635  -1.412  -2.228  -1.412  -2.228  -1.552  -2.162
        0.006  -0.016  -0.006  -0.009  -0.010  -0.009  -0.010  -0.008  -0.009

  chi0(G,G') at the    4 th omega   3.0000   0.0000 [eV]
       1       2       3       4       5       6       7       8       9
    1  -3.699   1.608  -0.540   0.802   1.689   0.802   1.689   1.642   1.402
       -0.024   0.007  -0.001   0.008   0.009   0.008   0.009   0.010   0.010

    2   1.608  -4.962  -0.661  -1.440  -2.255  -1.440  -2.255  -1.578  -2.189
        0.007  -0.017  -0.007  -0.009  -0.010  -0.009  -0.010  -0.008  -0.010

  chi0(G,G') at the    5 th omega   4.0000   0.0000 [eV]
       1       2       3       4       5       6       7       8       9
    1  -3.817   1.631  -0.533   0.845   1.725   0.845   1.725   1.687   1.451
       -0.027   0.007  -0.000   0.009   0.009   0.009   0.009   0.011   0.011

    2   1.631  -5.021  -0.702  -1.484  -2.294  -1.484  -2.294  -1.618  -2.231
        0.007  -0.018  -0.008  -0.010  -0.011  -0.011  -0.011  -0.009  -0.011

  chi0(G,G') at the    6 th omega   5.0000   0.0000 [eV]
       1       2       3       4       5       6       7       8       9
    1  -3.989   1.663  -0.520   0.908   1.776   0.908   1.776   1.752   1.523
       -0.032   0.008   0.001   0.011   0.011   0.011   0.011   0.013   0.013

    2   1.663  -5.104  -0.761  -1.545  -2.349  -1.545  -2.349  -1.673  -2.288
        0.008  -0.020  -0.010  -0.012  -0.012  -0.012  -0.012  -0.011  -0.012

  chi0(G,G') at the    7 th omega   6.0000   0.0000 [eV]
       1       2       3       4       5       6       7       8       9
    1  -4.240   1.706  -0.495   1.003   1.847   1.003   1.846   1.844   1.628
       -0.041   0.009   0.003   0.014   0.013   0.014   0.013   0.016   0.017

    2   1.706  -5.218  -0.850  -1.632  -2.425  -1.632  -2.425  -1.751  -2.369
        0.009  -0.023  -0.014  -0.015  -0.014  -0.015  -0.015  -0.013  -0.015

  chi0(G,G') at the    8 th omega   7.0000   0.0000 [eV]
       1       2       3       4       5       6       7       8       9
    1  -4.629   1.768  -0.435   1.153   1.949   1.153   1.949   1.980   1.793
       -0.060   0.011   0.010   0.022   0.017   0.022   0.017   0.021   0.026

    2   1.768  -5.383  -0.996  -1.757  -2.533  -1.757  -2.533  -1.864  -2.485
[...]

  Average fulfillment of the sum rule on Im[epsilon] for q-point    7 :     73.38  [%]


--------------------------------------------------------------------------------
  q-point number  8        q = (-0.250000, 0.500000, 0.250000) [r.l.u.]
--------------------------------------------------------------------------------
  chi0(G,G') at the    1 th omega  21.0000   0.0000 [eV]
       1       2       3       4       5       6       7       8       9
    1   2.866  -0.988  -0.187  -0.292  -1.875  -1.875  -0.292  -0.187  -0.988
       -5.750  -1.034   1.872   1.377   1.782   1.782   1.377   1.872  -1.034

    2  -0.988   2.866   0.846   1.694   1.443   1.942   1.797   1.284   1.433
       -1.034  -5.750  -0.756  -1.185  -2.376   0.226  -2.187  -1.044  -0.876

  chi0(G,G') at the    2 th omega  22.0000   0.0000 [eV]
       1       2       3       4       5       6       7       8       9
    1   3.017  -0.272  -0.242   0.254  -1.367  -1.367   0.254  -0.242  -0.272
       -1.954  -0.418   0.482   0.409   0.488   0.488   0.409   0.482  -0.418

    2  -0.272   3.017   0.661   1.372   2.330   0.618   1.393   1.027   1.288
       -0.418  -1.954  -0.155  -0.240  -0.825   0.678  -0.474  -0.264   0.087

  chi0(G,G') at the    3 th omega  23.0000   0.0000 [eV]
       1       2       3       4       5       6       7       8       9
    1   0.680  -0.735   0.435   0.374  -1.079  -1.079   0.374   0.435  -0.735
       -2.127  -0.004   0.580   0.955   0.507   0.507   0.955   0.580  -0.004

    2  -0.735   0.680   0.620   1.245   1.433   1.033   1.005   0.901   1.766
       -0.004  -2.127  -0.847  -0.367  -0.429  -0.057  -0.607  -0.458  -0.110

  chi0(G,G') at the    4 th omega  24.0000   0.0000 [eV]
       1       2       3       4       5       6       7       8       9
    1   0.023  -0.986   0.726   0.407  -0.720  -0.720   0.407   0.726  -0.986
       -1.096  -0.349   0.165   0.386   0.177   0.177   0.386   0.165  -0.349

    2  -0.986   0.023   0.777   1.160   1.331   1.378   0.781   0.716   1.220
       -0.349  -1.096  -0.142  -0.074  -0.065   0.043  -0.007  -0.046   0.048

  chi0(G,G') at the    5 th omega  25.0000   0.0000 [eV]
       1       2       3       4       5       6       7       8       9
    1  -0.495  -0.586   0.942   0.688  -0.228  -0.228   0.688   0.942  -0.586
       -3.269  -0.915   0.435   0.708   0.283   0.283   0.708   0.435  -0.915

    2  -0.586  -0.495   0.653   0.929   0.954   1.217   0.151   0.433   1.684
       -0.915  -3.269  -0.458   0.057   0.019   0.551   0.350   0.007   0.975

  chi0(G,G') at the    6 th omega  26.0000   0.0000 [eV]
       1       2       3       4       5       6       7       8       9
    1  -1.045  -0.390   1.276   1.045  -0.083  -0.083   1.045   1.276  -0.390
       -1.149  -0.174   0.336   0.376   0.219   0.219   0.376   0.336  -0.174

    2  -0.390  -1.044   0.588   0.643   0.626   1.382  -0.251   0.201   1.560
       -0.174  -1.149  -0.068  -0.116  -0.124   0.224  -0.213  -0.147   0.299

  chi0(G,G') at the    7 th omega  27.0000   0.0000 [eV]
       1       2       3       4       5       6       7       8       9
    1  -2.260  -0.717   1.370   1.517  -0.001  -0.001   1.517   1.370  -0.717
       -2.873  -0.086   0.718   1.124   0.081   0.081   1.123   0.718  -0.086

    2  -0.717  -2.260   0.240   0.509   0.278   0.977  -0.028   0.239   1.676
       -0.086  -2.873  -0.504  -0.287  -0.807   0.958  -0.068  -0.105   1.340

  chi0(G,G') at the    8 th omega  28.0000   0.0000 [eV]
       1       2       3       4       5       6       7       8       9
    1   0.112  -0.656   1.015   0.202   0.301   0.301   0.202   1.015  -0.656
       -3.189  -0.696   0.526   1.154   0.506   0.506   1.154   0.526  -0.696

    2  -0.656   0.112   0.613   1.196   1.199   1.435  -0.373   0.408   0.465
       -0.696  -3.189  -0.306  -0.187   0.174   0.172   0.091  -0.114   0.890

  chi0(G,G') at the    9 th omega  29.0000   0.0000 [eV]
       1       2       3       4       5       6       7       8       9
    1  -1.261  -0.396   1.564   0.782   0.059   0.059   0.782   1.564  -0.396
       -3.095  -0.413   0.624   0.567   0.259   0.259   0.567   0.624  -0.413

    2  -0.396  -1.261   0.499   0.761   0.268   0.612  -0.972  -0.098   0.981
       -0.413  -3.095  -0.509   0.301   0.184   0.939  -0.093   0.072   1.503

  chi0(G,G') at the   10 th omega  30.0000   0.0000 [eV]
       1       2       3       4       5       6       7       8       9
    1  -0.361  -0.461   1.224   0.915   1.066   1.066   0.915   1.224  -0.461
       -2.088  -0.643   0.517   0.499   0.282   0.282   0.499   0.517  -0.643

    2  -0.461  -0.361   0.834   0.532   0.462   1.359  -1.063  -0.072   0.293
       -0.643  -2.088  -0.053  -0.017   0.434   0.002  -0.196  -0.119  -0.003

  chi0(G,G') at the   11 th omega  31.0000   0.0000 [eV]
       1       2       3       4       5       6       7       8       9
    1  -1.595  -0.307   1.954   1.349   0.798   0.798   1.349   1.954  -0.307
       -1.880  -0.255   0.444   0.415   0.653   0.653   0.415   0.444  -0.255

    2  -0.307  -1.595   0.496   0.337  -0.509   1.181  -1.371  -0.235   1.022
       -0.255  -1.880  -0.057  -0.114  -0.280   0.360  -0.578  -0.265   0.531

  Average fulfillment of the sum rule on Im[epsilon] for q-point    8 :     80.74  [%]

== END DATASET(S) ==============================================================
================================================================================
  
 -outvars: echo values of variables after computation  --------
            acell      7.7034756000E+00  7.7034756000E+00  7.7034756000E+00 Bohr
              amu      6.94100000E+00  1.89984032E+01
             ecut      1.50000000E+01 Hartree
          ecuteps      3.00000000E+00 Hartree
          ecutwfn      1.50000000E+01 Hartree
           etotal1    -2.4319232531E+01
           etotal3     0.0000000000E+00
           etotal4     0.0000000000E+00
            fcart1    -0.0000000000E+00 -0.0000000000E+00 -0.0000000000E+00
                      -0.0000000000E+00 -0.0000000000E+00 -0.0000000000E+00
            fcart3     0.0000000000E+00  0.0000000000E+00  0.0000000000E+00
                       0.0000000000E+00  0.0000000000E+00  0.0000000000E+00
            fcart4     0.0000000000E+00  0.0000000000E+00  0.0000000000E+00
                       0.0000000000E+00  0.0000000000E+00  0.0000000000E+00
-          fftalg         312
        freqremax1     0.00000000E+00 Hartree
        freqremax2     0.00000000E+00 Hartree
        freqremax3     7.34986508E-01 Hartree
        freqremax4     1.13922909E+00 Hartree
        freqremin1     0.00000000E+00 Hartree
        freqremin2     0.00000000E+00 Hartree
        freqremin3     0.00000000E+00 Hartree
        freqremin4     7.71735833E-01 Hartree
           getden1          0
           getden2          1
           getden3          0
           getden4          0
           getwfk1          0
           getwfk2          0
           getwfk3          2
           getwfk4          2
        gwcalctyp           2
             iscf1          7
             iscf2         -2
             iscf3          7
             iscf4          7
           istwfk        1    0    1    0    0    0    1    0
           jdtset        1    2    3    4
              kpt      0.00000000E+00  0.00000000E+00  0.00000000E+00
                       2.50000000E-01  0.00000000E+00  0.00000000E+00
                       5.00000000E-01  0.00000000E+00  0.00000000E+00
                       2.50000000E-01  2.50000000E-01  0.00000000E+00
                       5.00000000E-01  2.50000000E-01  0.00000000E+00
                      -2.50000000E-01  2.50000000E-01  0.00000000E+00
                       5.00000000E-01  5.00000000E-01  0.00000000E+00
                      -2.50000000E-01  5.00000000E-01  2.50000000E-01
         kptrlatt        4    0    0      0    4    0      0    0    4
          kptrlen      2.17887193E+01
P           mkmem           8
            natom           2
            nband1         10
            nband2         50
            nband3         50
            nband4         50
           nbdbuf1          0
           nbdbuf2          4
           nbdbuf3          0
           nbdbuf4          0
           ndtset           4
          nfreqim1         -1
          nfreqim2         -1
          nfreqim3          5
          nfreqim4          0
          nfreqre1         -1
          nfreqre2         -1
          nfreqre3         21
          nfreqre4         11
            ngfft          20      20      20
             nkpt           8
         nomegasf         250
           npweps1          0
           npweps2          0
           npweps3         27
           npweps4         27
           npwwfn1          0
           npwwfn2          0
           npwwfn3        331
           npwwfn4        331
            nstep          50
             nsym          48
           ntypat           2
              occ1     2.000000  2.000000  2.000000  2.000000  0.000000  0.000000
                       0.000000  0.000000  0.000000  0.000000
              occ3     2.000000  2.000000  2.000000  2.000000  0.000000  0.000000
                       0.000000  0.000000  0.000000  0.000000  0.000000  0.000000
                       0.000000  0.000000  0.000000  0.000000  0.000000  0.000000
                       0.000000  0.000000  0.000000  0.000000  0.000000  0.000000
                       0.000000  0.000000  0.000000  0.000000  0.000000  0.000000
                       0.000000  0.000000  0.000000  0.000000  0.000000  0.000000
                       0.000000  0.000000  0.000000  0.000000  0.000000  0.000000
                       0.000000  0.000000  0.000000  0.000000  0.000000  0.000000
                       0.000000  0.000000
              occ4     2.000000  2.000000  2.000000  2.000000  0.000000  0.000000
                       0.000000  0.000000  0.000000  0.000000  0.000000  0.000000
                       0.000000  0.000000  0.000000  0.000000  0.000000  0.000000
                       0.000000  0.000000  0.000000  0.000000  0.000000  0.000000
                       0.000000  0.000000  0.000000  0.000000  0.000000  0.000000
                       0.000000  0.000000  0.000000  0.000000  0.000000  0.000000
                       0.000000  0.000000  0.000000  0.000000  0.000000  0.000000
                       0.000000  0.000000  0.000000  0.000000  0.000000  0.000000
                       0.000000  0.000000
        optdriver1          0
        optdriver2          0
        optdriver3          3
        optdriver4          3
        prtsuscep           1
            rprim      0.0000000000E+00  5.0000000000E-01  5.0000000000E-01
                       5.0000000000E-01  0.0000000000E+00  5.0000000000E-01
                       5.0000000000E-01  5.0000000000E-01  0.0000000000E+00
          spgroup         225
           spmeth           1
           strten1     1.3215284620E-02  1.3215284620E-02  1.3215284620E-02
                       0.0000000000E+00  0.0000000000E+00  0.0000000000E+00
           strten3     0.0000000000E+00  0.0000000000E+00  0.0000000000E+00
                       0.0000000000E+00  0.0000000000E+00  0.0000000000E+00
           strten4     0.0000000000E+00  0.0000000000E+00  0.0000000000E+00
                       0.0000000000E+00  0.0000000000E+00  0.0000000000E+00
           symrel      1  0  0   0  1  0   0  0  1      -1  0  0   0 -1  0   0  0 -1
                       0 -1  1   0 -1  0   1 -1  0       0  1 -1   0  1  0  -1  1  0
                      -1  0  0  -1  0  1  -1  1  0       1  0  0   1  0 -1   1 -1  0
                       0  1 -1   1  0 -1   0  0 -1       0 -1  1  -1  0  1   0  0  1
                      -1  0  0  -1  1  0  -1  0  1       1  0  0   1 -1  0   1  0 -1
                       0 -1  1   1 -1  0   0 -1  0       0  1 -1  -1  1  0   0  1  0
                       1  0  0   0  0  1   0  1  0      -1  0  0   0  0 -1   0 -1  0
                       0  1 -1   0  0 -1   1  0 -1       0 -1  1   0  0  1  -1  0  1
                      -1  0  1  -1  1  0  -1  0  0       1  0 -1   1 -1  0   1  0  0
                       0 -1  0   1 -1  0   0 -1  1       0  1  0  -1  1  0   0  1 -1
                       1  0 -1   0  0 -1   0  1 -1      -1  0  1   0  0  1   0 -1  1
                       0  1  0   0  0  1   1  0  0       0 -1  0   0  0 -1  -1  0  0
                       1  0 -1   0  1 -1   0  0 -1      -1  0  1   0 -1  1   0  0  1
                       0 -1  0   0 -1  1   1 -1  0       0  1  0   0  1 -1  -1  1  0
                      -1  0  1  -1  0  0  -1  1  0       1  0 -1   1  0  0   1 -1  0
                       0  1  0   1  0  0   0  0  1       0 -1  0  -1  0  0   0  0 -1
                       0  0 -1   0  1 -1   1  0 -1       0  0  1   0 -1  1  -1  0  1
                       1 -1  0   0 -1  1   0 -1  0      -1  1  0   0  1 -1   0  1  0
                       0  0  1   1  0  0   0  1  0       0  0 -1  -1  0  0   0 -1  0
                      -1  1  0  -1  0  0  -1  0  1       1 -1  0   1  0  0   1  0 -1
                       0  0  1   0  1  0   1  0  0       0  0 -1   0 -1  0  -1  0  0
                       1 -1  0   0 -1  0   0 -1  1      -1  1  0   0  1  0   0  1 -1
                       0  0 -1   1  0 -1   0  1 -1       0  0  1  -1  0  1   0 -1  1
                      -1  1  0  -1  0  1  -1  0  0       1 -1  0   1  0 -1   1  0  0
           tolvrs1     1.00000000E-12
           tolvrs2     0.00000000E+00
           tolvrs3     0.00000000E+00
           tolvrs4     0.00000000E+00
           tolwfr1     0.00000000E+00
           tolwfr2     1.00000000E-12
           tolwfr3     0.00000000E+00
           tolwfr4     0.00000000E+00
            typat      1  2
              wtk        0.01563    0.12500    0.06250    0.09375    0.37500    0.18750
                         0.04688    0.09375
           xangst      0.0000000000E+00  0.0000000000E+00  0.0000000000E+00
                      -2.0382518572E+00 -4.3552371229E-18  4.3552371229E-18
            xcart      0.0000000000E+00  0.0000000000E+00  0.0000000000E+00
                      -3.8517378000E+00 -8.2302054061E-18  8.2302054061E-18
             xred      0.0000000000E+00  0.0000000000E+00  0.0000000000E+00
                       5.0000000000E-01 -5.0000000000E-01 -5.0000000000E-01
            znucl        3.00000    9.00000

================================================================================


- Timing analysis has been suppressed with timopt=0



================================================================================

 Suggested references for the acknowledgment of ABINIT usage.

 The users of ABINIT have little formal obligations with respect to the ABINIT group
 (those specified in the GNU General Public License, http://www.gnu.org/copyleft/gpl.txt).
 However, it is common practice in the scientific literature,
 to acknowledge the efforts of people that have made the research possible.
 In this spirit, please find below suggested citations of work written by ABINIT developers,
 corresponding to implementations inside of ABINIT that you have used in the present run.
 Note also that it will be of great value to readers of publications presenting these results,
 to read papers enabling them to understand the theoretical formalism and details
 of the ABINIT implementation.
 For information on why they are suggested, see also https://docs.abinit.org/theory/acknowledgments.
-
- [1] The Abinit project: Impact, environment and recent developments.
- Computer Phys. Comm. 248, 107042 (2020).
- X.Gonze, B. Amadon, G. Antonius, F.Arnardi, L.Baguet, J.-M.Beuken,
- J.Bieder, F.Bottin, J.Bouchet, E.Bousquet, N.Brouwer, F.Bruneval,
- G.Brunin, T.Cavignac, J.-B. Charraud, Wei Chen, M.Cote, S.Cottenier,
- J.Denier, G.Geneste, Ph.Ghosez, M.Giantomassi, Y.Gillet, O.Gingras,
- D.R.Hamann, G.Hautier, Xu He, N.Helbig, N.Holzwarth, Y.Jia, F.Jollet,
- W.Lafargue-Dit-Hauret, K.Lejaeghere, M.A.L.Marques, A.Martin, C.Martins,
- H.P.C. Miranda, F.Naccarato, K. Persson, G.Petretto, V.Planes, Y.Pouillon,
- S.Prokhorenko, F.Ricci, G.-M.Rignanese, A.H.Romero, M.M.Schmitt, M.Torrent,
- M.J.van Setten, B.Van Troeye, M.J.Verstraete, G.Zerah and J.W.Zwanzig
- Comment: the fifth generic paper describing the ABINIT project.
- Note that a version of this paper, that is not formatted for Computer Phys. Comm. 
- is available at https://www.abinit.org/sites/default/files/ABINIT20.pdf .
- The licence allows the authors to put it on the Web.
- DOI and bibtex: see https://docs.abinit.org/theory/bibliography/#gonze2020
-
- [2] ABINIT: Overview, and focus on selected capabilities
- J. Chem. Phys. 152, 124102 (2020).
- A. Romero, D.C. Allan, B. Amadon, G. Antonius, T. Applencourt, L.Baguet,
- J.Bieder, F.Bottin, J.Bouchet, E.Bousquet, F.Bruneval,
- G.Brunin, D.Caliste, M.Cote,
- J.Denier, C. Dreyer, Ph.Ghosez, M.Giantomassi, Y.Gillet, O.Gingras,
- D.R.Hamann, G.Hautier, F.Jollet, G. Jomard,
- A.Martin, 
- H.P.C. Miranda, F.Naccarato, G.Petretto, N.A. Pike, V.Planes,
- S.Prokhorenko, T. Rangel, F.Ricci, G.-M.Rignanese, M.Royo, M.Stengel, M.Torrent,
- M.J.van Setten, B.Van Troeye, M.J.Verstraete, J.Wiktor, J.W.Zwanziger, and X.Gonze.
- Comment: a global overview of ABINIT, with focus on selected capabilities .
- Note that a version of this paper, that is not formatted for J. Chem. Phys 
- is available at https://www.abinit.org/sites/default/files/ABINIT20_JPC.pdf .
- The licence allows the authors to put it on the Web.
- DOI and bibtex: see https://docs.abinit.org/theory/bibliography/#romero2020
-
- [3] Recent developments in the ABINIT software package.
- Computer Phys. Comm. 205, 106 (2016).
- X.Gonze, F.Jollet, F.Abreu Araujo, D.Adams, B.Amadon, T.Applencourt,
- C.Audouze, J.-M.Beuken, J.Bieder, A.Bokhanchuk, E.Bousquet, F.Bruneval
- D.Caliste, M.Cote, F.Dahm, F.Da Pieve, M.Delaveau, M.Di Gennaro,
- B.Dorado, C.Espejo, G.Geneste, L.Genovese, A.Gerossier, M.Giantomassi,
- Y.Gillet, D.R.Hamann, L.He, G.Jomard, J.Laflamme Janssen, S.Le Roux,
- A.Levitt, A.Lherbier, F.Liu, I.Lukacevic, A.Martin, C.Martins,
- M.J.T.Oliveira, S.Ponce, Y.Pouillon, T.Rangel, G.-M.Rignanese,
- A.H.Romero, B.Rousseau, O.Rubel, A.A.Shukri, M.Stankovski, M.Torrent,
- M.J.Van Setten, B.Van Troeye, M.J.Verstraete, D.Waroquier, J.Wiktor,
- B.Xu, A.Zhou, J.W.Zwanziger.
- Comment: the fourth generic paper describing the ABINIT project.
- Note that a version of this paper, that is not formatted for Computer Phys. Comm. 
- is available at https://www.abinit.org/sites/default/files/ABINIT16.pdf .
- The licence allows the authors to put it on the Web.
- DOI and bibtex: see https://docs.abinit.org/theory/bibliography/#gonze2016
-
- And optionally:
-
- [4] ABINIT: First-principles approach of materials and nanosystem properties.
- Computer Phys. Comm. 180, 2582-2615 (2009).
- X. Gonze, B. Amadon, P.-M. Anglade, J.-M. Beuken, F. Bottin, P. Boulanger, F. Bruneval,
- D. Caliste, R. Caracas, M. Cote, T. Deutsch, L. Genovese, Ph. Ghosez, M. Giantomassi
- S. Goedecker, D.R. Hamann, P. Hermet, F. Jollet, G. Jomard, S. Leroux, M. Mancini, S. Mazevet,
- M.J.T. Oliveira, G. Onida, Y. Pouillon, T. Rangel, G.-M. Rignanese, D. Sangalli, R. Shaltaf,
- M. Torrent, M.J. Verstraete, G. Zerah, J.W. Zwanziger
- Comment: the third generic paper describing the ABINIT project.
- Note that a version of this paper, that is not formatted for Computer Phys. Comm. 
- is available at https://www.abinit.org/sites/default/files/ABINIT_CPC_v10.pdf .
- The licence allows the authors to put it on the Web.
- DOI and bibtex: see https://docs.abinit.org/theory/bibliography/#gonze2009
-
- Proc.   0 individual time (sec): cpu=         10.9  wall=         10.9

================================================================================

 Calculation completed.
.Delivered   6 WARNINGs and   6 COMMENTs to log file.
+Overall time at end (sec) : cpu=         10.9  wall=         10.9
