
.Version 8.11.8 of ABINIT 
.(MPI version, prepared for a x86_64_linux_intel19.0 computer) 

.Copyright (C) 1998-2019 ABINIT group . 
 ABINIT comes with ABSOLUTELY NO WARRANTY.
 It is free software, and you are welcome to redistribute it
 under certain conditions (GNU General Public License,
 see ~abinit/COPYING or http://www.gnu.org/copyleft/gpl.txt).

 ABINIT is a project of the Universite Catholique de Louvain,
 Corning Inc. and other collaborators, see ~abinit/doc/developers/contributors.txt .
 Please read https://docs.abinit.org/theory/acknowledgments for suggested
 acknowledgments of the ABINIT effort.
 For more information, see https://www.abinit.org .

.Starting date : Thu 20 Jun 2019.
- ( at 14h30 )
  
- input  file    -> t03_4.in
- output file    -> t03_4_x.out
- root for input  files -> t03_xi
- root for output files -> t03_xo
 
- inpspheads : Reading pseudopotential header in XML form from ../../../Psps_for_tests/ba.hpc.paw.xml
 
 Symmetries : space group Pm -3 m (#221); Bravais cP (primitive cubic)
================================================================================
 Values of the parameters that define the memory need of the present run
     intxc =       0    ionmov =       0      iscf =      17    lmnmax =      18
     lnmax =       6     mgfft =      40  mpssoang =       3    mqgrid =    3001
     natom =      31  nloc_mem =       2    nspden =       1   nspinor =       1
    nsppol =       1      nsym =      48    n1xccc =       1    ntypat =       1
    occopt =       3   xclevel =       1
-    mband =         192        mffmem =           1         mkmem =           1
       mpw =         972          nfft =       64000          nkpt =           1
Pmy_natom=         8
 PAW method is used; the additional fine FFT grid is defined by:
   mgfftf=        45    nfftf =     91125
================================================================================
P This job should need less than                      41.775 Mbytes of memory.
  Rough estimation (10% accuracy) of disk space for files :
_ WF disk file :      2.850 Mbytes ; DEN or POT disk file :      0.697 Mbytes.
================================================================================
 
--------------------------------------------------------------------------------
------------- Echo of variables that govern the present computation ------------
--------------------------------------------------------------------------------
-
- outvars: echo of selected default values                                      
-   iomode0 =  0 , fftalg0 =312 , wfoptalg0 = 10
-
- outvars: echo of global parameters not present in the input file              
-  max_nthreads =    1
-
 -outvars: echo values of preprocessed input variables --------
-          iomode           1
            acell      1.5340000000E+01  1.5340000000E+01  1.5340000000E+01 Bohr
              amu      1.37327000E+02
           bandpp          48
      chksymbreak           0
     densfor_pred           6
             ecut      8.00000000E+00 Hartree
-          fftalg         312
           istwfk        1
              ixc           7
           kptopt           0
P           mkmem           1
            natom          31
            nband         192
            ngfft          40      40      40
          ngfftdg          45      45      45
             nkpt           1
-          npband           4
            nstep          40
             nsym          48
           ntypat           1
              occ      2.000000  2.000000  2.000000  2.000000  2.000000  2.000000
                       2.000000  2.000000  2.000000  2.000000  2.000000  2.000000
                       2.000000  2.000000  2.000000  2.000000  2.000000  2.000000
                       2.000000  2.000000  2.000000  2.000000  2.000000  2.000000
                       2.000000  2.000000  2.000000  2.000000  2.000000  2.000000
                       2.000000  2.000000  2.000000  2.000000  2.000000  2.000000
                       2.000000  2.000000  2.000000  2.000000  2.000000  2.000000
                       2.000000  2.000000  2.000000  2.000000  2.000000  2.000000
                       2.000000  2.000000  2.000000  2.000000  2.000000  2.000000
                       2.000000  2.000000  2.000000  2.000000  2.000000  2.000000
                       2.000000  2.000000  2.000000  2.000000  2.000000  2.000000
                       2.000000  2.000000  2.000000  2.000000  2.000000  2.000000
                       2.000000  2.000000  2.000000  2.000000  2.000000  2.000000
                       2.000000  2.000000  2.000000  2.000000  2.000000  2.000000
                       2.000000  2.000000  2.000000  2.000000  2.000000  2.000000
                       2.000000  2.000000  2.000000  2.000000  2.000000  2.000000
                       2.000000  2.000000  2.000000  2.000000  2.000000  2.000000
                       2.000000  2.000000  2.000000  2.000000  2.000000  2.000000
                       2.000000  2.000000  2.000000  2.000000  2.000000  2.000000
                       2.000000  2.000000  2.000000  2.000000  2.000000  2.000000
                       2.000000  2.000000  2.000000  2.000000  2.000000  2.000000
                       2.000000  2.000000  2.000000  2.000000  2.000000  2.000000
                       2.000000  2.000000  2.000000  2.000000  2.000000  2.000000
                       2.000000  2.000000  2.000000  2.000000  2.000000  2.000000
                       2.000000  2.000000  2.000000  2.000000  2.000000  2.000000
                       2.000000  2.000000  2.000000  2.000000  2.000000  0.000000
                       0.000000  0.000000  0.000000  0.000000  0.000000  0.000000
                       0.000000  0.000000  0.000000  0.000000  0.000000  0.000000
                       0.000000  0.000000  0.000000  0.000000  0.000000  0.000000
                       0.000000  0.000000  0.000000  0.000000  0.000000  0.000000
                       0.000000  0.000000  0.000000  0.000000  0.000000  0.000000
                       0.000000  0.000000  0.000000  0.000000  0.000000  0.000000
           occopt           3
        paral_kgb           1
        pawecutdg      1.00000000E+01 Hartree
           prtden           0
           prteig           0
            prtwf           0
          spgroup         221
           symrel      1  0  0   0  1  0   0  0  1      -1  0  0   0 -1  0   0  0 -1
                      -1  0  0   0  1  0   0  0 -1       1  0  0   0 -1  0   0  0  1
                      -1  0  0   0 -1  0   0  0  1       1  0  0   0  1  0   0  0 -1
                       1  0  0   0 -1  0   0  0 -1      -1  0  0   0  1  0   0  0  1
                       0  1  0   1  0  0   0  0  1       0 -1  0  -1  0  0   0  0 -1
                       0 -1  0   1  0  0   0  0 -1       0  1  0  -1  0  0   0  0  1
                       0 -1  0  -1  0  0   0  0  1       0  1  0   1  0  0   0  0 -1
                       0  1  0  -1  0  0   0  0 -1       0 -1  0   1  0  0   0  0  1
                       0  0  1   1  0  0   0  1  0       0  0 -1  -1  0  0   0 -1  0
                       0  0 -1   1  0  0   0 -1  0       0  0  1  -1  0  0   0  1  0
                       0  0 -1  -1  0  0   0  1  0       0  0  1   1  0  0   0 -1  0
                       0  0  1  -1  0  0   0 -1  0       0  0 -1   1  0  0   0  1  0
                       1  0  0   0  0  1   0  1  0      -1  0  0   0  0 -1   0 -1  0
                      -1  0  0   0  0  1   0 -1  0       1  0  0   0  0 -1   0  1  0
                      -1  0  0   0  0 -1   0  1  0       1  0  0   0  0  1   0 -1  0
                       1  0  0   0  0 -1   0 -1  0      -1  0  0   0  0  1   0  1  0
                       0  1  0   0  0  1   1  0  0       0 -1  0   0  0 -1  -1  0  0
                       0 -1  0   0  0  1  -1  0  0       0  1  0   0  0 -1   1  0  0
                       0 -1  0   0  0 -1   1  0  0       0  1  0   0  0  1  -1  0  0
                       0  1  0   0  0 -1  -1  0  0       0 -1  0   0  0  1   1  0  0
                       0  0  1   0  1  0   1  0  0       0  0 -1   0 -1  0  -1  0  0
                       0  0 -1   0  1  0  -1  0  0       0  0  1   0 -1  0   1  0  0
                       0  0 -1   0 -1  0   1  0  0       0  0  1   0  1  0  -1  0  0
                       0  0  1   0 -1  0  -1  0  0       0  0 -1   0  1  0   1  0  0
           timopt          -3
           toldfe      1.00000000E-05 Hartree
           tsmear      2.00000000E-03 Hartree
            typat      1  1  1  1  1  1  1  1  1  1  1  1  1  1  1  1  1  1  1  1
                       1  1  1  1  1  1  1  1  1  1  1
           useylm           1
         wfoptalg           1
           xangst      2.0293945949E+00  2.0293945949E+00  0.0000000000E+00
                       2.0293945949E+00  0.0000000000E+00  2.0293945949E+00
                       0.0000000000E+00  2.0293945949E+00  2.0293945949E+00
                       0.0000000000E+00  0.0000000000E+00  4.0587891899E+00
                       2.0293945949E+00  2.0293945949E+00  4.0587891899E+00
                       2.0293945949E+00  0.0000000000E+00  6.0881837848E+00
                       0.0000000000E+00  2.0293945949E+00  6.0881837848E+00
                       0.0000000000E+00  4.0587891899E+00  0.0000000000E+00
                       2.0293945949E+00  6.0881837848E+00  0.0000000000E+00
                       2.0293945949E+00  4.0587891899E+00  2.0293945949E+00
                       0.0000000000E+00  6.0881837848E+00  2.0293945949E+00
                       0.0000000000E+00  4.0587891899E+00  4.0587891899E+00
                       2.0293945949E+00  6.0881837848E+00  4.0587891899E+00
                       2.0293945949E+00  4.0587891899E+00  6.0881837848E+00
                       0.0000000000E+00  6.0881837848E+00  6.0881837848E+00
                       4.0587891899E+00  0.0000000000E+00  0.0000000000E+00
                       6.0881837848E+00  2.0293945949E+00  0.0000000000E+00
                       6.0881837848E+00  0.0000000000E+00  2.0293945949E+00
                       4.0587891899E+00  2.0293945949E+00  2.0293945949E+00
                       4.0587891899E+00  0.0000000000E+00  4.0587891899E+00
                       6.0881837848E+00  2.0293945949E+00  4.0587891899E+00
                       6.0881837848E+00  0.0000000000E+00  6.0881837848E+00
                       4.0587891899E+00  2.0293945949E+00  6.0881837848E+00
                       4.0587891899E+00  4.0587891899E+00  0.0000000000E+00
                       6.0881837848E+00  6.0881837848E+00  0.0000000000E+00
                       6.0881837848E+00  4.0587891899E+00  2.0293945949E+00
                       4.0587891899E+00  6.0881837848E+00  2.0293945949E+00
                       4.0587891899E+00  4.0587891899E+00  4.0587891899E+00
                       6.0881837848E+00  6.0881837848E+00  4.0587891899E+00
                       6.0881837848E+00  4.0587891899E+00  6.0881837848E+00
                       4.0587891899E+00  6.0881837848E+00  6.0881837848E+00
            xcart      3.8350000000E+00  3.8350000000E+00  0.0000000000E+00
                       3.8350000000E+00  0.0000000000E+00  3.8350000000E+00
                       0.0000000000E+00  3.8350000000E+00  3.8350000000E+00
                       0.0000000000E+00  0.0000000000E+00  7.6700000000E+00
                       3.8350000000E+00  3.8350000000E+00  7.6700000000E+00
                       3.8350000000E+00  0.0000000000E+00  1.1505000000E+01
                       0.0000000000E+00  3.8350000000E+00  1.1505000000E+01
                       0.0000000000E+00  7.6700000000E+00  0.0000000000E+00
                       3.8350000000E+00  1.1505000000E+01  0.0000000000E+00
                       3.8350000000E+00  7.6700000000E+00  3.8350000000E+00
                       0.0000000000E+00  1.1505000000E+01  3.8350000000E+00
                       0.0000000000E+00  7.6700000000E+00  7.6700000000E+00
                       3.8350000000E+00  1.1505000000E+01  7.6700000000E+00
                       3.8350000000E+00  7.6700000000E+00  1.1505000000E+01
                       0.0000000000E+00  1.1505000000E+01  1.1505000000E+01
                       7.6700000000E+00  0.0000000000E+00  0.0000000000E+00
                       1.1505000000E+01  3.8350000000E+00  0.0000000000E+00
                       1.1505000000E+01  0.0000000000E+00  3.8350000000E+00
                       7.6700000000E+00  3.8350000000E+00  3.8350000000E+00
                       7.6700000000E+00  0.0000000000E+00  7.6700000000E+00
                       1.1505000000E+01  3.8350000000E+00  7.6700000000E+00
                       1.1505000000E+01  0.0000000000E+00  1.1505000000E+01
                       7.6700000000E+00  3.8350000000E+00  1.1505000000E+01
                       7.6700000000E+00  7.6700000000E+00  0.0000000000E+00
                       1.1505000000E+01  1.1505000000E+01  0.0000000000E+00
                       1.1505000000E+01  7.6700000000E+00  3.8350000000E+00
                       7.6700000000E+00  1.1505000000E+01  3.8350000000E+00
                       7.6700000000E+00  7.6700000000E+00  7.6700000000E+00
                       1.1505000000E+01  1.1505000000E+01  7.6700000000E+00
                       1.1505000000E+01  7.6700000000E+00  1.1505000000E+01
                       7.6700000000E+00  1.1505000000E+01  1.1505000000E+01
             xred      2.5000000000E-01  2.5000000000E-01  0.0000000000E+00
                       2.5000000000E-01  0.0000000000E+00  2.5000000000E-01
                       0.0000000000E+00  2.5000000000E-01  2.5000000000E-01
                       0.0000000000E+00  0.0000000000E+00  5.0000000000E-01
                       2.5000000000E-01  2.5000000000E-01  5.0000000000E-01
                       2.5000000000E-01  0.0000000000E+00  7.5000000000E-01
                       0.0000000000E+00  2.5000000000E-01  7.5000000000E-01
                       0.0000000000E+00  5.0000000000E-01  0.0000000000E+00
                       2.5000000000E-01  7.5000000000E-01  0.0000000000E+00
                       2.5000000000E-01  5.0000000000E-01  2.5000000000E-01
                       0.0000000000E+00  7.5000000000E-01  2.5000000000E-01
                       0.0000000000E+00  5.0000000000E-01  5.0000000000E-01
                       2.5000000000E-01  7.5000000000E-01  5.0000000000E-01
                       2.5000000000E-01  5.0000000000E-01  7.5000000000E-01
                       0.0000000000E+00  7.5000000000E-01  7.5000000000E-01
                       5.0000000000E-01  0.0000000000E+00  0.0000000000E+00
                       7.5000000000E-01  2.5000000000E-01  0.0000000000E+00
                       7.5000000000E-01  0.0000000000E+00  2.5000000000E-01
                       5.0000000000E-01  2.5000000000E-01  2.5000000000E-01
                       5.0000000000E-01  0.0000000000E+00  5.0000000000E-01
                       7.5000000000E-01  2.5000000000E-01  5.0000000000E-01
                       7.5000000000E-01  0.0000000000E+00  7.5000000000E-01
                       5.0000000000E-01  2.5000000000E-01  7.5000000000E-01
                       5.0000000000E-01  5.0000000000E-01  0.0000000000E+00
                       7.5000000000E-01  7.5000000000E-01  0.0000000000E+00
                       7.5000000000E-01  5.0000000000E-01  2.5000000000E-01
                       5.0000000000E-01  7.5000000000E-01  2.5000000000E-01
                       5.0000000000E-01  5.0000000000E-01  5.0000000000E-01
                       7.5000000000E-01  7.5000000000E-01  5.0000000000E-01
                       7.5000000000E-01  5.0000000000E-01  7.5000000000E-01
                       5.0000000000E-01  7.5000000000E-01  7.5000000000E-01
            znucl       56.00000
 
================================================================================
 
 chkinp: Checking input parameters for consistency.
 
================================================================================
== DATASET  1 ==================================================================
-   nproc =    4
 
 Exchange-correlation functional for the present dataset will be:
  LDA: Perdew-Wang 92 LSD fit to Ceperley-Alder data - ixc=7
 Citation for XC functional:
  J.P.Perdew and Y.Wang, PRB 45, 13244 (1992)
 
 Real(R)+Recip(G) space primitive vectors, cartesian coordinates (Bohr,Bohr^-1):
 R(1)= 15.3400000  0.0000000  0.0000000  G(1)=  0.0651890  0.0000000  0.0000000
 R(2)=  0.0000000 15.3400000  0.0000000  G(2)=  0.0000000  0.0651890  0.0000000
 R(3)=  0.0000000  0.0000000 15.3400000  G(3)=  0.0000000  0.0000000  0.0651890
 Unit cell volume ucvol=  3.6097413E+03 bohr^3
 Angles (23,13,12)=  9.00000000E+01  9.00000000E+01  9.00000000E+01 degrees
 
 Coarse grid specifications (used for wave-functions):
 
 getcut: wavevector=  0.0000  0.0000  0.0000  ngfft=  40  40  40
         ecut(hartree)=      8.000   => boxcut(ratio)=   2.04797
 
 Fine grid specifications (used for densities):
 
 getcut: wavevector=  0.0000  0.0000  0.0000  ngfft=  45  45  45
         ecut(hartree)=     10.000   => boxcut(ratio)=   2.01494
 
--- Pseudopotential description ------------------------------------------------
- pspini: atom type   1  psp file is ../../../Psps_for_tests/ba.hpc.paw.xml
- pspatm: opening atomic psp file    ../../../Psps_for_tests/ba.hpc.paw.xml
- pspatm : Reading pseudopotential header in XML form from ../../../Psps_for_tests/ba.hpc.paw.xml
 Pseudopotential format is: paw10
 basis_size (lnmax)=  6 (lmn_size= 18), orbitals=   0   0   1   1   2   2
 Spheres core radius: rc_sph= 2.31518568
 1 radial meshes are used:
  - mesh 1: r(i)=AA*[exp(BB*(i-1))-1], size=1500 , AA= 0.15658E-03 BB= 0.87685E-02
 Shapefunction is SIN type: shapef(r)=[sin(pi*r/rshp)/(pi*r/rshp)]**2
 Radius for shape functions =  2.01210979
 mmax= 1500
 Radial grid used for partial waves is grid 1
 Radial grid used for projectors is grid 1
 Radial grid used for (t)core density is grid 1
 Radial grid used for Vloc is grid 1
 Radial grid used for pseudo valence density is grid 1
 Mesh size for Vloc has been set to 1341 to avoid numerical noise.
 Compensation charge density is not taken into account in XC energy/potential
 pspatm: atomic psp has been read  and splines computed
 
   5.70955898E+05                                ecore*ucvol(ha*bohr**3)
--------------------------------------------------------------------------------
 
_setup2: Arith. and geom. avg. npw (full set) are     972.000     972.000
 
================================================================================
 
     iter   Etot(hartree)      deltaE(h)  residm     nres2
 ETOT  1  -790.61559369086    -7.906E+02 5.941E+00 1.131E+01
 ETOT  2  -798.88011571305    -8.265E+00 8.859E+00 1.582E+00
 ETOT  3  -800.01224795318    -1.132E+00 5.804E-01 3.816E-01
 ETOT  4  -800.04634455182    -3.410E-02 1.100E+01 2.911E-02
 ETOT  5  -800.35537922208    -3.090E-01 1.747E-01 1.050E-01
 ETOT  6  -800.35774009622    -2.361E-03 9.037E+00 7.294E-02
 ETOT  7  -800.41254033573    -5.480E-02 6.182E-01 8.494E-02
 ETOT  8  -800.40682171854     5.719E-03 1.166E+01 6.363E-02
 ETOT  9  -800.42310572453    -1.628E-02 1.013E-01 2.645E-02
 ETOT 10  -800.42362255635    -5.168E-04 7.598E+00 1.322E-02
 ETOT 11  -800.42620155084    -2.579E-03 1.244E+00 8.622E-03
 ETOT 12  -800.42541399385     7.876E-04 1.133E+01 3.963E-03
 ETOT 13  -800.42677548774    -1.361E-03 1.599E-01 9.595E-04
 ETOT 14  -800.42672935349     4.613E-05 8.736E+00 5.415E-04
 ETOT 15  -800.42698980741    -2.605E-04 7.340E-01 4.330E-05
 ETOT 16  -800.42693182229     5.799E-05 1.175E+01 6.603E-06
 ETOT 17  -800.42706613773    -1.343E-04 1.059E-01 5.746E-06
 ETOT 18  -800.42706220829     3.929E-06 7.544E+00 2.115E-06
 ETOT 19  -800.42708196781    -1.976E-05 1.273E+00 2.702E-06
 ETOT 20  -800.42707629492     5.673E-06 1.130E+01 5.052E-07
 ETOT 21  -800.42708854731    -1.225E-05 1.604E-01 1.882E-07
 ETOT 22  -800.42708760221     9.451E-07 8.813E+00 2.237E-08
 ETOT 23  -800.42709007356    -2.471E-06 7.019E-01 8.005E-08
 
 At SCF step   23, etot is converged : 
  for the second time, diff in etot=  2.471E-06 < toldfe=  1.000E-05
 
 Cartesian components of stress tensor (hartree/bohr^3)
  sigma(1 1)= -4.33629281E-03  sigma(3 2)=  0.00000000E+00
  sigma(2 2)= -4.33629281E-03  sigma(3 1)=  0.00000000E+00
  sigma(3 3)= -4.33629281E-03  sigma(2 1)=  0.00000000E+00
 
 Integrated electronic density in atomic spheres:
 ------------------------------------------------
 Atom  Sphere_radius  Integrated_density
    1        2.31519          7.04701348
    2        2.31519          7.04701348
    3        2.31519          7.04701348
    4        2.31519          6.96777062
    5        2.31519          7.10077643
    6        2.31519          7.04701348
    7        2.31519          7.04701348
    8        2.31519          6.96777062
    9        2.31519          7.04701348
   10        2.31519          7.10077643
   11        2.31519          7.04701348
   12        2.31519          7.03238194
   13        2.31519          7.10077643
   14        2.31519          7.10077643
   15        2.31519          7.04701348
   16        2.31519          6.96777062
   17        2.31519          7.04701348
   18        2.31519          7.04701348
   19        2.31519          7.10077643
   20        2.31519          7.03238194
   21        2.31519          7.10077643
   22        2.31519          7.04701348
   23        2.31519          7.10077643
   24        2.31519          7.03238194
   25        2.31519          7.04701348
   26        2.31519          7.10077643
   27        2.31519          7.10077643
   28        2.31519          7.11123655
   29        2.31519          7.10077643
   30        2.31519          7.10077643
   31        2.31519          7.10077643
 
 PAW TEST:
 ==== Compensation charge inside spheres ============
 The following values must be close to each other ...
 Compensation charge over spherical meshes =    -83.807174924748168
 Compensation charge over fine fft grid    =    -83.807282996788516
 
 ==== Results concerning PAW augmentation regions ====
 
 Total pseudopotential strength Dij (hartree):
 Atom #  1
   0.41420   0.06332   0.00046   0.00000   0.00046   0.00011   0.00000   0.00011  -0.00012   0.00000   0.00003   0.00000 ...
   0.06332   0.00885   0.00010   0.00000   0.00010   0.00008   0.00000   0.00008  -0.00003   0.00000   0.00001   0.00000 ...
   0.00046   0.00010  -0.17382   0.00000  -0.00017   0.00055   0.00000  -0.00008   0.00018   0.00000  -0.00009   0.00000 ...
   0.00000   0.00000   0.00000  -0.17373   0.00000   0.00000   0.00062   0.00000   0.00000   0.00009   0.00000   0.00009 ...
   0.00046   0.00010  -0.00017   0.00000  -0.17382  -0.00008   0.00000   0.00055   0.00018   0.00000  -0.00009   0.00000 ...
   0.00011   0.00008   0.00055   0.00000  -0.00008  -1.14548   0.00000  -0.00024   0.00017   0.00000  -0.00008   0.00000 ...
   0.00000   0.00000   0.00000   0.00062   0.00000   0.00000  -1.14528   0.00000   0.00000   0.00007   0.00000   0.00007 ...
   0.00011   0.00008  -0.00008   0.00000   0.00055  -0.00024   0.00000  -1.14548   0.00017   0.00000  -0.00008   0.00000 ...
  -0.00012  -0.00003   0.00018   0.00000   0.00018   0.00017   0.00000   0.00017  -0.03054   0.00000   0.00002   0.00000 ...
   0.00000   0.00000   0.00000   0.00009   0.00000   0.00000   0.00007   0.00000   0.00000  -0.03053   0.00000  -0.00002 ...
   0.00003   0.00001  -0.00009   0.00000  -0.00009  -0.00008   0.00000  -0.00008   0.00002   0.00000  -0.03055   0.00000 ...
   0.00000   0.00000   0.00000   0.00009   0.00000   0.00000   0.00007   0.00000   0.00000  -0.00002   0.00000  -0.03053 ...
   ...  only 12  components have been written...
 Atom # 31
   0.41593   0.06360   0.00017   0.00017   0.00000  -0.00007  -0.00007   0.00000   0.00000  -0.00006  -0.00001   0.00000 ...
   0.06360   0.00890   0.00003   0.00003   0.00000  -0.00000  -0.00000   0.00000   0.00000  -0.00001  -0.00000   0.00000 ...
   0.00017   0.00003  -0.17307  -0.00008   0.00000   0.00077  -0.00004   0.00000   0.00000   0.00003  -0.00001   0.00000 ...
   0.00017   0.00003  -0.00008  -0.17307   0.00000  -0.00004   0.00077   0.00000   0.00000   0.00003   0.00003   0.00000 ...
   0.00000   0.00000   0.00000   0.00000  -0.17300   0.00000   0.00000   0.00083   0.00002   0.00000   0.00000   0.00002 ...
  -0.00007  -0.00000   0.00077  -0.00004   0.00000  -1.14463  -0.00010   0.00000   0.00000   0.00001   0.00001   0.00000 ...
  -0.00007  -0.00000  -0.00004   0.00077   0.00000  -0.00010  -1.14463   0.00000   0.00000   0.00001  -0.00000   0.00000 ...
   0.00000   0.00000   0.00000   0.00000   0.00083   0.00000   0.00000  -1.14454  -0.00001   0.00000   0.00000  -0.00001 ...
   0.00000   0.00000   0.00000   0.00000   0.00002   0.00000   0.00000  -0.00001  -0.03040   0.00000   0.00000  -0.00001 ...
  -0.00006  -0.00001   0.00003   0.00003   0.00000   0.00001   0.00001   0.00000   0.00000  -0.03042  -0.00001   0.00000 ...
  -0.00001  -0.00000  -0.00001   0.00003   0.00000   0.00001  -0.00000   0.00000   0.00000  -0.00001  -0.03044   0.00000 ...
   0.00000   0.00000   0.00000   0.00000   0.00002   0.00000   0.00000  -0.00001  -0.00001   0.00000   0.00000  -0.03040 ...
   ...  only 12  components have been written...
 
 
 Augmentation waves occupancies Rhoij:
 Atom #  1
   2.09432  -0.11960  -0.00175   0.00000  -0.00175  -0.00027   0.00000  -0.00027   0.01801   0.00000  -0.05589   0.00000 ...
  -0.11960   0.24817   0.00202   0.00000   0.00202   0.00129   0.00000   0.00129  -0.02370   0.00000   0.06528   0.00000 ...
  -0.00175   0.00202   1.86540   0.00000   0.01688   0.01083   0.00000  -0.00191   0.01055   0.00000  -0.02928   0.00000 ...
   0.00000   0.00000   0.00000   1.88629   0.00000   0.00000   0.00874   0.00000   0.00000   0.01240   0.00000   0.01240 ...
  -0.00175   0.00202   0.01688   0.00000   1.86540  -0.00191   0.00000   0.01083   0.01055   0.00000  -0.02928   0.00000 ...
  -0.00027   0.00129   0.01083   0.00000  -0.00191   0.00151   0.00000   0.00009   0.00057   0.00000   0.00213   0.00000 ...
   0.00000   0.00000   0.00000   0.00874   0.00000   0.00000   0.00183   0.00000   0.00000  -0.00033   0.00000  -0.00033 ...
  -0.00027   0.00129  -0.00191   0.00000   0.01083   0.00009   0.00000   0.00151   0.00057   0.00000   0.00213   0.00000 ...
   0.01801  -0.02370   0.01055   0.00000   0.01055   0.00057   0.00000   0.00057   0.43417   0.00000   0.02356   0.00000 ...
   0.00000   0.00000   0.00000   0.01240   0.00000   0.00000  -0.00033   0.00000   0.00000   0.44881   0.00000  -0.04514 ...
  -0.05589   0.06528  -0.02928   0.00000  -0.02928   0.00213   0.00000   0.00213   0.02356   0.00000   0.55717   0.00000 ...
   0.00000   0.00000   0.00000   0.01240   0.00000   0.00000  -0.00033   0.00000   0.00000  -0.04514   0.00000   0.44881 ...
   ...  only 12  components have been written...
 Atom # 31
   2.11787  -0.14743  -0.00122  -0.00122   0.00000   0.00000   0.00000   0.00000   0.00000  -0.00919  -0.00978   0.00000 ...
  -0.14743   0.28756   0.00219   0.00219   0.00000  -0.00018  -0.00018   0.00000   0.00000   0.00835   0.00923   0.00000 ...
  -0.00122   0.00219   1.85305   0.00729   0.00000   0.01216  -0.00075   0.00000   0.00000   0.00377  -0.00855   0.00000 ...
  -0.00122   0.00219   0.00729   1.85305   0.00000  -0.00075   0.01216   0.00000   0.00000   0.00377  -0.00162   0.00000 ...
   0.00000   0.00000   0.00000   0.00000   1.88140   0.00000   0.00000   0.00958  -0.01497   0.00000   0.00000  -0.01497 ...
   0.00000  -0.00018   0.01216  -0.00075   0.00000   0.00156   0.00004   0.00000   0.00000  -0.00017   0.00068   0.00000 ...
   0.00000  -0.00018  -0.00075   0.01216   0.00000   0.00004   0.00156   0.00000   0.00000  -0.00017   0.00057   0.00000 ...
   0.00000   0.00000   0.00000   0.00000   0.00958   0.00000   0.00000   0.00185   0.00167   0.00000   0.00000   0.00167 ...
   0.00000   0.00000   0.00000   0.00000  -0.01497   0.00000   0.00000   0.00167   0.49332   0.00000   0.00000  -0.03674 ...
  -0.00919   0.00835   0.00377   0.00377   0.00000  -0.00017  -0.00017   0.00000   0.00000   0.46382   0.01341   0.00000 ...
  -0.00978   0.00923  -0.00855  -0.00162   0.00000   0.00068   0.00057   0.00000   0.00000   0.01341   0.53504   0.00000 ...
   0.00000   0.00000   0.00000   0.00000  -0.01497   0.00000   0.00000   0.00167  -0.03674   0.00000   0.00000   0.49332 ...
   ...  only 12  components have been written...
 
 
================================================================================
 
 ----iterations are completed or convergence reached----
 
 Mean square residual over all n,k,spin=   97.989E-04; max=  70.188E-02
 reduced coordinates (array xred) for   31 atoms
       0.250000000000      0.250000000000      0.000000000000
       0.250000000000      0.000000000000      0.250000000000
       0.000000000000      0.250000000000      0.250000000000
       0.000000000000      0.000000000000      0.500000000000
       0.250000000000      0.250000000000      0.500000000000
       0.250000000000      0.000000000000      0.750000000000
       0.000000000000      0.250000000000      0.750000000000
       0.000000000000      0.500000000000      0.000000000000
       0.250000000000      0.750000000000      0.000000000000
       0.250000000000      0.500000000000      0.250000000000
       0.000000000000      0.750000000000      0.250000000000
       0.000000000000      0.500000000000      0.500000000000
       0.250000000000      0.750000000000      0.500000000000
       0.250000000000      0.500000000000      0.750000000000
       0.000000000000      0.750000000000      0.750000000000
       0.500000000000      0.000000000000      0.000000000000
       0.750000000000      0.250000000000      0.000000000000
       0.750000000000      0.000000000000      0.250000000000
       0.500000000000      0.250000000000      0.250000000000
       0.500000000000      0.000000000000      0.500000000000
       0.750000000000      0.250000000000      0.500000000000
       0.750000000000      0.000000000000      0.750000000000
       0.500000000000      0.250000000000      0.750000000000
       0.500000000000      0.500000000000      0.000000000000
       0.750000000000      0.750000000000      0.000000000000
       0.750000000000      0.500000000000      0.250000000000
       0.500000000000      0.750000000000      0.250000000000
       0.500000000000      0.500000000000      0.500000000000
       0.750000000000      0.750000000000      0.500000000000
       0.750000000000      0.500000000000      0.750000000000
       0.500000000000      0.750000000000      0.750000000000
 rms dE/dt=  2.0482E-01; max dE/dt=  3.9177E-01; dE/dt below (all hartree)
    1       0.391765285015      0.391765285015      0.000000000000
    2       0.391765285015      0.000000000000      0.391765285015
    3       0.000000000000      0.391765285015      0.391765285015
    4       0.000000000000      0.000000000000      0.000000000000
    5      -0.095313034702     -0.095313034702      0.000000000000
    6       0.391765285015     -0.000000000000     -0.391765285015
    7      -0.000000000000      0.391765285015     -0.391765285015
    8       0.000000000000      0.000000000000      0.000000000000
    9       0.391765285015     -0.391765285015     -0.000000000000
   10      -0.095313034702     -0.000000000000     -0.095313034702
   11      -0.000000000000     -0.391765285015      0.391765285015
   12       0.000000000000      0.000000000000      0.000000000000
   13      -0.095313034702      0.095313034702     -0.000000000000
   14      -0.095313034702     -0.000000000000      0.095313034702
   15      -0.000000000000     -0.391765285015     -0.391765285015
   16       0.000000000000      0.000000000000      0.000000000000
   17      -0.391765285015      0.391765285015     -0.000000000000
   18      -0.391765285015     -0.000000000000      0.391765285015
   19      -0.000000000000     -0.095313034702     -0.095313034702
   20       0.000000000000      0.000000000000      0.000000000000
   21       0.095313034702     -0.095313034702     -0.000000000000
   22      -0.391765285015     -0.000000000000     -0.391765285015
   23      -0.000000000000     -0.095313034702      0.095313034702
   24       0.000000000000      0.000000000000      0.000000000000
   25      -0.391765285015     -0.391765285015     -0.000000000000
   26       0.095313034702     -0.000000000000     -0.095313034702
   27      -0.000000000000      0.095313034702     -0.095313034702
   28       0.000000000000      0.000000000000      0.000000000000
   29       0.095313034702      0.095313034702      0.000000000000
   30       0.095313034702      0.000000000000      0.095313034702
   31       0.000000000000      0.095313034702      0.095313034702
 
 cartesian coordinates (angstrom) at end:
    1      2.02939459494265     2.02939459494265     0.00000000000000
    2      2.02939459494265     0.00000000000000     2.02939459494265
    3      0.00000000000000     2.02939459494265     2.02939459494265
    4      0.00000000000000     0.00000000000000     4.05878918988530
    5      2.02939459494265     2.02939459494265     4.05878918988530
    6      2.02939459494265     0.00000000000000     6.08818378482795
    7      0.00000000000000     2.02939459494265     6.08818378482795
    8      0.00000000000000     4.05878918988530     0.00000000000000
    9      2.02939459494265     6.08818378482795     0.00000000000000
   10      2.02939459494265     4.05878918988530     2.02939459494265
   11      0.00000000000000     6.08818378482795     2.02939459494265
   12      0.00000000000000     4.05878918988530     4.05878918988530
   13      2.02939459494265     6.08818378482795     4.05878918988530
   14      2.02939459494265     4.05878918988530     6.08818378482795
   15      0.00000000000000     6.08818378482795     6.08818378482795
   16      4.05878918988530     0.00000000000000     0.00000000000000
   17      6.08818378482795     2.02939459494265     0.00000000000000
   18      6.08818378482795     0.00000000000000     2.02939459494265
   19      4.05878918988530     2.02939459494265     2.02939459494265
   20      4.05878918988530     0.00000000000000     4.05878918988530
   21      6.08818378482795     2.02939459494265     4.05878918988530
   22      6.08818378482795     0.00000000000000     6.08818378482795
   23      4.05878918988530     2.02939459494265     6.08818378482795
   24      4.05878918988530     4.05878918988530     0.00000000000000
   25      6.08818378482795     6.08818378482795     0.00000000000000
   26      6.08818378482795     4.05878918988530     2.02939459494265
   27      4.05878918988530     6.08818378482795     2.02939459494265
   28      4.05878918988530     4.05878918988530     4.05878918988530
   29      6.08818378482795     6.08818378482795     4.05878918988530
   30      6.08818378482795     4.05878918988530     6.08818378482795
   31      4.05878918988530     6.08818378482795     6.08818378482795
 
 cartesian forces (hartree/bohr) at end:
    1     -0.02553880606358    -0.02553880606358    -0.00000000000000
    2     -0.02553880606358    -0.00000000000000    -0.02553880606358
    3     -0.00000000000000    -0.02553880606358    -0.02553880606358
    4     -0.00000000000000     0.00000000000000    -0.00000000000000
    5      0.00621336601711     0.00621336601711    -0.00000000000000
    6     -0.02553880606358     0.00000000000000     0.02553880606358
    7     -0.00000000000000    -0.02553880606358     0.02553880606358
    8     -0.00000000000000     0.00000000000000    -0.00000000000000
    9     -0.02553880606358     0.02553880606358    -0.00000000000000
   10      0.00621336601711     0.00000000000000     0.00621336601711
   11     -0.00000000000000     0.02553880606358    -0.02553880606358
   12     -0.00000000000000     0.00000000000000    -0.00000000000000
   13      0.00621336601711    -0.00621336601711    -0.00000000000000
   14      0.00621336601711     0.00000000000000    -0.00621336601711
   15     -0.00000000000000     0.02553880606358     0.02553880606358
   16     -0.00000000000000     0.00000000000000    -0.00000000000000
   17      0.02553880606358    -0.02553880606358    -0.00000000000000
   18      0.02553880606358     0.00000000000000    -0.02553880606358
   19     -0.00000000000000     0.00621336601711     0.00621336601711
   20     -0.00000000000000     0.00000000000000    -0.00000000000000
   21     -0.00621336601711     0.00621336601711    -0.00000000000000
   22      0.02553880606358     0.00000000000000     0.02553880606358
   23     -0.00000000000000     0.00621336601711    -0.00621336601711
   24     -0.00000000000000     0.00000000000000    -0.00000000000000
   25      0.02553880606358     0.02553880606358    -0.00000000000000
   26     -0.00621336601711     0.00000000000000     0.00621336601711
   27     -0.00000000000000    -0.00621336601711     0.00621336601711
   28     -0.00000000000000     0.00000000000000    -0.00000000000000
   29     -0.00621336601711    -0.00621336601711    -0.00000000000000
   30     -0.00621336601711    -0.00000000000000    -0.00621336601711
   31     -0.00000000000000    -0.00621336601711    -0.00621336601711
 frms,max,avg= 1.3352168E-02 2.5538806E-02   0.000E+00  0.000E+00  0.000E+00 h/b
 
 cartesian forces (eV/Angstrom) at end:
    1     -1.31325809925526    -1.31325809925526    -0.00000000000000
    2     -1.31325809925526    -0.00000000000000    -1.31325809925526
    3     -0.00000000000000    -1.31325809925526    -1.31325809925526
    4     -0.00000000000000     0.00000000000000    -0.00000000000000
    5      0.31950409996830     0.31950409996830    -0.00000000000000
    6     -1.31325809925526     0.00000000000000     1.31325809925526
    7     -0.00000000000000    -1.31325809925526     1.31325809925526
    8     -0.00000000000000     0.00000000000000    -0.00000000000000
    9     -1.31325809925526     1.31325809925526    -0.00000000000000
   10      0.31950409996830     0.00000000000000     0.31950409996830
   11     -0.00000000000000     1.31325809925526    -1.31325809925526
   12     -0.00000000000000     0.00000000000000    -0.00000000000000
   13      0.31950409996830    -0.31950409996830    -0.00000000000000
   14      0.31950409996830     0.00000000000000    -0.31950409996830
   15     -0.00000000000000     1.31325809925526     1.31325809925526
   16     -0.00000000000000     0.00000000000000    -0.00000000000000
   17      1.31325809925526    -1.31325809925526    -0.00000000000000
   18      1.31325809925526     0.00000000000000    -1.31325809925526
   19     -0.00000000000000     0.31950409996830     0.31950409996830
   20     -0.00000000000000     0.00000000000000    -0.00000000000000
   21     -0.31950409996830     0.31950409996830    -0.00000000000000
   22      1.31325809925526     0.00000000000000     1.31325809925526
   23     -0.00000000000000     0.31950409996830    -0.31950409996830
   24     -0.00000000000000     0.00000000000000    -0.00000000000000
   25      1.31325809925526     1.31325809925526    -0.00000000000000
   26     -0.31950409996830     0.00000000000000     0.31950409996830
   27     -0.00000000000000    -0.31950409996830     0.31950409996830
   28     -0.00000000000000     0.00000000000000    -0.00000000000000
   29     -0.31950409996830    -0.31950409996830    -0.00000000000000
   30     -0.31950409996830    -0.00000000000000    -0.31950409996830
   31     -0.00000000000000    -0.31950409996830    -0.31950409996830
 frms,max,avg= 6.8659604E-01 1.3132581E+00   0.000E+00  0.000E+00  0.000E+00 e/A
 length scales= 15.340000000000 15.340000000000 15.340000000000 bohr
              =  8.117578379771  8.117578379771  8.117578379771 angstroms
 Fermi (or HOMO) energy (hartree) =   0.39065   Average Vxc (hartree)=  -0.49570
 Eigenvalues (hartree) for nkpt=   1  k points:
 kpt#   1, nband=192, wtk=  1.00000, kpt=  0.0000  0.0000  0.0000 (reduced coord)
  -0.78407   -0.72613   -0.72613   -0.72058   -0.72058   -0.72058   -0.70836   -0.67947
  -0.67947   -0.67317   -0.67317   -0.67317   -0.67314   -0.67290   -0.67290   -0.67290
  -0.66986   -0.66986   -0.66986   -0.66252   -0.66252   -0.66252   -0.63137   -0.61895
  -0.61806   -0.61806   -0.61435   -0.61435   -0.61280   -0.61280   -0.61280   -0.33392
  -0.32895   -0.32895   -0.32895   -0.30077   -0.30077   -0.30077   -0.23773   -0.23661
  -0.23661   -0.23661   -0.23104   -0.23104   -0.23104   -0.23042   -0.23042   -0.23042
  -0.22869   -0.22869   -0.22849   -0.22849   -0.22849   -0.22787   -0.22787   -0.22787
  -0.22437   -0.22437   -0.22437   -0.20403   -0.20403   -0.20403   -0.15899   -0.15899
  -0.15869   -0.15869   -0.15869   -0.15566   -0.14972   -0.14972   -0.14972   -0.14818
  -0.14818   -0.14818   -0.14663   -0.13817   -0.13817   -0.13422   -0.13422   -0.13422
  -0.13048   -0.12298   -0.12298   -0.11521   -0.11521   -0.11521   -0.09752   -0.09752
  -0.09752   -0.07526   -0.07526   -0.07526   -0.03847   -0.03847   -0.03847   -0.03801
  -0.03801   -0.03801   -0.03323   -0.03323   -0.03323   -0.02029   -0.02029   -0.02029
  -0.00436   -0.00436   -0.00436   -0.00269   -0.00233   -0.00233   -0.00233   -0.00192
  -0.00192   -0.00192    0.00264    0.00264    0.00327    0.00327    0.00662    0.00662
   0.00662    0.05262    0.05262    0.05262    0.21684    0.23244    0.23244    0.24537
   0.24537    0.24537    0.31469    0.31855    0.31855    0.32861    0.32861    0.32861
   0.32956    0.36303    0.36303    0.36303    0.36627    0.37805    0.37805    0.37805
   0.38025    0.38025    0.38217    0.38217    0.38217    0.38449    0.38489    0.38489
   0.38489    0.39136    0.39136    0.39212    0.39212    0.39212    0.39404    0.39404
   0.39404    0.40314    0.42650    0.42650    0.46380    0.46386    0.46394    0.46526
   0.46533    0.46536    0.48303    0.48597    0.48611    0.48635    0.49458    0.49813
   0.51043    0.51319    0.52082    0.52914    0.53163    0.53479    0.53621    0.54243
   0.54351    0.54730    0.55852    0.57398    0.58433    0.60148    0.63706    0.72073
      occupation numbers for kpt#   1
   2.00000    2.00000    2.00000    2.00000    2.00000    2.00000    2.00000    2.00000
   2.00000    2.00000    2.00000    2.00000    2.00000    2.00000    2.00000    2.00000
   2.00000    2.00000    2.00000    2.00000    2.00000    2.00000    2.00000    2.00000
   2.00000    2.00000    2.00000    2.00000    2.00000    2.00000    2.00000    2.00000
   2.00000    2.00000    2.00000    2.00000    2.00000    2.00000    2.00000    2.00000
   2.00000    2.00000    2.00000    2.00000    2.00000    2.00000    2.00000    2.00000
   2.00000    2.00000    2.00000    2.00000    2.00000    2.00000    2.00000    2.00000
   2.00000    2.00000    2.00000    2.00000    2.00000    2.00000    2.00000    2.00000
   2.00000    2.00000    2.00000    2.00000    2.00000    2.00000    2.00000    2.00000
   2.00000    2.00000    2.00000    2.00000    2.00000    2.00000    2.00000    2.00000
   2.00000    2.00000    2.00000    2.00000    2.00000    2.00000    2.00000    2.00000
   2.00000    2.00000    2.00000    2.00000    2.00000    2.00000    2.00000    2.00000
   2.00000    2.00000    2.00000    2.00000    2.00000    2.00000    2.00000    2.00000
   2.00000    2.00000    2.00000    2.00000    2.00000    2.00000    2.00000    2.00000
   2.00000    2.00000    2.00000    2.00000    2.00000    2.00000    2.00000    2.00000
   2.00000    2.00000    2.00000    2.00000    2.00000    2.00000    2.00000    2.00000
   2.00000    2.00000    2.00000    2.00000    2.00000    2.00000    2.00000    2.00000
   2.00000    2.00000    2.00000    2.00000    1.99999    1.99632    1.99632    1.99632
   1.98904    1.98904    1.97158    1.97158    1.97158    1.91184    1.89359    1.89359
   1.89358    0.82457    0.82456    0.64791    0.64791    0.64790    0.30965    0.30964
   0.30964    0.00388    0.00000    0.00000    0.00000    0.00000    0.00000    0.00000
   0.00000    0.00000    0.00000    0.00000    0.00000    0.00000    0.00000    0.00000
   0.00000    0.00000    0.00000    0.00000    0.00000    0.00000    0.00000    0.00000
   0.00000    0.00000    0.00000    0.00000    0.00000    0.00000    0.00000    0.00000
 
--------------------------------------------------------------------------------
 Components of total free energy (in Hartree) :
 
    Kinetic energy  =  3.06298585300604E+02
    Hartree energy  =  3.63342047489089E+01
    XC energy       = -1.89095373546874E+02
    Ewald energy    = -9.05896420881061E+02
    PspCore energy  =  1.58170863145425E+02
    Loc. psp. energy= -1.22019061726700E+02
    Spherical terms = -8.41967447036817E+01
    >>>>> Internal E= -8.00403947663378E+02
 
    -kT*entropy     = -2.27523452950802E-02
    >>>>>>>>> Etotal= -8.00426700008673E+02
 
 "Double-counting" decomposition of free energy:
    Band energy     = -4.40502591503759E+01
    Ewald energy    =-9.05896420881061E+02
    PspCore energy  =  1.58170863145425E+02
    Dble-C XC-energy=  1.75596259186756E+01
    Spherical terms = -2.61881467609325E+01
    >>>>> Internal E= -8.00404337728269E+02
 
    -kT*entropy     = -2.27523452950802E-02
    >>>> Etotal (DC)= -8.00427090073564E+02
 
  >Total energy in eV           = -2.17807181857291E+04
  >Total DC energy in eV        = -2.17807287999345E+04
--------------------------------------------------------------------------------
 
 
 
 
 
 Cartesian components of stress tensor (hartree/bohr^3)
  sigma(1 1)= -4.33629281E-03  sigma(3 2)=  0.00000000E+00
  sigma(2 2)= -4.33629281E-03  sigma(3 1)=  0.00000000E+00
  sigma(3 3)= -4.33629281E-03  sigma(2 1)=  0.00000000E+00
 
-Cartesian components of stress tensor (GPa)         [Pressure=  1.2758E+02 GPa]
- sigma(1 1)= -1.27578118E+02  sigma(3 2)=  0.00000000E+00
- sigma(2 2)= -1.27578118E+02  sigma(3 1)=  0.00000000E+00
- sigma(3 3)= -1.27578118E+02  sigma(2 1)=  0.00000000E+00
 
== END DATASET(S) ==============================================================
================================================================================
  
 -outvars: echo values of variables after computation  --------
-          iomode           1
            acell      1.5340000000E+01  1.5340000000E+01  1.5340000000E+01 Bohr
              amu      1.37327000E+02
           bandpp          48
      chksymbreak           0
     densfor_pred           6
             ecut      8.00000000E+00 Hartree
           etotal     -8.0042709007E+02
            fcart     -2.5538806064E-02 -2.5538806064E-02 -2.7979410903E-19
                      -2.5538806064E-02 -1.0970686209E-30 -2.5538806064E-02
                      -1.3989705452E-19 -2.5538806064E-02 -2.5538806064E-02
                      -1.3989705451E-19  0.0000000000E+00 -2.7979410903E-19
                       6.2133660171E-03  6.2133660171E-03 -2.7979410903E-19
                      -2.5538806064E-02  3.2912058627E-30  2.5538806064E-02
                      -1.3989705451E-19 -2.5538806064E-02  2.5538806064E-02
                      -1.3989705451E-19  0.0000000000E+00 -2.7979410903E-19
                      -2.5538806064E-02  2.5538806064E-02 -2.7979410903E-19
                       6.2133660171E-03  5.4853431045E-30  6.2133660171E-03
                      -1.3989705451E-19  2.5538806064E-02 -2.5538806064E-02
                      -1.3989705451E-19  0.0000000000E+00 -2.7979410903E-19
                       6.2133660171E-03 -6.2133660171E-03 -2.7979410903E-19
                       6.2133660171E-03  2.1941372418E-30 -6.2133660171E-03
                      -1.3989705451E-19  2.5538806064E-02  2.5538806064E-02
                      -1.3989705451E-19  0.0000000000E+00 -2.7979410903E-19
                       2.5538806064E-02 -2.5538806064E-02 -2.7979410903E-19
                       2.5538806064E-02  1.0970686209E-30 -2.5538806064E-02
                      -1.3989705451E-19  6.2133660171E-03  6.2133660171E-03
                      -1.3989705451E-19  0.0000000000E+00 -2.7979410903E-19
                      -6.2133660171E-03  6.2133660171E-03 -2.7979410903E-19
                       2.5538806064E-02  1.0970686209E-30  2.5538806064E-02
                      -1.3989705451E-19  6.2133660171E-03 -6.2133660171E-03
                      -1.3989705451E-19  0.0000000000E+00 -2.7979410903E-19
                       2.5538806064E-02  2.5538806064E-02 -2.7979410903E-19
                      -6.2133660171E-03  2.1941372418E-30  6.2133660171E-03
                      -1.3989705451E-19 -6.2133660171E-03  6.2133660171E-03
                      -1.3989705451E-19  0.0000000000E+00 -2.7979410903E-19
                      -6.2133660171E-03 -6.2133660171E-03 -2.7979410903E-19
                      -6.2133660171E-03 -1.0970686209E-30 -6.2133660171E-03
                      -1.3989705451E-19 -6.2133660171E-03 -6.2133660171E-03
-          fftalg         312
           istwfk        1
              ixc           7
           kptopt           0
P           mkmem           1
            natom          31
            nband         192
            ngfft          40      40      40
          ngfftdg          45      45      45
             nkpt           1
-          npband           4
            nstep          40
             nsym          48
           ntypat           1
              occ      2.000000  2.000000  2.000000  2.000000  2.000000  2.000000
                       2.000000  2.000000  2.000000  2.000000  2.000000  2.000000
                       2.000000  2.000000  2.000000  2.000000  2.000000  2.000000
                       2.000000  2.000000  2.000000  2.000000  2.000000  2.000000
                       2.000000  2.000000  2.000000  2.000000  2.000000  2.000000
                       2.000000  2.000000  2.000000  2.000000  2.000000  2.000000
                       2.000000  2.000000  2.000000  2.000000  2.000000  2.000000
                       2.000000  2.000000  2.000000  2.000000  2.000000  2.000000
                       2.000000  2.000000  2.000000  2.000000  2.000000  2.000000
                       2.000000  2.000000  2.000000  2.000000  2.000000  2.000000
                       2.000000  2.000000  2.000000  2.000000  2.000000  2.000000
                       2.000000  2.000000  2.000000  2.000000  2.000000  2.000000
                       2.000000  2.000000  2.000000  2.000000  2.000000  2.000000
                       2.000000  2.000000  2.000000  2.000000  2.000000  2.000000
                       2.000000  2.000000  2.000000  2.000000  2.000000  2.000000
                       2.000000  2.000000  2.000000  2.000000  2.000000  2.000000
                       2.000000  2.000000  2.000000  2.000000  2.000000  2.000000
                       2.000000  2.000000  2.000000  2.000000  2.000000  2.000000
                       2.000000  2.000000  2.000000  2.000000  2.000000  2.000000
                       2.000000  2.000000  2.000000  2.000000  2.000000  2.000000
                       2.000000  2.000000  2.000000  2.000000  2.000000  2.000000
                       2.000000  2.000000  2.000000  2.000000  2.000000  2.000000
                       2.000000  2.000000  2.000000  2.000000  2.000000  1.999998
                       1.999998  1.999998  1.999990  1.996321  1.996321  1.996321
                       1.989040  1.989040  1.971578  1.971577  1.971577  1.911842
                       1.893588  1.893586  1.893585  0.824565  0.824563  0.647908
                       0.647905  0.647898  0.309645  0.309641  0.309638  0.003875
                       0.000000  0.000000  0.000000  0.000000  0.000000  0.000000
                       0.000000  0.000000  0.000000  0.000000  0.000000  0.000000
                       0.000000  0.000000  0.000000  0.000000  0.000000  0.000000
                       0.000000  0.000000  0.000000  0.000000  0.000000  0.000000
                       0.000000  0.000000  0.000000  0.000000  0.000000  0.000000
           occopt           3
        paral_kgb           1
        pawecutdg      1.00000000E+01 Hartree
           prtden           0
           prteig           0
            prtwf           0
          spgroup         221
           strten     -4.3362928147E-03 -4.3362928147E-03 -4.3362928147E-03
                       0.0000000000E+00  0.0000000000E+00  0.0000000000E+00
           symrel      1  0  0   0  1  0   0  0  1      -1  0  0   0 -1  0   0  0 -1
                      -1  0  0   0  1  0   0  0 -1       1  0  0   0 -1  0   0  0  1
                      -1  0  0   0 -1  0   0  0  1       1  0  0   0  1  0   0  0 -1
                       1  0  0   0 -1  0   0  0 -1      -1  0  0   0  1  0   0  0  1
                       0  1  0   1  0  0   0  0  1       0 -1  0  -1  0  0   0  0 -1
                       0 -1  0   1  0  0   0  0 -1       0  1  0  -1  0  0   0  0  1
                       0 -1  0  -1  0  0   0  0  1       0  1  0   1  0  0   0  0 -1
                       0  1  0  -1  0  0   0  0 -1       0 -1  0   1  0  0   0  0  1
                       0  0  1   1  0  0   0  1  0       0  0 -1  -1  0  0   0 -1  0
                       0  0 -1   1  0  0   0 -1  0       0  0  1  -1  0  0   0  1  0
                       0  0 -1  -1  0  0   0  1  0       0  0  1   1  0  0   0 -1  0
                       0  0  1  -1  0  0   0 -1  0       0  0 -1   1  0  0   0  1  0
                       1  0  0   0  0  1   0  1  0      -1  0  0   0  0 -1   0 -1  0
                      -1  0  0   0  0  1   0 -1  0       1  0  0   0  0 -1   0  1  0
                      -1  0  0   0  0 -1   0  1  0       1  0  0   0  0  1   0 -1  0
                       1  0  0   0  0 -1   0 -1  0      -1  0  0   0  0  1   0  1  0
                       0  1  0   0  0  1   1  0  0       0 -1  0   0  0 -1  -1  0  0
                       0 -1  0   0  0  1  -1  0  0       0  1  0   0  0 -1   1  0  0
                       0 -1  0   0  0 -1   1  0  0       0  1  0   0  0  1  -1  0  0
                       0  1  0   0  0 -1  -1  0  0       0 -1  0   0  0  1   1  0  0
                       0  0  1   0  1  0   1  0  0       0  0 -1   0 -1  0  -1  0  0
                       0  0 -1   0  1  0  -1  0  0       0  0  1   0 -1  0   1  0  0
                       0  0 -1   0 -1  0   1  0  0       0  0  1   0  1  0  -1  0  0
                       0  0  1   0 -1  0  -1  0  0       0  0 -1   0  1  0   1  0  0
           timopt          -3
           toldfe      1.00000000E-05 Hartree
           tsmear      2.00000000E-03 Hartree
            typat      1  1  1  1  1  1  1  1  1  1  1  1  1  1  1  1  1  1  1  1
                       1  1  1  1  1  1  1  1  1  1  1
           useylm           1
         wfoptalg           1
           xangst      2.0293945949E+00  2.0293945949E+00  0.0000000000E+00
                       2.0293945949E+00  0.0000000000E+00  2.0293945949E+00
                       0.0000000000E+00  2.0293945949E+00  2.0293945949E+00
                       0.0000000000E+00  0.0000000000E+00  4.0587891899E+00
                       2.0293945949E+00  2.0293945949E+00  4.0587891899E+00
                       2.0293945949E+00  0.0000000000E+00  6.0881837848E+00
                       0.0000000000E+00  2.0293945949E+00  6.0881837848E+00
                       0.0000000000E+00  4.0587891899E+00  0.0000000000E+00
                       2.0293945949E+00  6.0881837848E+00  0.0000000000E+00
                       2.0293945949E+00  4.0587891899E+00  2.0293945949E+00
                       0.0000000000E+00  6.0881837848E+00  2.0293945949E+00
                       0.0000000000E+00  4.0587891899E+00  4.0587891899E+00
                       2.0293945949E+00  6.0881837848E+00  4.0587891899E+00
                       2.0293945949E+00  4.0587891899E+00  6.0881837848E+00
                       0.0000000000E+00  6.0881837848E+00  6.0881837848E+00
                       4.0587891899E+00  0.0000000000E+00  0.0000000000E+00
                       6.0881837848E+00  2.0293945949E+00  0.0000000000E+00
                       6.0881837848E+00  0.0000000000E+00  2.0293945949E+00
                       4.0587891899E+00  2.0293945949E+00  2.0293945949E+00
                       4.0587891899E+00  0.0000000000E+00  4.0587891899E+00
                       6.0881837848E+00  2.0293945949E+00  4.0587891899E+00
                       6.0881837848E+00  0.0000000000E+00  6.0881837848E+00
                       4.0587891899E+00  2.0293945949E+00  6.0881837848E+00
                       4.0587891899E+00  4.0587891899E+00  0.0000000000E+00
                       6.0881837848E+00  6.0881837848E+00  0.0000000000E+00
                       6.0881837848E+00  4.0587891899E+00  2.0293945949E+00
                       4.0587891899E+00  6.0881837848E+00  2.0293945949E+00
                       4.0587891899E+00  4.0587891899E+00  4.0587891899E+00
                       6.0881837848E+00  6.0881837848E+00  4.0587891899E+00
                       6.0881837848E+00  4.0587891899E+00  6.0881837848E+00
                       4.0587891899E+00  6.0881837848E+00  6.0881837848E+00
            xcart      3.8350000000E+00  3.8350000000E+00  0.0000000000E+00
                       3.8350000000E+00  0.0000000000E+00  3.8350000000E+00
                       0.0000000000E+00  3.8350000000E+00  3.8350000000E+00
                       0.0000000000E+00  0.0000000000E+00  7.6700000000E+00
                       3.8350000000E+00  3.8350000000E+00  7.6700000000E+00
                       3.8350000000E+00  0.0000000000E+00  1.1505000000E+01
                       0.0000000000E+00  3.8350000000E+00  1.1505000000E+01
                       0.0000000000E+00  7.6700000000E+00  0.0000000000E+00
                       3.8350000000E+00  1.1505000000E+01  0.0000000000E+00
                       3.8350000000E+00  7.6700000000E+00  3.8350000000E+00
                       0.0000000000E+00  1.1505000000E+01  3.8350000000E+00
                       0.0000000000E+00  7.6700000000E+00  7.6700000000E+00
                       3.8350000000E+00  1.1505000000E+01  7.6700000000E+00
                       3.8350000000E+00  7.6700000000E+00  1.1505000000E+01
                       0.0000000000E+00  1.1505000000E+01  1.1505000000E+01
                       7.6700000000E+00  0.0000000000E+00  0.0000000000E+00
                       1.1505000000E+01  3.8350000000E+00  0.0000000000E+00
                       1.1505000000E+01  0.0000000000E+00  3.8350000000E+00
                       7.6700000000E+00  3.8350000000E+00  3.8350000000E+00
                       7.6700000000E+00  0.0000000000E+00  7.6700000000E+00
                       1.1505000000E+01  3.8350000000E+00  7.6700000000E+00
                       1.1505000000E+01  0.0000000000E+00  1.1505000000E+01
                       7.6700000000E+00  3.8350000000E+00  1.1505000000E+01
                       7.6700000000E+00  7.6700000000E+00  0.0000000000E+00
                       1.1505000000E+01  1.1505000000E+01  0.0000000000E+00
                       1.1505000000E+01  7.6700000000E+00  3.8350000000E+00
                       7.6700000000E+00  1.1505000000E+01  3.8350000000E+00
                       7.6700000000E+00  7.6700000000E+00  7.6700000000E+00
                       1.1505000000E+01  1.1505000000E+01  7.6700000000E+00
                       1.1505000000E+01  7.6700000000E+00  1.1505000000E+01
                       7.6700000000E+00  1.1505000000E+01  1.1505000000E+01
             xred      2.5000000000E-01  2.5000000000E-01  0.0000000000E+00
                       2.5000000000E-01  0.0000000000E+00  2.5000000000E-01
                       0.0000000000E+00  2.5000000000E-01  2.5000000000E-01
                       0.0000000000E+00  0.0000000000E+00  5.0000000000E-01
                       2.5000000000E-01  2.5000000000E-01  5.0000000000E-01
                       2.5000000000E-01  0.0000000000E+00  7.5000000000E-01
                       0.0000000000E+00  2.5000000000E-01  7.5000000000E-01
                       0.0000000000E+00  5.0000000000E-01  0.0000000000E+00
                       2.5000000000E-01  7.5000000000E-01  0.0000000000E+00
                       2.5000000000E-01  5.0000000000E-01  2.5000000000E-01
                       0.0000000000E+00  7.5000000000E-01  2.5000000000E-01
                       0.0000000000E+00  5.0000000000E-01  5.0000000000E-01
                       2.5000000000E-01  7.5000000000E-01  5.0000000000E-01
                       2.5000000000E-01  5.0000000000E-01  7.5000000000E-01
                       0.0000000000E+00  7.5000000000E-01  7.5000000000E-01
                       5.0000000000E-01  0.0000000000E+00  0.0000000000E+00
                       7.5000000000E-01  2.5000000000E-01  0.0000000000E+00
                       7.5000000000E-01  0.0000000000E+00  2.5000000000E-01
                       5.0000000000E-01  2.5000000000E-01  2.5000000000E-01
                       5.0000000000E-01  0.0000000000E+00  5.0000000000E-01
                       7.5000000000E-01  2.5000000000E-01  5.0000000000E-01
                       7.5000000000E-01  0.0000000000E+00  7.5000000000E-01
                       5.0000000000E-01  2.5000000000E-01  7.5000000000E-01
                       5.0000000000E-01  5.0000000000E-01  0.0000000000E+00
                       7.5000000000E-01  7.5000000000E-01  0.0000000000E+00
                       7.5000000000E-01  5.0000000000E-01  2.5000000000E-01
                       5.0000000000E-01  7.5000000000E-01  2.5000000000E-01
                       5.0000000000E-01  5.0000000000E-01  5.0000000000E-01
                       7.5000000000E-01  7.5000000000E-01  5.0000000000E-01
                       7.5000000000E-01  5.0000000000E-01  7.5000000000E-01
                       5.0000000000E-01  7.5000000000E-01  7.5000000000E-01
            znucl       56.00000
 
================================================================================
 
 Test the timer : 
  a combined call timab(*,1,tsec) + timab(*,2,tsec) is 
- CPU time =    7.6004E-06 sec,    Wall time =    7.6373E-06 sec

- Total cpu        time (s,m,h):        887.7       14.79      0.247
- Total wall clock time (s,m,h):       1130.1       18.84      0.314
-
- For major independent code sections, cpu and wall times (sec),
-  as well as % of the time and number of calls for node 0-
-<BEGIN_TIMER mpi_nprocs = 4, omp_nthreads = 1, mpi_rank = 0>
- cpu_time =          216.6, wall_time =          282.5
-
- routine                        cpu     %       wall     %      number of calls  Gflops    Speedup Efficacity
-                                                                  (-1=no count)
- nonlop(apply)                123.151  13.9    162.031  14.3            325      -1.00        0.76       0.76
- fourwf%(pot)                  17.362   2.0     22.656   2.0            125      -1.00        0.77       0.77
- vtowfk(contrib)                7.185   0.8      9.228   0.8             23      -1.00        0.78       0.78
- mkrho/=                        4.368   0.5      5.530   0.5             46      -1.00        0.79       0.79
- pawdenpot                      1.908   0.2      2.266   0.2             23      -1.00        0.84       0.84
- pawmkrho                       1.540   0.2      2.255   0.2             23      -1.00        0.68       0.68
- pspini                         1.249   0.1      1.324   0.1              1      -1.00        0.94       0.94
- chebfi(alltoall)               1.016   0.1      1.376   0.1             50      -1.00        0.74       0.74
- pawdij/symdij                  0.920   0.1      1.120   0.1             23      -1.00        0.82       0.82
- fourdp                         0.898   0.1      1.138   0.1            213      -1.00        0.79       0.79
- pawmkrho:symrhoij              0.779   0.1      1.294   0.1             23      -1.00        0.60       0.60
- ewald                          0.742   0.1      0.795   0.1              1      -1.00        0.93       0.93
- pawinit                        0.574   0.1      0.691   0.1              2      -1.00        0.83       0.83
- stress                         0.458   0.1      0.551   0.0              1      -1.00        0.83       0.83
- vtorho:pawmkrhoij              0.431   0.0      0.565   0.1             23      -1.00        0.76       0.76
- xc:pot/=fourdp                 0.427   0.0      0.499   0.0             24      -1.00        0.86       0.86
- ewald2 (+vdw_dftd)             0.421   0.0      0.460   0.0              1      -1.00        0.91       0.91
- getghc-other                   0.327   0.0      0.456   0.0             -1      -1.00        0.72       0.72
- symrhg(no FFT)                 0.168   0.0      0.263   0.0             23      -1.00        0.64       0.64
- invars2                        0.131   0.0      0.134   0.0              1      -1.00        0.97       0.97
- timing timab                   0.130   0.0      0.130   0.0              8      -1.00        1.00       1.00
- prep_bandfft_tabs              0.087   0.0      0.099   0.0              2      -1.00        0.89       0.89
- forces                         0.084   0.0      0.155   0.0              1      -1.00        0.54       0.54
- abinit(2)                      0.082   0.0      0.084   0.0              1      -1.00        0.98       0.98
- vtowfk  (1)                    0.042   0.0      0.046   0.0             23      -1.00        0.92       0.92
- nhatgrid                       0.039   0.0      0.044   0.0              2      -1.00        0.90       0.90
- newkpt(excl. rwwf   )          0.022   0.0      0.023   0.0             -1      -1.00        0.96       0.96
- setsym                         0.013   0.0      0.014   0.0              1      -1.00        0.93       0.93
- vtowfk(ssdiag)                 0.011   0.0      0.012   0.0             -1      -1.00        0.96       0.96
- scfcv-scprqt                   0.005   0.0      0.013   0.0             23      -1.00        0.36       0.36
- others (105)                   0.000   0.0      0.000   0.0             -1      -1.00        0.74       0.74
-<END_TIMER>
-
- subtotal                     164.569  18.5    215.251  19.0                                  0.76       0.76

- For major independent code sections, cpu and wall times (sec),
- as well as % of the total time and number of calls 

-<BEGIN_TIMER mpi_nprocs = 4, omp_nthreads = 1, mpi_rank = world>
- cpu_time =         887.7, wall_time =        1130.1
-
- routine                         cpu     %       wall     %      number of calls Gflops    Speedup Efficacity
-                                                                  (-1=no count)
- nonlop(apply)                492.763  55.5    630.924  55.8           1300      -1.00        0.78       0.78
- fourwf%(pot)                  70.508   7.9     90.679   8.0            500      -1.00        0.78       0.78
- vtowfk(contrib)               28.349   3.2     38.249   3.4             92      -1.00        0.74       0.74
- mkrho/=                       16.990   1.9     20.949   1.9            184      -1.00        0.81       0.81
- pawdenpot                      7.394   0.8      8.817   0.8             92      -1.00        0.84       0.84
- pawmkrho                       6.691   0.8      8.908   0.8             92      -1.00        0.75       0.75
- pspini                         5.039   0.6      5.296   0.5              4      -1.00        0.95       0.95
- chebfi(alltoall)               4.075   0.5      5.149   0.5            200      -1.00        0.79       0.79
- pawdij/symdij                  3.786   0.4      4.524   0.4             92      -1.00        0.84       0.84
- fourdp                         3.612   0.4      4.629   0.4            852      -1.00        0.78       0.78
- ewald                          2.966   0.3      3.405   0.3              4      -1.00        0.87       0.87
- pawmkrho:symrhoij              2.947   0.3      4.333   0.4             92      -1.00        0.68       0.68
- pawinit                        2.284   0.3      2.777   0.2              8      -1.00        0.82       0.82
- vtorho:pawmkrhoij              1.858   0.2      2.317   0.2             92      -1.00        0.80       0.80
- stress                         1.829   0.2      2.113   0.2              4      -1.00        0.87       0.87
- xc:pot/=fourdp                 1.717   0.2      2.113   0.2             96      -1.00        0.81       0.81
- ewald2 (+vdw_dftd)             1.679   0.2      1.886   0.2              4      -1.00        0.89       0.89
- getghc-other                   1.327   0.1      1.702   0.2             -4      -1.00        0.78       0.78
- symrhg(no FFT)                 0.679   0.1      0.937   0.1             92      -1.00        0.72       0.72
- invars2                        0.526   0.1      0.549   0.0              4      -1.00        0.96       0.96
- timing timab                   0.503   0.1      0.588   0.1             32      -1.00        0.86       0.86
- forces                         0.338   0.0      0.535   0.0              4      -1.00        0.63       0.63
- scfcv-scprqt                   0.323   0.0      0.417   0.0             92      -1.00        0.77       0.77
- abinit(2)                      0.321   0.0      0.332   0.0              4      -1.00        0.97       0.97
- prep_bandfft_tabs              0.282   0.0      0.333   0.0              8      -1.00        0.85       0.85
- vtowfk  (1)                    0.180   0.0      0.222   0.0             92      -1.00        0.81       0.81
- nhatgrid                       0.156   0.0      0.176   0.0              8      -1.00        0.89       0.89
- newkpt(excl. rwwf   )          0.089   0.0      0.091   0.0             -4      -1.00        0.98       0.98
- setsym                         0.054   0.0      0.055   0.0              4      -1.00        0.97       0.97
- vtowfk(ssdiag)                 0.053   0.0      0.071   0.0             -4      -1.00        0.75       0.75
- kpgsph                         0.001   0.0      0.002   0.0              8      -1.00        0.59       0.59
- others (104)                   0.000   0.0      0.000   0.0             -1      -1.00        1.02       1.02
-<END_TIMER>

- subtotal                     659.320  74.3    843.076  74.6                                  0.78       0.78

 Partitioning of abinit
- abinit                       887.662 100.0   1130.119 100.0              4                   0.79       0.79
 
- abinit(2)                      0.321   0.0      0.332   0.0              4                   0.97       0.97
- indefo+macroin+invars2m        0.527   0.1      0.550   0.0              4                   0.96       0.96
- abinit(4)                      0.965   0.1      1.113   0.1              4                   0.87       0.87
- abinit(5)                      0.508   0.1      0.569   0.1              4                   0.89       0.89
- driver                       885.666  99.8   1127.800  99.8              4                   0.79       0.79
- timing timab                   0.503   0.1      0.588   0.1             32                   0.86       0.86

- subtotal                     887.662 100.0   1130.119 100.0                                  0.79       0.79

 Partitioning of driver
- driver                       885.666  99.8   1127.800  99.8              4                   0.79       0.79
 
- gstateimg                    885.596  99.8   1127.696  99.8              4                   0.79       0.79

- subtotal                     885.666  99.8   1127.800  99.8                                  0.79       0.79

 Partitioning of gstateimg+gstate
- gstateimg                    885.596  99.8   1127.696  99.8              4                   0.79       0.79
 
- gstate(pspini)                 5.039   0.6      5.296   0.5              4                   0.95       0.95
- gstate  (2)                    1.460   0.2      1.902   0.2              4                   0.77       0.77
- gstate(...scfcv)             878.740  99.0   1120.061  99.1              4                   0.78       0.78

- subtotal                     885.595  99.8   1127.695  99.8                                  0.79       0.79

 Partitioning of scfcv_core
- scfcv_core                   878.739  99.0   1120.061  99.1              4                   0.78       0.78
 
- scfcv_core(iniloop, setv       3.322   0.4      3.797   0.3             92                   0.87       0.87
- scfcv_core(loop, PAW)         11.230   1.3     13.429   1.2             92                   0.84       0.84
- scfcv_core(vtorho(f))        828.837  93.4   1059.320  93.7             92                   0.78       0.78
- scfcv-scprqt                   0.323   0.0      0.417   0.0             92                   0.77       0.77
- scfcv_core(mix den - new       2.862   0.3      3.896   0.3             88                   0.73       0.73
- scfcv_core(rhotov)             4.011   0.5      4.910   0.4             88                   0.82       0.82
- scfcv_core(qui loop)           0.208   0.0      0.246   0.0             92                   0.84       0.84
- scfcv_core(afterscfloop)      27.778   3.1     33.750   3.0              4                   0.82       0.82

- subtotal                     878.739  99.0   1120.061  99.1                                  0.78       0.78

 Partitioning of rhotov
- rhotov                         2.660   0.3      3.289   0.3             88                   0.81       0.81
 
- rhotov(rhotoxc)                1.656   0.2      2.049   0.2             88                   0.81       0.81
- rhotov(other)                  0.387   0.0      0.455   0.0             88                   0.85       0.85
- (other)                        0.577   0.1      0.741   0.1             -1                   0.78       0.78

- subtotal                       2.660   0.3      3.289   0.3                                  0.81       0.81

 Partitioning of vtorho
- vtorho                       828.834  93.4   1059.317  93.7             92                   0.78       0.78
 
- vtorho(bef. spin loop)         0.860   0.1      0.990   0.1             92                   0.87       0.87
- vtorho(bef. kpt  loop)         1.181   0.1      1.448   0.1             92                   0.82       0.82
- vtorho(bef. vtowfk)            1.993   0.2      2.544   0.2             92                   0.78       0.78
- vtowfk                       792.728  89.3   1013.576  89.7             92                   0.78       0.78
- vtorho(newocc)                 5.075   0.6      6.635   0.6             92                   0.76       0.76
- vtorho(mkrho 1)               18.182   2.0     22.560   2.0             92                   0.81       0.81
- vtorho(mkrho 2)                8.736   1.0     11.479   1.0             92                   0.76       0.76
- mkinvovl                       1.824   0.2      2.308   0.2              4                   0.79       0.79

- subtotal                     828.834  93.4   1059.317  93.7                                  0.78       0.78

 Partitioning of vtowfk
- vtowfk                       792.728  89.3   1013.576  89.7             92                   0.78       0.78
 
- prep_nonlop%vtowfk            27.427   3.1     37.064   3.3             92                   0.74       0.74
- vtowfk(3)                      0.922   0.1      1.185   0.1             -4                   0.78       0.78
- chebfi                       764.145  86.1    975.034  86.3            100                   0.78       0.78

- subtotal                     792.728  89.3   1013.576  89.7                                  0.78       0.78

 Partitioning of getghc
- getghc                       314.969  35.5    399.997  35.4            500                   0.79       0.79
 
- fourwf%getghc                 70.508   7.9     90.679   8.0            500                   0.78       0.78
- nonlop%getghc                243.135  27.4    307.616  27.2            500                   0.79       0.79
- getghc-other                   1.327   0.1      1.702   0.2             -4                   0.78       0.78

- subtotal                     314.969  35.5    399.997  35.4                                  0.79       0.79

 Partitioning of fourwf (upwards partitioning)
- fourwf                        76.425   8.6     98.345   8.7           4244                   0.78       0.78
 
- fourwf%getghc                 70.508   7.9     90.679   8.0            500                   0.78       0.78
- fourwf%prep_four               5.918   0.7      7.666   0.7           3744                   0.77       0.77

- subtotal                      76.425   8.6     98.345   8.7                                  0.78       0.78

 Partitioning of prep_getghc
- prep_getghc                  321.539  36.2    408.594  36.2            500                   0.79       0.79
 
- prep_getghc(before if)         4.167   0.5      5.502   0.5            500                   0.76       0.76
- prep_getghc(getghc - 2 )     315.849  35.6    401.240  35.5            500                   0.79       0.79
- (other)                        1.523   0.2      1.851   0.2             -1                   0.82       0.82

- subtotal                     321.539  36.2    408.594  36.2                                  0.79       0.79

 Partitioning of prep_fourwf
- prep_fourwf                   13.853   1.6     17.181   1.5             92                   0.81       0.81
 
- fourwf%prep_four               5.918   0.7      7.666   0.7           3744                   0.77       0.77
- alltoall%prep_fo               7.582   0.9      9.021   0.8             92                   0.84       0.84

- subtotal                      13.500   1.5     16.687   1.5                                  0.81       0.81

 Partitioning of prep_nonlop
- prep_nonlop                  304.398  34.3    393.749  34.8            896                   0.77       0.77
 
- nonlop%prep_nonl%vtowfk       26.277   3.0     35.510   3.1             92                   0.74       0.74
- nonlop%prep_nonl%forstrn      24.107   2.7     29.405   2.6              4                   0.82       0.82
- prep_nonlop(alltoall)          0.835   0.1      1.061   0.1             96                   0.79       0.79
- (other)                      253.179  28.5    327.773  29.0             -1                   0.77       0.77

- subtotal                     304.398  34.3    393.749  34.8                                  0.77       0.77

 Partitioning of mkrho (upwards partitioning)
- mkrho                         18.180   2.0     22.558   2.0             92                   0.81       0.81
 
- mkrho%vtorho                  18.180   2.0     22.558   2.0             92                   0.81       0.81

- subtotal                      18.180   2.0     22.558   2.0                                  0.81       0.81

 Partitioning of inwffil
- inwffil                        0.089   0.0      0.091   0.0              4                   0.98       0.98
 

- subtotal                       0.089   0.0      0.091   0.0                                  0.98       0.98

 Partitioning of newkpt
- newkpt                         0.089   0.0      0.091   0.0              4                   0.98       0.98
 

- subtotal                       0.089   0.0      0.091   0.0                                  0.98       0.98

 Partitioning of newrho
- newrho                         2.861   0.3      3.894   0.3             88                   0.73       0.73
 
- fourdp%newrho                  0.883   0.1      1.119   0.1            176                   0.79       0.79

- subtotal                       0.883   0.1      1.119   0.1                                  0.79       0.79

 Partitioning of  fourdp (upwards partitioning)
- fourdp                         3.612   0.4      4.629   0.4            852                   0.78       0.78
 
- fourdp%(other)                 2.729   0.3      3.510   0.3            676                   0.78       0.78
- fourdp%newrho                  0.883   0.1      1.119   0.1            176                   0.79       0.79

- subtotal                       3.612   0.4      4.629   0.4                                  0.78       0.78

 Partitioning of afterscfloop
- afterscfloop                  27.778   3.1     33.750   3.0              4                   0.82       0.82
 
- afterscfloop(forstr)          27.632   3.1     33.594   3.0              4                   0.82       0.82

- subtotal                      27.778   3.1     33.750   3.0                                  0.82       0.82

 Partitioning of forstr
- forstr                        27.510   3.1     33.456   3.0              4                   0.82       0.82
 
- forstr(forstrnps)             25.235   2.8     30.669   2.7              4                   0.82       0.82
- forstr(forces)                 0.390   0.0      0.616   0.1              4                   0.63       0.63
- forstr(stress)                 1.829   0.2      2.113   0.2              4                   0.87       0.87

- subtotal                      27.509   3.1     33.456   3.0                                  0.82       0.82

 Partitioning of forstrnps
- forstrnps                     25.235   2.8     30.669   2.7              4                   0.82       0.82
 
- forstrnps(nonlop+prep_ba      24.913   2.8     30.306   2.7              4                   0.82       0.82

- subtotal                      25.235   2.8     30.669   2.7                                  0.82       0.82

 Partitioning of outscfcv
- outscfcv                       0.108   0.0      0.166   0.0              4                   0.65       0.65
 

- subtotal                       0.098   0.0      0.156   0.0                                  0.63       0.63

 Partitioning of chebfi
- chebfi                       764.145  86.1    975.034  86.3            100                   0.78       0.78
 
- chebfi(getghc)               321.556  36.2    408.601  36.2            500                   0.79       0.79
- chebfi(opernla)              114.090  12.9    148.446  13.1            400                   0.77       0.77
- chebfi(opernlb)              138.276  15.6    178.292  15.8            400                   0.78       0.78
- chebfi(inv_s)                100.280  11.3    130.290  11.5            400                   0.77       0.77
- chebfi(alltoall)               4.075   0.5      5.149   0.5            200                   0.79       0.79
- chebfi(subdiago)              20.098   2.3     24.272   2.1            100                   0.83       0.83
- chebfi(subham)                11.676   1.3     14.221   1.3            100                   0.82       0.82
- chebfi(residuals)              3.151   0.4      3.724   0.3            100                   0.85       0.85
- chebfi(update_eigens)          0.879   0.1      1.051   0.1            100                   0.84       0.84
- chebfi(sync)                  40.207   4.5     48.396   4.3            200                   0.83       0.83

- subtotal                     754.287  85.0    962.442  85.2                                  0.78       0.78

 Partitioning of mkinvovl
- mkinvovl                       1.824   0.2      2.308   0.2              4                   0.79       0.79
 
- mkinvovl(build_d)              0.207   0.0      0.270   0.0              4                   0.77       0.77
- mkinvovl(build_ptp)            1.617   0.2      2.038   0.2              4                   0.79       0.79

- subtotal                       1.824   0.2      2.308   0.2                                  0.79       0.79
-
-Synchronisation (=leave_test) and MPI calls 
- communic.MPI                   9.252   1.0     10.538   0.9           1056                   0.88       0.88
-
- forstrnps:synchr               0.000   0.0      0.000   0.0              8                   1.75       1.75
- mkrho :MPIrhor                 0.001   0.0      0.001   0.0             92                   0.90       0.90
- subtotal                       0.001   0.0      0.001   0.0                                  0.93       0.93

 Additional information
- timana(1)                      0.000   0.0      0.000   0.0              4                   0.55       0.55
- total timab                    0.677   0.1      0.791   0.1          91968                   0.86       0.86
- fourwf                        76.425   8.6     98.345   8.7           4244                   0.78       0.78
- newocc                         5.074   0.6      6.634   0.6             92                   0.76       0.76
- nonlop(total)                543.147  61.2    695.839  61.6           1396                   0.78       0.78

 Additional information about PAW segments
- forces:pawatm2ff               0.187   0.0      0.263   0.0              4                   0.71       0.71
- stress:pawatm2ff               0.140   0.0      0.194   0.0              4                   0.72       0.72
- setvtr:pawatm2ff               0.143   0.0      0.150   0.0              4                   0.95       0.95
- pawinit                        2.284   0.3      2.777   0.2              8                   0.82       0.82
- vtowfk:rhoij                  27.429   3.1     37.065   3.3             92                   0.74       0.74
- vtorho:pawmkrhoij              1.858   0.2      2.317   0.2             92                   0.80       0.80
- pawmkrho                       6.691   0.8      8.908   0.8             92                   0.75       0.75
- scfcv_core:mknhat              1.435   0.2      1.728   0.2             92                   0.83       0.83
- nhatgrid                       0.156   0.0      0.176   0.0              8                   0.89       0.89
- pawdenpot                      7.394   0.8      8.817   0.8             92                   0.84       0.84
- pawdij/symdij                  3.786   0.4      4.524   0.4             92                   0.84       0.84


 Detailed analysis of some time consuming routines 
                                  tcpu    ncalls  tcpu/ncalls    ndata tcpu/ncalls/ndata
                                 (sec)                (msec)              (microsec)
- fourwf%(pot)                  70.508       500     141.016    128000       1.102
- fourwf%(den)                   0.000         0
- fourdp                         3.612       852       4.239     64000       0.066
- nonlop(apply)                492.763      1300     379.049     30132      12.580
- nonlop(forces)                 0.000         0
- nonlop(forstr)                 0.000         0
- projbd                         0.000         0
- xc:pot/=fourdp                 1.717        96      17.887     64000       0.279

================================================================================

 Suggested references for the acknowledgment of ABINIT usage.

 The users of ABINIT have little formal obligations with respect to the ABINIT group
 (those specified in the GNU General Public License, http://www.gnu.org/copyleft/gpl.txt).
 However, it is common practice in the scientific literature,
 to acknowledge the efforts of people that have made the research possible.
 In this spirit, please find below suggested citations of work written by ABINIT developers,
 corresponding to implementations inside of ABINIT that you have used in the present run.
 Note also that it will be of great value to readers of publications presenting these results,
 to read papers enabling them to understand the theoretical formalism and details
 of the ABINIT implementation.
 For information on why they are suggested, see also https://docs.abinit.org/theory/acknowledgments.
-
- [1] Parallel eigensolvers in plane-wave Density Functional Theory
- A. Levitt and M. Torrent, Computer Phys. Comm. 187, 98-105 (2015).
- Comment : in case Chebyshev Filtering algorithm is used (wfoptalg=1).
- Strong suggestion to cite this paper in your publications.
- DOI and bibtex : see https://docs.abinit.org/theory/bibliography/#levitt2015
-
- [2] Implementation of the Projector Augmented-Wave Method in the ABINIT code.
- M. Torrent, F. Jollet, F. Bottin, G. Zerah, and X. Gonze Comput. Mat. Science 42, 337, (2008).
- Comment : PAW calculations. Strong suggestion to cite this paper.
- DOI and bibtex : see https://docs.abinit.org/theory/bibliography/#torrent2008
-
- [3] Recent developments in the ABINIT software package.
- Computer Phys. Comm. 205, 106 (2016).
- X.Gonze, F.Jollet, F.Abreu Araujo, D.Adams, B.Amadon, T.Applencourt,
- C.Audouze, J.-M.Beuken, J.Bieder, A.Bokhanchuk, E.Bousquet, F.Bruneval
- D.Caliste, M.Cote, F.Dahm, F.Da Pieve, M.Delaveau, M.Di Gennaro,
- B.Dorado, C.Espejo, G.Geneste, L.Genovese, A.Gerossier, M.Giantomassi,
- Y.Gillet, D.R.Hamann, L.He, G.Jomard, J.Laflamme Janssen, S.Le Roux,
- A.Levitt, A.Lherbier, F.Liu, I.Lukacevic, A.Martin, C.Martins,
- M.J.T.Oliveira, S.Ponce, Y.Pouillon, T.Rangel, G.-M.Rignanese,
- A.H.Romero, B.Rousseau, O.Rubel, A.A.Shukri, M.Stankovski, M.Torrent,
- M.J.Van Setten, B.Van Troeye, M.J.Verstraete, D.Waroquier, J.Wiktor,
- B.Xu, A.Zhou, J.W.Zwanziger.
- Comment : the fourth generic paper describing the ABINIT project.
- Note that a version of this paper, that is not formatted for Computer Phys. Comm. 
- is available at https://www.abinit.org/about/ABINIT16.pdf .
- The licence allows the authors to put it on the Web.
- DOI and bibtex : see https://docs.abinit.org/theory/bibliography/#gonze2016
-
- [4] ABINIT : First-principles approach of materials and nanosystem properties.
- Computer Phys. Comm. 180, 2582-2615 (2009).
- X. Gonze, B. Amadon, P.-M. Anglade, J.-M. Beuken, F. Bottin, P. Boulanger, F. Bruneval,
- D. Caliste, R. Caracas, M. Cote, T. Deutsch, L. Genovese, Ph. Ghosez, M. Giantomassi
- S. Goedecker, D.R. Hamann, P. Hermet, F. Jollet, G. Jomard, S. Leroux, M. Mancini, S. Mazevet,
- M.J.T. Oliveira, G. Onida, Y. Pouillon, T. Rangel, G.-M. Rignanese, D. Sangalli, R. Shaltaf,
- M. Torrent, M.J. Verstraete, G. Zerah, J.W. Zwanziger
- Comment : the third generic paper describing the ABINIT project.
- Note that a version of this paper, that is not formatted for Computer Phys. Comm. 
- is available at https://www.abinit.org/about/ABINIT_CPC_v10.pdf .
- The licence allows the authors to put it on the Web.
- DOI and bibtex : see https://docs.abinit.org/theory/bibliography/#gonze2009
-
- [5] A brief introduction to the ABINIT software package.
- Z. Kristallogr. 220, 558-562 (2005).
- X. Gonze, G.-M. Rignanese, M. Verstraete, J.-M. Beuken, Y. Pouillon, R. Caracas, F. Jollet,
- M. Torrent, G. Zerah, M. Mikami, Ph. Ghosez, M. Veithen, J.-Y. Raty, V. Olevano, F. Bruneval,
- L. Reining, R. Godby, G. Onida, D.R. Hamann, and D.C. Allan.
- Comment : the second generic paper describing the ABINIT project. Note that this paper
- should be cited especially if you are using the GW part of ABINIT, as several authors
- of this part are not in the list of authors of the first or third paper.
- The .pdf of the latter paper is available at https://www.abinit.org/about/zfk_0505-06_558-562.pdf.
- Note that it should not redistributed (Copyright by Oldenburg Wissenshaftverlag,
- the licence allows the authors to put it on the Web).
- DOI and bibtex : see https://docs.abinit.org/theory/bibliography/#gonze2005
-
- Proc.   0 individual time (sec): cpu=        216.7  wall=        282.6
 
================================================================================
 
 Calculation completed.
.Delivered   0 WARNINGs and   0 COMMENTs to log file.
+Overall time at end (sec) : cpu=        887.8  wall=       1130.3
